Title t=  43.00000 step= 21500
44389
    1GLY      N    1   5.429   3.946   1.882
    1GLY    HT1    2   5.329   3.919   1.876
    1GLY    HT2    3   5.474   3.919   1.792
    1GLY    HT3    4   5.443   4.049   1.881
    1GLY     CA    5   5.498   3.893   1.998
    1GLY    HA1    6   5.421   3.917   2.070
    1GLY    HA2    7   5.600   3.927   2.014
    1GLY      C    8   5.503   3.740   1.994
    1GLY      O    9   5.477   3.676   1.892
    2PRO      N   10   5.544   3.682   2.101
    2PRO     CD   11   5.604   3.761   2.217
    2PRO    HD1   12   5.528   3.833   2.253
    2PRO    HD2   13   5.697   3.816   2.191
    2PRO     CA   14   5.544   3.535   2.128
    2PRO     HA   15   5.629   3.494   2.075
    2PRO     CB   16   5.557   3.529   2.278
    2PRO    HB1   17   5.599   3.434   2.317
    2PRO    HB2   18   5.462   3.552   2.332
    2PRO     CG   19   5.641   3.655   2.323
    2PRO    HG1   20   5.607   3.681   2.426
    2PRO    HG2   21   5.746   3.621   2.328
    2PRO      C   22   5.423   3.456   2.085
    2PRO      O   23   5.317   3.507   2.087
    3GLY      N   24   5.446   3.331   2.038
    3GLY     HN   25   5.541   3.302   2.042
    3GLY     CA   26   5.349   3.241   1.979
    3GLY    HA1   27   5.265   3.297   1.939
    3GLY    HA2   28   5.317   3.171   2.055
    3GLY      C   29   5.399   3.165   1.868
    3GLY      O   30   5.500   3.197   1.806
    4ASP      N   31   5.331   3.052   1.831
    4ASP     HN   32   5.246   3.028   1.879
    4ASP     CA   33   5.358   2.960   1.720
    4ASP     HA   34   5.440   2.903   1.761
    4ASP     CB   35   5.242   2.860   1.708
    4ASP    HB1   36   5.238   2.798   1.616
    4ASP    HB2   37   5.150   2.921   1.695
    4ASP     CG   38   5.226   2.776   1.834
    4ASP    OD1   39   5.327   2.737   1.897
    4ASP    OD2   40   5.113   2.725   1.850
    4ASP      C   41   5.404   3.019   1.584
    4ASP      O   42   5.369   3.135   1.561
    5PRO      N   43   5.484   2.942   1.504
    5PRO     CD   44   5.538   2.808   1.529
    5PRO    HD1   45   5.454   2.737   1.547
    5PRO    HD2   46   5.605   2.812   1.618
    5PRO     CA   47   5.500   2.969   1.365
    5PRO     HA   48   5.579   3.042   1.363
    5PRO     CB   49   5.535   2.835   1.295
    5PRO    HB1   50   5.595   2.845   1.202
    5PRO    HB2   51   5.441   2.779   1.273
    5PRO     CG   52   5.607   2.764   1.401
    5PRO    HG1   53   5.591   2.654   1.399
    5PRO    HG2   54   5.713   2.790   1.418
    5PRO      C   55   5.394   3.037   1.271
    5PRO      O   56   5.276   3.007   1.268
    6GLY      N   57   5.436   3.125   1.177
    6GLY     HN   58   5.531   3.153   1.179
    6GLY     CA   59   5.342   3.187   1.072
    6GLY    HA1   60   5.325   3.107   1.002
    6GLY    HA2   61   5.398   3.270   1.031
    6GLY      C   62   5.210   3.250   1.118
    6GLY      O   63   5.201   3.327   1.215
    7SER      N   64   5.104   3.223   1.037
    7SER     HN   65   5.127   3.185   0.948
    7SER     CA   66   4.969   3.271   1.057
    7SER     HA   67   4.967   3.379   1.060
    7SER     CB   68   4.876   3.232   0.942
    7SER    HB1   69   4.767   3.249   0.959
    7SER    HB2   70   4.873   3.122   0.927
    7SER     OG   71   4.922   3.296   0.820
    7SER    HG1   72   4.999   3.249   0.787
    7SER      C   73   4.919   3.238   1.198
    7SER      O   74   4.902   3.120   1.225
    8GLY      N   75   4.898   3.336   1.283
    8GLY     HN   76   4.931   3.429   1.266
    8GLY     CA   77   4.833   3.322   1.417
    8GLY    HA1   78   4.854   3.418   1.462
    8GLY    HA2   79   4.869   3.231   1.464
    8GLY      C   80   4.683   3.317   1.408
    8GLY      O   81   4.628   3.292   1.305
    9ASN      N   82   4.617   3.338   1.522
    9ASN     HN   83   4.665   3.373   1.602
    9ASN     CA   84   4.479   3.350   1.538
    9ASN     HA   85   4.429   3.267   1.491
    9ASN     CB   86   4.448   3.349   1.692
    9ASN    HB1   87   4.474   3.449   1.734
    9ASN    HB2   88   4.500   3.268   1.749
    9ASN     CG   89   4.298   3.315   1.716
    9ASN    OD1   90   4.230   3.245   1.646
    9ASN    ND2   91   4.252   3.359   1.835
    9ASN   HD21   92   4.160   3.334   1.865
    9ASN   HD22   93   4.303   3.429   1.886
    9ASN      C   94   4.428   3.472   1.461
    9ASN      O   95   4.464   3.582   1.492
   10PRO      N   96   4.328   3.480   1.370
   10PRO     CD   97   4.269   3.364   1.315
   10PRO    HD1   98   4.189   3.354   1.392
   10PRO    HD2   99   4.328   3.270   1.307
   10PRO     CA  100   4.254   3.598   1.330
   10PRO     HA  101   4.330   3.654   1.278
   10PRO     CB  102   4.140   3.545   1.237
   10PRO    HB1  103   4.115   3.624   1.163
   10PRO    HB2  104   4.048   3.531   1.298
   10PRO     CG  105   4.200   3.406   1.190
   10PRO    HG1  106   4.118   3.336   1.163
   10PRO    HG2  107   4.274   3.421   1.108
   10PRO      C  108   4.206   3.689   1.440
   10PRO      O  109   4.141   3.653   1.537
   11GLY      N  110   4.233   3.817   1.424
   11GLY     HN  111   4.270   3.843   1.334
   11GLY     CA  112   4.181   3.929   1.500
   11GLY    HA1  113   4.073   3.934   1.498
   11GLY    HA2  114   4.234   4.013   1.459
   11GLY      C  115   4.219   3.925   1.642
   11GLY      O  116   4.312   3.855   1.678
   12SER      N  117   4.151   4.006   1.722
   12SER     HN  118   4.092   4.077   1.684
   12SER     CA  119   4.162   4.014   1.868
   12SER     HA  120   4.157   3.910   1.897
   12SER     CB  121   4.293   4.090   1.916
   12SER    HB1  122   4.378   4.035   1.871
   12SER    HB2  123   4.292   4.078   2.026
   12SER     OG  124   4.299   4.228   1.869
   12SER    HG1  125   4.240   4.272   1.931
   12SER      C  126   4.040   4.056   1.945
   12SER      O  127   3.960   4.137   1.891
   13GLY      N  128   4.017   4.010   2.063
   13GLY     HN  129   4.070   3.931   2.094
   13GLY     CA  130   3.931   4.072   2.158
   13GLY    HA1  131   3.926   4.175   2.128
   13GLY    HA2  132   3.965   4.047   2.257
   13GLY      C  133   3.789   4.024   2.151
   13GLY      O  134   3.725   4.037   2.049
   14ASP      N  135   3.736   3.968   2.268
   14ASP     HN  136   3.805   3.947   2.337
   14ASP     CA  137   3.598   3.942   2.309
   14ASP     HA  138   3.570   3.854   2.252
   14ASP     CB  139   3.589   3.904   2.454
   14ASP    HB1  140   3.490   3.866   2.488
   14ASP    HB2  141   3.602   3.995   2.515
   14ASP     CG  142   3.709   3.812   2.482
   14ASP    OD1  143   3.708   3.691   2.445
   14ASP    OD2  144   3.803   3.858   2.550
   14ASP      C  145   3.502   4.052   2.266
   14ASP      O  146   3.554   4.163   2.251
   15PRO      N  147   3.371   4.028   2.246
   15PRO     CD  148   3.307   3.892   2.227
   15PRO    HD1  149   3.337   3.831   2.315
   15PRO    HD2  150   3.345   3.843   2.134
   15PRO     CA  151   3.272   4.130   2.211
   15PRO     HA  152   3.314   4.187   2.129
   15PRO     CB  153   3.143   4.060   2.176
   15PRO    HB1  154   3.140   4.059   2.065
   15PRO    HB2  155   3.048   4.108   2.210
   15PRO     CG  156   3.149   3.908   2.220
   15PRO    HG1  157   3.113   3.880   2.321
   15PRO    HG2  158   3.115   3.840   2.139
   15PRO      C  159   3.240   4.242   2.313
   15PRO    OT1  160   3.213   4.207   2.433
   15PRO    OT2  161   3.226   4.361   2.278
   16SOD    SOD  162   4.899   3.994   1.491
   17SOD    SOD  163   1.654   3.751   1.558
   18SOD    SOD  164   2.547   5.650   3.743
   19SOD    SOD  165   7.032   3.725   4.330
   20SOD    SOD  166   3.577   1.445   1.858
   21SOD    SOD  167   6.601   1.574   5.766
   22SOD    SOD  168   6.034   4.746   5.982
   23SOD    SOD  169   7.809   7.236   5.297
   24SOD    SOD  170   0.205   7.220   0.428
   25SOD    SOD  171   5.684   6.666   5.665
   26SOD    SOD  172   0.260   2.981   4.501
   27SOD    SOD  173   0.592   3.820   5.566
   28SOD    SOD  174   0.060   1.595   4.844
   29SOD    SOD  175   5.263   4.031   6.587
   30SOD    SOD  176   2.158   0.190   3.603
   31SOD    SOD  177   3.305   3.537   0.329
   32SOD    SOD  178   1.908   7.591   4.254
   33SOD    SOD  179   6.291   4.951   2.378
   34SOD    SOD  180   5.473   1.474   0.297
   35SOD    SOD  181   7.830   4.514   0.587
   36SOD    SOD  182   1.805   3.225   0.237
   37SOD    SOD  183   6.682   4.515   3.413
   38SOD    SOD  184   7.534   1.186   5.227
   39SOD    SOD  185   3.844   3.268   2.593
   40SOD    SOD  186   3.110   4.483   5.517
   41SOD    SOD  187   7.353   1.949   1.484
   42SOD    SOD  188   8.279   6.192   2.469
   43SOD    SOD  189   6.359   3.733   5.241
   44SOD    SOD  190   2.831   5.607   0.213
   45SOD    SOD  191   2.871   2.734   0.326
   46SOD    SOD  192   2.462   2.446   4.206
   47SOD    SOD  193   4.737   6.380   3.516
   48SOD    SOD  194   2.393   1.004   4.576
   49SOD    SOD  195   8.241   0.637   1.508
   50SOD    SOD  196   4.542   3.623   4.513
   51SOD    SOD  197   2.449   0.545   5.463
   52SOD    SOD  198   4.368   5.157   5.965
   53SOD    SOD  199   0.043   4.341   6.303
   54SOD    SOD  200   0.110   4.045   3.760
   55SOD    SOD  201   0.612   5.772   3.657
   56SOD    SOD  202   2.512   2.785   3.789
   57SOD    SOD  203   6.980   0.361   5.023
   58SOD    SOD  204   7.580   7.697   0.899
   59SOD    SOD  205   2.601   4.305   2.769
   60CLA    CLA  206   3.025   0.931   2.483
   61CLA    CLA  207   4.439   0.129   4.012
   62CLA    CLA  208   2.151   2.025   6.163
   63CLA    CLA  209   3.752   0.640   0.709
   64CLA    CLA  210   7.273   3.219   5.557
   65CLA    CLA  211   5.148   1.719   0.338
   66CLA    CLA  212   1.951   6.423   1.841
   67CLA    CLA  213   6.744   1.367   5.418
   68CLA    CLA  214   4.670   5.191   5.485
   69CLA    CLA  215   3.550   5.023   1.551
   70CLA    CLA  216   0.888   1.225   2.513
   71CLA    CLA  217   2.537   7.710   5.374
   72CLA    CLA  218   2.913   4.447   0.434
   73CLA    CLA  219   0.240   5.640   4.278
   74CLA    CLA  220   6.195   5.212   5.700
   75CLA    CLA  221   3.287   0.277   5.113
   76CLA    CLA  222   6.958   1.046   1.141
   77CLA    CLA  223   6.602   7.429   0.522
   78CLA    CLA  224   4.008   2.096   5.414
   79CLA    CLA  225   4.794   4.924   1.365
   80CLA    CLA  226   1.435   3.943   6.595
   81CLA    CLA  227   2.522   1.128   3.082
   82CLA    CLA  228   0.168   4.729   5.020
   83CLA    CLA  229   7.889   6.001   4.605
   84CLA    CLA  230   7.264   3.753   3.833
   85CLA    CLA  231   1.667   0.530   6.393
   86CLA    CLA  232   7.705   7.210   2.918
   87CLA    CLA  233   1.088   2.345   6.743
   88CLA    CLA  234   0.060   6.394   3.177
   89CLA    CLA  235   3.983   2.243   2.648
   90CLA    CLA  236   4.848   5.335   2.595
   91CLA    CLA  237   5.547   5.753   2.014
   92CLA    CLA  238   6.971   0.514   2.327
   93CLA    CLA  239   6.483   4.916   2.776
   94CLA    CLA  240   5.005   4.875   6.442
   95CLA    CLA  241   0.738   3.992   4.771
   96CLA    CLA  242   1.504   6.877   4.145
   97CLA    CLA  243   1.026   0.029   3.915
   98CLA    CLA  244   7.153   6.905   3.316
   99CLA    CLA  245   3.138   5.083   3.501
  100CLA    CLA  246   3.158   6.897   4.624
  101CLA    CLA  247   7.258   1.147   4.776
  102TIP3   OH2  248   5.618   5.591   3.671
  102TIP3    H1  249   5.622   5.575   3.765
  102TIP3    H2  250   5.528   5.621   3.656
  103TIP3   OH2  251   3.354   3.044   5.393
  103TIP3    H1  252   3.365   3.117   5.332
  103TIP3    H2  253   3.426   2.985   5.371
  104TIP3   OH2  254   4.325   6.586   4.774
  104TIP3    H1  255   4.303   6.675   4.746
  104TIP3    H2  256   4.395   6.558   4.714
  105TIP3   OH2  257   1.999   2.809   4.807
  105TIP3    H1  258   2.083   2.850   4.827
  105TIP3    H2  259   2.013   2.766   4.723
  106TIP3   OH2  260   6.669   4.960   2.048
  106TIP3    H1  261   6.752   4.940   2.004
  106TIP3    H2  262   6.606   4.900   2.009
  107TIP3   OH2  263   6.866   3.640   4.458
  107TIP3    H1  264   6.878   3.610   4.548
  107TIP3    H2  265   6.848   3.733   4.466
  108TIP3   OH2  266   5.630   0.902   2.077
  108TIP3    H1  267   5.641   0.922   2.170
  108TIP3    H2  268   5.663   0.980   2.033
  109TIP3   OH2  269   5.067   2.354   1.646
  109TIP3    H1  270   5.149   2.317   1.681
  109TIP3    H2  271   5.021   2.278   1.609
  110TIP3   OH2  272   5.408   6.429   4.546
  110TIP3    H1  273   5.365   6.505   4.506
  110TIP3    H2  274   5.481   6.466   4.595
  111TIP3   OH2  275   5.594   4.838   1.343
  111TIP3    H1  276   5.626   4.825   1.432
  111TIP3    H2  277   5.571   4.750   1.313
  112TIP3   OH2  278   4.132   3.271   2.516
  112TIP3    H1  279   4.139   3.355   2.471
  112TIP3    H2  280   4.151   3.206   2.448
  113TIP3   OH2  281   3.151   2.364   1.468
  113TIP3    H1  282   3.097   2.370   1.547
  113TIP3    H2  283   3.096   2.402   1.399
  114TIP3   OH2  284   5.947   3.194   4.316
  114TIP3    H1  285   5.862   3.209   4.358
  114TIP3    H2  286   6.002   3.266   4.345
  115TIP3   OH2  287   1.037   1.305   6.273
  115TIP3    H1  288   1.079   1.315   6.188
  115TIP3    H2  289   1.110   1.296   6.335
  116TIP3   OH2  290   2.940   4.429   5.663
  116TIP3    H1  291   2.882   4.499   5.693
  116TIP3    H2  292   2.957   4.376   5.741
  117TIP3   OH2  293   4.125   7.440   1.404
  117TIP3    H1  294   4.126   7.480   1.491
  117TIP3    H2  295   4.036   7.456   1.372
  118TIP3   OH2  296   6.271   2.160   2.627
  118TIP3    H1  297   6.192   2.117   2.593
  118TIP3    H2  298   6.328   2.169   2.550
  119TIP3   OH2  299   4.077   1.900   6.556
  119TIP3    H1  300   4.092   1.809   6.528
  119TIP3    H2  301   3.997   1.926   6.509
  120TIP3   OH2  302   3.419   2.864   0.598
  120TIP3    H1  303   3.483   2.865   0.527
  120TIP3    H2  304   3.449   2.795   0.656
  121TIP3   OH2  305   1.336   5.361   1.947
  121TIP3    H1  306   1.410   5.301   1.936
  121TIP3    H2  307   1.305   5.377   1.858
  122TIP3   OH2  308   0.567   3.075   1.593
  122TIP3    H1  309   0.620   3.122   1.529
  122TIP3    H2  310   0.611   2.991   1.603
  123TIP3   OH2  311   6.542   1.325   0.580
  123TIP3    H1  312   6.521   1.252   0.521
  123TIP3    H2  313   6.572   1.283   0.660
  124TIP3   OH2  314   0.772   4.447   0.683
  124TIP3    H1  315   0.755   4.515   0.617
  124TIP3    H2  316   0.693   4.445   0.737
  125TIP3   OH2  317   5.239   2.155   3.463
  125TIP3    H1  318   5.272   2.218   3.528
  125TIP3    H2  319   5.151   2.186   3.442
  126TIP3   OH2  320   1.280   5.113   6.032
  126TIP3    H1  321   1.356   5.156   5.994
  126TIP3    H2  322   1.314   5.032   6.069
  127TIP3   OH2  323   8.115   4.138   3.168
  127TIP3    H1  324   8.175   4.066   3.186
  127TIP3    H2  325   8.165   4.217   3.188
  128TIP3   OH2  326   0.341   5.658   1.967
  128TIP3    H1  327   0.248   5.676   1.975
  128TIP3    H2  328   0.346   5.576   1.918
  129TIP3   OH2  329   4.372   2.610   1.153
  129TIP3    H1  330   4.292   2.592   1.104
  129TIP3    H2  331   4.397   2.699   1.127
  130TIP3   OH2  332   5.918   7.431   2.723
  130TIP3    H1  333   5.980   7.383   2.668
  130TIP3    H2  334   5.941   7.523   2.710
  131TIP3   OH2  335   5.657   6.733   4.490
  131TIP3    H1  336   5.592   6.687   4.543
  131TIP3    H2  337   5.609   6.804   4.448
  132TIP3   OH2  338   0.743   4.110   0.286
  132TIP3    H1  339   0.704   4.083   0.370
  132TIP3    H2  340   0.782   4.195   0.304
  133TIP3   OH2  341   3.769   0.103   2.137
  133TIP3    H1  342   3.769   0.160   2.060
  133TIP3    H2  343   3.830   0.032   2.114
  134TIP3   OH2  344   5.535   1.616   1.932
  134TIP3    H1  345   5.447   1.589   1.957
  134TIP3    H2  346   5.522   1.698   1.884
  135TIP3   OH2  347   3.058   4.985   1.504
  135TIP3    H1  348   3.116   4.988   1.580
  135TIP3    H2  349   2.970   5.001   1.540
  136TIP3   OH2  350   3.371   6.836   1.191
  136TIP3    H1  351   3.282   6.807   1.171
  136TIP3    H2  352   3.363   6.882   1.275
  137TIP3   OH2  353   3.515   0.259   6.686
  137TIP3    H1  354   3.435   0.271   6.635
  137TIP3    H2  355   3.568   0.200   6.632
  138TIP3   OH2  356   4.163   0.208   4.153
  138TIP3    H1  357   4.236   0.179   4.098
  138TIP3    H2  358   4.191   0.293   4.187
  139TIP3   OH2  359   5.043   5.258   3.899
  139TIP3    H1  360   4.968   5.199   3.893
  139TIP3    H2  361   5.004   5.344   3.918
  140TIP3   OH2  362   1.834   3.372   2.415
  140TIP3    H1  363   1.893   3.399   2.345
  140TIP3    H2  364   1.799   3.287   2.386
  141TIP3   OH2  365   3.131   4.670   4.405
  141TIP3    H1  366   3.119   4.628   4.490
  141TIP3    H2  367   3.225   4.690   4.401
  142TIP3   OH2  368   1.313   5.717   1.688
  142TIP3    H1  369   1.342   5.778   1.755
  142TIP3    H2  370   1.373   5.642   1.695
  143TIP3   OH2  371   5.778   1.361   5.308
  143TIP3    H1  372   5.854   1.419   5.300
  143TIP3    H2  373   5.729   1.374   5.227
  144TIP3   OH2  374   3.099   2.727   4.627
  144TIP3    H1  375   3.138   2.755   4.544
  144TIP3    H2  376   3.141   2.643   4.645
  145TIP3   OH2  377   6.827   2.910   1.761
  145TIP3    H1  378   6.852   2.859   1.684
  145TIP3    H2  379   6.904   2.964   1.780
  146TIP3   OH2  380   5.025   6.716   1.692
  146TIP3    H1  381   4.964   6.715   1.619
  146TIP3    H2  382   5.064   6.628   1.692
  147TIP3   OH2  383   0.499   6.517   0.064
  147TIP3    H1  384   0.463   6.486   0.147
  147TIP3    H2  385   0.581   6.470   0.054
  148TIP3   OH2  386   7.214   2.158   1.529
  148TIP3    H1  387   7.257   2.243   1.532
  148TIP3    H2  388   7.120   2.178   1.528
  149TIP3   OH2  389   3.765   4.439   5.485
  149TIP3    H1  390   3.783   4.474   5.397
  149TIP3    H2  391   3.849   4.408   5.517
  150TIP3   OH2  392   7.156   1.765   4.048
  150TIP3    H1  393   7.240   1.719   4.045
  150TIP3    H2  394   7.171   1.843   3.995
  151TIP3   OH2  395   5.358   4.672   1.478
  151TIP3    H1  396   5.347   4.752   1.427
  151TIP3    H2  397   5.336   4.602   1.416
  152TIP3   OH2  398   1.865   1.134   5.171
  152TIP3    H1  399   1.805   1.125   5.097
  152TIP3    H2  400   1.941   1.179   5.134
  153TIP3   OH2  401   0.488   2.648   0.034
  153TIP3    H1  402   0.531   2.727   0.067
  153TIP3    H2  403   0.461   2.601   0.113
  154TIP3   OH2  404   5.225   7.807   5.305
  154TIP3    H1  405   5.286   7.786   5.375
  154TIP3    H2  406   5.269   7.875   5.254
  155TIP3   OH2  407   2.678   3.603   5.552
  155TIP3    H1  408   2.691   3.692   5.585
  155TIP3    H2  409   2.734   3.598   5.475
  156TIP3   OH2  410   5.410   2.529   2.384
  156TIP3    H1  411   5.497   2.559   2.413
  156TIP3    H2  412   5.408   2.548   2.291
  157TIP3   OH2  413   0.741   5.153   2.445
  157TIP3    H1  414   0.834   5.170   2.461
  157TIP3    H2  415   0.704   5.238   2.424
  158TIP3   OH2  416   5.939   4.796   3.288
  158TIP3    H1  417   6.032   4.795   3.267
  158TIP3    H2  418   5.917   4.889   3.297
  159TIP3   OH2  419   4.304   0.433   6.093
  159TIP3    H1  420   4.295   0.469   6.005
  159TIP3    H2  421   4.270   0.501   6.151
  160TIP3   OH2  422   5.552   5.213   0.918
  160TIP3    H1  423   5.546   5.305   0.894
  160TIP3    H2  424   5.513   5.208   1.005
  161TIP3   OH2  425   7.295   7.234   2.969
  161TIP3    H1  426   7.330   7.202   2.886
  161TIP3    H2  427   7.200   7.229   2.958
  162TIP3   OH2  428   7.359   6.553   0.805
  162TIP3    H1  429   7.293   6.548   0.874
  162TIP3    H2  430   7.366   6.646   0.785
  163TIP3   OH2  431   6.419   6.005   3.320
  163TIP3    H1  432   6.491   5.943   3.310
  163TIP3    H2  433   6.404   6.009   3.414
  164TIP3   OH2  434   2.910   6.184   1.129
  164TIP3    H1  435   2.913   6.171   1.034
  164TIP3    H2  436   2.830   6.234   1.144
  165TIP3   OH2  437   1.003   4.202   3.028
  165TIP3    H1  438   1.000   4.207   3.123
  165TIP3    H2  439   1.011   4.292   2.999
  166TIP3   OH2  440   1.883   1.377   2.702
  166TIP3    H1  441   1.951   1.396   2.768
  166TIP3    H2  442   1.932   1.366   2.620
  167TIP3   OH2  443   4.521   2.212   5.377
  167TIP3    H1  444   4.438   2.200   5.331
  167TIP3    H2  445   4.571   2.132   5.357
  168TIP3   OH2  446   4.496   1.146   2.935
  168TIP3    H1  447   4.588   1.120   2.940
  168TIP3    H2  448   4.498   1.242   2.931
  169TIP3   OH2  449   7.139   6.311   2.361
  169TIP3    H1  450   7.151   6.379   2.295
  169TIP3    H2  451   7.044   6.303   2.371
  170TIP3   OH2  452   3.946   3.115   2.743
  170TIP3    H1  453   3.992   3.099   2.826
  170TIP3    H2  454   3.973   3.041   2.687
  171TIP3   OH2  455   0.975   7.294   6.634
  171TIP3    H1  456   1.044   7.295   6.699
  171TIP3    H2  457   0.955   7.201   6.621
  172TIP3   OH2  458   6.733   1.648   5.332
  172TIP3    H1  459   6.757   1.558   5.352
  172TIP3    H2  460   6.679   1.676   5.405
  173TIP3   OH2  461   0.493   4.407   5.150
  173TIP3    H1  462   0.586   4.397   5.166
  173TIP3    H2  463   0.452   4.393   5.235
  174TIP3   OH2  464   3.089   1.928   3.512
  174TIP3    H1  465   3.065   1.917   3.604
  174TIP3    H2  466   3.180   1.959   3.515
  175TIP3   OH2  467   0.592   0.015   3.153
  175TIP3    H1  468   0.525  -0.005   3.219
  175TIP3    H2  469   0.672  -0.026   3.188
  176TIP3   OH2  470   6.263   1.923   4.004
  176TIP3    H1  471   6.328   1.864   4.043
  176TIP3    H2  472   6.247   1.989   4.072
  177TIP3   OH2  473   6.183   0.290   4.517
  177TIP3    H1  474   6.137   0.233   4.578
  177TIP3    H2  475   6.199   0.235   4.440
  178TIP3   OH2  476   1.476   6.936   5.609
  178TIP3    H1  477   1.439   6.874   5.546
  178TIP3    H2  478   1.561   6.899   5.631
  179TIP3   OH2  479   4.076   4.437   0.988
  179TIP3    H1  480   4.017   4.454   1.061
  179TIP3    H2  481   4.159   4.476   1.016
  180TIP3   OH2  482   3.607   2.372   2.191
  180TIP3    H1  483   3.595   2.295   2.246
  180TIP3    H2  484   3.533   2.369   2.130
  181TIP3   OH2  485   7.741   5.326   5.809
  181TIP3    H1  486   7.715   5.412   5.843
  181TIP3    H2  487   7.735   5.268   5.885
  182TIP3   OH2  488   3.648   1.437   3.288
  182TIP3    H1  489   3.656   1.386   3.208
  182TIP3    H2  490   3.563   1.481   3.280
  183TIP3   OH2  491   4.850   5.464   4.832
  183TIP3    H1  492   4.770   5.418   4.806
  183TIP3    H2  493   4.921   5.411   4.797
  184TIP3   OH2  494   4.785   2.172   1.908
  184TIP3    H1  495   4.691   2.190   1.908
  184TIP3    H2  496   4.820   2.229   1.977
  185TIP3   OH2  497   0.560   7.723   3.865
  185TIP3    H1  498   0.528   7.646   3.818
  185TIP3    H2  499   0.631   7.689   3.920
  186TIP3   OH2  500   4.409   4.650   2.718
  186TIP3    H1  501   4.382   4.680   2.632
  186TIP3    H2  502   4.402   4.728   2.774
  187TIP3   OH2  503   2.691   6.349   3.114
  187TIP3    H1  504   2.767   6.347   3.056
  187TIP3    H2  505   2.620   6.315   3.060
  188TIP3   OH2  506   6.780   7.726   1.689
  188TIP3    H1  507   6.799   7.682   1.606
  188TIP3    H2  508   6.770   7.818   1.666
  189TIP3   OH2  509   3.672   4.536   4.695
  189TIP3    H1  510   3.723   4.455   4.690
  189TIP3    H2  511   3.703   4.589   4.622
  190TIP3   OH2  512   5.872   6.528   6.371
  190TIP3    H1  513   5.859   6.577   6.453
  190TIP3    H2  514   5.894   6.439   6.399
  191TIP3   OH2  515   6.936   1.528   4.933
  191TIP3    H1  516   6.863   1.558   4.987
  191TIP3    H2  517   6.948   1.597   4.868
  192TIP3   OH2  518   7.537   2.913   3.527
  192TIP3    H1  519   7.573   3.001   3.535
  192TIP3    H2  520   7.456   2.916   3.579
  193TIP3   OH2  521   4.708   7.746   5.083
  193TIP3    H1  522   4.787   7.769   5.132
  193TIP3    H2  523   4.641   7.732   5.151
  194TIP3   OH2  524   6.244   4.669   1.900
  194TIP3    H1  525   6.215   4.586   1.936
  194TIP3    H2  526   6.248   4.654   1.805
  195TIP3   OH2  527   6.433   3.149   0.042
  195TIP3    H1  528   6.347   3.121   0.008
  195TIP3    H2  529   6.413   3.218   0.104
  196TIP3   OH2  530   4.948   6.639   2.655
  196TIP3    H1  531   4.945   6.732   2.679
  196TIP3    H2  532   5.014   6.634   2.586
  197TIP3   OH2  533   6.936   1.159   2.759
  197TIP3    H1  534   6.841   1.151   2.770
  197TIP3    H2  535   6.956   1.105   2.682
  198TIP3   OH2  536   7.899   1.974   2.791
  198TIP3    H1  537   7.805   1.956   2.787
  198TIP3    H2  538   7.940   1.889   2.810
  199TIP3   OH2  539   6.733   5.167   1.163
  199TIP3    H1  540   6.658   5.109   1.156
  199TIP3    H2  541   6.777   5.139   1.244
  200TIP3   OH2  542   7.190   1.725   2.362
  200TIP3    H1  543   7.247   1.658   2.399
  200TIP3    H2  544   7.112   1.724   2.419
  201TIP3   OH2  545   7.256   7.005   1.182
  201TIP3    H1  546   7.265   7.088   1.135
  201TIP3    H2  547   7.169   7.009   1.222
  202TIP3   OH2  548   7.019   2.080   4.654
  202TIP3    H1  549   6.982   2.005   4.608
  202TIP3    H2  550   7.112   2.076   4.635
  203TIP3   OH2  551   8.074   5.787   3.787
  203TIP3    H1  552   8.153   5.814   3.833
  203TIP3    H2  553   8.024   5.868   3.775
  204TIP3   OH2  554   8.194   7.087   3.772
  204TIP3    H1  555   8.124   7.124   3.719
  204TIP3    H2  556   8.245   7.034   3.710
  205TIP3   OH2  557   3.393   4.092   4.761
  205TIP3    H1  558   3.474   4.143   4.770
  205TIP3    H2  559   3.323   4.157   4.772
  206TIP3   OH2  560   1.246   3.212   4.784
  206TIP3    H1  561   1.195   3.200   4.704
  206TIP3    H2  562   1.273   3.304   4.782
  207TIP3   OH2  563   0.262   4.448   4.425
  207TIP3    H1  564   0.320   4.373   4.416
  207TIP3    H2  565   0.218   4.456   4.340
  208TIP3   OH2  566   2.950   3.413   6.166
  208TIP3    H1  567   2.882   3.361   6.208
  208TIP3    H2  568   3.014   3.348   6.135
  209TIP3   OH2  569   2.163   2.943   0.944
  209TIP3    H1  570   2.155   2.990   1.027
  209TIP3    H2  571   2.223   2.996   0.892
  210TIP3   OH2  572   5.764   5.533   5.539
  210TIP3    H1  573   5.858   5.548   5.548
  210TIP3    H2  574   5.758   5.451   5.489
  211TIP3   OH2  575   6.517   6.661   1.234
  211TIP3    H1  576   6.491   6.740   1.186
  211TIP3    H2  577   6.521   6.689   1.326
  212TIP3   OH2  578   5.495   5.944   4.696
  212TIP3    H1  579   5.404   5.916   4.689
  212TIP3    H2  580   5.546   5.867   4.671
  213TIP3   OH2  581   0.909   5.815   4.025
  213TIP3    H1  582   0.991   5.864   4.032
  213TIP3    H2  583   0.871   5.819   4.112
  214TIP3   OH2  584   0.982   3.223   6.605
  214TIP3    H1  585   1.018   3.175   6.680
  214TIP3    H2  586   0.953   3.154   6.544
  215TIP3   OH2  587   3.266   5.071   4.726
  215TIP3    H1  588   3.325   5.143   4.748
  215TIP3    H2  589   3.301   5.036   4.644
  216TIP3   OH2  590   0.434   3.585   0.678
  216TIP3    H1  591   0.408   3.595   0.587
  216TIP3    H2  592   0.466   3.495   0.684
  217TIP3   OH2  593   0.145   5.556   3.079
  217TIP3    H1  594   0.150   5.528   3.170
  217TIP3    H2  595   0.157   5.476   3.028
  218TIP3   OH2  596   5.756   6.193   2.464
  218TIP3    H1  597   5.693   6.121   2.458
  218TIP3    H2  598   5.787   6.190   2.554
  219TIP3   OH2  599   1.422   7.319   0.844
  219TIP3    H1  600   1.452   7.250   0.903
  219TIP3    H2  601   1.493   7.328   0.780
  220TIP3   OH2  602   0.280   1.409   1.099
  220TIP3    H1  603   0.229   1.345   1.050
  220TIP3    H2  604   0.283   1.486   1.043
  221TIP3   OH2  605   3.122   3.177   3.388
  221TIP3    H1  606   3.145   3.155   3.299
  221TIP3    H2  607   3.133   3.096   3.437
  222TIP3   OH2  608   2.347   1.423   1.002
  222TIP3    H1  609   2.310   1.454   0.919
  222TIP3    H2  610   2.271   1.395   1.053
  223TIP3   OH2  611   5.658   1.732   3.679
  223TIP3    H1  612   5.750   1.715   3.699
  223TIP3    H2  613   5.660   1.811   3.625
  224TIP3   OH2  614   1.463   7.274   2.175
  224TIP3    H1  615   1.515   7.199   2.205
  224TIP3    H2  616   1.484   7.282   2.081
  225TIP3   OH2  617   5.875   4.901   4.288
  225TIP3    H1  618   5.964   4.919   4.319
  225TIP3    H2  619   5.865   4.956   4.210
  226TIP3   OH2  620   7.027   5.799   4.065
  226TIP3    H1  621   7.080   5.846   4.000
  226TIP3    H2  622   7.092   5.758   4.123
  227TIP3   OH2  623   3.353   0.152   5.618
  227TIP3    H1  624   3.414   0.085   5.648
  227TIP3    H2  625   3.404   0.206   5.558
  228TIP3   OH2  626   5.607   1.163   6.356
  228TIP3    H1  627   5.533   1.133   6.303
  228TIP3    H2  628   5.638   1.242   6.313
  229TIP3   OH2  629   4.311   4.037   6.043
  229TIP3    H1  630   4.343   3.947   6.048
  229TIP3    H2  631   4.378   4.083   5.993
  230TIP3   OH2  632   0.075   5.834   2.410
  230TIP3    H1  633   0.114   5.883   2.483
  230TIP3    H2  634   0.071   5.744   2.441
  231TIP3   OH2  635   4.230   4.755   6.098
  231TIP3    H1  636   4.205   4.846   6.081
  231TIP3    H2  637   4.324   4.759   6.117
  232TIP3   OH2  638   6.704   0.277   1.499
  232TIP3    H1  639   6.689   0.334   1.574
  232TIP3    H2  640   6.690   0.332   1.423
  233TIP3   OH2  641   2.544   4.582   0.186
  233TIP3    H1  642   2.493   4.509   0.150
  233TIP3    H2  643   2.480   4.650   0.204
  234TIP3   OH2  644   8.308   1.836   1.870
  234TIP3    H1  645   8.376   1.770   1.880
  234TIP3    H2  646   8.235   1.805   1.925
  235TIP3   OH2  647   1.678   3.261   3.986
  235TIP3    H1  648   1.693   3.179   3.939
  235TIP3    H2  649   1.666   3.235   4.078
  236TIP3   OH2  650   4.840   2.211   3.833
  236TIP3    H1  651   4.925   2.186   3.870
  236TIP3    H2  652   4.777   2.183   3.899
  237TIP3   OH2  653   3.680   5.425   4.115
  237TIP3    H1  654   3.694   5.444   4.023
  237TIP3    H2  655   3.590   5.455   4.132
  238TIP3   OH2  656   8.001   4.233   4.547
  238TIP3    H1  657   8.033   4.300   4.608
  238TIP3    H2  658   7.930   4.275   4.500
  239TIP3   OH2  659   7.063   5.241   1.680
  239TIP3    H1  660   7.089   5.295   1.605
  239TIP3    H2  661   7.001   5.177   1.643
  240TIP3   OH2  662   3.456   7.277   5.947
  240TIP3    H1  663   3.437   7.189   5.915
  240TIP3    H2  664   3.372   7.322   5.949
  241TIP3   OH2  665   3.585   2.050   0.480
  241TIP3    H1  666   3.679   2.065   0.482
  241TIP3    H2  667   3.570   2.001   0.399
  242TIP3   OH2  668   0.625   5.933   3.244
  242TIP3    H1  669   0.686   5.978   3.304
  242TIP3    H2  670   0.668   5.938   3.158
  243TIP3   OH2  671   3.849   3.620   1.701
  243TIP3    H1  672   3.771   3.674   1.693
  243TIP3    H2  673   3.913   3.675   1.747
  244TIP3   OH2  674   4.736   7.441   6.740
  244TIP3    H1  675   4.803   7.385   6.778
  244TIP3    H2  676   4.714   7.398   6.657
  245TIP3   OH2  677   6.509   5.753   3.425
  245TIP3    H1  678   6.602   5.733   3.437
  245TIP3    H2  679   6.493   5.827   3.483
  246TIP3   OH2  680   1.924   7.649   1.103
  246TIP3    H1  681   1.990   7.581   1.093
  246TIP3    H2  682   1.863   7.614   1.168
  247TIP3   OH2  683   7.748   6.415   4.083
  247TIP3    H1  684   7.767   6.335   4.131
  247TIP3    H2  685   7.657   6.405   4.054
  248TIP3   OH2  686   7.781   0.213   1.304
  248TIP3    H1  687   7.736   0.218   1.220
  248TIP3    H2  688   7.817   0.125   1.307
  249TIP3   OH2  689   4.444   2.113   3.236
  249TIP3    H1  690   4.486   2.121   3.322
  249TIP3    H2  691   4.372   2.052   3.250
  250TIP3   OH2  692   2.786   0.701   3.763
  250TIP3    H1  693   2.877   0.715   3.734
  250TIP3    H2  694   2.733   0.747   3.698
  251TIP3   OH2  695   4.584   1.548   5.989
  251TIP3    H1  696   4.655   1.598   6.031
  251TIP3    H2  697   4.628   1.494   5.924
  252TIP3   OH2  698   2.900   6.674   1.180
  252TIP3    H1  699   2.822   6.622   1.161
  252TIP3    H2  700   2.866   6.760   1.203
  253TIP3   OH2  701   7.429   3.446   3.187
  253TIP3    H1  702   7.351   3.451   3.131
  253TIP3    H2  703   7.479   3.372   3.150
  254TIP3   OH2  704   0.836   6.951   2.390
  254TIP3    H1  705   0.845   7.045   2.406
  254TIP3    H2  706   0.862   6.940   2.299
  255TIP3   OH2  707   0.474   2.141   5.900
  255TIP3    H1  708   0.433   2.224   5.922
  255TIP3    H2  709   0.499   2.103   5.984
  256TIP3   OH2  710   7.185   5.634   4.724
  256TIP3    H1  711   7.159   5.677   4.806
  256TIP3    H2  712   7.278   5.615   4.735
  257TIP3   OH2  713   4.943   2.616   5.670
  257TIP3    H1  714   4.873   2.662   5.715
  257TIP3    H2  715   4.925   2.523   5.687
  258TIP3   OH2  716   4.881   6.589   1.892
  258TIP3    H1  717   4.839   6.576   1.807
  258TIP3    H2  718   4.924   6.675   1.885
  259TIP3   OH2  719   0.935   7.356   4.689
  259TIP3    H1  720   0.881   7.346   4.611
  259TIP3    H2  721   1.007   7.294   4.677
  260TIP3   OH2  722   3.665   3.345   2.111
  260TIP3    H1  723   3.597   3.412   2.104
  260TIP3    H2  724   3.617   3.264   2.126
  261TIP3   OH2  725   1.664   0.112   0.669
  261TIP3    H1  726   1.619   0.177   0.615
  261TIP3    H2  727   1.593   0.064   0.712
  262TIP3   OH2  728   7.304   6.067   1.402
  262TIP3    H1  729   7.237   6.129   1.430
  262TIP3    H2  730   7.361   6.118   1.345
  263TIP3   OH2  731   6.430   5.896   5.444
  263TIP3    H1  732   6.393   5.817   5.483
  263TIP3    H2  733   6.524   5.882   5.445
  264TIP3   OH2  734   6.548   1.597   2.711
  264TIP3    H1  735   6.481   1.637   2.655
  264TIP3    H2  736   6.567   1.664   2.777
  265TIP3   OH2  737   2.829   4.116   5.851
  265TIP3    H1  738   2.749   4.164   5.829
  265TIP3    H2  739   2.898   4.159   5.802
  266TIP3   OH2  740   5.713   3.185   6.724
  266TIP3    H1  741   5.627   3.216   6.697
  266TIP3    H2  742   5.695   3.116   6.787
  267TIP3   OH2  743   1.235   7.057   5.177
  267TIP3    H1  744   1.275   6.996   5.115
  267TIP3    H2  745   1.190   7.001   5.240
  268TIP3   OH2  746   0.390   5.220   4.254
  268TIP3    H1  747   0.481   5.218   4.224
  268TIP3    H2  748   0.347   5.150   4.204
  269TIP3   OH2  749   0.248   3.740   4.840
  269TIP3    H1  750   0.279   3.797   4.769
  269TIP3    H2  751   0.300   3.766   4.916
  270TIP3   OH2  752   1.755   5.325   3.933
  270TIP3    H1  753   1.752   5.230   3.920
  270TIP3    H2  754   1.848   5.346   3.941
  271TIP3   OH2  755   1.632   4.636   4.668
  271TIP3    H1  756   1.615   4.696   4.595
  271TIP3    H2  757   1.715   4.667   4.705
  272TIP3   OH2  758   2.581   4.292   0.270
  272TIP3    H1  759   2.492   4.298   0.305
  272TIP3    H2  760   2.625   4.371   0.301
  273TIP3   OH2  761   4.421   7.060   4.898
  273TIP3    H1  762   4.328   7.076   4.915
  273TIP3    H2  763   4.452   7.140   4.856
  274TIP3   OH2  764   7.417   0.991   1.378
  274TIP3    H1  765   7.471   1.068   1.400
  274TIP3    H2  766   7.421   0.986   1.282
  275TIP3   OH2  767   3.740   3.968   5.744
  275TIP3    H1  768   3.762   4.061   5.736
  275TIP3    H2  769   3.655   3.967   5.788
  276TIP3   OH2  770   3.575   6.327   1.860
  276TIP3    H1  771   3.602   6.371   1.941
  276TIP3    H2  772   3.549   6.240   1.888
  277TIP3   OH2  773   2.185   5.648   4.962
  277TIP3    H1  774   2.148   5.637   4.874
  277TIP3    H2  775   2.270   5.689   4.947
  278TIP3   OH2  776   6.824   2.312   6.544
  278TIP3    H1  777   6.884   2.241   6.520
  278TIP3    H2  778   6.745   2.268   6.574
  279TIP3   OH2  779   0.894   5.986   5.520
  279TIP3    H1  780   0.895   6.068   5.471
  279TIP3    H2  781   0.861   6.010   5.606
  280TIP3   OH2  782   1.814   1.955   3.546
  280TIP3    H1  783   1.863   1.874   3.534
  280TIP3    H2  784   1.841   2.010   3.472
  281TIP3   OH2  785   7.265   2.453   3.437
  281TIP3    H1  786   7.299   2.370   3.469
  281TIP3    H2  787   7.258   2.508   3.515
  282TIP3   OH2  788   1.762   1.694   6.570
  282TIP3    H1  789   1.846   1.681   6.526
  282TIP3    H2  790   1.742   1.610   6.611
  283TIP3   OH2  791   5.811   4.530   6.647
  283TIP3    H1  792   5.834   4.570   6.731
  283TIP3    H2  793   5.891   4.487   6.618
  284TIP3   OH2  794   8.059   3.146   3.805
  284TIP3    H1  795   8.047   3.052   3.810
  284TIP3    H2  796   8.092   3.162   3.717
  285TIP3   OH2  797   6.372   2.469   4.293
  285TIP3    H1  798   6.280   2.489   4.307
  285TIP3    H2  799   6.387   2.488   4.200
  286TIP3   OH2  800   2.551   3.391   5.430
  286TIP3    H1  801   2.556   3.469   5.486
  286TIP3    H2  802   2.615   3.330   5.467
  287TIP3   OH2  803   2.927   7.182   3.577
  287TIP3    H1  804   2.966   7.196   3.491
  287TIP3    H2  805   2.979   7.236   3.637
  288TIP3   OH2  806   0.949   0.789   4.254
  288TIP3    H1  807   1.010   0.757   4.320
  288TIP3    H2  808   0.952   0.723   4.184
  289TIP3   OH2  809   1.365   0.657   2.958
  289TIP3    H1  810   1.416   0.650   2.877
  289TIP3    H2  811   1.341   0.750   2.964
  290TIP3   OH2  812   7.532   3.862   3.381
  290TIP3    H1  813   7.485   3.811   3.447
  290TIP3    H2  814   7.621   3.869   3.415
  291TIP3   OH2  815   4.742   7.812   0.722
  291TIP3    H1  816   4.722   7.798   0.814
  291TIP3    H2  817   4.688   7.887   0.697
  292TIP3   OH2  818   2.297   6.080   3.023
  292TIP3    H1  819   2.347   6.066   3.104
  292TIP3    H2  820   2.229   6.013   3.025
  293TIP3   OH2  821   0.299   5.529   0.198
  293TIP3    H1  822   0.287   5.434   0.197
  293TIP3    H2  823   0.356   5.545   0.274
  294TIP3   OH2  824   6.571   6.991   5.543
  294TIP3    H1  825   6.602   6.963   5.457
  294TIP3    H2  826   6.643   7.041   5.580
  295TIP3   OH2  827   1.024   4.718   2.015
  295TIP3    H1  828   1.030   4.808   2.046
  295TIP3    H2  829   1.105   4.677   2.046
  296TIP3   OH2  830   1.773   5.751   5.665
  296TIP3    H1  831   1.857   5.784   5.698
  296TIP3    H2  832   1.796   5.700   5.587
  297TIP3   OH2  833   1.595   0.474   1.991
  297TIP3    H1  834   1.544   0.499   2.068
  297TIP3    H2  835   1.565   0.533   1.922
  298TIP3   OH2  836   8.002   5.934   4.969
  298TIP3    H1  837   8.071   5.924   4.903
  298TIP3    H2  838   8.007   6.026   4.995
  299TIP3   OH2  839   1.436   1.766   5.036
  299TIP3    H1  840   1.503   1.725   5.091
  299TIP3    H2  841   1.384   1.819   5.097
  300TIP3   OH2  842   7.626   4.428   1.414
  300TIP3    H1  843   7.556   4.370   1.443
  300TIP3    H2  844   7.695   4.417   1.480
  301TIP3   OH2  845   7.434   1.784   4.234
  301TIP3    H1  846   7.484   1.708   4.203
  301TIP3    H2  847   7.456   1.854   4.173
  302TIP3   OH2  848   1.136   3.250   1.257
  302TIP3    H1  849   1.065   3.200   1.296
  302TIP3    H2  850   1.095   3.301   1.188
  303TIP3   OH2  851   8.015   4.734   5.196
  303TIP3    H1  852   8.019   4.733   5.100
  303TIP3    H2  853   8.022   4.826   5.220
  304TIP3   OH2  854   4.352   5.352   4.786
  304TIP3    H1  855   4.317   5.394   4.707
  304TIP3    H2  856   4.324   5.261   4.779
  305TIP3   OH2  857   2.004   7.633   0.570
  305TIP3    H1  858   2.026   7.612   0.661
  305TIP3    H2  859   2.040   7.721   0.556
  306TIP3   OH2  860   2.325   6.122   1.512
  306TIP3    H1  861   2.343   6.030   1.531
  306TIP3    H2  862   2.262   6.119   1.440
  307TIP3   OH2  863   5.751   2.182   2.192
  307TIP3    H1  864   5.756   2.277   2.180
  307TIP3    H2  865   5.679   2.168   2.253
  308TIP3   OH2  866   7.389   6.503   2.052
  308TIP3    H1  867   7.436   6.443   1.994
  308TIP3    H2  868   7.454   6.529   2.118
  309TIP3   OH2  869   4.385   0.905   5.057
  309TIP3    H1  870   4.361   0.814   5.077
  309TIP3    H2  871   4.479   0.901   5.038
  310TIP3   OH2  872   3.777   7.065   3.074
  310TIP3    H1  873   3.860   7.023   3.098
  310TIP3    H2  874   3.721   7.053   3.151
  311TIP3   OH2  875   3.493   4.001   5.151
  311TIP3    H1  876   3.535   3.928   5.196
  311TIP3    H2  877   3.399   3.983   5.158
  312TIP3   OH2  878   7.842   1.348   3.846
  312TIP3    H1  879   7.908   1.338   3.914
  312TIP3    H2  880   7.886   1.395   3.775
  313TIP3   OH2  881   5.421   6.374   2.894
  313TIP3    H1  882   5.364   6.305   2.859
  313TIP3    H2  883   5.362   6.435   2.937
  314TIP3   OH2  884   1.489   5.952   5.097
  314TIP3    H1  885   1.495   6.048   5.098
  314TIP3    H2  886   1.448   5.931   5.013
  315TIP3   OH2  887   0.773   2.737   4.848
  315TIP3    H1  888   0.705   2.735   4.781
  315TIP3    H2  889   0.807   2.648   4.851
  316TIP3   OH2  890   6.710   6.671   1.585
  316TIP3    H1  891   6.711   6.738   1.517
  316TIP3    H2  892   6.651   6.705   1.652
  317TIP3   OH2  893   4.235   6.622   1.058
  317TIP3    H1  894   4.150   6.667   1.051
  317TIP3    H2  895   4.256   6.627   1.151
  318TIP3   OH2  896   8.301   4.091   2.790
  318TIP3    H1  897   8.239   4.057   2.854
  318TIP3    H2  898   8.379   4.036   2.801
  319TIP3   OH2  899   5.702   1.206   4.416
  319TIP3    H1  900   5.631   1.198   4.352
  319TIP3    H2  901   5.709   1.119   4.455
  320TIP3   OH2  902   4.420   6.954   4.458
  320TIP3    H1  903   4.465   6.884   4.409
  320TIP3    H2  904   4.329   6.947   4.430
  321TIP3   OH2  905   5.855   7.613   5.196
  321TIP3    H1  906   5.772   7.604   5.148
  321TIP3    H2  907   5.888   7.524   5.204
  322TIP3   OH2  908   3.963   2.046   4.976
  322TIP3    H1  909   3.946   2.104   5.050
  322TIP3    H2  910   3.917   1.965   4.999
  323TIP3   OH2  911   5.623   4.541   2.028
  323TIP3    H1  912   5.608   4.632   2.053
  323TIP3    H2  913   5.713   4.523   2.057
  324TIP3   OH2  914   6.204   6.562   3.836
  324TIP3    H1  915   6.114   6.561   3.869
  324TIP3    H2  916   6.247   6.630   3.886
  325TIP3   OH2  917   4.248   5.056   4.769
  325TIP3    H1  918   4.184   4.986   4.756
  325TIP3    H2  919   4.323   5.012   4.810
  326TIP3   OH2  920   7.815   2.855   0.302
  326TIP3    H1  921   7.735   2.870   0.250
  326TIP3    H2  922   7.799   2.772   0.347
  327TIP3   OH2  923   4.777   4.921   6.225
  327TIP3    H1  924   4.807   4.900   6.314
  327TIP3    H2  925   4.857   4.924   6.173
  328TIP3   OH2  926   0.378   0.300   2.320
  328TIP3    H1  927   0.387   0.261   2.233
  328TIP3    H2  928   0.357   0.392   2.303
  329TIP3   OH2  929   0.357   6.111   0.760
  329TIP3    H1  930   0.270   6.084   0.732
  329TIP3    H2  931   0.347   6.203   0.783
  330TIP3   OH2  932   2.068   2.578   4.041
  330TIP3    H1  933   1.994   2.627   4.006
  330TIP3    H2  934   2.136   2.586   3.975
  331TIP3   OH2  935   5.527   1.970   3.710
  331TIP3    H1  936   5.440   1.931   3.696
  331TIP3    H2  937   5.526   1.997   3.802
  332TIP3   OH2  938   7.458   3.996   1.112
  332TIP3    H1  939   7.404   3.966   1.185
  332TIP3    H2  940   7.513   4.065   1.149
  333TIP3   OH2  941   7.273   5.160   1.819
  333TIP3    H1  942   7.238   5.079   1.856
  333TIP3    H2  943   7.200   5.197   1.770
  334TIP3   OH2  944   2.469   2.637   2.965
  334TIP3    H1  945   2.454   2.715   2.912
  334TIP3    H2  946   2.526   2.582   2.910
  335TIP3   OH2  947   4.404   6.058   6.534
  335TIP3    H1  948   4.443   6.027   6.616
  335TIP3    H2  949   4.456   6.016   6.465
  336TIP3   OH2  950   1.598   7.240   3.531
  336TIP3    H1  951   1.554   7.157   3.516
  336TIP3    H2  952   1.568   7.268   3.618
  337TIP3   OH2  953   5.044   4.660   5.663
  337TIP3    H1  954   5.062   4.725   5.732
  337TIP3    H2  955   4.963   4.617   5.691
  338TIP3   OH2  956   7.632   2.241   5.532
  338TIP3    H1  957   7.660   2.170   5.590
  338TIP3    H2  958   7.695   2.311   5.548
  339TIP3   OH2  959   5.298   6.666   4.798
  339TIP3    H1  960   5.299   6.572   4.782
  339TIP3    H2  961   5.283   6.675   4.892
  340TIP3   OH2  962   6.147   6.664   2.441
  340TIP3    H1  963   6.123   6.691   2.530
  340TIP3    H2  964   6.066   6.631   2.404
  341TIP3   OH2  965   4.027   6.744   3.488
  341TIP3    H1  966   3.976   6.707   3.560
  341TIP3    H2  967   4.118   6.737   3.518
  342TIP3   OH2  968   6.060   7.556   1.964
  342TIP3    H1  969   6.091   7.643   1.941
  342TIP3    H2  970   5.988   7.539   1.904
  343TIP3   OH2  971   3.701   4.425   3.784
  343TIP3    H1  972   3.675   4.350   3.838
  343TIP3    H2  973   3.783   4.456   3.823
  344TIP3   OH2  974   3.778   2.644   5.768
  344TIP3    H1  975   3.872   2.627   5.771
  344TIP3    H2  976   3.738   2.558   5.756
  345TIP3   OH2  977   5.043   2.021   0.324
  345TIP3    H1  978   5.121   2.074   0.309
  345TIP3    H2  979   5.076   1.932   0.333
  346TIP3   OH2  980   6.296   2.052   5.806
  346TIP3    H1  981   6.307   2.104   5.886
  346TIP3    H2  982   6.379   2.062   5.759
  347TIP3   OH2  983   7.191   5.759   1.968
  347TIP3    H1  984   7.261   5.694   1.959
  347TIP3    H2  985   7.149   5.739   2.052
  348TIP3   OH2  986   2.765   5.947   5.300
  348TIP3    H1  987   2.709   5.940   5.222
  348TIP3    H2  988   2.849   5.911   5.273
  349TIP3   OH2  989   3.272   2.707   2.712
  349TIP3    H1  990   3.247   2.616   2.693
  349TIP3    H2  991   3.367   2.707   2.708
  350TIP3   OH2  992   6.913   5.339   2.095
  350TIP3    H1  993   7.007   5.350   2.080
  350TIP3    H2  994   6.904   5.339   2.190
  351TIP3   OH2  995   5.654   3.227   5.824
  351TIP3    H1  996   5.689   3.298   5.770
  351TIP3    H2  997   5.563   3.253   5.841
  352TIP3   OH2  998   4.675   5.708   5.516
  352TIP3    H1  999   4.690   5.653   5.439
  352TIP3    H2 1000   4.616   5.777   5.485
  353TIP3   OH2 1001   6.477   5.504   1.175
  353TIP3    H1 1002   6.431   5.570   1.228
  353TIP3    H2 1003   6.564   5.498   1.215
  354TIP3   OH2 1004   2.458   7.377   0.597
  354TIP3    H1 1005   2.390   7.390   0.662
  354TIP3    H2 1006   2.426   7.424   0.520
  355TIP3   OH2 1007   4.348   2.600   1.443
  355TIP3    H1 1008   4.364   2.663   1.374
  355TIP3    H2 1009   4.335   2.517   1.397
  356TIP3   OH2 1010   6.878   2.567   2.478
  356TIP3    H1 1011   6.972   2.576   2.493
  356TIP3    H2 1012   6.840   2.566   2.566
  357TIP3   OH2 1013   2.802   2.927   3.543
  357TIP3    H1 1014   2.755   2.844   3.544
  357TIP3    H2 1015   2.742   2.989   3.585
  358TIP3   OH2 1016   5.470   0.873   6.397
  358TIP3    H1 1017   5.464   0.848   6.305
  358TIP3    H2 1018   5.393   0.834   6.438
  359TIP3   OH2 1019   2.082   1.634   2.605
  359TIP3    H1 1020   2.129   1.709   2.641
  359TIP3    H2 1021   1.992   1.644   2.638
  360TIP3   OH2 1022   0.543   1.548   4.422
  360TIP3    H1 1023   0.566   1.514   4.509
  360TIP3    H2 1024   0.621   1.595   4.394
  361TIP3   OH2 1025   4.221   5.938   1.315
  361TIP3    H1 1026   4.311   5.946   1.344
  361TIP3    H2 1027   4.213   5.847   1.285
  362TIP3   OH2 1028   4.469   6.450   6.112
  362TIP3    H1 1029   4.378   6.423   6.102
  362TIP3    H2 1030   4.518   6.368   6.122
  363TIP3   OH2 1031   8.265   6.712   1.047
  363TIP3    H1 1032   8.285   6.657   1.123
  363TIP3    H2 1033   8.189   6.764   1.075
  364TIP3   OH2 1034   7.679   6.239   4.570
  364TIP3    H1 1035   7.725   6.159   4.593
  364TIP3    H2 1036   7.642   6.222   4.484
  365TIP3   OH2 1037   1.061   4.319   1.865
  365TIP3    H1 1038   1.078   4.268   1.786
  365TIP3    H2 1039   1.013   4.396   1.834
  366TIP3   OH2 1040   4.286   6.273   3.630
  366TIP3    H1 1041   4.221   6.325   3.676
  366TIP3    H2 1042   4.239   6.195   3.602
  367TIP3   OH2 1043   1.476   0.417   0.082
  367TIP3    H1 1044   1.448   0.335   0.122
  367TIP3    H2 1045   1.394   0.465   0.067
  368TIP3   OH2 1046   5.729   1.931   3.934
  368TIP3    H1 1047   5.763   1.982   3.860
  368TIP3    H2 1048   5.756   1.841   3.915
  369TIP3   OH2 1049   7.173   3.190   4.693
  369TIP3    H1 1050   7.252   3.141   4.715
  369TIP3    H2 1051   7.205   3.272   4.656
  370TIP3   OH2 1052   7.515   1.373   0.804
  370TIP3    H1 1053   7.423   1.397   0.787
  370TIP3    H2 1054   7.566   1.435   0.752
  371TIP3   OH2 1055   0.283   4.296   6.505
  371TIP3    H1 1056   0.234   4.252   6.435
  371TIP3    H2 1057   0.257   4.251   6.585
  372TIP3   OH2 1058   0.588   0.239   3.922
  372TIP3    H1 1059   0.511   0.267   3.972
  372TIP3    H2 1060   0.573   0.274   3.834
  373TIP3   OH2 1061   5.842   4.254   5.515
  373TIP3    H1 1062   5.779   4.182   5.529
  373TIP3    H2 1063   5.840   4.303   5.597
  374TIP3   OH2 1064   4.020   2.738   3.585
  374TIP3    H1 1065   3.994   2.680   3.657
  374TIP3    H2 1066   4.089   2.690   3.539
  375TIP3   OH2 1067   5.926   3.460   4.869
  375TIP3    H1 1068   5.940   3.376   4.913
  375TIP3    H2 1069   5.943   3.442   4.777
  376TIP3   OH2 1070   6.323   0.813   0.123
  376TIP3    H1 1071   6.239   0.776   0.096
  376TIP3    H2 1072   6.388   0.765   0.071
  377TIP3   OH2 1073   4.401   4.934  -0.013
  377TIP3    H1 1074   4.349   4.997   0.037
  377TIP3    H2 1075   4.381   4.849   0.026
  378TIP3   OH2 1076   4.165   4.164   0.370
  378TIP3    H1 1077   4.205   4.078   0.380
  378TIP3    H2 1078   4.173   4.184   0.277
  379TIP3   OH2 1079   5.994   3.425   0.062
  379TIP3    H1 1080   5.927   3.433  -0.005
  379TIP3    H2 1081   6.057   3.495   0.042
  380TIP3   OH2 1082   2.349   7.143   5.218
  380TIP3    H1 1083   2.331   7.082   5.146
  380TIP3    H2 1084   2.440   7.169   5.206
  381TIP3   OH2 1085   0.662   1.702   2.054
  381TIP3    H1 1086   0.689   1.700   2.146
  381TIP3    H2 1087   0.673   1.612   2.023
  382TIP3   OH2 1088   2.254   6.200  -0.001
  382TIP3    H1 1089   2.176   6.239   0.038
  382TIP3    H2 1090   2.260   6.241  -0.087
  383TIP3   OH2 1091   3.221   0.368   3.543
  383TIP3    H1 1092   3.217   0.437   3.609
  383TIP3    H2 1093   3.202   0.413   3.460
  384TIP3   OH2 1094   8.039   5.084   2.070
  384TIP3    H1 1095   7.958   5.087   2.020
  384TIP3    H2 1096   8.068   5.175   2.074
  385TIP3   OH2 1097   0.241   4.196   3.165
  385TIP3    H1 1098   0.302   4.130   3.132
  385TIP3    H2 1099   0.235   4.260   3.094
  386TIP3   OH2 1100   7.005   0.380   4.352
  386TIP3    H1 1101   6.944   0.394   4.424
  386TIP3    H2 1102   7.091   0.401   4.389
  387TIP3   OH2 1103   5.940   7.221   4.792
  387TIP3    H1 1104   6.010   7.283   4.811
  387TIP3    H2 1105   5.974   7.165   4.722
  388TIP3   OH2 1106   2.653   6.651   2.954
  388TIP3    H1 1107   2.727   6.630   3.012
  388TIP3    H2 1108   2.685   6.633   2.866
  389TIP3   OH2 1109   2.540   1.691   5.928
  389TIP3    H1 1110   2.451   1.725   5.917
  389TIP3    H2 1111   2.532   1.626   5.998
  390TIP3   OH2 1112   0.724   0.213   4.741
  390TIP3    H1 1113   0.783   0.149   4.781
  390TIP3    H2 1114   0.711   0.181   4.652
  391TIP3   OH2 1115   2.484   6.476   0.809
  391TIP3    H1 1116   2.470   6.531   0.886
  391TIP3    H2 1117   2.576   6.489   0.787
  392TIP3   OH2 1118   2.840   0.564   1.035
  392TIP3    H1 1119   2.769   0.628   1.040
  392TIP3    H2 1120   2.821   0.501   1.105
  393TIP3   OH2 1121   1.053   0.156   2.390
  393TIP3    H1 1122   1.102   0.238   2.376
  393TIP3    H2 1123   1.037   0.123   2.302
  394TIP3   OH2 1124   2.895   1.027   6.760
  394TIP3    H1 1125   2.980   1.071   6.756
  394TIP3    H2 1126   2.844   1.067   6.690
  395TIP3   OH2 1127   3.604   4.209   3.895
  395TIP3    H1 1128   3.529   4.204   3.835
  395TIP3    H2 1129   3.567   4.239   3.978
  396TIP3   OH2 1130   5.361   4.663   3.718
  396TIP3    H1 1131   5.406   4.595   3.767
  396TIP3    H2 1132   5.268   4.643   3.727
  397TIP3   OH2 1133   1.700   0.800   3.060
  397TIP3    H1 1134   1.692   0.823   2.967
  397TIP3    H2 1135   1.706   0.885   3.104
  398TIP3   OH2 1136   1.764   6.089   3.077
  398TIP3    H1 1137   1.725   6.090   3.165
  398TIP3    H2 1138   1.846   6.136   3.087
  399TIP3   OH2 1139   0.674   0.307   3.088
  399TIP3    H1 1140   0.599   0.250   3.077
  399TIP3    H2 1141   0.727   0.264   3.156
  400TIP3   OH2 1142   5.671   7.698   1.899
  400TIP3    H1 1143   5.593   7.642   1.903
  400TIP3    H2 1144   5.637   7.784   1.876
  401TIP3   OH2 1145   2.721   2.911   3.833
  401TIP3    H1 1146   2.760   2.972   3.895
  401TIP3    H2 1147   2.792   2.854   3.806
  402TIP3   OH2 1148   5.008   4.171   2.649
  402TIP3    H1 1149   5.054   4.244   2.691
  402TIP3    H2 1150   4.949   4.138   2.717
  403TIP3   OH2 1151   8.202   7.383   1.005
  403TIP3    H1 1152   8.230   7.314   1.065
  403TIP3    H2 1153   8.282   7.412   0.962
  404TIP3   OH2 1154   1.456   7.312   4.248
  404TIP3    H1 1155   1.462   7.251   4.175
  404TIP3    H2 1156   1.429   7.395   4.208
  405TIP3   OH2 1157   5.001   3.195   0.408
  405TIP3    H1 1158   5.013   3.290   0.417
  405TIP3    H2 1159   5.090   3.160   0.402
  406TIP3   OH2 1160   4.140   7.125   6.717
  406TIP3    H1 1161   4.182   7.041   6.736
  406TIP3    H2 1162   4.056   7.121   6.763
  407TIP3   OH2 1163   2.922   1.749   5.202
  407TIP3    H1 1164   2.874   1.826   5.169
  407TIP3    H2 1165   2.924   1.761   5.297
  408TIP3   OH2 1166   0.418   5.510   2.305
  408TIP3    H1 1167   0.504   5.550   2.315
  408TIP3    H2 1168   0.381   5.551   2.228
  409TIP3   OH2 1169   2.619   3.843   5.700
  409TIP3    H1 1170   2.684   3.810   5.762
  409TIP3    H2 1171   2.535   3.823   5.741
  410TIP3   OH2 1172   6.081   2.317   4.097
  410TIP3    H1 1173   6.017   2.385   4.077
  410TIP3    H2 1174   6.029   2.237   4.102
  411TIP3   OH2 1175   6.110   1.187   5.740
  411TIP3    H1 1176   6.140   1.180   5.649
  411TIP3    H2 1177   6.048   1.115   5.751
  412TIP3   OH2 1178   6.541   7.787   5.101
  412TIP3    H1 1179   6.501   7.872   5.122
  412TIP3    H2 1180   6.499   7.726   5.162
  413TIP3   OH2 1181   7.968   2.266   3.486
  413TIP3    H1 1182   7.989   2.197   3.549
  413TIP3    H2 1183   7.978   2.348   3.534
  414TIP3   OH2 1184   4.329   0.351   6.730
  414TIP3    H1 1185   4.387   0.279   6.706
  414TIP3    H2 1186   4.249   0.335   6.679
  415TIP3   OH2 1187   4.326   6.104   2.977
  415TIP3    H1 1188   4.386   6.176   2.956
  415TIP3    H2 1189   4.355   6.032   2.920
  416TIP3   OH2 1190   6.953   1.104   6.415
  416TIP3    H1 1191   6.928   1.058   6.334
  416TIP3    H2 1192   6.926   1.044   6.485
  417TIP3   OH2 1193   5.458   4.836   2.813
  417TIP3    H1 1194   5.478   4.743   2.805
  417TIP3    H2 1195   5.395   4.842   2.885
  418TIP3   OH2 1196   2.353   4.525   3.308
  418TIP3    H1 1197   2.337   4.478   3.226
  418TIP3    H2 1198   2.426   4.478   3.348
  419TIP3   OH2 1199   0.140   6.339   6.351
  419TIP3    H1 1200   0.215   6.313   6.297
  419TIP3    H2 1201   0.098   6.410   6.302
  420TIP3   OH2 1202   5.046   1.456   3.322
  420TIP3    H1 1203   4.976   1.390   3.324
  420TIP3    H2 1204   5.105   1.426   3.253
  421TIP3   OH2 1205   3.097   2.749   0.374
  421TIP3    H1 1206   3.159   2.822   0.365
  421TIP3    H2 1207   3.150   2.677   0.408
  422TIP3   OH2 1208   4.150   3.503   2.382
  422TIP3    H1 1209   4.100   3.581   2.404
  422TIP3    H2 1210   4.235   3.515   2.425
  423TIP3   OH2 1211   4.956   5.658   5.590
  423TIP3    H1 1212   4.964   5.690   5.680
  423TIP3    H2 1213   4.864   5.676   5.567
  424TIP3   OH2 1214   5.935   7.820   4.362
  424TIP3    H1 1215   5.866   7.878   4.331
  424TIP3    H2 1216   5.888   7.751   4.410
  425TIP3   OH2 1217   1.531   5.445   4.336
  425TIP3    H1 1218   1.538   5.535   4.305
  425TIP3    H2 1219   1.524   5.392   4.257
  426TIP3   OH2 1220   4.084   2.600   6.470
  426TIP3    H1 1221   4.098   2.693   6.450
  426TIP3    H2 1222   4.004   2.578   6.421
  427TIP3   OH2 1223   2.061   3.769   6.355
  427TIP3    H1 1224   2.027   3.708   6.421
  427TIP3    H2 1225   2.040   3.856   6.390
  428TIP3   OH2 1226   2.049   1.682   2.177
  428TIP3    H1 1227   2.065   1.616   2.245
  428TIP3    H2 1228   2.002   1.635   2.108
  429TIP3   OH2 1229   7.617   1.916   5.398
  429TIP3    H1 1230   7.564   1.853   5.449
  429TIP3    H2 1231   7.697   1.869   5.378
  430TIP3   OH2 1232   2.956   2.065   1.374
  430TIP3    H1 1233   2.964   1.982   1.420
  430TIP3    H2 1234   2.972   2.132   1.441
  431TIP3   OH2 1235   4.674   1.080   0.647
  431TIP3    H1 1236   4.588   1.119   0.660
  431TIP3    H2 1237   4.734   1.135   0.698
  432TIP3   OH2 1238   0.267   3.432   3.301
  432TIP3    H1 1239   0.291   3.442   3.208
  432TIP3    H2 1240   0.351   3.421   3.346
  433TIP3   OH2 1241   2.350   1.827   5.265
  433TIP3    H1 1242   2.386   1.910   5.297
  433TIP3    H2 1243   2.398   1.760   5.313
  434TIP3   OH2 1244   5.936   5.858   4.772
  434TIP3    H1 1245   6.007   5.915   4.741
  434TIP3    H2 1246   5.857   5.896   4.734
  435TIP3   OH2 1247   6.568   5.810   4.973
  435TIP3    H1 1248   6.484   5.828   4.929
  435TIP3    H2 1249   6.545   5.749   5.043
  436TIP3   OH2 1250   7.149   6.601   3.920
  436TIP3    H1 1251   7.237   6.593   3.884
  436TIP3    H2 1252   7.139   6.525   3.977
  437TIP3   OH2 1253   1.364   6.177   1.213
  437TIP3    H1 1254   1.376   6.259   1.166
  437TIP3    H2 1255   1.447   6.163   1.259
  438TIP3   OH2 1256   4.624   6.185   1.310
  438TIP3    H1 1257   4.574   6.260   1.343
  438TIP3    H2 1258   4.578   6.109   1.344
  439TIP3   OH2 1259   2.827   5.571   5.819
  439TIP3    H1 1260   2.859   5.610   5.737
  439TIP3    H2 1261   2.898   5.514   5.848
  440TIP3   OH2 1262   5.019   0.596   1.960
  440TIP3    H1 1263   5.102   0.564   1.996
  440TIP3    H2 1264   5.045   0.654   1.888
  441TIP3   OH2 1265   2.406   0.635   0.191
  441TIP3    H1 1266   2.446   0.597   0.113
  441TIP3    H2 1267   2.364   0.562   0.236
  442TIP3   OH2 1268   6.521   0.129   0.372
  442TIP3    H1 1269   6.523   0.211   0.422
  442TIP3    H2 1270   6.466   0.148   0.297
  443TIP3   OH2 1271   2.933   0.298   4.178
  443TIP3    H1 1272   2.887   0.217   4.155
  443TIP3    H2 1273   3.024   0.282   4.151
  444TIP3   OH2 1274   3.548   5.878   1.482
  444TIP3    H1 1275   3.463   5.915   1.507
  444TIP3    H2 1276   3.583   5.939   1.417
  445TIP3   OH2 1277   6.272   7.475   3.194
  445TIP3    H1 1278   6.302   7.565   3.205
  445TIP3    H2 1279   6.267   7.440   3.283
  446TIP3   OH2 1280   5.461   3.616   0.477
  446TIP3    H1 1281   5.426   3.676   0.411
  446TIP3    H2 1282   5.470   3.533   0.431
  447TIP3   OH2 1283   0.603   7.453   3.124
  447TIP3    H1 1284   0.555   7.389   3.070
  447TIP3    H2 1285   0.682   7.471   3.073
  448TIP3   OH2 1286   1.899   3.998   3.965
  448TIP3    H1 1287   1.968   3.933   3.975
  448TIP3    H2 1288   1.824   3.948   3.933
  449TIP3   OH2 1289   5.697   6.276   5.584
  449TIP3    H1 1290   5.649   6.247   5.506
  449TIP3    H2 1291   5.773   6.218   5.588
  450TIP3   OH2 1292   4.541   1.789   3.111
  450TIP3    H1 1293   4.595   1.717   3.078
  450TIP3    H2 1294   4.454   1.771   3.076
  451TIP3   OH2 1295   0.411   1.748   2.544
  451TIP3    H1 1296   0.396   1.814   2.477
  451TIP3    H2 1297   0.469   1.790   2.607
  452TIP3   OH2 1298   3.910   4.560   2.791
  452TIP3    H1 1299   3.822   4.597   2.781
  452TIP3    H2 1300   3.919   4.500   2.717
  453TIP3   OH2 1301   0.483   6.321   6.302
  453TIP3    H1 1302   0.570   6.294   6.331
  453TIP3    H2 1303   0.438   6.238   6.282
  454TIP3   OH2 1304   2.513   1.625   4.313
  454TIP3    H1 1305   2.593   1.608   4.265
  454TIP3    H2 1306   2.529   1.589   4.401
  455TIP3   OH2 1307   0.077   2.251   2.783
  455TIP3    H1 1308   0.124   2.186   2.731
  455TIP3    H2 1309   0.006   2.202   2.824
  456TIP3   OH2 1310   4.322   5.338   6.754
  456TIP3    H1 1311   4.265   5.283   6.700
  456TIP3    H2 1312   4.358   5.402   6.693
  457TIP3   OH2 1313   1.315   0.755   1.362
  457TIP3    H1 1314   1.269   0.720   1.438
  457TIP3    H2 1315   1.245   0.783   1.303
  458TIP3   OH2 1316   3.348   2.381   5.124
  458TIP3    H1 1317   3.299   2.309   5.083
  458TIP3    H2 1318   3.379   2.345   5.207
  459TIP3   OH2 1319   5.435   0.275   0.355
  459TIP3    H1 1320   5.468   0.194   0.395
  459TIP3    H2 1321   5.512   0.316   0.317
  460TIP3   OH2 1322   0.720   1.292   5.490
  460TIP3    H1 1323   0.628   1.292   5.515
  460TIP3    H2 1324   0.756   1.214   5.533
  461TIP3   OH2 1325   7.976   5.884   6.182
  461TIP3    H1 1326   7.974   5.845   6.269
  461TIP3    H2 1327   7.895   5.935   6.176
  462TIP3   OH2 1328   3.811   5.907   0.530
  462TIP3    H1 1329   3.805   6.003   0.532
  462TIP3    H2 1330   3.728   5.877   0.567
  463TIP3   OH2 1331   6.450   2.098   4.503
  463TIP3    H1 1332   6.482   2.175   4.456
  463TIP3    H2 1333   6.383   2.133   4.562
  464TIP3   OH2 1334   5.886   6.892   3.577
  464TIP3    H1 1335   5.926   6.884   3.490
  464TIP3    H2 1336   5.848   6.806   3.594
  465TIP3   OH2 1337   1.229   1.155   4.391
  465TIP3    H1 1338   1.285   1.085   4.357
  465TIP3    H2 1339   1.140   1.126   4.372
  466TIP3   OH2 1340   5.973   3.817   6.233
  466TIP3    H1 1341   5.999   3.895   6.281
  466TIP3    H2 1342   6.021   3.745   6.274
  467TIP3   OH2 1343   5.582   6.870   0.986
  467TIP3    H1 1344   5.521   6.796   0.978
  467TIP3    H2 1345   5.574   6.897   1.078
  468TIP3   OH2 1346   1.547   0.619   2.723
  468TIP3    H1 1347   1.589   0.701   2.749
  468TIP3    H2 1348   1.518   0.634   2.633
  469TIP3   OH2 1349   1.940   4.653   5.902
  469TIP3    H1 1350   2.024   4.607   5.908
  469TIP3    H2 1351   1.876   4.591   5.938
  470TIP3   OH2 1352   1.267   1.308   3.803
  470TIP3    H1 1353   1.230   1.358   3.731
  470TIP3    H2 1354   1.214   1.331   3.879
  471TIP3   OH2 1355   0.797   2.427   5.067
  471TIP3    H1 1356   0.785   2.423   5.162
  471TIP3    H2 1357   0.714   2.398   5.031
  472TIP3   OH2 1358   3.295   3.497   1.620
  472TIP3    H1 1359   3.291   3.505   1.525
  472TIP3    H2 1360   3.230   3.560   1.652
  473TIP3   OH2 1361   6.158   5.929  -0.021
  473TIP3    H1 1362   6.219   5.873   0.026
  473TIP3    H2 1363   6.123   5.988   0.045
  474TIP3   OH2 1364   2.438   7.656   6.588
  474TIP3    H1 1365   2.457   7.570   6.550
  474TIP3    H2 1366   2.348   7.674   6.560
  475TIP3   OH2 1367   0.059   0.764   3.396
  475TIP3    H1 1368  -0.010   0.811   3.349
  475TIP3    H2 1369   0.081   0.690   3.340
  476TIP3   OH2 1370   1.609   2.594   3.483
  476TIP3    H1 1371   1.562   2.514   3.461
  476TIP3    H2 1372   1.671   2.606   3.410
  477TIP3   OH2 1373   6.644   0.563   5.563
  477TIP3    H1 1374   6.699   0.613   5.503
  477TIP3    H2 1375   6.555   0.573   5.529
  478TIP3   OH2 1376   1.416   5.034   4.462
  478TIP3    H1 1377   1.345   5.040   4.398
  478TIP3    H2 1378   1.373   5.040   4.547
  479TIP3   OH2 1379   3.973   5.038   4.218
  479TIP3    H1 1380   4.009   5.022   4.131
  479TIP3    H2 1381   4.002   4.963   4.270
  480TIP3   OH2 1382   6.103   2.353   2.939
  480TIP3    H1 1383   6.023   2.379   2.891
  480TIP3    H2 1384   6.168   2.417   2.911
  481TIP3   OH2 1385   3.239   3.601   6.153
  481TIP3    H1 1386   3.154   3.644   6.145
  481TIP3    H2 1387   3.275   3.604   6.065
  482TIP3   OH2 1388   5.619   5.188   2.343
  482TIP3    H1 1389   5.642   5.243   2.268
  482TIP3    H2 1390   5.524   5.182   2.340
  483TIP3   OH2 1391   2.046   3.903   5.700
  483TIP3    H1 1392   2.116   3.960   5.730
  483TIP3    H2 1393   1.966   3.939   5.738
  484TIP3   OH2 1394   3.090   2.969   5.381
  484TIP3    H1 1395   3.058   3.002   5.297
  484TIP3    H2 1396   3.185   2.973   5.374
  485TIP3   OH2 1397   4.976   5.952   2.243
  485TIP3    H1 1398   4.916   5.983   2.175
  485TIP3    H2 1399   4.963   5.858   2.246
  486TIP3   OH2 1400   1.297   3.742   4.847
  486TIP3    H1 1401   1.245   3.806   4.897
  486TIP3    H2 1402   1.368   3.718   4.906
  487TIP3   OH2 1403   1.514   4.215   2.248
  487TIP3    H1 1404   1.586   4.226   2.186
  487TIP3    H2 1405   1.435   4.222   2.195
  488TIP3   OH2 1406   5.765   6.384   0.706
  488TIP3    H1 1407   5.794   6.473   0.688
  488TIP3    H2 1408   5.846   6.334   0.718
  489TIP3   OH2 1409   1.029   5.209   3.160
  489TIP3    H1 1410   0.972   5.232   3.233
  489TIP3    H2 1411   1.037   5.290   3.110
  490TIP3   OH2 1412   6.368   5.234   1.358
  490TIP3    H1 1413   6.449   5.260   1.402
  490TIP3    H2 1414   6.397   5.196   1.275
  491TIP3   OH2 1415   6.273   4.833   2.573
  491TIP3    H1 1416   6.340   4.846   2.640
  491TIP3    H2 1417   6.213   4.769   2.612
  492TIP3   OH2 1418   6.044   3.529   6.331
  492TIP3    H1 1419   6.040   3.435   6.315
  492TIP3    H2 1420   6.135   3.553   6.311
  493TIP3   OH2 1421   4.270   7.515   1.176
  493TIP3    H1 1422   4.200   7.579   1.163
  493TIP3    H2 1423   4.243   7.466   1.254
  494TIP3   OH2 1424   0.127   5.237   6.205
  494TIP3    H1 1425   0.159   5.318   6.165
  494TIP3    H2 1426   0.183   5.224   6.281
  495TIP3   OH2 1427   3.024   4.102   1.842
  495TIP3    H1 1428   3.103   4.054   1.815
  495TIP3    H2 1429   3.007   4.163   1.771
  496TIP3   OH2 1430   1.136   2.391   5.575
  496TIP3    H1 1431   1.210   2.339   5.544
  496TIP3    H2 1432   1.077   2.328   5.616
  497TIP3   OH2 1433   4.196   7.356   6.365
  497TIP3    H1 1434   4.212   7.425   6.430
  497TIP3    H2 1435   4.278   7.307   6.361
  498TIP3   OH2 1436   7.556   3.243   3.112
  498TIP3    H1 1437   7.526   3.178   3.176
  498TIP3    H2 1438   7.642   3.213   3.086
  499TIP3   OH2 1439   6.932   3.842   6.324
  499TIP3    H1 1440   6.982   3.915   6.289
  499TIP3    H2 1441   6.934   3.854   6.419
  500TIP3   OH2 1442   8.049   0.450   2.015
  500TIP3    H1 1443   8.080   0.432   1.926
  500TIP3    H2 1444   8.079   0.539   2.033
  501TIP3   OH2 1445   7.399   3.992   0.624
  501TIP3    H1 1446   7.459   3.918   0.630
  501TIP3    H2 1447   7.380   4.015   0.715
  502TIP3   OH2 1448   4.153   2.827   6.579
  502TIP3    H1 1449   4.079   2.817   6.639
  502TIP3    H2 1450   4.127   2.898   6.520
  503TIP3   OH2 1451   3.488   5.544   0.327
  503TIP3    H1 1452   3.468   5.629   0.289
  503TIP3    H2 1453   3.421   5.532   0.395
  504TIP3   OH2 1454   6.950   2.752   5.673
  504TIP3    H1 1455   6.965   2.846   5.661
  504TIP3    H2 1456   6.875   2.747   5.732
  505TIP3   OH2 1457   0.075   2.154   4.047
  505TIP3    H1 1458   0.035   2.091   4.107
  505TIP3    H2 1459   0.008   2.169   3.980
  506TIP3   OH2 1460   5.714   7.070   6.414
  506TIP3    H1 1461   5.705   7.160   6.382
  506TIP3    H2 1462   5.656   7.018   6.359
  507TIP3   OH2 1463   1.769   6.297   3.384
  507TIP3    H1 1464   1.695   6.259   3.432
  507TIP3    H2 1465   1.778   6.385   3.421
  508TIP3   OH2 1466   5.895   0.693   4.484
  508TIP3    H1 1467   5.901   0.599   4.496
  508TIP3    H2 1468   5.968   0.715   4.426
  509TIP3   OH2 1469   1.606   1.279   3.784
  509TIP3    H1 1470   1.651   1.247   3.861
  509TIP3    H2 1471   1.534   1.217   3.771
  510TIP3   OH2 1472   7.721   6.558   4.441
  510TIP3    H1 1473   7.631   6.543   4.469
  510TIP3    H2 1474   7.773   6.549   4.520
  511TIP3   OH2 1475   5.819   7.604   0.932
  511TIP3    H1 1476   5.771   7.660   0.992
  511TIP3    H2 1477   5.761   7.596   0.856
  512TIP3   OH2 1478   2.566   3.334   0.285
  512TIP3    H1 1479   2.618   3.255   0.298
  512TIP3    H2 1480   2.580   3.358   0.193
  513TIP3   OH2 1481   5.851   5.301   4.348
  513TIP3    H1 1482   5.925   5.323   4.405
  513TIP3    H2 1483   5.833   5.209   4.369
  514TIP3   OH2 1484   3.790   3.824   4.991
  514TIP3    H1 1485   3.859   3.757   4.988
  514TIP3    H2 1486   3.806   3.871   5.073
  515TIP3   OH2 1487   0.072   6.824   2.895
  515TIP3    H1 1488   0.006   6.878   2.939
  515TIP3    H2 1489   0.047   6.825   2.803
  516TIP3   OH2 1490   1.489   5.957   2.274
  516TIP3    H1 1491   1.494   5.946   2.369
  516TIP3    H2 1492   1.466   5.870   2.241
  517TIP3   OH2 1493   3.801   5.272   4.489
  517TIP3    H1 1494   3.751   5.260   4.408
  517TIP3    H2 1495   3.889   5.295   4.458
  518TIP3   OH2 1496   5.556   0.356   4.394
  518TIP3    H1 1497   5.572   0.286   4.330
  518TIP3    H2 1498   5.609   0.429   4.363
  519TIP3   OH2 1499   1.274   3.524   1.417
  519TIP3    H1 1500   1.206   3.476   1.369
  519TIP3    H2 1501   1.356   3.496   1.377
  520TIP3   OH2 1502   2.850   0.379   5.328
  520TIP3    H1 1503   2.813   0.304   5.281
  520TIP3    H2 1504   2.907   0.340   5.395
  521TIP3   OH2 1505   2.027   0.762   1.144
  521TIP3    H1 1506   2.103   0.770   1.201
  521TIP3    H2 1507   2.063   0.730   1.061
  522TIP3   OH2 1508   4.530   6.834   3.664
  522TIP3    H1 1509   4.587   6.773   3.711
  522TIP3    H2 1510   4.545   6.918   3.707
  523TIP3   OH2 1511   3.202   2.222   3.680
  523TIP3    H1 1512   3.235   2.186   3.762
  523TIP3    H2 1513   3.250   2.174   3.612
  524TIP3   OH2 1514   4.952   2.942   3.191
  524TIP3    H1 1515   5.037   2.982   3.213
  524TIP3    H2 1516   4.969   2.893   3.111
  525TIP3   OH2 1517   6.888   6.098   3.359
  525TIP3    H1 1518   6.829   6.041   3.310
  525TIP3    H2 1519   6.887   6.063   3.448
  526TIP3   OH2 1520   7.241   0.816   5.364
  526TIP3    H1 1521   7.165   0.874   5.358
  526TIP3    H2 1522   7.244   0.772   5.280
  527TIP3   OH2 1523   6.990   7.314   4.548
  527TIP3    H1 1524   7.075   7.335   4.586
  527TIP3    H2 1525   6.968   7.229   4.583
  528TIP3   OH2 1526   3.126   5.955   3.169
  528TIP3    H1 1527   3.070   5.878   3.177
  528TIP3    H2 1528   3.184   5.950   3.245
  529TIP3   OH2 1529   8.160   4.510   6.290
  529TIP3    H1 1530   8.150   4.599   6.255
  529TIP3    H2 1531   8.099   4.506   6.363
  530TIP3   OH2 1532   2.963   5.268   1.180
  530TIP3    H1 1533   2.883   5.223   1.206
  530TIP3    H2 1534   2.956   5.275   1.084
  531TIP3   OH2 1535   4.703   0.571   4.868
  531TIP3    H1 1536   4.672   0.655   4.835
  531TIP3    H2 1537   4.787   0.591   4.909
  532TIP3   OH2 1538   6.833   4.498   4.958
  532TIP3    H1 1539   6.869   4.570   4.905
  532TIP3    H2 1540   6.741   4.492   4.931
  533TIP3   OH2 1541   6.629   3.438   2.668
  533TIP3    H1 1542   6.718   3.434   2.701
  533TIP3    H2 1543   6.575   3.405   2.740
  534TIP3   OH2 1544   4.558   2.274   5.664
  534TIP3    H1 1545   4.556   2.370   5.667
  534TIP3    H2 1546   4.536   2.253   5.574
  535TIP3   OH2 1547   0.155   1.980   0.008
  535TIP3    H1 1548   0.163   2.022  -0.078
  535TIP3    H2 1549   0.208   2.034   0.066
  536TIP3   OH2 1550   5.689   0.662   1.220
  536TIP3    H1 1551   5.735   0.618   1.292
  536TIP3    H2 1552   5.661   0.746   1.258
  537TIP3   OH2 1553   5.611   5.535   2.237
  537TIP3    H1 1554   5.658   5.463   2.195
  537TIP3    H2 1555   5.593   5.596   2.165
  538TIP3   OH2 1556   1.952   7.263   5.263
  538TIP3    H1 1557   1.928   7.216   5.183
  538TIP3    H2 1558   1.895   7.227   5.330
  539TIP3   OH2 1559   4.542   6.846   0.159
  539TIP3    H1 1560   4.524   6.754   0.179
  539TIP3    H2 1561   4.635   6.849   0.138
  540TIP3   OH2 1562   0.995   2.410   3.515
  540TIP3    H1 1563   0.901   2.420   3.499
  540TIP3    H2 1564   1.036   2.444   3.435
  541TIP3   OH2 1565   5.066   1.005   1.696
  541TIP3    H1 1566   4.985   1.016   1.746
  541TIP3    H2 1567   5.072   0.911   1.680
  542TIP3   OH2 1568   5.094   7.509   2.978
  542TIP3    H1 1569   5.021   7.506   2.917
  542TIP3    H2 1570   5.135   7.423   2.971
  543TIP3   OH2 1571   3.333   1.135   1.180
  543TIP3    H1 1572   3.394   1.102   1.114
  543TIP3    H2 1573   3.321   1.061   1.240
  544TIP3   OH2 1574   7.901   6.370   3.169
  544TIP3    H1 1575   7.974   6.373   3.230
  544TIP3    H2 1576   7.940   6.344   3.086
  545TIP3   OH2 1577   1.911   4.676   3.237
  545TIP3    H1 1578   1.831   4.703   3.192
  545TIP3    H2 1579   1.899   4.708   3.327
  546TIP3   OH2 1580   0.331   3.399   4.112
  546TIP3    H1 1581   0.377   3.413   4.195
  546TIP3    H2 1582   0.382   3.331   4.068
  547TIP3   OH2 1583   0.020   1.061   0.142
  547TIP3    H1 1584   0.094   1.024   0.094
  547TIP3    H2 1585  -0.025   0.985   0.178
  548TIP3   OH2 1586   1.728   0.728   1.196
  548TIP3    H1 1587   1.810   0.751   1.153
  548TIP3    H2 1588   1.667   0.798   1.170
  549TIP3   OH2 1589   2.546   3.618   4.002
  549TIP3    H1 1590   2.565   3.553   4.070
  549TIP3    H2 1591   2.623   3.674   4.000
  550TIP3   OH2 1592   5.807   6.256   4.496
  550TIP3    H1 1593   5.753   6.226   4.422
  550TIP3    H2 1594   5.790   6.349   4.503
  551TIP3   OH2 1595   8.272   4.376   2.884
  551TIP3    H1 1596   8.282   4.284   2.910
  551TIP3    H2 1597   8.361   4.406   2.869
  552TIP3   OH2 1598   1.654   3.752   0.766
  552TIP3    H1 1599   1.675   3.824   0.707
  552TIP3    H2 1600   1.711   3.681   0.737
  553TIP3   OH2 1601   2.464   5.741   2.319
  553TIP3    H1 1602   2.494   5.830   2.337
  553TIP3    H2 1603   2.409   5.749   2.241
  554TIP3   OH2 1604   7.996   3.136   5.644
  554TIP3    H1 1605   8.033   3.169   5.726
  554TIP3    H2 1606   7.914   3.093   5.670
  555TIP3   OH2 1607   2.969   6.705   1.544
  555TIP3    H1 1608   3.026   6.683   1.471
  555TIP3    H2 1609   2.992   6.795   1.566
  556TIP3   OH2 1610   1.799   1.410   1.388
  556TIP3    H1 1611   1.810   1.370   1.302
  556TIP3    H2 1612   1.885   1.404   1.429
  557TIP3   OH2 1613   4.855   2.060   0.784
  557TIP3    H1 1614   4.892   2.090   0.867
  557TIP3    H2 1615   4.875   2.130   0.722
  558TIP3   OH2 1616   6.424   2.708   0.253
  558TIP3    H1 1617   6.470   2.682   0.333
  558TIP3    H2 1618   6.409   2.626   0.206
  559TIP3   OH2 1619   7.108   3.938   0.139
  559TIP3    H1 1620   7.072   3.915   0.225
  559TIP3    H2 1621   7.055   4.012   0.109
  560TIP3   OH2 1622   8.014   7.789   4.189
  560TIP3    H1 1623   8.091   7.823   4.235
  560TIP3    H2 1624   8.040   7.784   4.097
  561TIP3   OH2 1625   5.821   0.513   1.433
  561TIP3    H1 1626   5.800   0.498   1.525
  561TIP3    H2 1627   5.902   0.563   1.435
  562TIP3   OH2 1628   3.579   1.751   3.510
  562TIP3    H1 1629   3.526   1.776   3.435
  562TIP3    H2 1630   3.530   1.784   3.586
  563TIP3   OH2 1631   0.122   4.701   0.224
  563TIP3    H1 1632   0.087   4.784   0.193
  563TIP3    H2 1633   0.124   4.645   0.146
  564TIP3   OH2 1634   6.839   2.580   4.259
  564TIP3    H1 1635   6.813   2.648   4.197
  564TIP3    H2 1636   6.818   2.616   4.345
  565TIP3   OH2 1637   5.798   4.394   2.624
  565TIP3    H1 1638   5.849   4.388   2.705
  565TIP3    H2 1639   5.727   4.456   2.645
  566TIP3   OH2 1640   5.777   3.954   3.760
  566TIP3    H1 1641   5.863   3.995   3.764
  566TIP3    H2 1642   5.747   3.970   3.671
  567TIP3   OH2 1643   0.953   2.201   5.698
  567TIP3    H1 1644   0.984   2.131   5.641
  567TIP3    H2 1645   0.874   2.165   5.740
  568TIP3   OH2 1646   3.433   5.467   5.383
  568TIP3    H1 1647   3.424   5.495   5.474
  568TIP3    H2 1648   3.523   5.490   5.359
  569TIP3   OH2 1649   1.480   7.140   3.245
  569TIP3    H1 1650   1.441   7.120   3.329
  569TIP3    H2 1651   1.408   7.173   3.191
  570TIP3   OH2 1652   7.758   1.238   0.599
  570TIP3    H1 1653   7.840   1.248   0.550
  570TIP3    H2 1654   7.730   1.328   0.616
  571TIP3   OH2 1655   7.018   3.319   3.628
  571TIP3    H1 1656   6.948   3.278   3.679
  571TIP3    H2 1657   7.037   3.401   3.674
  572TIP3   OH2 1658   4.485   7.334   4.694
  572TIP3    H1 1659   4.415   7.382   4.738
  572TIP3    H2 1660   4.547   7.312   4.763
  573TIP3   OH2 1661   6.330   1.195   4.897
  573TIP3    H1 1662   6.363   1.135   4.830
  573TIP3    H2 1663   6.348   1.282   4.862
  574TIP3   OH2 1664   1.296   2.952   4.450
  574TIP3    H1 1665   1.287   2.916   4.361
  574TIP3    H2 1666   1.325   3.042   4.437
  575TIP3   OH2 1667   6.633   1.063   5.739
  575TIP3    H1 1668   6.717   1.075   5.783
  575TIP3    H2 1669   6.602   0.978   5.771
  576TIP3   OH2 1670   3.339   6.226   2.315
  576TIP3    H1 1671   3.311   6.258   2.229
  576TIP3    H2 1672   3.316   6.296   2.375
  577TIP3   OH2 1673   3.967   5.271   6.672
  577TIP3    H1 1674   3.891   5.264   6.614
  577TIP3    H2 1675   3.968   5.362   6.700
  578TIP3   OH2 1676   7.267   0.438   1.629
  578TIP3    H1 1677   7.217   0.378   1.574
  578TIP3    H2 1678   7.257   0.524   1.587
  579TIP3   OH2 1679   2.006   2.065   1.784
  579TIP3    H1 1680   1.946   1.998   1.818
  579TIP3    H2 1681   2.088   2.049   1.830
  580TIP3   OH2 1682   6.299   0.308   1.446
  580TIP3    H1 1683   6.282   0.402   1.457
  580TIP3    H2 1684   6.345   0.302   1.362
  581TIP3   OH2 1685   2.380   3.001   5.078
  581TIP3    H1 1686   2.298   3.008   5.128
  581TIP3    H2 1687   2.433   3.074   5.110
  582TIP3   OH2 1688   0.522   2.403   1.221
  582TIP3    H1 1689   0.582   2.351   1.167
  582TIP3    H2 1690   0.541   2.375   1.311
  583TIP3   OH2 1691   5.116   6.426   4.923
  583TIP3    H1 1692   5.081   6.488   4.858
  583TIP3    H2 1693   5.043   6.409   4.982
  584TIP3   OH2 1694   2.949   2.705   5.361
  584TIP3    H1 1695   2.990   2.791   5.358
  584TIP3    H2 1696   3.016   2.645   5.329
  585TIP3   OH2 1697   3.624   4.719   5.098
  585TIP3    H1 1698   3.570   4.648   5.062
  585TIP3    H2 1699   3.560   4.782   5.132
  586TIP3   OH2 1700   7.263   0.440   2.353
  586TIP3    H1 1701   7.169   0.454   2.342
  586TIP3    H2 1702   7.288   0.381   2.282
  587TIP3   OH2 1703   4.927   6.224   5.527
  587TIP3    H1 1704   4.921   6.276   5.607
  587TIP3    H2 1705   4.898   6.137   5.553
  588TIP3   OH2 1706   7.589   5.639   4.995
  588TIP3    H1 1707   7.654   5.597   4.938
  588TIP3    H2 1708   7.505   5.607   4.963
  589TIP3   OH2 1709   6.392   3.339   6.218
  589TIP3    H1 1710   6.387   3.254   6.174
  589TIP3    H2 1711   6.368   3.322   6.309
  590TIP3   OH2 1712   2.636   1.234   5.258
  590TIP3    H1 1713   2.631   1.321   5.219
  590TIP3    H2 1714   2.726   1.226   5.289
  591TIP3   OH2 1715   0.498   2.093   5.145
  591TIP3    H1 1716   0.496   2.189   5.142
  591TIP3    H2 1717   0.522   2.073   5.236
  592TIP3   OH2 1718   3.801   6.833   0.350
  592TIP3    H1 1719   3.800   6.912   0.405
  592TIP3    H2 1720   3.894   6.813   0.339
  593TIP3   OH2 1721   3.019   1.166   1.772
  593TIP3    H1 1722   2.932   1.142   1.740
  593TIP3    H2 1723   3.001   1.218   1.851
  594TIP3   OH2 1724   2.538   2.666   4.210
  594TIP3    H1 1725   2.527   2.735   4.275
  594TIP3    H2 1726   2.543   2.712   4.126
  595TIP3   OH2 1727   3.553   6.578   6.485
  595TIP3    H1 1728   3.474   6.631   6.493
  595TIP3    H2 1729   3.522   6.495   6.447
  596TIP3   OH2 1730   3.915   2.894   6.806
  596TIP3    H1 1731   3.844   2.831   6.796
  596TIP3    H2 1732   3.892   2.965   6.745
  597TIP3   OH2 1733   1.491   4.990   1.207
  597TIP3    H1 1734   1.498   4.905   1.250
  597TIP3    H2 1735   1.429   5.040   1.261
  598TIP3   OH2 1736   4.869   0.081   6.746
  598TIP3    H1 1737   4.885   0.097   6.839
  598TIP3    H2 1738   4.940   0.126   6.701
  599TIP3   OH2 1739   2.108   5.538   5.980
  599TIP3    H1 1740   2.156   5.507   5.903
  599TIP3    H2 1741   2.174   5.583   6.033
  600TIP3   OH2 1742   3.884   4.826   1.427
  600TIP3    H1 1743   3.904   4.754   1.486
  600TIP3    H2 1744   3.791   4.818   1.408
  601TIP3   OH2 1745   6.475   3.338   5.198
  601TIP3    H1 1746   6.467   3.337   5.102
  601TIP3    H2 1747   6.512   3.424   5.218
  602TIP3   OH2 1748   4.153   1.302   6.502
  602TIP3    H1 1749   4.191   1.239   6.563
  602TIP3    H2 1750   4.143   1.382   6.554
  603TIP3   OH2 1751   5.882   4.622   4.382
  603TIP3    H1 1752   5.951   4.653   4.442
  603TIP3    H2 1753   5.849   4.702   4.340
  604TIP3   OH2 1754   0.398   2.810   3.976
  604TIP3    H1 1755   0.333   2.877   3.996
  604TIP3    H2 1756   0.347   2.731   3.960
  605TIP3   OH2 1757   5.323   5.386   0.247
  605TIP3    H1 1758   5.312   5.438   0.168
  605TIP3    H2 1759   5.402   5.334   0.231
  606TIP3   OH2 1760   1.262   4.492   1.662
  606TIP3    H1 1761   1.331   4.441   1.706
  606TIP3    H2 1762   1.260   4.575   1.710
  607TIP3   OH2 1763   5.232   5.635   4.014
  607TIP3    H1 1764   5.150   5.605   3.973
  607TIP3    H2 1765   5.264   5.559   4.062
  608TIP3   OH2 1766   6.558   7.306   6.281
  608TIP3    H1 1767   6.557   7.308   6.377
  608TIP3    H2 1768   6.481   7.356   6.255
  609TIP3   OH2 1769   6.878   2.324   6.177
  609TIP3    H1 1770   6.965   2.362   6.170
  609TIP3    H2 1771   6.857   2.330   6.270
  610TIP3   OH2 1772   7.474   2.342   5.995
  610TIP3    H1 1773   7.482   2.247   5.983
  610TIP3    H2 1774   7.383   2.355   6.021
  611TIP3   OH2 1775   2.980   1.003   3.368
  611TIP3    H1 1776   2.994   1.091   3.403
  611TIP3    H2 1777   2.885   0.995   3.360
  612TIP3   OH2 1778   1.926   6.067   1.538
  612TIP3    H1 1779   1.998   6.049   1.598
  612TIP3    H2 1780   1.940   6.006   1.465
  613TIP3   OH2 1781   7.849   0.770   3.805
  613TIP3    H1 1782   7.818   0.686   3.771
  613TIP3    H2 1783   7.817   0.834   3.741
  614TIP3   OH2 1784   0.838   1.542   6.193
  614TIP3    H1 1785   0.916   1.595   6.178
  614TIP3    H2 1786   0.804   1.572   6.278
  615TIP3   OH2 1787   4.744   5.455   1.894
  615TIP3    H1 1788   4.800   5.507   1.951
  615TIP3    H2 1789   4.804   5.410   1.835
  616TIP3   OH2 1790   7.695   1.490   6.130
  616TIP3    H1 1791   7.664   1.491   6.220
  616TIP3    H2 1792   7.791   1.481   6.137
  617TIP3   OH2 1793   8.026   0.263   3.421
  617TIP3    H1 1794   7.955   0.327   3.418
  617TIP3    H2 1795   8.040   0.246   3.514
  618TIP3   OH2 1796   6.682   3.268   6.097
  618TIP3    H1 1797   6.667   3.346   6.150
  618TIP3    H2 1798   6.600   3.220   6.101
  619TIP3   OH2 1799   7.504   1.373   1.892
  619TIP3    H1 1800   7.560   1.353   1.967
  619TIP3    H2 1801   7.464   1.457   1.914
  620TIP3   OH2 1802   0.784   2.482   6.735
  620TIP3    H1 1803   0.866   2.442   6.765
  620TIP3    H2 1804   0.804   2.514   6.647
  621TIP3   OH2 1805   4.426   2.874   2.271
  621TIP3    H1 1806   4.399   2.965   2.261
  621TIP3    H2 1807   4.386   2.829   2.196
  622TIP3   OH2 1808   8.057   6.406   4.122
  622TIP3    H1 1809   7.991   6.407   4.192
  622TIP3    H2 1810   8.006   6.418   4.042
  623TIP3   OH2 1811   5.989   0.919   0.110
  623TIP3    H1 1812   6.037   0.839   0.089
  623TIP3    H2 1813   5.933   0.934   0.034
  624TIP3   OH2 1814   6.892   3.885   4.240
  624TIP3    H1 1815   6.833   3.896   4.166
  624TIP3    H2 1816   6.882   3.966   4.291
  625TIP3   OH2 1817   0.410   4.664   1.606
  625TIP3    H1 1818   0.434   4.583   1.652
  625TIP3    H2 1819   0.482   4.679   1.545
  626TIP3   OH2 1820   8.033   0.527   1.617
  626TIP3    H1 1821   7.960   0.579   1.652
  626TIP3    H2 1822   7.995   0.482   1.541
  627TIP3   OH2 1823   7.278   7.702   1.470
  627TIP3    H1 1824   7.293   7.667   1.558
  627TIP3    H2 1825   7.242   7.628   1.420
  628TIP3   OH2 1826   1.575   4.602   4.983
  628TIP3    H1 1827   1.541   4.632   4.899
  628TIP3    H2 1828   1.654   4.553   4.961
  629TIP3   OH2 1829   2.202   3.342   5.356
  629TIP3    H1 1830   2.272   3.363   5.418
  629TIP3    H2 1831   2.127   3.394   5.386
  630TIP3   OH2 1832   2.531   7.325   5.645
  630TIP3    H1 1833   2.588   7.347   5.571
  630TIP3    H2 1834   2.498   7.409   5.677
  631TIP3   OH2 1835   7.670   6.542   6.033
  631TIP3    H1 1836   7.743   6.597   6.005
  631TIP3    H2 1837   7.624   6.594   6.098
  632TIP3   OH2 1838   7.390   5.907   6.052
  632TIP3    H1 1839   7.373   5.842   5.983
  632TIP3    H2 1840   7.448   5.971   6.010
  633TIP3   OH2 1841   0.656   6.222   4.732
  633TIP3    H1 1842   0.585   6.161   4.718
  633TIP3    H2 1843   0.668   6.224   4.827
  634TIP3   OH2 1844   2.382   5.302   1.451
  634TIP3    H1 1845   2.417   5.378   1.498
  634TIP3    H2 1846   2.399   5.321   1.359
  635TIP3   OH2 1847   2.662   4.135   2.194
  635TIP3    H1 1848   2.680   4.042   2.206
  635TIP3    H2 1849   2.741   4.169   2.151
  636TIP3   OH2 1850   5.030   3.115   1.910
  636TIP3    H1 1851   4.981   3.033   1.919
  636TIP3    H2 1852   5.022   3.158   1.995
  637TIP3   OH2 1853   7.463   6.849   2.403
  637TIP3    H1 1854   7.435   6.915   2.340
  637TIP3    H2 1855   7.424   6.767   2.371
  638TIP3   OH2 1856   2.269   4.743   3.639
  638TIP3    H1 1857   2.330   4.759   3.567
  638TIP3    H2 1858   2.244   4.652   3.630
  639TIP3   OH2 1859   0.981   6.360   6.680
  639TIP3    H1 1860   1.060   6.306   6.674
  639TIP3    H2 1861   0.981   6.393   6.770
  640TIP3   OH2 1862   6.996   5.870   2.926
  640TIP3    H1 1863   7.028   5.946   2.975
  640TIP3    H2 1864   7.002   5.897   2.834
  641TIP3   OH2 1865   5.759   7.222   1.022
  641TIP3    H1 1866   5.840   7.171   1.034
  641TIP3    H2 1867   5.763   7.251   0.931
  642TIP3   OH2 1868   4.979   4.760   4.518
  642TIP3    H1 1869   4.932   4.708   4.583
  642TIP3    H2 1870   4.964   4.713   4.436
  643TIP3   OH2 1871   8.258   5.084   3.403
  643TIP3    H1 1872   8.277   5.122   3.489
  643TIP3    H2 1873   8.201   5.147   3.360
  644TIP3   OH2 1874   7.932   6.650   1.769
  644TIP3    H1 1875   7.974   6.585   1.712
  644TIP3    H2 1876   7.845   6.661   1.732
  645TIP3   OH2 1877   3.808   4.515   6.507
  645TIP3    H1 1878   3.875   4.502   6.440
  645TIP3    H2 1879   3.811   4.436   6.560
  646TIP3   OH2 1880   7.722   0.591   0.654
  646TIP3    H1 1881   7.697   0.633   0.736
  646TIP3    H2 1882   7.735   0.663   0.592
  647TIP3   OH2 1883   4.498   0.375   2.382
  647TIP3    H1 1884   4.403   0.377   2.386
  647TIP3    H2 1885   4.525   0.348   2.470
  648TIP3   OH2 1886  -0.028   5.741   1.217
  648TIP3    H1 1887  -0.066   5.658   1.189
  648TIP3    H2 1888  -0.099   5.804   1.205
  649TIP3   OH2 1889   6.745   3.165   4.151
  649TIP3    H1 1890   6.758   3.137   4.242
  649TIP3    H2 1891   6.736   3.084   4.102
  650TIP3   OH2 1892   4.552   3.784   2.971
  650TIP3    H1 1893   4.496   3.709   2.991
  650TIP3    H2 1894   4.498   3.861   2.988
  651TIP3   OH2 1895   8.162   1.177   5.449
  651TIP3    H1 1896   8.223   1.218   5.388
  651TIP3    H2 1897   8.138   1.246   5.510
  652TIP3   OH2 1898   3.775   0.220   3.182
  652TIP3    H1 1899   3.855   0.261   3.216
  652TIP3    H2 1900   3.807   0.151   3.125
  653TIP3   OH2 1901   4.580   4.303   3.275
  653TIP3    H1 1902   4.492   4.269   3.258
  653TIP3    H2 1903   4.565   4.391   3.311
  654TIP3   OH2 1904   7.154   4.419   0.252
  654TIP3    H1 1905   7.092   4.353   0.220
  654TIP3    H2 1906   7.240   4.379   0.239
  655TIP3   OH2 1907   7.004   5.946   0.038
  655TIP3    H1 1908   7.088   5.992   0.050
  655TIP3    H2 1909   6.974   5.928   0.127
  656TIP3   OH2 1910   3.558   3.283   6.189
  656TIP3    H1 1911   3.498   3.221   6.148
  656TIP3    H2 1912   3.510   3.366   6.191
  657TIP3   OH2 1913   7.200   6.704   1.367
  657TIP3    H1 1914   7.137   6.666   1.429
  657TIP3    H2 1915   7.238   6.777   1.414
  658TIP3   OH2 1916   4.914   3.945   4.154
  658TIP3    H1 1917   4.919   3.939   4.059
  658TIP3    H2 1918   4.859   3.871   4.180
  659TIP3   OH2 1919   3.605   7.554   1.027
  659TIP3    H1 1920   3.560   7.569   0.944
  659TIP3    H2 1921   3.588   7.461   1.047
  660TIP3   OH2 1922   2.306   0.523   6.564
  660TIP3    H1 1923   2.273   0.458   6.626
  660TIP3    H2 1924   2.231   0.543   6.508
  661TIP3   OH2 1925   4.010   1.051   6.632
  661TIP3    H1 1926   4.099   1.087   6.639
  661TIP3    H2 1927   4.021   0.957   6.645
  662TIP3   OH2 1928   2.645   4.899   5.026
  662TIP3    H1 1929   2.557   4.908   4.989
  662TIP3    H2 1930   2.631   4.869   5.116
  663TIP3   OH2 1931   1.547   1.440   4.144
  663TIP3    H1 1932   1.523   1.352   4.118
  663TIP3    H2 1933   1.637   1.451   4.113
  664TIP3   OH2 1934   7.193   4.593   1.948
  664TIP3    H1 1935   7.281   4.579   1.983
  664TIP3    H2 1936   7.134   4.566   2.019
  665TIP3   OH2 1937   8.101   3.158   1.591
  665TIP3    H1 1938   8.023   3.105   1.603
  665TIP3    H2 1939   8.103   3.177   1.497
  666TIP3   OH2 1940   6.532   2.582   2.654
  666TIP3    H1 1941   6.558   2.652   2.593
  666TIP3    H2 1942   6.470   2.529   2.604
  667TIP3   OH2 1943   5.926   4.768   1.937
  667TIP3    H1 1944   5.922   4.814   2.021
  667TIP3    H2 1945   5.985   4.694   1.954
  668TIP3   OH2 1946   1.314   4.296   1.031
  668TIP3    H1 1947   1.296   4.390   1.018
  668TIP3    H2 1948   1.340   4.265   0.944
  669TIP3   OH2 1949   4.345   0.476   6.397
  669TIP3    H1 1950   4.387   0.390   6.410
  669TIP3    H2 1951   4.402   0.521   6.335
  670TIP3   OH2 1952   6.560   3.537   2.032
  670TIP3    H1 1953   6.512   3.607   1.987
  670TIP3    H2 1954   6.627   3.583   2.083
  671TIP3   OH2 1955   1.769   4.170   0.441
  671TIP3    H1 1956   1.682   4.210   0.444
  671TIP3    H2 1957   1.823   4.231   0.391
  672TIP3   OH2 1958   2.582   7.301   5.104
  672TIP3    H1 1959   2.514   7.356   5.141
  672TIP3    H2 1960   2.575   7.314   5.010
  673TIP3   OH2 1961   2.257   0.410   5.472
  673TIP3    H1 1962   2.198   0.420   5.548
  673TIP3    H2 1963   2.244   0.320   5.443
  674TIP3   OH2 1964   8.023   2.684   0.958
  674TIP3    H1 1965   8.063   2.770   0.971
  674TIP3    H2 1966   8.094   2.622   0.967
  675TIP3   OH2 1967   0.179   3.793   5.476
  675TIP3    H1 1968   0.180   3.712   5.528
  675TIP3    H2 1969   0.272   3.814   5.465
  676TIP3   OH2 1970   8.150   6.519   3.755
  676TIP3    H1 1971   8.082   6.507   3.821
  676TIP3    H2 1972   8.112   6.579   3.691
  677TIP3   OH2 1973   3.521   7.069   0.514
  677TIP3    H1 1974   3.616   7.085   0.520
  677TIP3    H2 1975   3.500   7.089   0.423
  678TIP3   OH2 1976   1.040   0.606   4.085
  678TIP3    H1 1977   1.070   0.515   4.094
  678TIP3    H2 1978   1.001   0.610   3.998
  679TIP3   OH2 1979   0.213   5.142   1.408
  679TIP3    H1 1980   0.176   5.144   1.496
  679TIP3    H2 1981   0.294   5.193   1.414
  680TIP3   OH2 1982   5.281   0.384   3.199
  680TIP3    H1 1983   5.194   0.360   3.169
  680TIP3    H2 1984   5.335   0.307   3.181
  681TIP3   OH2 1985   2.680   7.166   3.811
  681TIP3    H1 1986   2.682   7.113   3.731
  681TIP3    H2 1987   2.612   7.126   3.865
  682TIP3   OH2 1988   5.865   1.491   1.618
  682TIP3    H1 1989   5.863   1.420   1.682
  682TIP3    H2 1990   5.857   1.447   1.534
  683TIP3   OH2 1991   3.010   7.331   6.394
  683TIP3    H1 1992   3.103   7.353   6.399
  683TIP3    H2 1993   3.009   7.235   6.393
  684TIP3   OH2 1994   3.813   4.168   5.151
  684TIP3    H1 1995   3.875   4.241   5.145
  684TIP3    H2 1996   3.868   4.090   5.147
  685TIP3   OH2 1997   3.399   5.539   2.445
  685TIP3    H1 1998   3.387   5.614   2.504
  685TIP3    H2 1999   3.465   5.569   2.382
  686TIP3   OH2 2000   5.993   1.587   3.996
  686TIP3    H1 2001   5.909   1.556   4.028
  686TIP3    H2 2002   6.033   1.510   3.956
  687TIP3   OH2 2003   3.456   6.966   6.574
  687TIP3    H1 2004   3.526   6.923   6.624
  687TIP3    H2 2005   3.499   7.043   6.537
  688TIP3   OH2 2006   2.840   2.089   2.628
  688TIP3    H1 2007   2.762   2.113   2.579
  688TIP3    H2 2008   2.856   1.997   2.606
  689TIP3   OH2 2009   6.417   1.790   2.585
  689TIP3    H1 2010   6.397   1.818   2.674
  689TIP3    H2 2011   6.336   1.806   2.536
  690TIP3   OH2 2012   2.644   5.008   0.499
  690TIP3    H1 2013   2.658   4.941   0.431
  690TIP3    H2 2014   2.732   5.036   0.523
  691TIP3   OH2 2015   1.386   1.567   3.158
  691TIP3    H1 2016   1.479   1.575   3.179
  691TIP3    H2 2017   1.377   1.479   3.122
  692TIP3   OH2 2018   7.010   5.257   0.178
  692TIP3    H1 2019   6.947   5.237   0.247
  692TIP3    H2 2020   7.094   5.267   0.223
  693TIP3   OH2 2021   0.178   6.306   2.905
  693TIP3    H1 2022   0.138   6.332   2.988
  693TIP3    H2 2023   0.223   6.385   2.874
  694TIP3   OH2 2024   5.365   5.890   6.706
  694TIP3    H1 2025   5.422   5.841   6.764
  694TIP3    H2 2026   5.378   5.850   6.620
  695TIP3   OH2 2027   3.215   1.787   6.784
  695TIP3    H1 2028   3.239   1.875   6.753
  695TIP3    H2 2029   3.289   1.761   6.839
  696TIP3   OH2 2030   3.795   2.031   5.841
  696TIP3    H1 2031   3.791   2.045   5.746
  696TIP3    H2 2032   3.709   2.059   5.873
  697TIP3   OH2 2033   8.148   4.803   1.856
  697TIP3    H1 2034   8.219   4.806   1.920
  697TIP3    H2 2035   8.182   4.746   1.786
  698TIP3   OH2 2036   3.596   2.427   3.172
  698TIP3    H1 2037   3.546   2.416   3.092
  698TIP3    H2 2038   3.531   2.420   3.242
  699TIP3   OH2 2039   6.104   6.204   1.089
  699TIP3    H1 2040   6.187   6.237   1.125
  699TIP3    H2 2041   6.105   6.110   1.109
  700TIP3   OH2 2042   2.748   6.932   1.228
  700TIP3    H1 2043   2.754   7.021   1.194
  700TIP3    H2 2044   2.709   6.942   1.315
  701TIP3   OH2 2045   1.396   2.651   2.996
  701TIP3    H1 2046   1.434   2.574   3.038
  701TIP3    H2 2047   1.454   2.723   3.021
  702TIP3   OH2 2048   8.120   6.856   2.483
  702TIP3    H1 2049   8.145   6.796   2.554
  702TIP3    H2 2050   8.114   6.800   2.405
  703TIP3   OH2 2051   1.761   5.633   4.843
  703TIP3    H1 2052   1.835   5.579   4.871
  703TIP3    H2 2053   1.706   5.641   4.920
  704TIP3   OH2 2054   6.580   1.411   6.630
  704TIP3    H1 2055   6.498   1.458   6.609
  704TIP3    H2 2056   6.636   1.427   6.554
  705TIP3   OH2 2057   0.097   1.480   0.150
  705TIP3    H1 2058   0.138   1.541   0.212
  705TIP3    H2 2059   0.117   1.517   0.064
  706TIP3   OH2 2060   2.408   2.110   0.309
  706TIP3    H1 2061   2.393   2.186   0.253
  706TIP3    H2 2062   2.477   2.137   0.369
  707TIP3   OH2 2063   4.733   3.520   0.357
  707TIP3    H1 2064   4.809   3.479   0.400
  707TIP3    H2 2065   4.768   3.556   0.276
  708TIP3   OH2 2066   4.424   2.305   6.039
  708TIP3    H1 2067   4.433   2.243   5.967
  708TIP3    H2 2068   4.503   2.294   6.091
  709TIP3   OH2 2069   4.997   1.055   4.645
  709TIP3    H1 2070   4.998   1.151   4.641
  709TIP3    H2 2071   5.025   1.027   4.558
  710TIP3   OH2 2072   3.962   2.462   1.413
  710TIP3    H1 2073   4.001   2.517   1.345
  710TIP3    H2 2074   3.880   2.432   1.375
  711TIP3   OH2 2075   7.768   6.036   6.142
  711TIP3    H1 2076   7.719   6.028   6.224
  711TIP3    H2 2077   7.749   6.125   6.112
  712TIP3   OH2 2078   7.134   4.017   6.561
  712TIP3    H1 2079   7.206   4.080   6.565
  712TIP3    H2 2080   7.174   3.938   6.525
  713TIP3   OH2 2081   5.633   7.795   2.205
  713TIP3    H1 2082   5.563   7.841   2.251
  713TIP3    H2 2083   5.616   7.810   2.112
  714TIP3   OH2 2084   1.778   2.646   3.997
  714TIP3    H1 2085   1.722   2.576   4.030
  714TIP3    H2 2086   1.754   2.722   4.051
  715TIP3   OH2 2087   5.663   6.223   3.118
  715TIP3    H1 2088   5.657   6.318   3.108
  715TIP3    H2 2089   5.753   6.202   3.091
  716TIP3   OH2 2090   7.450   5.974   5.594
  716TIP3    H1 2091   7.437   6.061   5.556
  716TIP3    H2 2092   7.515   5.933   5.538
  717TIP3   OH2 2093   0.336   1.521   1.353
  717TIP3    H1 2094   0.241   1.534   1.352
  717TIP3    H2 2095   0.354   1.468   1.275
  718TIP3   OH2 2096   5.869   6.502   4.854
  718TIP3    H1 2097   5.858   6.410   4.877
  718TIP3    H2 2098   5.946   6.504   4.797
  719TIP3   OH2 2099   1.911   0.501   4.098
  719TIP3    H1 2100   1.994   0.455   4.114
  719TIP3    H2 2101   1.846   0.431   4.092
  720TIP3   OH2 2102   2.182   7.272   4.339
  720TIP3    H1 2103   2.107   7.272   4.398
  720TIP3    H2 2104   2.250   7.225   4.387
  721TIP3   OH2 2105   7.531   7.791   0.205
  721TIP3    H1 2106   7.490   7.876   0.221
  721TIP3    H2 2107   7.553   7.792   0.112
  722TIP3   OH2 2108   3.531   0.416   4.976
  722TIP3    H1 2109   3.467   0.379   5.038
  722TIP3    H2 2110   3.615   0.380   5.004
  723TIP3   OH2 2111   1.597   0.063   1.339
  723TIP3    H1 2112   1.634  -0.005   1.395
  723TIP3    H2 2113   1.604   0.028   1.250
  724TIP3   OH2 2114   3.696   2.640   6.101
  724TIP3    H1 2115   3.607   2.647   6.066
  724TIP3    H2 2116   3.748   2.700   6.047
  725TIP3   OH2 2117   5.873   5.075   3.240
  725TIP3    H1 2118   5.966   5.093   3.252
  725TIP3    H2 2119   5.832   5.161   3.232
  726TIP3   OH2 2120   5.095   2.176   6.342
  726TIP3    H1 2121   5.184   2.204   6.363
  726TIP3    H2 2122   5.039   2.246   6.376
  727TIP3   OH2 2123   5.869   1.935   4.919
  727TIP3    H1 2124   5.888   1.879   4.844
  727TIP3    H2 2125   5.777   1.917   4.939
  728TIP3   OH2 2126   0.300   5.716   1.042
  728TIP3    H1 2127   0.228   5.767   1.005
  728TIP3    H2 2128   0.353   5.781   1.089
  729TIP3   OH2 2129   5.526   3.153   0.734
  729TIP3    H1 2130   5.600   3.162   0.795
  729TIP3    H2 2131   5.511   3.242   0.701
  730TIP3   OH2 2132   7.942   3.340   6.409
  730TIP3    H1 2133   7.987   3.420   6.381
  730TIP3    H2 2134   8.006   3.295   6.465
  731TIP3   OH2 2135   7.508   0.895   0.783
  731TIP3    H1 2136   7.505   0.929   0.694
  731TIP3    H2 2137   7.441   0.826   0.785
  732TIP3   OH2 2138   5.798   6.538   1.033
  732TIP3    H1 2139   5.810   6.600   0.961
  732TIP3    H2 2140   5.800   6.592   1.112
  733TIP3   OH2 2141   0.598   6.804   5.936
  733TIP3    H1 2142   0.693   6.815   5.942
  733TIP3    H2 2143   0.577   6.824   5.845
  734TIP3   OH2 2144   3.711   6.772   5.768
  734TIP3    H1 2145   3.743   6.793   5.856
  734TIP3    H2 2146   3.761   6.829   5.710
  735TIP3   OH2 2147   1.909   0.357   6.507
  735TIP3    H1 2148   1.844   0.413   6.464
  735TIP3    H2 2149   1.934   0.406   6.585
  736TIP3   OH2 2150   6.944   5.146   5.922
  736TIP3    H1 2151   6.920   5.065   5.965
  736TIP3    H2 2152   6.887   5.212   5.960
  737TIP3   OH2 2153   0.098   1.141   4.075
  737TIP3    H1 2154   0.147   1.137   4.157
  737TIP3    H2 2155   0.136   1.071   4.021
  738TIP3   OH2 2156   3.875   7.297   2.920
  738TIP3    H1 2157   3.849   7.220   2.971
  738TIP3    H2 2158   3.961   7.273   2.884
  739TIP3   OH2 2159   2.045   1.784   0.275
  739TIP3    H1 2160   2.049   1.688   0.271
  739TIP3    H2 2161   2.129   1.810   0.315
  740TIP3   OH2 2162   4.724   6.329   2.058
  740TIP3    H1 2163   4.798   6.350   2.115
  740TIP3    H2 2164   4.679   6.412   2.045
  741TIP3   OH2 2165   6.470   2.972   1.777
  741TIP3    H1 2166   6.444   2.897   1.725
  741TIP3    H2 2167   6.409   3.041   1.751
  742TIP3   OH2 2168   4.296   7.432   5.434
  742TIP3    H1 2169   4.320   7.392   5.517
  742TIP3    H2 2170   4.223   7.491   5.455
  743TIP3   OH2 2171   3.051   7.343   4.902
  743TIP3    H1 2172   3.104   7.286   4.846
  743TIP3    H2 2173   3.025   7.287   4.975
  744TIP3   OH2 2174   4.742   2.841   6.460
  744TIP3    H1 2175   4.712   2.822   6.549
  744TIP3    H2 2176   4.717   2.763   6.409
  745TIP3   OH2 2177   3.949   6.964   2.223
  745TIP3    H1 2178   4.031   6.958   2.175
  745TIP3    H2 2179   3.881   6.950   2.157
  746TIP3   OH2 2180   1.393   4.250   0.649
  746TIP3    H1 2181   1.308   4.211   0.669
  746TIP3    H2 2182   1.456   4.192   0.693
  747TIP3   OH2 2183   0.531   0.422   1.753
  747TIP3    H1 2184   0.623   0.449   1.751
  747TIP3    H2 2185   0.485   0.490   1.704
  748TIP3   OH2 2186   4.534   1.490   1.767
  748TIP3    H1 2187   4.452   1.443   1.749
  748TIP3    H2 2188   4.559   1.462   1.855
  749TIP3   OH2 2189   6.979   0.380   3.256
  749TIP3    H1 2190   7.046   0.410   3.317
  749TIP3    H2 2191   7.026   0.363   3.174
  750TIP3   OH2 2192   3.703   3.710   6.532
  750TIP3    H1 2193   3.627   3.713   6.473
  750TIP3    H2 2194   3.761   3.645   6.494
  751TIP3   OH2 2195   6.963   7.766   0.775
  751TIP3    H1 2196   6.987   7.683   0.817
  751TIP3    H2 2197   6.923   7.741   0.692
  752TIP3   OH2 2198   6.475   5.698   0.397
  752TIP3    H1 2199   6.486   5.619   0.345
  752TIP3    H2 2200   6.404   5.677   0.458
  753TIP3   OH2 2201   7.497   3.601   0.384
  753TIP3    H1 2202   7.460   3.685   0.410
  753TIP3    H2 2203   7.587   3.602   0.417
  754TIP3   OH2 2204   7.847   6.880   1.435
  754TIP3    H1 2205   7.796   6.940   1.489
  754TIP3    H2 2206   7.812   6.794   1.455
  755TIP3   OH2 2207   4.290   1.618   6.432
  755TIP3    H1 2208   4.351   1.585   6.366
  755TIP3    H2 2209   4.271   1.542   6.487
  756TIP3   OH2 2210   2.972   0.585   1.425
  756TIP3    H1 2211   3.003   0.535   1.349
  756TIP3    H2 2212   3.039   0.654   1.437
  757TIP3   OH2 2213   7.613   5.439   4.507
  757TIP3    H1 2214   7.644   5.512   4.560
  757TIP3    H2 2215   7.597   5.369   4.569
  758TIP3   OH2 2216   3.136   0.107   0.666
  758TIP3    H1 2217   3.178   0.101   0.580
  758TIP3    H2 2218   3.089   0.190   0.663
  759TIP3   OH2 2219   4.263   4.568   6.488
  759TIP3    H1 2220   4.188   4.589   6.432
  759TIP3    H2 2221   4.239   4.485   6.529
  760TIP3   OH2 2222   0.853   2.333   2.619
  760TIP3    H1 2223   0.794   2.270   2.578
  760TIP3    H2 2224   0.821   2.342   2.709
  761TIP3   OH2 2225   0.518   7.190   1.255
  761TIP3    H1 2226   0.611   7.173   1.266
  761TIP3    H2 2227   0.489   7.227   1.338
  762TIP3   OH2 2228   4.440   6.953   6.476
  762TIP3    H1 2229   4.462   7.010   6.549
  762TIP3    H2 2230   4.345   6.957   6.470
  763TIP3   OH2 2231   5.983   5.708   3.898
  763TIP3    H1 2232   6.052   5.657   3.855
  763TIP3    H2 2233   5.960   5.656   3.975
  764TIP3   OH2 2234   0.114   4.641   1.843
  764TIP3    H1 2235   0.066   4.574   1.794
  764TIP3    H2 2236   0.181   4.673   1.782
  765TIP3   OH2 2237   4.669   0.514   4.533
  765TIP3    H1 2238   4.672   0.576   4.607
  765TIP3    H2 2239   4.752   0.467   4.538
  766TIP3   OH2 2240   1.795   6.647   6.386
  766TIP3    H1 2241   1.725   6.699   6.425
  766TIP3    H2 2242   1.876   6.688   6.419
  767TIP3   OH2 2243   2.598   0.076   1.923
  767TIP3    H1 2244   2.676   0.076   1.979
  767TIP3    H2 2245   2.549   0.153   1.949
  768TIP3   OH2 2246   6.301   5.174   6.427
  768TIP3    H1 2247   6.244   5.195   6.353
  768TIP3    H2 2248   6.271   5.231   6.498
  769TIP3   OH2 2249   4.413   6.086   3.833
  769TIP3    H1 2250   4.384   6.139   3.760
  769TIP3    H2 2251   4.334   6.041   3.864
  770TIP3   OH2 2252   4.650   4.754   4.178
  770TIP3    H1 2253   4.668   4.710   4.261
  770TIP3    H2 2254   4.570   4.713   4.146
  771TIP3   OH2 2255   2.769   7.213   2.246
  771TIP3    H1 2256   2.686   7.168   2.261
  771TIP3    H2 2257   2.832   7.166   2.299
  772TIP3   OH2 2258   0.292   4.384   2.987
  772TIP3    H1 2259   0.369   4.403   3.040
  772TIP3    H2 2260   0.325   4.377   2.898
  773TIP3   OH2 2261   7.701   1.538   0.654
  773TIP3    H1 2262   7.707   1.556   0.560
  773TIP3    H2 2263   7.727   1.621   0.695
  774TIP3   OH2 2264   6.927   2.109   0.030
  774TIP3    H1 2265   6.889   2.117   0.118
  774TIP3    H2 2266   6.958   2.019   0.025
  775TIP3   OH2 2267   0.327   0.626   2.767
  775TIP3    H1 2268   0.326   0.540   2.809
  775TIP3    H2 2269   0.395   0.674   2.815
  776TIP3   OH2 2270   1.313   5.640   5.571
  776TIP3    H1 2271   1.279   5.561   5.529
  776TIP3    H2 2272   1.245   5.706   5.557
  777TIP3   OH2 2273   6.182   1.156   3.326
  777TIP3    H1 2274   6.108   1.116   3.372
  777TIP3    H2 2275   6.173   1.127   3.236
  778TIP3   OH2 2276   4.570   7.414   2.077
  778TIP3    H1 2277   4.512   7.408   2.001
  778TIP3    H2 2278   4.563   7.505   2.105
  779TIP3   OH2 2279   5.154   3.662   0.776
  779TIP3    H1 2280   5.067   3.659   0.736
  779TIP3    H2 2281   5.191   3.746   0.748
  780TIP3   OH2 2282   0.331   2.687   2.576
  780TIP3    H1 2283   0.416   2.644   2.561
  780TIP3    H2 2284   0.267   2.617   2.563
  781TIP3   OH2 2285   3.525   7.767   6.694
  781TIP3    H1 2286   3.580   7.714   6.636
  781TIP3    H2 2287   3.586   7.829   6.734
  782TIP3   OH2 2288   7.620   0.088   1.559
  782TIP3    H1 2289   7.635   0.135   1.476
  782TIP3    H2 2290   7.524   0.082   1.566
  783TIP3   OH2 2291   5.061   4.034   0.537
  783TIP3    H1 2292   5.114   3.998   0.608
  783TIP3    H2 2293   5.074   4.129   0.543
  784TIP3   OH2 2294   7.456   3.578   0.106
  784TIP3    H1 2295   7.361   3.578   0.098
  784TIP3    H2 2296   7.472   3.563   0.199
  785TIP3   OH2 2297   3.245   4.751   4.713
  785TIP3    H1 2298   3.298   4.680   4.750
  785TIP3    H2 2299   3.297   4.830   4.729
  786TIP3   OH2 2300   2.159   0.781   0.682
  786TIP3    H1 2301   2.179   0.706   0.627
  786TIP3    H2 2302   2.170   0.749   0.771
  787TIP3   OH2 2303   6.230   5.638   3.519
  787TIP3    H1 2304   6.212   5.723   3.560
  787TIP3    H2 2305   6.275   5.660   3.437
  788TIP3   OH2 2306   1.681   5.387   5.098
  788TIP3    H1 2307   1.699   5.365   5.007
  788TIP3    H2 2308   1.746   5.453   5.121
  789TIP3   OH2 2309   0.298   0.687   6.323
  789TIP3    H1 2310   0.239   0.641   6.383
  789TIP3    H2 2311   0.308   0.627   6.249
  790TIP3   OH2 2312   8.134   6.184   1.822
  790TIP3    H1 2313   8.113   6.092   1.806
  790TIP3    H2 2314   8.052   6.223   1.850
  791TIP3   OH2 2315   0.877   6.220   3.558
  791TIP3    H1 2316   0.850   6.310   3.540
  791TIP3    H2 2317   0.891   6.217   3.652
  792TIP3   OH2 2318   1.014   0.326   4.959
  792TIP3    H1 2319   0.992   0.407   4.913
  792TIP3    H2 2320   0.994   0.257   4.896
  793TIP3   OH2 2321   4.865   1.835   0.629
  793TIP3    H1 2322   4.946   1.859   0.584
  793TIP3    H2 2323   4.857   1.900   0.699
  794TIP3   OH2 2324   1.888   2.501   0.664
  794TIP3    H1 2325   1.921   2.415   0.639
  794TIP3    H2 2326   1.886   2.500   0.759
  795TIP3   OH2 2327   7.654   7.458   1.316
  795TIP3    H1 2328   7.617   7.382   1.360
  795TIP3    H2 2329   7.597   7.531   1.342
  796TIP3   OH2 2330   5.780   3.214   4.943
  796TIP3    H1 2331   5.785   3.189   4.851
  796TIP3    H2 2332   5.686   3.230   4.958
  797TIP3   OH2 2333   6.573   6.645   2.573
  797TIP3    H1 2334   6.567   6.652   2.668
  797TIP3    H2 2335   6.565   6.736   2.542
  798TIP3   OH2 2336   7.801   1.696   1.067
  798TIP3    H1 2337   7.839   1.724   1.150
  798TIP3    H2 2338   7.870   1.647   1.023
  799TIP3   OH2 2339   4.137   3.581   5.490
  799TIP3    H1 2340   4.201   3.649   5.467
  799TIP3    H2 2341   4.064   3.597   5.431
  800TIP3   OH2 2342   1.735   5.947   3.381
  800TIP3    H1 2343   1.821   5.953   3.423
  800TIP3    H2 2344   1.732   5.858   3.346
  801TIP3   OH2 2345   2.357   5.302   2.896
  801TIP3    H1 2346   2.322   5.311   2.807
  801TIP3    H2 2347   2.383   5.210   2.902
  802TIP3   OH2 2348   3.624   6.324   2.153
  802TIP3    H1 2349   3.599   6.259   2.088
  802TIP3    H2 2350   3.629   6.275   2.235
  803TIP3   OH2 2351   2.726   5.522   4.799
  803TIP3    H1 2352   2.661   5.555   4.737
  803TIP3    H2 2353   2.726   5.427   4.785
  804TIP3   OH2 2354   1.815   7.030   2.699
  804TIP3    H1 2355   1.740   7.070   2.655
  804TIP3    H2 2356   1.835   6.953   2.646
  805TIP3   OH2 2357   6.283   2.079   1.552
  805TIP3    H1 2358   6.249   2.165   1.579
  805TIP3    H2 2359   6.341   2.053   1.623
  806TIP3   OH2 2360   4.117   3.084   5.532
  806TIP3    H1 2361   4.106   3.009   5.591
  806TIP3    H2 2362   4.045   3.143   5.555
  807TIP3   OH2 2363   5.841   0.970   6.169
  807TIP3    H1 2364   5.771   0.922   6.124
  807TIP3    H2 2365   5.829   1.061   6.140
  808TIP3   OH2 2366   2.946   0.845   6.508
  808TIP3    H1 2367   3.014   0.789   6.545
  808TIP3    H2 2368   2.973   0.862   6.418
  809TIP3   OH2 2369   4.351   0.797   2.699
  809TIP3    H1 2370   4.346   0.701   2.702
  809TIP3    H2 2371   4.260   0.826   2.696
  810TIP3   OH2 2372   7.191   5.078   6.038
  810TIP3    H1 2373   7.160   5.023   6.110
  810TIP3    H2 2374   7.112   5.118   6.002
  811TIP3   OH2 2375   3.324   3.283   1.239
  811TIP3    H1 2376   3.418   3.298   1.227
  811TIP3    H2 2377   3.282   3.326   1.165
  812TIP3   OH2 2378   5.884   7.035   2.923
  812TIP3    H1 2379   5.829   6.960   2.900
  812TIP3    H2 2380   5.846   7.108   2.874
  813TIP3   OH2 2381   5.204   1.234   2.699
  813TIP3    H1 2382   5.215   1.244   2.604
  813TIP3    H2 2383   5.267   1.167   2.724
  814TIP3   OH2 2384   1.546   5.519   1.161
  814TIP3    H1 2385   1.526   5.551   1.073
  814TIP3    H2 2386   1.514   5.588   1.219
  815TIP3   OH2 2387   3.154   0.823   2.003
  815TIP3    H1 2388   3.099   0.893   2.036
  815TIP3    H2 2389   3.193   0.783   2.081
  816TIP3   OH2 2390   2.524   2.546   6.290
  816TIP3    H1 2391   2.548   2.454   6.283
  816TIP3    H2 2392   2.430   2.548   6.271
  817TIP3   OH2 2393   7.235   6.791   0.627
  817TIP3    H1 2394   7.179   6.857   0.667
  817TIP3    H2 2395   7.179   6.714   0.617
  818TIP3   OH2 2396   5.623   2.861   2.975
  818TIP3    H1 2397   5.550   2.800   2.985
  818TIP3    H2 2398   5.692   2.826   3.031
  819TIP3   OH2 2399   3.456   4.078   2.985
  819TIP3    H1 2400   3.505   4.161   2.986
  819TIP3    H2 2401   3.421   4.072   2.896
  820TIP3   OH2 2402   0.796   6.771   1.264
  820TIP3    H1 2403   0.854   6.823   1.209
  820TIP3    H2 2404   0.712   6.772   1.218
  821TIP3   OH2 2405   6.191   3.060   3.476
  821TIP3    H1 2406   6.177   3.071   3.570
  821TIP3    H2 2407   6.200   3.149   3.443
  822TIP3   OH2 2408   1.024   0.295   4.089
  822TIP3    H1 2409   1.109   0.307   4.045
  822TIP3    H2 2410   1.005   0.202   4.080
  823TIP3   OH2 2411   6.277   6.558   3.158
  823TIP3    H1 2412   6.198   6.599   3.194
  823TIP3    H2 2413   6.347   6.620   3.178
  824TIP3   OH2 2414   7.952   7.052   6.095
  824TIP3    H1 2415   7.931   7.007   6.177
  824TIP3    H2 2416   7.935   7.144   6.113
  825TIP3   OH2 2417   5.312   0.470   5.847
  825TIP3    H1 2418   5.245   0.522   5.891
  825TIP3    H2 2419   5.394   0.503   5.884
  826TIP3   OH2 2420   0.141   3.638   3.435
  826TIP3    H1 2421   0.204   3.575   3.398
  826TIP3    H2 2422   0.102   3.681   3.359
  827TIP3   OH2 2423   6.790   2.111   0.868
  827TIP3    H1 2424   6.800   2.083   0.777
  827TIP3    H2 2425   6.715   2.062   0.901
  828TIP3   OH2 2426   7.553   1.315   6.330
  828TIP3    H1 2427   7.512   1.246   6.278
  828TIP3    H2 2428   7.647   1.297   6.325
  829TIP3   OH2 2429   3.628   3.914   0.679
  829TIP3    H1 2430   3.721   3.929   0.698
  829TIP3    H2 2431   3.626   3.893   0.585
  830TIP3   OH2 2432   0.722   0.026   4.077
  830TIP3    H1 2433   0.674   0.107   4.059
  830TIP3    H2 2434   0.812   0.044   4.048
  831TIP3   OH2 2435   3.822   4.838   0.309
  831TIP3    H1 2436   3.880   4.762   0.303
  831TIP3    H2 2437   3.867   4.906   0.258
  832TIP3   OH2 2438   5.045   6.499   5.648
  832TIP3    H1 2439   5.135   6.501   5.680
  832TIP3    H2 2440   5.048   6.546   5.564
  833TIP3   OH2 2441   7.538   2.023   3.330
  833TIP3    H1 2442   7.567   1.937   3.362
  833TIP3    H2 2443   7.618   2.075   3.324
  834TIP3   OH2 2444   6.277   6.507   0.325
  834TIP3    H1 2445   6.328   6.569   0.378
  834TIP3    H2 2446   6.261   6.433   0.383
  835TIP3   OH2 2447   0.008   3.074   3.588
  835TIP3    H1 2448  -0.036   3.000   3.545
  835TIP3    H2 2449   0.075   3.034   3.643
  836TIP3   OH2 2450   1.705   7.300   5.707
  836TIP3    H1 2451   1.783   7.332   5.660
  836TIP3    H2 2452   1.733   7.295   5.798
  837TIP3   OH2 2453   8.000   7.190   1.715
  837TIP3    H1 2454   7.981   7.135   1.792
  837TIP3    H2 2455   8.005   7.129   1.642
  838TIP3   OH2 2456   5.923   5.271   2.303
  838TIP3    H1 2457   5.995   5.309   2.252
  838TIP3    H2 2458   5.860   5.242   2.237
  839TIP3   OH2 2459   3.327   0.233   2.390
  839TIP3    H1 2460   3.385   0.204   2.320
  839TIP3    H2 2461   3.256   0.169   2.390
  840TIP3   OH2 2462   4.456   0.636   1.635
  840TIP3    H1 2463   4.520   0.575   1.672
  840TIP3    H2 2464   4.485   0.650   1.545
  841TIP3   OH2 2465   1.910   6.128   4.668
  841TIP3    H1 2466   1.884   6.036   4.671
  841TIP3    H2 2467   1.828   6.177   4.675
  842TIP3   OH2 2468   1.006   7.207   5.677
  842TIP3    H1 2469   1.087   7.157   5.675
  842TIP3    H2 2470   0.937   7.142   5.669
  843TIP3   OH2 2471   1.797   4.876   4.756
  843TIP3    H1 2472   1.760   4.951   4.710
  843TIP3    H2 2473   1.816   4.909   4.844
  844TIP3   OH2 2474   0.283   6.319   3.645
  844TIP3    H1 2475   0.187   6.319   3.650
  844TIP3    H2 2476   0.311   6.336   3.735
  845TIP3   OH2 2477  -0.019   6.045   4.466
  845TIP3    H1 2478  -0.071   6.032   4.387
  845TIP3    H2 2479   0.031   5.963   4.475
  846TIP3   OH2 2480   8.238   0.871   2.394
  846TIP3    H1 2481   8.181   0.897   2.466
  846TIP3    H2 2482   8.299   0.944   2.385
  847TIP3   OH2 2483   4.498   5.821   4.493
  847TIP3    H1 2484   4.582   5.845   4.453
  847TIP3    H2 2485   4.467   5.746   4.442
  848TIP3   OH2 2486   8.019   2.066   0.754
  848TIP3    H1 2487   8.033   1.983   0.708
  848TIP3    H2 2488   8.107   2.099   0.771
  849TIP3   OH2 2489   1.740   7.673   0.408
  849TIP3    H1 2490   1.674   7.711   0.465
  849TIP3    H2 2491   1.816   7.659   0.464
  850TIP3   OH2 2492   6.896   2.146   4.123
  850TIP3    H1 2493   6.896   2.143   4.219
  850TIP3    H2 2494   6.863   2.233   4.102
  851TIP3   OH2 2495   1.718   5.684   1.832
  851TIP3    H1 2496   1.698   5.777   1.835
  851TIP3    H2 2497   1.775   5.669   1.908
  852TIP3   OH2 2498   1.396   6.080   0.074
  852TIP3    H1 2499   1.465   6.136   0.108
  852TIP3    H2 2500   1.441   6.023   0.011
  853TIP3   OH2 2501   2.327   4.841   5.921
  853TIP3    H1 2502   2.307   4.779   5.850
  853TIP3    H2 2503   2.397   4.798   5.970
  854TIP3   OH2 2504   1.582   1.430   4.939
  854TIP3    H1 2505   1.578   1.479   5.021
  854TIP3    H2 2506   1.668   1.388   4.940
  855TIP3   OH2 2507   5.491   7.041   5.618
  855TIP3    H1 2508   5.420   7.100   5.594
  855TIP3    H2 2509   5.526   7.010   5.534
  856TIP3   OH2 2510   3.299   7.058   2.480
  856TIP3    H1 2511   3.213   7.057   2.522
  856TIP3    H2 2512   3.281   7.041   2.387
  857TIP3   OH2 2513   4.941   2.530   1.814
  857TIP3    H1 2514   4.999   2.605   1.821
  857TIP3    H2 2515   4.993   2.464   1.768
  858TIP3   OH2 2516   4.241   1.535   3.258
  858TIP3    H1 2517   4.320   1.542   3.312
  858TIP3    H2 2518   4.201   1.452   3.284
  859TIP3   OH2 2519   7.636   1.769   3.367
  859TIP3    H1 2520   7.602   1.722   3.291
  859TIP3    H2 2521   7.688   1.704   3.414
  860TIP3   OH2 2522   3.624   1.455   6.133
  860TIP3    H1 2523   3.564   1.408   6.190
  860TIP3    H2 2524   3.629   1.543   6.170
  861TIP3   OH2 2525   2.974   2.681   3.477
  861TIP3    H1 2526   2.910   2.694   3.408
  861TIP3    H2 2527   3.035   2.617   3.441
  862TIP3   OH2 2528   7.946   1.267   3.015
  862TIP3    H1 2529   8.014   1.334   3.021
  862TIP3    H2 2530   7.917   1.270   2.924
  863TIP3   OH2 2531   8.234   4.234   1.222
  863TIP3    H1 2532   8.265   4.264   1.136
  863TIP3    H2 2533   8.254   4.306   1.281
  864TIP3   OH2 2534   6.284   4.268   4.662
  864TIP3    H1 2535   6.291   4.345   4.604
  864TIP3    H2 2536   6.193   4.268   4.690
  865TIP3   OH2 2537   6.357   4.560   6.334
  865TIP3    H1 2538   6.316   4.616   6.400
  865TIP3    H2 2539   6.369   4.476   6.379
  866TIP3   OH2 2540   8.038   2.047   3.646
  866TIP3    H1 2541   8.094   1.979   3.606
  866TIP3    H2 2542   8.091   2.081   3.718
  867TIP3   OH2 2543   0.861   0.935   1.476
  867TIP3    H1 2544   0.865   0.947   1.381
  867TIP3    H2 2545   0.929   0.994   1.510
  868TIP3   OH2 2546   4.744   6.320   2.874
  868TIP3    H1 2547   4.817   6.277   2.828
  868TIP3    H2 2548   4.735   6.269   2.955
  869TIP3   OH2 2549   6.510   5.355   5.249
  869TIP3    H1 2550   6.471   5.321   5.168
  869TIP3    H2 2551   6.485   5.293   5.316
  870TIP3   OH2 2552   7.676   2.980   1.859
  870TIP3    H1 2553   7.707   2.977   1.768
  870TIP3    H2 2554   7.756   2.978   1.911
  871TIP3   OH2 2555   3.848   0.500   3.624
  871TIP3    H1 2556   3.896   0.582   3.641
  871TIP3    H2 2557   3.757   0.527   3.612
  872TIP3   OH2 2558   6.881   6.353   0.092
  872TIP3    H1 2559   6.947   6.398   0.144
  872TIP3    H2 2560   6.912   6.360   0.001
  873TIP3   OH2 2561   7.452   1.999   6.496
  873TIP3    H1 2562   7.544   2.017   6.517
  873TIP3    H2 2563   7.430   2.065   6.430
  874TIP3   OH2 2564   5.110   0.121   1.359
  874TIP3    H1 2565   5.172   0.049   1.369
  874TIP3    H2 2566   5.088   0.146   1.449
  875TIP3   OH2 2567   8.349   6.693   3.962
  875TIP3    H1 2568   8.278   6.720   4.021
  875TIP3    H2 2569   8.328   6.735   3.879
  876TIP3   OH2 2570   3.899   1.574   1.272
  876TIP3    H1 2571   3.810   1.581   1.237
  876TIP3    H2 2572   3.888   1.529   1.356
  877TIP3   OH2 2573   1.543   5.291   4.779
  877TIP3    H1 2574   1.587   5.236   4.844
  877TIP3    H2 2575   1.580   5.262   4.695
  878TIP3   OH2 2576   3.428   5.073   4.304
  878TIP3    H1 2577   3.473   5.016   4.366
  878TIP3    H2 2578   3.442   5.032   4.219
  879TIP3   OH2 2579   5.346   4.714   4.952
  879TIP3    H1 2580   5.310   4.625   4.943
  879TIP3    H2 2581   5.279   4.770   4.914
  880TIP3   OH2 2582   6.520   7.068   6.583
  880TIP3    H1 2583   6.553   6.998   6.640
  880TIP3    H2 2584   6.467   7.023   6.518
  881TIP3   OH2 2585   7.540   3.211   0.819
  881TIP3    H1 2586   7.532   3.119   0.796
  881TIP3    H2 2587   7.518   3.258   0.739
  882TIP3   OH2 2588   1.468   4.957   4.108
  882TIP3    H1 2589   1.381   4.962   4.070
  882TIP3    H2 2590   1.513   4.888   4.059
  883TIP3   OH2 2591   1.043   6.675   6.116
  883TIP3    H1 2592   0.990   6.596   6.106
  883TIP3    H2 2593   1.131   6.648   6.087
  884TIP3   OH2 2594   1.491   4.931   3.669
  884TIP3    H1 2595   1.468   4.982   3.591
  884TIP3    H2 2596   1.409   4.923   3.718
  885TIP3   OH2 2597   3.120   0.582   3.875
  885TIP3    H1 2598   3.175   0.504   3.862
  885TIP3    H2 2599   3.081   0.598   3.789
  886TIP3   OH2 2600   6.424   1.422   5.795
  886TIP3    H1 2601   6.331   1.423   5.819
  886TIP3    H2 2602   6.443   1.331   5.775
  887TIP3   OH2 2603   4.542   3.299   6.419
  887TIP3    H1 2604   4.580   3.289   6.506
  887TIP3    H2 2605   4.530   3.393   6.409
  888TIP3   OH2 2606   5.382   4.033   3.092
  888TIP3    H1 2607   5.421   4.107   3.139
  888TIP3    H2 2608   5.309   4.072   3.044
  889TIP3   OH2 2609   4.599   6.929   2.758
  889TIP3    H1 2610   4.681   6.914   2.805
  889TIP3    H2 2611   4.535   6.874   2.803
  890TIP3   OH2 2612   3.386   1.473   3.577
  890TIP3    H1 2613   3.430   1.554   3.553
  890TIP3    H2 2614   3.316   1.464   3.513
  891TIP3   OH2 2615   2.843   3.256   6.390
  891TIP3    H1 2616   2.750   3.233   6.384
  891TIP3    H2 2617   2.874   3.211   6.469
  892TIP3   OH2 2618   4.969   1.594   2.771
  892TIP3    H1 2619   5.024   1.572   2.696
  892TIP3    H2 2620   4.880   1.573   2.742
  893TIP3   OH2 2621   1.839   1.684   2.719
  893TIP3    H1 2622   1.786   1.623   2.770
  893TIP3    H2 2623   1.776   1.728   2.662
  894TIP3   OH2 2624   0.831   3.455   3.933
  894TIP3    H1 2625   0.874   3.529   3.976
  894TIP3    H2 2626   0.868   3.378   3.976
  895TIP3   OH2 2627   5.718   4.326   6.094
  895TIP3    H1 2628   5.703   4.232   6.101
  895TIP3    H2 2629   5.636   4.365   6.123
  896TIP3   OH2 2630   7.327   5.612   1.369
  896TIP3    H1 2631   7.294   5.694   1.332
  896TIP3    H2 2632   7.364   5.637   1.454
  897TIP3   OH2 2633   1.107   2.718   2.953
  897TIP3    H1 2634   1.199   2.694   2.946
  897TIP3    H2 2635   1.073   2.663   3.024
  898TIP3   OH2 2636   3.307   7.408   5.460
  898TIP3    H1 2637   3.329   7.404   5.553
  898TIP3    H2 2638   3.262   7.326   5.442
  899TIP3   OH2 2639   3.879   7.655   3.703
  899TIP3    H1 2640   3.950   7.659   3.767
  899TIP3    H2 2641   3.831   7.736   3.715
  900TIP3   OH2 2642   6.053   0.483   5.319
  900TIP3    H1 2643   6.040   0.434   5.400
  900TIP3    H2 2644   6.138   0.525   5.329
  901TIP3   OH2 2645   4.752   2.065   1.675
  901TIP3    H1 2646   4.664   2.032   1.692
  901TIP3    H2 2647   4.784   2.094   1.760
  902TIP3   OH2 2648   1.266   0.098   5.094
  902TIP3    H1 2649   1.188   0.043   5.096
  902TIP3    H2 2650   1.287   0.114   5.186
  903TIP3   OH2 2651   7.541   6.052   6.680
  903TIP3    H1 2652   7.458   6.012   6.655
  903TIP3    H2 2653   7.577   5.994   6.747
  904TIP3   OH2 2654   7.792   1.894   3.936
  904TIP3    H1 2655   7.777   1.801   3.950
  904TIP3    H2 2656   7.789   1.905   3.841
  905TIP3   OH2 2657   0.319   7.423   4.941
  905TIP3    H1 2658   0.271   7.423   4.858
  905TIP3    H2 2659   0.252   7.425   5.008
  906TIP3   OH2 2660   3.288   2.211   6.179
  906TIP3    H1 2661   3.273   2.126   6.137
  906TIP3    H2 2662   3.381   2.229   6.163
  907TIP3   OH2 2663   4.512   3.312   4.947
  907TIP3    H1 2664   4.570   3.302   5.022
  907TIP3    H2 2665   4.515   3.228   4.903
  908TIP3   OH2 2666   6.006   2.694   1.257
  908TIP3    H1 2667   6.059   2.647   1.321
  908TIP3    H2 2668   5.983   2.776   1.300
  909TIP3   OH2 2669   6.572   6.402   6.602
  909TIP3    H1 2670   6.623   6.350   6.540
  909TIP3    H2 2671   6.485   6.364   6.601
  910TIP3   OH2 2672   4.434   4.923   6.452
  910TIP3    H1 2673   4.370   4.952   6.518
  910TIP3    H2 2674   4.504   4.882   6.503
  911TIP3   OH2 2675   2.558   7.761   4.908
  911TIP3    H1 2676   2.543   7.855   4.916
  911TIP3    H2 2677   2.594   7.734   4.992
  912TIP3   OH2 2678   2.491   2.656   4.547
  912TIP3    H1 2679   2.465   2.568   4.520
  912TIP3    H2 2680   2.474   2.658   4.641
  913TIP3   OH2 2681   1.796   4.398   0.056
  913TIP3    H1 2682   1.829   4.322   0.008
  913TIP3    H2 2683   1.803   4.373   0.148
  914TIP3   OH2 2684   7.915   2.859   2.937
  914TIP3    H1 2685   7.904   2.856   2.842
  914TIP3    H2 2686   8.010   2.865   2.950
  915TIP3   OH2 2687   6.952   6.215   3.750
  915TIP3    H1 2688   7.001   6.239   3.829
  915TIP3    H2 2689   6.973   6.284   3.687
  916TIP3   OH2 2690   4.746   5.383   3.987
  916TIP3    H1 2691   4.762   5.290   3.973
  916TIP3    H2 2692   4.650   5.392   3.985
  917TIP3   OH2 2693   5.939   1.876   2.345
  917TIP3    H1 2694   5.854   1.919   2.339
  917TIP3    H2 2695   5.928   1.792   2.301
  918TIP3   OH2 2696   1.031   3.892   2.410
  918TIP3    H1 2697   1.096   3.865   2.345
  918TIP3    H2 2698   1.034   3.988   2.408
  919TIP3   OH2 2699   2.253   4.337   6.314
  919TIP3    H1 2700   2.311   4.307   6.245
  919TIP3    H2 2701   2.214   4.257   6.350
  920TIP3   OH2 2702   5.825   2.818   5.569
  920TIP3    H1 2703   5.763   2.837   5.640
  920TIP3    H2 2704   5.835   2.723   5.571
  921TIP3   OH2 2705   7.214   7.667   3.854
  921TIP3    H1 2706   7.165   7.589   3.828
  921TIP3    H2 2707   7.159   7.707   3.922
  922TIP3   OH2 2708   1.969   2.817   0.076
  922TIP3    H1 2709   1.939   2.732   0.107
  922TIP3    H2 2710   1.968   2.810  -0.019
  923TIP3   OH2 2711   6.882   4.520   6.193
  923TIP3    H1 2712   6.867   4.426   6.183
  923TIP3    H2 2713   6.796   4.559   6.183
  924TIP3   OH2 2714   2.400   1.213   2.062
  924TIP3    H1 2715   2.444   1.148   2.117
  924TIP3    H2 2716   2.364   1.162   1.989
  925TIP3   OH2 2717   5.823   6.771   5.509
  925TIP3    H1 2718   5.919   6.774   5.509
  925TIP3    H2 2719   5.797   6.837   5.445
  926TIP3   OH2 2720   4.451   0.480   5.486
  926TIP3    H1 2721   4.453   0.534   5.407
  926TIP3    H2 2722   4.527   0.422   5.477
  927TIP3   OH2 2723   5.492   3.501   5.515
  927TIP3    H1 2724   5.506   3.568   5.448
  927TIP3    H2 2725   5.484   3.550   5.597
  928TIP3   OH2 2726   0.725   5.012   4.225
  928TIP3    H1 2727   0.736   5.065   4.304
  928TIP3    H2 2728   0.740   4.922   4.255
  929TIP3   OH2 2729   2.699   5.257   3.748
  929TIP3    H1 2730   2.679   5.230   3.837
  929TIP3    H2 2731   2.790   5.230   3.734
  930TIP3   OH2 2732   2.237   6.725   4.131
  930TIP3    H1 2733   2.297   6.678   4.189
  930TIP3    H2 2734   2.167   6.662   4.113
  931TIP3   OH2 2735   4.809   7.197   5.174
  931TIP3    H1 2736   4.833   7.238   5.091
  931TIP3    H2 2737   4.840   7.107   5.166
  932TIP3   OH2 2738   0.979   3.653   5.706
  932TIP3    H1 2739   1.007   3.605   5.784
  932TIP3    H2 2740   1.008   3.598   5.633
  933TIP3   OH2 2741   3.393   2.116   2.237
  933TIP3    H1 2742   3.333   2.067   2.293
  933TIP3    H2 2743   3.349   2.121   2.153
  934TIP3   OH2 2744   1.082   5.716   6.186
  934TIP3    H1 2745   0.997   5.739   6.223
  934TIP3    H2 2746   1.075   5.738   6.093
  935TIP3   OH2 2747   6.705   5.942   3.225
  935TIP3    H1 2748   6.680   5.912   3.137
  935TIP3    H2 2749   6.731   5.862   3.271
  936TIP3   OH2 2750   1.766   2.771   4.951
  936TIP3    H1 2751   1.851   2.780   4.907
  936TIP3    H2 2752   1.731   2.860   4.954
  937TIP3   OH2 2753   4.147   2.220   1.961
  937TIP3    H1 2754   4.157   2.315   1.970
  937TIP3    H2 2755   4.106   2.208   1.875
  938TIP3   OH2 2756   7.908   6.123   3.875
  938TIP3    H1 2757   7.891   6.209   3.836
  938TIP3    H2 2758   7.823   6.096   3.910
  939TIP3   OH2 2759   7.367   2.665   4.725
  939TIP3    H1 2760   7.332   2.724   4.658
  939TIP3    H2 2761   7.394   2.587   4.676
  940TIP3   OH2 2762   6.882   6.603   1.893
  940TIP3    H1 2763   6.860   6.510   1.889
  940TIP3    H2 2764   6.804   6.646   1.926
  941TIP3   OH2 2765   6.710   2.744   0.276
  941TIP3    H1 2766   6.735   2.765   0.366
  941TIP3    H2 2767   6.637   2.803   0.257
  942TIP3   OH2 2768   5.930   5.106   2.897
  942TIP3    H1 2769   5.979   5.144   2.824
  942TIP3    H2 2770   5.973   5.140   2.975
  943TIP3   OH2 2771   2.696   5.614   4.253
  943TIP3    H1 2772   2.712   5.570   4.337
  943TIP3    H2 2773   2.776   5.662   4.235
  944TIP3   OH2 2774   8.229   5.707   4.309
  944TIP3    H1 2775   8.216   5.685   4.401
  944TIP3    H2 2776   8.322   5.689   4.292
  945TIP3   OH2 2777   7.396   1.096   5.059
  945TIP3    H1 2778   7.325   1.151   5.092
  945TIP3    H2 2779   7.399   1.116   4.966
  946TIP3   OH2 2780   0.701   3.259   1.430
  946TIP3    H1 2781   0.783   3.263   1.481
  946TIP3    H2 2782   0.728   3.227   1.344
  947TIP3   OH2 2783   2.032   7.551   2.034
  947TIP3    H1 2784   2.001   7.636   2.002
  947TIP3    H2 2785   2.073   7.510   1.958
  948TIP3   OH2 2786   0.971   5.413   2.995
  948TIP3    H1 2787   0.892   5.457   2.963
  948TIP3    H2 2788   1.020   5.483   3.040
  949TIP3   OH2 2789   5.206   4.618   3.210
  949TIP3    H1 2790   5.296   4.641   3.188
  949TIP3    H2 2791   5.214   4.544   3.271
  950TIP3   OH2 2792   2.327   5.835   1.623
  950TIP3    H1 2793   2.243   5.841   1.668
  950TIP3    H2 2794   2.385   5.792   1.685
  951TIP3   OH2 2795   2.057   2.301   5.716
  951TIP3    H1 2796   1.980   2.291   5.660
  951TIP3    H2 2797   2.103   2.377   5.681
  952TIP3   OH2 2798   7.642   1.306   4.027
  952TIP3    H1 2799   7.718   1.314   3.969
  952TIP3    H2 2800   7.667   1.236   4.088
  953TIP3   OH2 2801   5.025   6.595   0.784
  953TIP3    H1 2802   4.955   6.655   0.810
  953TIP3    H2 2803   5.029   6.530   0.855
  954TIP3   OH2 2804   3.139   6.085   6.639
  954TIP3    H1 2805   3.082   6.095   6.562
  954TIP3    H2 2806   3.126   6.165   6.689
  955TIP3   OH2 2807   1.854   1.723   5.482
  955TIP3    H1 2808   1.925   1.699   5.541
  955TIP3    H2 2809   1.898   1.747   5.401
  956TIP3   OH2 2810   3.509   6.647   0.146
  956TIP3    H1 2811   3.582   6.709   0.158
  956TIP3    H2 2812   3.550   6.570   0.108
  957TIP3   OH2 2813   2.907   4.576   6.425
  957TIP3    H1 2814   2.868   4.497   6.462
  957TIP3    H2 2815   2.852   4.596   6.349
  958TIP3   OH2 2816   2.670   4.224   2.551
  958TIP3    H1 2817   2.637   4.273   2.475
  958TIP3    H2 2818   2.764   4.239   2.551
  959TIP3   OH2 2819   7.693   4.981   5.250
  959TIP3    H1 2820   7.724   5.000   5.161
  959TIP3    H2 2821   7.674   4.888   5.249
  960TIP3   OH2 2822   7.318   3.176   2.370
  960TIP3    H1 2823   7.366   3.123   2.306
  960TIP3    H2 2824   7.228   3.179   2.336
  961TIP3   OH2 2825   1.270   4.509   0.646
  961TIP3    H1 2826   1.332   4.437   0.658
  961TIP3    H2 2827   1.268   4.553   0.731
  962TIP3   OH2 2828   2.726   6.911   1.671
  962TIP3    H1 2829   2.704   6.820   1.691
  962TIP3    H2 2830   2.803   6.930   1.725
  963TIP3   OH2 2831  -0.013   1.555   6.618
  963TIP3    H1 2832   0.036   1.568   6.537
  963TIP3    H2 2833   0.051   1.572   6.688
  964TIP3   OH2 2834   1.930   0.381   0.923
  964TIP3    H1 2835   1.883   0.315   0.974
  964TIP3    H2 2836   2.020   0.378   0.956
  965TIP3   OH2 2837   5.630   0.187   6.287
  965TIP3    H1 2838   5.562   0.189   6.354
  965TIP3    H2 2839   5.587   0.218   6.207
  966TIP3   OH2 2840   0.562   4.374   4.309
  966TIP3    H1 2841   0.514   4.455   4.289
  966TIP3    H2 2842   0.506   4.305   4.274
  967TIP3   OH2 2843   2.761   6.684   0.604
  967TIP3    H1 2844   2.780   6.590   0.603
  967TIP3    H2 2845   2.846   6.726   0.588
  968TIP3   OH2 2846   2.229   1.294   3.431
  968TIP3    H1 2847   2.213   1.374   3.481
  968TIP3    H2 2848   2.304   1.314   3.375
  969TIP3   OH2 2849   6.954   5.381   5.752
  969TIP3    H1 2850   7.004   5.305   5.781
  969TIP3    H2 2851   7.019   5.450   5.741
  970TIP3   OH2 2852   7.961   0.833   4.988
  970TIP3    H1 2853   7.882   0.784   5.010
  970TIP3    H2 2854   7.986   0.801   4.901
  971TIP3   OH2 2855   2.401   4.278   5.620
  971TIP3    H1 2856   2.440   4.363   5.601
  971TIP3    H2 2857   2.423   4.224   5.543
  972TIP3   OH2 2858   2.328   4.330   2.209
  972TIP3    H1 2859   2.400   4.383   2.244
  972TIP3    H2 2860   2.249   4.370   2.246
  973TIP3   OH2 2861   7.179   4.821   5.029
  973TIP3    H1 2862   7.139   4.858   4.950
  973TIP3    H2 2863   7.134   4.864   5.101
  974TIP3   OH2 2864   2.000   6.967   5.766
  974TIP3    H1 2865   2.030   6.931   5.683
  974TIP3    H2 2866   1.964   6.892   5.813
  975TIP3   OH2 2867   4.542   4.739   1.010
  975TIP3    H1 2868   4.630   4.706   1.025
  975TIP3    H2 2869   4.527   4.802   1.081
  976TIP3   OH2 2870   5.215   0.900   5.939
  976TIP3    H1 2871   5.298   0.941   5.915
  976TIP3    H2 2872   5.149   0.956   5.898
  977TIP3   OH2 2873   2.688   3.552   3.021
  977TIP3    H1 2874   2.702   3.480   2.959
  977TIP3    H2 2875   2.774   3.568   3.059
  978TIP3   OH2 2876   3.280   6.473   0.753
  978TIP3    H1 2877   3.357   6.417   0.764
  978TIP3    H2 2878   3.254   6.458   0.662
  979TIP3   OH2 2879   7.203   2.522   6.671
  979TIP3    H1 2880   7.236   2.607   6.641
  979TIP3    H2 2881   7.250   2.458   6.618
  980TIP3   OH2 2882   1.548   0.591   0.537
  980TIP3    H1 2883   1.572   0.674   0.579
  980TIP3    H2 2884   1.518   0.615   0.450
  981TIP3   OH2 2885   7.867   7.298   3.443
  981TIP3    H1 2886   7.875   7.223   3.384
  981TIP3    H2 2887   7.773   7.307   3.458
  982TIP3   OH2 2888   7.594   4.189   4.198
  982TIP3    H1 2889   7.670   4.158   4.248
  982TIP3    H2 2890   7.598   4.284   4.205
  983TIP3   OH2 2891   2.874   6.681   3.137
  983TIP3    H1 2892   2.908   6.768   3.159
  983TIP3    H2 2893   2.879   6.631   3.218
  984TIP3   OH2 2894   7.433   3.267   5.999
  984TIP3    H1 2895   7.338   3.275   5.987
  984TIP3    H2 2896   7.469   3.274   5.910
  985TIP3   OH2 2897   7.194   7.119   6.552
  985TIP3    H1 2898   7.194   7.039   6.605
  985TIP3    H2 2899   7.239   7.184   6.606
  986TIP3   OH2 2900   3.516   5.316   1.633
  986TIP3    H1 2901   3.502   5.340   1.725
  986TIP3    H2 2902   3.516   5.220   1.633
  987TIP3   OH2 2903   4.041   1.422  -0.026
  987TIP3    H1 2904   4.007   1.378   0.052
  987TIP3    H2 2905   4.107   1.362  -0.061
  988TIP3   OH2 2906   4.571   2.794   4.535
  988TIP3    H1 2907   4.533   2.876   4.505
  988TIP3    H2 2908   4.509   2.762   4.602
  989TIP3   OH2 2909   3.422   4.709   5.688
  989TIP3    H1 2910   3.492   4.687   5.627
  989TIP3    H2 2911   3.462   4.700   5.774
  990TIP3   OH2 2912   2.627   4.046   4.944
  990TIP3    H1 2913   2.603   3.978   4.881
  990TIP3    H2 2914   2.664   4.116   4.890
  991TIP3   OH2 2915   5.388   0.106   4.215
  991TIP3    H1 2916   5.410   0.150   4.133
  991TIP3    H2 2917   5.367   0.016   4.189
  992TIP3   OH2 2918   5.425   4.492   3.393
  992TIP3    H1 2919   5.508   4.472   3.436
  992TIP3    H2 2920   5.431   4.585   3.370
  993TIP3   OH2 2921   7.811   5.214   1.309
  993TIP3    H1 2922   7.875   5.285   1.304
  993TIP3    H2 2923   7.780   5.216   1.399
  994TIP3   OH2 2924   1.102   4.772   6.467
  994TIP3    H1 2925   1.098   4.753   6.561
  994TIP3    H2 2926   1.185   4.733   6.439
  995TIP3   OH2 2927   4.335   6.728   5.190
  995TIP3    H1 2928   4.369   6.783   5.260
  995TIP3    H2 2929   4.382   6.645   5.198
  996TIP3   OH2 2930   0.578   3.252   3.089
  996TIP3    H1 2931   0.545   3.238   3.178
  996TIP3    H2 2932   0.627   3.334   3.094
  997TIP3   OH2 2933   7.102   4.824   0.374
  997TIP3    H1 2934   7.044   4.789   0.306
  997TIP3    H2 2935   7.044   4.870   0.434
  998TIP3   OH2 2936   5.745   2.799   6.053
  998TIP3    H1 2937   5.651   2.781   6.052
  998TIP3    H2 2938   5.762   2.843   5.970
  999TIP3   OH2 2939   6.789   2.393   4.065
  999TIP3    H1 2940   6.829   2.439   4.139
  999TIP3    H2 2941   6.729   2.457   4.027
 1000TIP3   OH2 2942   0.116   1.464   0.538
 1000TIP3    H1 2943   0.125   1.382   0.489
 1000TIP3    H2 2944   0.138   1.532   0.475
 1001TIP3   OH2 2945   5.097   6.340   5.366
 1001TIP3    H1 2946   5.047   6.421   5.364
 1001TIP3    H2 2947   5.064   6.293   5.442
 1002TIP3   OH2 2948   1.748   2.792   6.581
 1002TIP3    H1 2949   1.834   2.767   6.616
 1002TIP3    H2 2950   1.751   2.887   6.574
 1003TIP3   OH2 2951   6.874   4.877   5.935
 1003TIP3    H1 2952   6.791   4.830   5.937
 1003TIP3    H2 2953   6.939   4.812   5.907
 1004TIP3   OH2 2954   3.098   6.900   3.619
 1004TIP3    H1 2955   3.012   6.862   3.602
 1004TIP3    H2 2956   3.160   6.834   3.588
 1005TIP3   OH2 2957   1.662   4.330   3.766
 1005TIP3    H1 2958   1.664   4.387   3.689
 1005TIP3    H2 2959   1.719   4.374   3.829
 1006TIP3   OH2 2960   3.596   6.757   6.690
 1006TIP3    H1 2961   3.576   6.698   6.763
 1006TIP3    H2 2962   3.583   6.704   6.612
 1007TIP3   OH2 2963   3.850   4.841   2.928
 1007TIP3    H1 2964   3.821   4.779   2.995
 1007TIP3    H2 2965   3.941   4.860   2.951
 1008TIP3   OH2 2966   8.289   3.955   0.627
 1008TIP3    H1 2967   8.343   3.938   0.550
 1008TIP3    H2 2968   8.210   3.902   0.612
 1009TIP3   OH2 2969   3.477   3.714   5.725
 1009TIP3    H1 2970   3.549   3.650   5.725
 1009TIP3    H2 2971   3.402   3.664   5.694
 1010TIP3   OH2 2972   4.676   6.881   4.249
 1010TIP3    H1 2973   4.721   6.840   4.322
 1010TIP3    H2 2974   4.736   6.873   4.175
 1011TIP3   OH2 2975   6.980   0.590   4.958
 1011TIP3    H1 2976   6.932   0.644   5.022
 1011TIP3    H2 2977   6.971   0.637   4.876
 1012TIP3   OH2 2978   3.470   1.878   4.136
 1012TIP3    H1 2979   3.540   1.918   4.188
 1012TIP3    H2 2980   3.489   1.905   4.046
 1013TIP3   OH2 2981   0.868   3.023   5.397
 1013TIP3    H1 2982   0.888   2.959   5.328
 1013TIP3    H2 2983   0.889   3.108   5.359
 1014TIP3   OH2 2984   5.621   5.735   4.612
 1014TIP3    H1 2985   5.673   5.680   4.669
 1014TIP3    H2 2986   5.662   5.726   4.526
 1015TIP3   OH2 2987   6.348   6.602   2.247
 1015TIP3    H1 2988   6.276   6.627   2.305
 1015TIP3    H2 2989   6.416   6.668   2.264
 1016TIP3   OH2 2990   3.915   6.317   2.916
 1016TIP3    H1 2991   3.972   6.251   2.876
 1016TIP3    H2 2992   3.975   6.383   2.950
 1017TIP3   OH2 2993   2.051   4.977   1.249
 1017TIP3    H1 2994   2.055   5.071   1.263
 1017TIP3    H2 2995   2.061   4.939   1.336
 1018TIP3   OH2 2996   2.195   6.924   1.940
 1018TIP3    H1 2997   2.173   6.846   1.888
 1018TIP3    H2 2998   2.132   6.923   2.012
 1019TIP3   OH2 2999   4.147   2.692   2.307
 1019TIP3    H1 3000   4.191   2.772   2.278
 1019TIP3    H2 3001   4.191   2.669   2.389
 1020TIP3   OH2 3002   1.078   2.354   0.197
 1020TIP3    H1 3003   1.079   2.408   0.276
 1020TIP3    H2 3004   0.990   2.315   0.196
 1021TIP3   OH2 3005   5.633   1.366   3.811
 1021TIP3    H1 3006   5.706   1.364   3.749
 1021TIP3    H2 3007   5.623   1.275   3.840
 1022TIP3   OH2 3008   3.346   0.518   2.959
 1022TIP3    H1 3009   3.325   0.433   2.997
 1022TIP3    H2 3010   3.322   0.581   3.026
 1023TIP3   OH2 3011   3.120   7.598   0.630
 1023TIP3    H1 3012   3.058   7.654   0.584
 1023TIP3    H2 3013   3.130   7.521   0.573
 1024TIP3   OH2 3014   5.934   2.723   4.342
 1024TIP3    H1 3015   5.997   2.671   4.292
 1024TIP3    H2 3016   5.964   2.716   4.433
 1025TIP3   OH2 3017   6.278   0.132   6.065
 1025TIP3    H1 3018   6.188   0.101   6.077
 1025TIP3    H2 3019   6.269   0.213   6.015
 1026TIP3   OH2 3020   2.521   5.319   1.173
 1026TIP3    H1 3021   2.465   5.244   1.152
 1026TIP3    H2 3022   2.609   5.290   1.148
 1027TIP3   OH2 3023   2.910   7.556   2.552
 1027TIP3    H1 3024   2.941   7.572   2.463
 1027TIP3    H2 3025   2.842   7.490   2.542
 1028TIP3   OH2 3026   3.920   1.207   5.409
 1028TIP3    H1 3027   3.901   1.114   5.393
 1028TIP3    H2 3028   4.000   1.224   5.359
 1029TIP3   OH2 3029   5.784   2.484   3.830
 1029TIP3    H1 3030   5.853   2.469   3.765
 1029TIP3    H2 3031   5.831   2.491   3.913
 1030TIP3   OH2 3032   6.485   2.576   6.133
 1030TIP3    H1 3033   6.472   2.586   6.039
 1030TIP3    H2 3034   6.506   2.483   6.145
 1031TIP3   OH2 3035   1.013   7.525   1.892
 1031TIP3    H1 3036   0.936   7.469   1.880
 1031TIP3    H2 3037   1.087   7.467   1.877
 1032TIP3   OH2 3038   1.929   3.285   4.342
 1032TIP3    H1 3039   2.013   3.268   4.299
 1032TIP3    H2 3040   1.918   3.380   4.337
 1033TIP3   OH2 3041   5.584   3.079   3.424
 1033TIP3    H1 3042   5.616   3.161   3.387
 1033TIP3    H2 3043   5.656   3.017   3.410
 1034TIP3   OH2 3044   4.852   2.329   0.914
 1034TIP3    H1 3045   4.820   2.415   0.889
 1034TIP3    H2 3046   4.773   2.278   0.933
 1035TIP3   OH2 3047   4.910   1.222   2.439
 1035TIP3    H1 3048   4.918   1.141   2.389
 1035TIP3    H2 3049   4.992   1.269   2.422
 1036TIP3   OH2 3050   8.213   2.776   3.824
 1036TIP3    H1 3051   8.188   2.800   3.735
 1036TIP3    H2 3052   8.132   2.746   3.865
 1037TIP3   OH2 3053   7.477   7.661   2.191
 1037TIP3    H1 3054   7.496   7.677   2.284
 1037TIP3    H2 3055   7.479   7.565   2.184
 1038TIP3   OH2 3056   3.850   3.546   2.181
 1038TIP3    H1 3057   3.789   3.473   2.171
 1038TIP3    H2 3058   3.930   3.517   2.137
 1039TIP3   OH2 3059   1.005   6.637   4.159
 1039TIP3    H1 3060   0.944   6.665   4.228
 1039TIP3    H2 3061   0.954   6.644   4.078
 1040TIP3   OH2 3062   7.184   7.846   5.717
 1040TIP3    H1 3063   7.268   7.863   5.758
 1040TIP3    H2 3064   7.178   7.751   5.712
 1041TIP3   OH2 3065   7.926   2.545   1.426
 1041TIP3    H1 3066   7.958   2.455   1.421
 1041TIP3    H2 3067   7.880   2.559   1.343
 1042TIP3   OH2 3068   8.244   6.671   4.765
 1042TIP3    H1 3069   8.149   6.687   4.768
 1042TIP3    H2 3070   8.280   6.738   4.824
 1043TIP3   OH2 3071   3.540   1.029   1.991
 1043TIP3    H1 3072   3.462   0.990   2.030
 1043TIP3    H2 3073   3.563   1.100   2.049
 1044TIP3   OH2 3074   4.654   4.404   3.614
 1044TIP3    H1 3075   4.579   4.417   3.556
 1044TIP3    H2 3076   4.715   4.350   3.563
 1045TIP3   OH2 3077   4.055   3.157   4.714
 1045TIP3    H1 3078   4.132   3.108   4.744
 1045TIP3    H2 3079   4.087   3.207   4.639
 1046TIP3   OH2 3080   1.211   4.086   2.144
 1046TIP3    H1 3081   1.123   4.069   2.109
 1046TIP3    H2 3082   1.252   4.142   2.078
 1047TIP3   OH2 3083   4.519   2.997   0.282
 1047TIP3    H1 3084   4.590   3.006   0.345
 1047TIP3    H2 3085   4.485   2.909   0.296
 1048TIP3   OH2 3086   4.584   2.425   4.696
 1048TIP3    H1 3087   4.539   2.358   4.645
 1048TIP3    H2 3088   4.531   2.436   4.775
 1049TIP3   OH2 3089   5.870   7.279   0.127
 1049TIP3    H1 3090   5.842   7.313   0.211
 1049TIP3    H2 3091   5.881   7.356   0.071
 1050TIP3   OH2 3092   3.494   1.761   6.002
 1050TIP3    H1 3093   3.546   1.747   6.081
 1050TIP3    H2 3094   3.557   1.759   5.930
 1051TIP3   OH2 3095   8.027   2.489   1.865
 1051TIP3    H1 3096   8.071   2.425   1.810
 1051TIP3    H2 3097   7.969   2.536   1.806
 1052TIP3   OH2 3098   0.240   7.124   1.453
 1052TIP3    H1 3099   0.155   7.164   1.471
 1052TIP3    H2 3100   0.304   7.189   1.480
 1053TIP3   OH2 3101   2.821   2.623   4.093
 1053TIP3    H1 3102   2.797   2.715   4.104
 1053TIP3    H2 3103   2.915   2.625   4.076
 1054TIP3   OH2 3104   1.186   0.865   4.073
 1054TIP3    H1 3105   1.255   0.840   4.134
 1054TIP3    H2 3106   1.157   0.782   4.035
 1055TIP3   OH2 3107   2.701   4.808   0.287
 1055TIP3    H1 3108   2.718   4.750   0.361
 1055TIP3    H2 3109   2.674   4.749   0.216
 1056TIP3   OH2 3110   2.201   0.561   2.640
 1056TIP3    H1 3111   2.224   0.522   2.724
 1056TIP3    H2 3112   2.123   0.613   2.657
 1057TIP3   OH2 3113   3.366   0.868   4.801
 1057TIP3    H1 3114   3.357   0.773   4.791
 1057TIP3    H2 3115   3.459   0.885   4.788
 1058TIP3   OH2 3116   3.326   2.721   6.317
 1058TIP3    H1 3117   3.318   2.722   6.222
 1058TIP3    H2 3118   3.260   2.658   6.346
 1059TIP3   OH2 3119   0.649   5.045   3.193
 1059TIP3    H1 3120   0.569   5.039   3.246
 1059TIP3    H2 3121   0.617   5.062   3.104
 1060TIP3   OH2 3122   6.419   0.516   0.741
 1060TIP3    H1 3123   6.380   0.437   0.778
 1060TIP3    H2 3124   6.345   0.575   0.728
 1061TIP3   OH2 3125   6.943   3.409   0.768
 1061TIP3    H1 3126   6.952   3.314   0.767
 1061TIP3    H2 3127   6.913   3.429   0.857
 1062TIP3   OH2 3128   5.911   5.359   0.305
 1062TIP3    H1 3129   5.834   5.413   0.323
 1062TIP3    H2 3130   5.900   5.332   0.213
 1063TIP3   OH2 3131   6.639   7.359   5.874
 1063TIP3    H1 3132   6.689   7.292   5.828
 1063TIP3    H2 3133   6.646   7.437   5.819
 1064TIP3   OH2 3134   2.940   5.219   4.880
 1064TIP3    H1 3135   3.016   5.161   4.878
 1064TIP3    H2 3136   2.955   5.277   4.954
 1065TIP3   OH2 3137   3.762   1.799   6.705
 1065TIP3    H1 3138   3.782   1.892   6.692
 1065TIP3    H2 3139   3.709   1.775   6.628
 1066TIP3   OH2 3140   4.860   0.837   2.633
 1066TIP3    H1 3141   4.872   0.928   2.660
 1066TIP3    H2 3142   4.855   0.788   2.715
 1067TIP3   OH2 3143   6.846   7.599   0.090
 1067TIP3    H1 3144   6.770   7.647   0.122
 1067TIP3    H2 3145   6.867   7.537   0.161
 1068TIP3   OH2 3146   2.615   0.826   2.653
 1068TIP3    H1 3147   2.643   0.840   2.743
 1068TIP3    H2 3148   2.597   0.732   2.648
 1069TIP3   OH2 3149   7.454   6.499   3.897
 1069TIP3    H1 3150   7.465   6.433   3.829
 1069TIP3    H2 3151   7.516   6.568   3.874
 1070TIP3   OH2 3152   5.470   2.163   5.911
 1070TIP3    H1 3153   5.492   2.141   5.820
 1070TIP3    H2 3154   5.555   2.180   5.953
 1071TIP3   OH2 3155   7.442   4.195   1.472
 1071TIP3    H1 3156   7.455   4.206   1.566
 1071TIP3    H2 3157   7.347   4.189   1.462
 1072TIP3   OH2 3158   0.323   1.974   3.376
 1072TIP3    H1 3159   0.384   2.048   3.376
 1072TIP3    H2 3160   0.368   1.906   3.425
 1073TIP3   OH2 3161   4.127   5.797   1.993
 1073TIP3    H1 3162   4.093   5.841   2.070
 1073TIP3    H2 3163   4.126   5.704   2.016
 1074TIP3   OH2 3164   7.225   1.245   1.930
 1074TIP3    H1 3165   7.282   1.242   1.854
 1074TIP3    H2 3166   7.144   1.285   1.898
 1075TIP3   OH2 3167   4.118   5.885   1.735
 1075TIP3    H1 3168   4.152   5.821   1.673
 1075TIP3    H2 3169   4.120   5.840   1.820
 1076TIP3   OH2 3170   8.153   1.955   4.637
 1076TIP3    H1 3171   8.152   1.937   4.731
 1076TIP3    H2 3172   8.060   1.954   4.612
 1077TIP3   OH2 3173   4.062   0.911   1.613
 1077TIP3    H1 3174   4.045   0.847   1.682
 1077TIP3    H2 3175   3.990   0.900   1.551
 1078TIP3   OH2 3176   2.671   0.669   0.661
 1078TIP3    H1 3177   2.717   0.624   0.590
 1078TIP3    H2 3178   2.633   0.599   0.714
 1079TIP3   OH2 3179   4.217   6.859   2.204
 1079TIP3    H1 3180   4.176   6.868   2.290
 1079TIP3    H2 3181   4.273   6.782   2.212
 1080TIP3   OH2 3182   7.996   0.570   5.215
 1080TIP3    H1 3183   8.055   0.583   5.141
 1080TIP3    H2 3184   7.922   0.523   5.179
 1081TIP3   OH2 3185   2.795   0.495   5.701
 1081TIP3    H1 3186   2.856   0.449   5.645
 1081TIP3    H2 3187   2.833   0.582   5.712
 1082TIP3   OH2 3188   2.716   2.255   2.850
 1082TIP3    H1 3189   2.698   2.200   2.926
 1082TIP3    H2 3190   2.766   2.199   2.791
 1083TIP3   OH2 3191   3.537   3.383   1.546
 1083TIP3    H1 3192   3.582   3.453   1.498
 1083TIP3    H2 3193   3.456   3.423   1.576
 1084TIP3   OH2 3194   7.310   1.418   3.717
 1084TIP3    H1 3195   7.221   1.446   3.739
 1084TIP3    H2 3196   7.354   1.498   3.689
 1085TIP3   OH2 3197   0.934   5.926   3.151
 1085TIP3    H1 3198   1.025   5.899   3.159
 1085TIP3    H2 3199   0.912   5.965   3.236
 1086TIP3   OH2 3200   6.825   1.067   5.455
 1086TIP3    H1 3201   6.797   1.156   5.436
 1086TIP3    H2 3202   6.760   1.034   5.517
 1087TIP3   OH2 3203   6.399   5.897   5.875
 1087TIP3    H1 3204   6.452   5.964   5.917
 1087TIP3    H2 3205   6.329   5.945   5.831
 1088TIP3   OH2 3206   5.147   3.163   5.311
 1088TIP3    H1 3207   5.142   3.096   5.379
 1088TIP3    H2 3208   5.058   3.171   5.279
 1089TIP3   OH2 3209   7.399   0.654   3.175
 1089TIP3    H1 3210   7.449   0.728   3.141
 1089TIP3    H2 3211   7.317   0.692   3.206
 1090TIP3   OH2 3212   7.844   5.437   0.253
 1090TIP3    H1 3213   7.884   5.368   0.306
 1090TIP3    H2 3214   7.759   5.452   0.292
 1091TIP3   OH2 3215   4.570   0.134   4.638
 1091TIP3    H1 3216   4.655   0.174   4.622
 1091TIP3    H2 3217   4.561   0.133   4.734
 1092TIP3   OH2 3218   8.178   2.742   4.600
 1092TIP3    H1 3219   8.227   2.702   4.672
 1092TIP3    H2 3220   8.094   2.765   4.639
 1093TIP3   OH2 3221   0.967   7.337   1.483
 1093TIP3    H1 3222   1.002   7.256   1.521
 1093TIP3    H2 3223   0.970   7.401   1.554
 1094TIP3   OH2 3224   1.510   0.770   3.619
 1094TIP3    H1 3225   1.445   0.841   3.623
 1094TIP3    H2 3226   1.578   0.804   3.561
 1095TIP3   OH2 3227   4.076   4.377   3.486
 1095TIP3    H1 3228   3.981   4.382   3.478
 1095TIP3    H2 3229   4.109   4.430   3.414
 1096TIP3   OH2 3230   0.257   3.658   4.003
 1096TIP3    H1 3231   0.275   3.709   4.082
 1096TIP3    H2 3232   0.289   3.570   4.022
 1097TIP3   OH2 3233   0.402   6.411   1.155
 1097TIP3    H1 3234   0.334   6.346   1.136
 1097TIP3    H2 3235   0.353   6.488   1.184
 1098TIP3   OH2 3236   6.166   7.203   0.442
 1098TIP3    H1 3237   6.256   7.199   0.473
 1098TIP3    H2 3238   6.171   7.251   0.359
 1099TIP3   OH2 3239   4.456   5.379   0.507
 1099TIP3    H1 3240   4.443   5.346   0.418
 1099TIP3    H2 3241   4.392   5.450   0.516
 1100TIP3   OH2 3242   5.366   1.767   3.036
 1100TIP3    H1 3243   5.274   1.748   3.053
 1100TIP3    H2 3244   5.380   1.739   2.946
 1101TIP3   OH2 3245   2.226   2.280   3.827
 1101TIP3    H1 3246   2.212   2.332   3.747
 1101TIP3    H2 3247   2.265   2.199   3.796
 1102TIP3   OH2 3248   3.943   5.058   0.204
 1102TIP3    H1 3249   3.941   5.153   0.196
 1102TIP3    H2 3250   4.004   5.029   0.136
 1103TIP3   OH2 3251   4.670   5.096   2.519
 1103TIP3    H1 3252   4.657   5.143   2.437
 1103TIP3    H2 3253   4.735   5.148   2.567
 1104TIP3   OH2 3254   6.043   5.454   3.431
 1104TIP3    H1 3255   6.073   5.378   3.480
 1104TIP3    H2 3256   6.091   5.528   3.470
 1105TIP3   OH2 3257   1.696   1.856   4.641
 1105TIP3    H1 3258   1.707   1.870   4.547
 1105TIP3    H2 3259   1.602   1.865   4.656
 1106TIP3   OH2 3260   4.036   7.427   2.076
 1106TIP3    H1 3261   4.033   7.516   2.042
 1106TIP3    H2 3262   4.127   7.400   2.064
 1107TIP3   OH2 3263   6.364   1.536   1.986
 1107TIP3    H1 3264   6.332   1.566   1.901
 1107TIP3    H2 3265   6.301   1.469   2.013
 1108TIP3   OH2 3266   3.919   6.315   1.495
 1108TIP3    H1 3267   3.970   6.297   1.416
 1108TIP3    H2 3268   3.977   6.290   1.567
 1109TIP3   OH2 3269   7.520   6.272   1.929
 1109TIP3    H1 3270   7.599   6.323   1.909
 1109TIP3    H2 3271   7.552   6.196   1.977
 1110TIP3   OH2 3272   5.294   5.118   0.847
 1110TIP3    H1 3273   5.371   5.114   0.790
 1110TIP3    H2 3274   5.230   5.169   0.797
 1111TIP3   OH2 3275   5.289   3.095   6.588
 1111TIP3    H1 3276   5.279   3.008   6.548
 1111TIP3    H2 3277   5.224   3.096   6.659
 1112TIP3   OH2 3278   5.795   7.307   0.393
 1112TIP3    H1 3279   5.843   7.252   0.455
 1112TIP3    H2 3280   5.715   7.330   0.439
 1113TIP3   OH2 3281   6.540   2.113   5.646
 1113TIP3    H1 3282   6.568   2.027   5.613
 1113TIP3    H2 3283   6.556   2.173   5.573
 1114TIP3   OH2 3284   4.688   4.707   6.529
 1114TIP3    H1 3285   4.757   4.772   6.514
 1114TIP3    H2 3286   4.731   4.636   6.576
 1115TIP3   OH2 3287   1.153   4.987   2.301
 1115TIP3    H1 3288   1.156   4.984   2.397
 1115TIP3    H2 3289   1.241   4.960   2.273
 1116TIP3   OH2 3290   0.161   5.198   5.909
 1116TIP3    H1 3291   0.169   5.182   6.003
 1116TIP3    H2 3292   0.234   5.149   5.871
 1117TIP3   OH2 3293   5.299   6.929   3.418
 1117TIP3    H1 3294   5.389   6.928   3.385
 1117TIP3    H2 3295   5.278   7.023   3.425
 1118TIP3   OH2 3296   4.923   1.704   5.428
 1118TIP3    H1 3297   4.904   1.742   5.514
 1118TIP3    H2 3298   4.881   1.618   5.430
 1119TIP3   OH2 3299   7.348   4.383   1.714
 1119TIP3    H1 3300   7.263   4.358   1.679
 1119TIP3    H2 3301   7.370   4.314   1.776
 1120TIP3   OH2 3302   0.902   1.070   5.948
 1120TIP3    H1 3303   0.997   1.055   5.950
 1120TIP3    H2 3304   0.892   1.164   5.966
 1121TIP3   OH2 3305   7.364   6.781   2.039
 1121TIP3    H1 3306   7.288   6.794   1.983
 1121TIP3    H2 3307   7.368   6.687   2.055
 1122TIP3   OH2 3308   4.085   0.878   4.320
 1122TIP3    H1 3309   4.177   0.896   4.303
 1122TIP3    H2 3310   4.044   0.878   4.234
 1123TIP3   OH2 3311   5.919   5.917   5.395
 1123TIP3    H1 3312   5.968   5.852   5.445
 1123TIP3    H2 3313   5.857   5.866   5.344
 1124TIP3   OH2 3314   0.948   5.118   4.664
 1124TIP3    H1 3315   0.974   5.091   4.752
 1124TIP3    H2 3316   0.953   5.214   4.666
 1125TIP3   OH2 3317   4.901   6.358   5.054
 1125TIP3    H1 3318   4.814   6.383   5.023
 1125TIP3    H2 3319   4.887   6.278   5.106
 1126TIP3   OH2 3320   2.877   6.806   2.873
 1126TIP3    H1 3321   2.804   6.844   2.825
 1126TIP3    H2 3322   2.852   6.813   2.965
 1127TIP3   OH2 3323   0.369   3.325   3.739
 1127TIP3    H1 3324   0.295   3.383   3.756
 1127TIP3    H2 3325   0.439   3.382   3.708
 1128TIP3   OH2 3326   6.179   3.832   1.682
 1128TIP3    H1 3327   6.161   3.845   1.775
 1128TIP3    H2 3328   6.105   3.873   1.637
 1129TIP3   OH2 3329   0.280   6.390   3.902
 1129TIP3    H1 3330   0.327   6.412   3.983
 1129TIP3    H2 3331   0.188   6.386   3.929
 1130TIP3   OH2 3332   1.969   6.974   3.323
 1130TIP3    H1 3333   1.909   7.047   3.303
 1130TIP3    H2 3334   2.005   6.996   3.409
 1131TIP3   OH2 3335   6.916   1.908   5.621
 1131TIP3    H1 3336   6.957   1.881   5.539
 1131TIP3    H2 3337   6.908   2.003   5.615
 1132TIP3   OH2 3338   3.164   5.558   0.299
 1132TIP3    H1 3339   3.210   5.592   0.375
 1132TIP3    H2 3340   3.157   5.464   0.315
 1133TIP3   OH2 3341   0.641   4.017   0.529
 1133TIP3    H1 3342   0.660   4.044   0.619
 1133TIP3    H2 3343   0.549   3.991   0.531
 1134TIP3   OH2 3344   6.053   7.468   1.076
 1134TIP3    H1 3345   5.971   7.504   1.041
 1134TIP3    H2 3346   6.080   7.402   1.013
 1135TIP3   OH2 3347   7.505   2.155   5.246
 1135TIP3    H1 3348   7.562   2.095   5.293
 1135TIP3    H2 3349   7.452   2.196   5.314
 1136TIP3   OH2 3350   7.696   7.273   5.499
 1136TIP3    H1 3351   7.603   7.280   5.522
 1136TIP3    H2 3352   7.739   7.337   5.556
 1137TIP3   OH2 3353   0.630   7.729   3.519
 1137TIP3    H1 3354   0.618   7.817   3.555
 1137TIP3    H2 3355   0.597   7.671   3.587
 1138TIP3   OH2 3356   0.947   4.271   6.166
 1138TIP3    H1 3357   0.945   4.194   6.109
 1138TIP3    H2 3358   0.901   4.339   6.117
 1139TIP3   OH2 3359   2.934   6.512   0.746
 1139TIP3    H1 3360   3.010   6.501   0.804
 1139TIP3    H2 3361   2.961   6.578   0.683
 1140TIP3   OH2 3362   7.455   7.049   1.632
 1140TIP3    H1 3363   7.427   6.961   1.657
 1140TIP3    H2 3364   7.397   7.107   1.682
 1141TIP3   OH2 3365   0.315   5.499   5.734
 1141TIP3    H1 3366   0.227   5.462   5.730
 1141TIP3    H2 3367   0.358   5.450   5.804
 1142TIP3   OH2 3368   0.572   1.807   5.269
 1142TIP3    H1 3369   0.648   1.846   5.226
 1142TIP3    H2 3370   0.546   1.871   5.335
 1143TIP3   OH2 3371   4.852   4.535   2.028
 1143TIP3    H1 3372   4.767   4.547   1.986
 1143TIP3    H2 3373   4.892   4.622   2.027
 1144TIP3   OH2 3374   3.691   7.670   6.519
 1144TIP3    H1 3375   3.746   7.598   6.549
 1144TIP3    H2 3376   3.656   7.641   6.435
 1145TIP3   OH2 3377   6.580   0.296   3.505
 1145TIP3    H1 3378   6.551   0.380   3.472
 1145TIP3    H2 3379   6.665   0.282   3.462
 1146TIP3   OH2 3380   4.502   3.840   5.804
 1146TIP3    H1 3381   4.419   3.813   5.844
 1146TIP3    H2 3382   4.565   3.835   5.876
 1147TIP3   OH2 3383   2.155   4.742   1.170
 1147TIP3    H1 3384   2.124   4.830   1.192
 1147TIP3    H2 3385   2.243   4.738   1.207
 1148TIP3   OH2 3386   3.901   1.244   2.820
 1148TIP3    H1 3387   3.882   1.177   2.886
 1148TIP3    H2 3388   3.969   1.297   2.860
 1149TIP3   OH2 3389   4.309   2.896   6.240
 1149TIP3    H1 3390   4.316   2.863   6.330
 1149TIP3    H2 3391   4.234   2.850   6.203
 1150TIP3   OH2 3392   4.918   0.376   3.316
 1150TIP3    H1 3393   4.934   0.459   3.271
 1150TIP3    H2 3394   4.937   0.309   3.250
 1151TIP3   OH2 3395   3.299   5.485   4.431
 1151TIP3    H1 3396   3.204   5.490   4.440
 1151TIP3    H2 3397   3.333   5.548   4.496
 1152TIP3   OH2 3398   7.229   6.824   6.423
 1152TIP3    H1 3399   7.240   6.828   6.518
 1152TIP3    H2 3400   7.300   6.877   6.388
 1153TIP3   OH2 3401   3.861   4.943   3.230
 1153TIP3    H1 3402   3.933   4.989   3.187
 1153TIP3    H2 3403   3.782   4.978   3.188
 1154TIP3   OH2 3404   1.189   5.786   2.200
 1154TIP3    H1 3405   1.188   5.877   2.171
 1154TIP3    H2 3406   1.170   5.790   2.294
 1155TIP3   OH2 3407   5.246   4.320   5.715
 1155TIP3    H1 3408   5.274   4.381   5.647
 1155TIP3    H2 3409   5.313   4.251   5.715
 1156TIP3   OH2 3410   3.348   5.797   0.905
 1156TIP3    H1 3411   3.274   5.858   0.909
 1156TIP3    H2 3412   3.424   5.851   0.888
 1157TIP3   OH2 3413   7.643   3.844   5.473
 1157TIP3    H1 3414   7.649   3.816   5.564
 1157TIP3    H2 3415   7.692   3.778   5.424
 1158TIP3   OH2 3416   7.870   0.850   4.676
 1158TIP3    H1 3417   7.900   0.939   4.693
 1158TIP3    H2 3418   7.947   0.795   4.691
 1159TIP3   OH2 3419   1.821   3.332   6.302
 1159TIP3    H1 3420   1.869   3.400   6.256
 1159TIP3    H2 3421   1.731   3.340   6.270
 1160TIP3   OH2 3422   1.912   4.088   0.663
 1160TIP3    H1 3423   1.935   4.030   0.590
 1160TIP3    H2 3424   1.840   4.141   0.629
 1161TIP3   OH2 3425   7.844   1.751   5.339
 1161TIP3    H1 3426   7.786   1.683   5.305
 1161TIP3    H2 3427   7.926   1.740   5.290
 1162TIP3   OH2 3428   4.852   3.757   1.469
 1162TIP3    H1 3429   4.859   3.671   1.427
 1162TIP3    H2 3430   4.878   3.742   1.559
 1163TIP3   OH2 3431   5.157   1.718   3.396
 1163TIP3    H1 3432   5.143   1.623   3.398
 1163TIP3    H2 3433   5.126   1.745   3.309
 1164TIP3   OH2 3434   6.522   6.181   1.970
 1164TIP3    H1 3435   6.602   6.219   2.007
 1164TIP3    H2 3436   6.537   6.180   1.876
 1165TIP3   OH2 3437   7.575   6.586   2.519
 1165TIP3    H1 3438   7.652   6.554   2.566
 1165TIP3    H2 3439   7.543   6.659   2.572
 1166TIP3   OH2 3440   6.033   1.482   2.694
 1166TIP3    H1 3441   5.965   1.542   2.724
 1166TIP3    H2 3442   6.114   1.518   2.730
 1167TIP3   OH2 3443   3.613   5.959   5.809
 1167TIP3    H1 3444   3.538   5.960   5.868
 1167TIP3    H2 3445   3.618   5.868   5.780
 1168TIP3   OH2 3446   5.586   2.757   0.480
 1168TIP3    H1 3447   5.643   2.815   0.531
 1168TIP3    H2 3448   5.588   2.793   0.391
 1169TIP3   OH2 3449   1.387   2.768   0.831
 1169TIP3    H1 3450   1.481   2.782   0.818
 1169TIP3    H2 3451   1.368   2.691   0.776
 1170TIP3   OH2 3452   5.662   6.603   6.190
 1170TIP3    H1 3453   5.715   6.538   6.237
 1170TIP3    H2 3454   5.683   6.589   6.098
 1171TIP3   OH2 3455   3.405   4.093   0.846
 1171TIP3    H1 3456   3.367   4.006   0.847
 1171TIP3    H2 3457   3.438   4.104   0.757
 1172TIP3   OH2 3458   4.681   5.084   6.711
 1172TIP3    H1 3459   4.775   5.069   6.718
 1172TIP3    H2 3460   4.641   4.999   6.726
 1173TIP3   OH2 3461   8.187   5.620   3.110
 1173TIP3    H1 3462   8.279   5.594   3.123
 1173TIP3    H2 3463   8.165   5.585   3.023
 1174TIP3   OH2 3464   6.256   2.525   5.758
 1174TIP3    H1 3465   6.348   2.547   5.740
 1174TIP3    H2 3466   6.208   2.604   5.733
 1175TIP3   OH2 3467   5.350   0.755   4.818
 1175TIP3    H1 3468   5.333   0.665   4.788
 1175TIP3    H2 3469   5.442   0.753   4.847
 1176TIP3   OH2 3470   5.821   6.247   1.071
 1176TIP3    H1 3471   5.828   6.343   1.069
 1176TIP3    H2 3472   5.906   6.218   1.103
 1177TIP3   OH2 3473   4.858   1.615   0.447
 1177TIP3    H1 3474   4.849   1.693   0.502
 1177TIP3    H2 3475   4.927   1.637   0.385
 1178TIP3   OH2 3476   1.818   6.079   2.718
 1178TIP3    H1 3477   1.800   6.093   2.626
 1178TIP3    H2 3478   1.745   6.026   2.750
 1179TIP3   OH2 3479   4.490   1.836   4.539
 1179TIP3    H1 3480   4.428   1.804   4.606
 1179TIP3    H2 3481   4.552   1.890   4.588
 1180TIP3   OH2 3482   7.841   6.701   3.030
 1180TIP3    H1 3483   7.902   6.758   3.077
 1180TIP3    H2 3484   7.786   6.761   2.980
 1181TIP3   OH2 3485   6.474   4.058   4.183
 1181TIP3    H1 3486   6.501   4.149   4.175
 1181TIP3    H2 3487   6.432   4.053   4.269
 1182TIP3   OH2 3488   1.576   3.943   3.308
 1182TIP3    H1 3489   1.575   3.859   3.263
 1182TIP3    H2 3490   1.648   3.937   3.370
 1183TIP3   OH2 3491   4.777   2.362   5.443
 1183TIP3    H1 3492   4.684   2.338   5.444
 1183TIP3    H2 3493   4.817   2.297   5.386
 1184TIP3   OH2 3494   4.684   3.263   6.674
 1184TIP3    H1 3495   4.595   3.282   6.706
 1184TIP3    H2 3496   4.697   3.170   6.693
 1185TIP3   OH2 3497   0.745   7.447   0.916
 1185TIP3    H1 3498   0.742   7.526   0.861
 1185TIP3    H2 3499   0.686   7.467   0.989
 1186TIP3   OH2 3500   1.860   4.809   5.310
 1186TIP3    H1 3501   1.782   4.798   5.366
 1186TIP3    H2 3502   1.880   4.720   5.282
 1187TIP3   OH2 3503   6.141   3.025   0.008
 1187TIP3    H1 3504   6.186   2.989   0.084
 1187TIP3    H2 3505   6.054   2.985   0.010
 1188TIP3   OH2 3506   5.254   0.227   2.202
 1188TIP3    H1 3507   5.344   0.221   2.235
 1188TIP3    H2 3508   5.215   0.298   2.255
 1189TIP3   OH2 3509   5.524   2.368   2.644
 1189TIP3    H1 3510   5.510   2.364   2.739
 1189TIP3    H2 3511   5.482   2.449   2.616
 1190TIP3   OH2 3512   2.539   5.591   5.802
 1190TIP3    H1 3513   2.515   5.674   5.761
 1190TIP3    H2 3514   2.635   5.588   5.794
 1191TIP3   OH2 3515   8.250   5.178   4.342
 1191TIP3    H1 3516   8.314   5.245   4.319
 1191TIP3    H2 3517   8.302   5.098   4.354
 1192TIP3   OH2 3518   5.491   3.963   0.467
 1192TIP3    H1 3519   5.467   4.055   0.475
 1192TIP3    H2 3520   5.586   3.963   0.453
 1193TIP3   OH2 3521   4.347   1.406   4.351
 1193TIP3    H1 3522   4.442   1.397   4.343
 1193TIP3    H2 3523   4.311   1.334   4.299
 1194TIP3   OH2 3524   5.704   7.516   5.925
 1194TIP3    H1 3525   5.710   7.612   5.920
 1194TIP3    H2 3526   5.634   7.493   5.864
 1195TIP3   OH2 3527   2.279   1.692   3.969
 1195TIP3    H1 3528   2.294   1.783   3.998
 1195TIP3    H2 3529   2.342   1.680   3.898
 1196TIP3   OH2 3530   1.470   1.930   3.343
 1196TIP3    H1 3531   1.511   1.854   3.303
 1196TIP3    H2 3532   1.516   1.940   3.427
 1197TIP3   OH2 3533   8.138   1.712   1.659
 1197TIP3    H1 3534   8.154   1.739   1.749
 1197TIP3    H2 3535   8.045   1.693   1.656
 1198TIP3   OH2 3536   8.062   3.662   1.159
 1198TIP3    H1 3537   8.139   3.702   1.200
 1198TIP3    H2 3538   8.068   3.570   1.183
 1199TIP3   OH2 3539   8.328   2.146   6.572
 1199TIP3    H1 3540   8.310   2.221   6.628
 1199TIP3    H2 3541   8.253   2.087   6.584
 1200TIP3   OH2 3542   6.652   6.950   4.397
 1200TIP3    H1 3543   6.571   6.999   4.410
 1200TIP3    H2 3544   6.623   6.860   4.378
 1201TIP3   OH2 3545   6.659   2.848   1.964
 1201TIP3    H1 3546   6.567   2.855   1.940
 1201TIP3    H2 3547   6.706   2.889   1.891
 1202TIP3   OH2 3548   6.955   0.895   6.242
 1202TIP3    H1 3549   6.898   0.831   6.283
 1202TIP3    H2 3550   6.962   0.866   6.151
 1203TIP3   OH2 3551   6.334   7.532   5.520
 1203TIP3    H1 3552   6.241   7.524   5.541
 1203TIP3    H2 3553   6.364   7.441   5.515
 1204TIP3   OH2 3554   5.375   1.558   0.482
 1204TIP3    H1 3555   5.390   1.576   0.575
 1204TIP3    H2 3556   5.304   1.617   0.457
 1205TIP3   OH2 3557   5.515   5.084   2.946
 1205TIP3    H1 3558   5.585   5.034   2.987
 1205TIP3    H2 3559   5.521   5.063   2.853
 1206TIP3   OH2 3560   0.744   5.909   1.786
 1206TIP3    H1 3561   0.733   5.978   1.852
 1206TIP3    H2 3562   0.775   5.833   1.836
 1207TIP3   OH2 3563   4.064   5.595   5.641
 1207TIP3    H1 3564   4.111   5.513   5.627
 1207TIP3    H2 3565   4.130   5.656   5.675
 1208TIP3   OH2 3566   3.569   3.909   4.845
 1208TIP3    H1 3567   3.527   3.960   4.915
 1208TIP3    H2 3568   3.645   3.868   4.888
 1209TIP3   OH2 3569   4.789   7.157   4.209
 1209TIP3    H1 3570   4.817   7.243   4.238
 1209TIP3    H2 3571   4.712   7.137   4.263
 1210TIP3   OH2 3572   1.647   2.390   0.124
 1210TIP3    H1 3573   1.601   2.422   0.046
 1210TIP3    H2 3574   1.577   2.373   0.187
 1211TIP3   OH2 3575   4.715   5.568   3.767
 1211TIP3    H1 3576   4.721   5.528   3.854
 1211TIP3    H2 3577   4.660   5.508   3.717
 1212TIP3   OH2 3578   1.678   5.436   2.038
 1212TIP3    H1 3579   1.623   5.367   1.999
 1212TIP3    H2 3580   1.616   5.496   2.079
 1213TIP3   OH2 3581   4.589   5.467   1.522
 1213TIP3    H1 3582   4.541   5.461   1.439
 1213TIP3    H2 3583   4.660   5.404   1.512
 1214TIP3   OH2 3584   7.725   5.180   6.348
 1214TIP3    H1 3585   7.700   5.167   6.440
 1214TIP3    H2 3586   7.645   5.209   6.305
 1215TIP3   OH2 3587   0.576   2.414   2.085
 1215TIP3    H1 3588   0.635   2.389   2.014
 1215TIP3    H2 3589   0.519   2.338   2.096
 1216TIP3   OH2 3590   3.004   4.759   0.540
 1216TIP3    H1 3591   3.084   4.782   0.493
 1216TIP3    H2 3592   2.965   4.689   0.488
 1217TIP3   OH2 3593   6.583   0.483   5.225
 1217TIP3    H1 3594   6.517   0.462   5.291
 1217TIP3    H2 3595   6.535   0.531   5.158
 1218TIP3   OH2 3596   3.826   3.054   4.583
 1218TIP3    H1 3597   3.918   3.073   4.603
 1218TIP3    H2 3598   3.830   2.990   4.512
 1219TIP3   OH2 3599   3.476   2.159   4.821
 1219TIP3    H1 3600   3.560   2.147   4.865
 1219TIP3    H2 3601   3.411   2.158   4.891
 1220TIP3   OH2 3602   5.480   2.001   5.585
 1220TIP3    H1 3603   5.455   2.008   5.493
 1220TIP3    H2 3604   5.570   2.033   5.589
 1221TIP3   OH2 3605   3.424   7.530   0.341
 1221TIP3    H1 3606   3.479   7.606   0.361
 1221TIP3    H2 3607   3.452   7.463   0.403
 1222TIP3   OH2 3608   1.704   4.939   0.735
 1222TIP3    H1 3609   1.703   4.882   0.659
 1222TIP3    H2 3610   1.627   4.995   0.724
 1223TIP3   OH2 3611   6.406   5.108   4.582
 1223TIP3    H1 3612   6.474   5.118   4.516
 1223TIP3    H2 3613   6.452   5.108   4.666
 1224TIP3   OH2 3614   4.037   4.336   5.182
 1224TIP3    H1 3615   4.081   4.382   5.110
 1224TIP3    H2 3616   4.104   4.276   5.216
 1225TIP3   OH2 3617   7.305   6.593   2.403
 1225TIP3    H1 3618   7.393   6.563   2.426
 1225TIP3    H2 3619   7.249   6.554   2.470
 1226TIP3   OH2 3620   4.776   3.845   2.677
 1226TIP3    H1 3621   4.739   3.932   2.663
 1226TIP3    H2 3622   4.775   3.834   2.772
 1227TIP3   OH2 3623   7.206   7.484   2.611
 1227TIP3    H1 3624   7.200   7.395   2.578
 1227TIP3    H2 3625   7.300   7.501   2.619
 1228TIP3   OH2 3626   2.363   5.235   4.724
 1228TIP3    H1 3627   2.375   5.158   4.669
 1228TIP3    H2 3628   2.452   5.264   4.744
 1229TIP3   OH2 3629   1.464   6.790   1.575
 1229TIP3    H1 3630   1.448   6.768   1.483
 1229TIP3    H2 3631   1.538   6.735   1.600
 1230TIP3   OH2 3632   0.270   3.338   1.805
 1230TIP3    H1 3633   0.216   3.270   1.763
 1230TIP3    H2 3634   0.226   3.355   1.888
 1231TIP3   OH2 3635   4.316   5.192   2.626
 1231TIP3    H1 3636   4.300   5.147   2.543
 1231TIP3    H2 3637   4.363   5.272   2.601
 1232TIP3   OH2 3638   3.402   1.941   1.114
 1232TIP3    H1 3639   3.360   2.023   1.138
 1232TIP3    H2 3640   3.353   1.874   1.162
 1233TIP3   OH2 3641   1.689   2.065   5.400
 1233TIP3    H1 3642   1.703   2.013   5.479
 1233TIP3    H2 3643   1.596   2.055   5.381
 1234TIP3   OH2 3644   6.168   5.062   1.431
 1234TIP3    H1 3645   6.247   5.115   1.428
 1234TIP3    H2 3646   6.108   5.104   1.369
 1235TIP3   OH2 3647   6.706   0.103   4.562
 1235TIP3    H1 3648   6.669   0.069   4.480
 1235TIP3    H2 3649   6.745   0.026   4.603
 1236TIP3   OH2 3650   2.602   5.556   6.702
 1236TIP3    H1 3651   2.604   5.490   6.633
 1236TIP3    H2 3652   2.512   5.551   6.736
 1237TIP3   OH2 3653   4.909   6.039   3.799
 1237TIP3    H1 3654   4.889   6.084   3.717
 1237TIP3    H2 3655   4.851   6.079   3.864
 1238TIP3   OH2 3656   2.575   4.474   4.120
 1238TIP3    H1 3657   2.556   4.458   4.212
 1238TIP3    H2 3658   2.528   4.404   4.073
 1239TIP3   OH2 3659   1.177   1.335   2.396
 1239TIP3    H1 3660   1.088   1.320   2.428
 1239TIP3    H2 3661   1.194   1.427   2.414
 1240TIP3   OH2 3662   7.944   7.187   5.103
 1240TIP3    H1 3663   7.937   7.136   5.023
 1240TIP3    H2 3664   8.036   7.212   5.108
 1241TIP3   OH2 3665   3.791   1.490   3.994
 1241TIP3    H1 3666   3.776   1.486   4.089
 1241TIP3    H2 3667   3.746   1.413   3.960
 1242TIP3   OH2 3668   0.725   4.063   5.231
 1242TIP3    H1 3669   0.644   4.068   5.180
 1242TIP3    H2 3670   0.770   4.145   5.212
 1243TIP3   OH2 3671   2.622   0.030   2.847
 1243TIP3    H1 3672   2.531   0.000   2.851
 1243TIP3    H2 3673   2.655  -0.006   2.765
 1244TIP3   OH2 3674   5.888   2.475   1.149
 1244TIP3    H1 3675   5.925   2.456   1.063
 1244TIP3    H2 3676   5.922   2.561   1.172
 1245TIP3   OH2 3677   6.360   4.151   1.310
 1245TIP3    H1 3678   6.276   4.183   1.277
 1245TIP3    H2 3679   6.351   4.055   1.309
 1246TIP3   OH2 3680   3.583   0.731   1.917
 1246TIP3    H1 3681   3.497   0.726   1.876
 1246TIP3    H2 3682   3.588   0.820   1.952
 1247TIP3   OH2 3683   0.079   4.436   3.448
 1247TIP3    H1 3684   0.057   4.521   3.408
 1247TIP3    H2 3685   0.029   4.436   3.530
 1248TIP3   OH2 3686   1.144   3.722   3.403
 1248TIP3    H1 3687   1.127   3.813   3.378
 1248TIP3    H2 3688   1.091   3.709   3.481
 1249TIP3   OH2 3689   7.746   1.510   4.530
 1249TIP3    H1 3690   7.697   1.429   4.517
 1249TIP3    H2 3691   7.785   1.529   4.445
 1250TIP3   OH2 3692  -0.019   0.356   6.143
 1250TIP3    H1 3693  -0.009   0.445   6.177
 1250TIP3    H2 3694   0.004   0.364   6.050
 1251TIP3   OH2 3695   5.381   1.275   0.250
 1251TIP3    H1 3696   5.411   1.243   0.164
 1251TIP3    H2 3697   5.291   1.245   0.256
 1252TIP3   OH2 3698   0.590   7.207   4.318
 1252TIP3    H1 3699   0.620   7.210   4.227
 1252TIP3    H2 3700   0.528   7.279   4.325
 1253TIP3   OH2 3701   0.707   1.166   4.396
 1253TIP3    H1 3702   0.783   1.201   4.441
 1253TIP3    H2 3703   0.662   1.243   4.361
 1254TIP3   OH2 3704   6.078   6.131   4.498
 1254TIP3    H1 3705   5.986   6.151   4.514
 1254TIP3    H2 3706   6.126   6.202   4.541
 1255TIP3   OH2 3707   1.403   5.321   2.382
 1255TIP3    H1 3708   1.343   5.330   2.308
 1255TIP3    H2 3709   1.401   5.405   2.426
 1256TIP3   OH2 3710   7.256   6.281   6.758
 1256TIP3    H1 3711   7.162   6.283   6.740
 1256TIP3    H2 3712   7.297   6.307   6.675
 1257TIP3   OH2 3713   4.863   7.421   4.322
 1257TIP3    H1 3714   4.847   7.365   4.398
 1257TIP3    H2 3715   4.900   7.501   4.359
 1258TIP3   OH2 3716   1.885   2.794   1.172
 1258TIP3    H1 3717   1.858   2.739   1.098
 1258TIP3    H2 3718   1.860   2.744   1.250
 1259TIP3   OH2 3719   7.553   7.655   5.174
 1259TIP3    H1 3720   7.482   7.710   5.143
 1259TIP3    H2 3721   7.527   7.629   5.262
 1260TIP3   OH2 3722   1.112   7.201   4.873
 1260TIP3    H1 3723   1.191   7.182   4.822
 1260TIP3    H2 3724   1.137   7.180   4.963
 1261TIP3   OH2 3725   2.586   6.303   6.251
 1261TIP3    H1 3726   2.608   6.369   6.317
 1261TIP3    H2 3727   2.624   6.337   6.170
 1262TIP3   OH2 3728   3.894   0.083   6.055
 1262TIP3    H1 3729   3.906   0.176   6.037
 1262TIP3    H2 3730   3.973   0.042   6.021
 1263TIP3   OH2 3731   5.505   4.669   1.717
 1263TIP3    H1 3732   5.448   4.651   1.793
 1263TIP3    H2 3733   5.446   4.663   1.642
 1264TIP3   OH2 3734   7.345   5.053   3.807
 1264TIP3    H1 3735   7.272   5.021   3.755
 1264TIP3    H2 3736   7.416   5.067   3.744
 1265TIP3   OH2 3737   6.483   4.842   0.491
 1265TIP3    H1 3738   6.404   4.842   0.437
 1265TIP3    H2 3739   6.456   4.801   0.574
 1266TIP3   OH2 3740   6.110   2.742   2.931
 1266TIP3    H1 3741   6.117   2.715   3.022
 1266TIP3    H2 3742   6.186   2.703   2.887
 1267TIP3   OH2 3743   6.439   3.129   4.409
 1267TIP3    H1 3744   6.482   3.067   4.350
 1267TIP3    H2 3745   6.346   3.125   4.385
 1268TIP3   OH2 3746   1.294   6.850   0.587
 1268TIP3    H1 3747   1.367   6.855   0.525
 1268TIP3    H2 3748   1.280   6.941   0.614
 1269TIP3   OH2 3749   0.985   4.905   1.386
 1269TIP3    H1 3750   0.979   4.857   1.469
 1269TIP3    H2 3751   0.957   4.843   1.319
 1270TIP3   OH2 3752   3.086   2.686   4.095
 1270TIP3    H1 3753   3.135   2.634   4.160
 1270TIP3    H2 3754   3.136   2.767   4.086
 1271TIP3   OH2 3755   5.311   2.219   1.090
 1271TIP3    H1 3756   5.333   2.146   1.147
 1271TIP3    H2 3757   5.390   2.235   1.039
 1272TIP3   OH2 3758   4.791   1.494   4.635
 1272TIP3    H1 3759   4.816   1.421   4.692
 1272TIP3    H2 3760   4.707   1.467   4.598
 1273TIP3   OH2 3761   6.195   1.802   3.645
 1273TIP3    H1 3762   6.265   1.778   3.584
 1273TIP3    H2 3763   6.225   1.770   3.729
 1274TIP3   OH2 3764   5.517   5.747   0.371
 1274TIP3    H1 3765   5.577   5.809   0.411
 1274TIP3    H2 3766   5.538   5.750   0.277
 1275TIP3   OH2 3767   6.410   5.549   3.277
 1275TIP3    H1 3768   6.453   5.550   3.192
 1275TIP3    H2 3769   6.440   5.628   3.321
 1276TIP3   OH2 3770   1.980   2.694   4.294
 1276TIP3    H1 3771   1.980   2.661   4.204
 1276TIP3    H2 3772   2.044   2.765   4.293
 1277TIP3   OH2 3773   7.186   0.677   1.922
 1277TIP3    H1 3774   7.150   0.594   1.952
 1277TIP3    H2 3775   7.281   0.667   1.931
 1278TIP3   OH2 3776   1.782   1.475   6.297
 1278TIP3    H1 3777   1.861   1.427   6.274
 1278TIP3    H2 3778   1.813   1.557   6.336
 1279TIP3   OH2 3779   3.907   7.240   0.252
 1279TIP3    H1 3780   3.924   7.329   0.222
 1279TIP3    H2 3781   3.994   7.202   0.267
 1280TIP3   OH2 3782   8.090   5.943   0.374
 1280TIP3    H1 3783   8.043   6.019   0.408
 1280TIP3    H2 3784   8.025   5.895   0.324
 1281TIP3   OH2 3785   2.263   1.835   1.720
 1281TIP3    H1 3786   2.238   1.892   1.792
 1281TIP3    H2 3787   2.349   1.800   1.745
 1282TIP3   OH2 3788   5.547   3.919   1.204
 1282TIP3    H1 3789   5.591   3.946   1.285
 1282TIP3    H2 3790   5.510   4.000   1.169
 1283TIP3   OH2 3791   5.272   0.499   3.439
 1283TIP3    H1 3792   5.268   0.455   3.354
 1283TIP3    H2 3793   5.225   0.581   3.426
 1284TIP3   OH2 3794   3.163   4.624   1.951
 1284TIP3    H1 3795   3.230   4.600   2.015
 1284TIP3    H2 3796   3.124   4.705   1.985
 1285TIP3   OH2 3797   4.955   3.537   4.794
 1285TIP3    H1 3798   4.897   3.486   4.850
 1285TIP3    H2 3799   4.906   3.617   4.775
 1286TIP3   OH2 3800   0.824   7.685   2.498
 1286TIP3    H1 3801   0.765   7.709   2.569
 1286TIP3    H2 3802   0.895   7.637   2.541
 1287TIP3   OH2 3803   6.650   5.240   1.944
 1287TIP3    H1 3804   6.623   5.191   2.021
 1287TIP3    H2 3805   6.722   5.295   1.975
 1288TIP3   OH2 3806   4.996   7.713   6.226
 1288TIP3    H1 3807   4.910   7.722   6.266
 1288TIP3    H2 3808   5.025   7.804   6.213
 1289TIP3   OH2 3809   4.773   3.388   4.130
 1289TIP3    H1 3810   4.697   3.400   4.073
 1289TIP3    H2 3811   4.787   3.293   4.131
 1290TIP3   OH2 3812   5.928   2.833   0.060
 1290TIP3    H1 3813   5.897   2.773   0.127
 1290TIP3    H2 3814   5.848   2.863   0.016
 1291TIP3   OH2 3815   7.326   0.084   2.926
 1291TIP3    H1 3816   7.351   0.143   2.997
 1291TIP3    H2 3817   7.252   0.127   2.884
 1292TIP3   OH2 3818   0.818   7.702   5.160
 1292TIP3    H1 3819   0.877   7.627   5.154
 1292TIP3    H2 3820   0.768   7.700   5.079
 1293TIP3   OH2 3821   5.749   5.558   0.034
 1293TIP3    H1 3822   5.796   5.474   0.041
 1293TIP3    H2 3823   5.817   5.621   0.009
 1294TIP3   OH2 3824   4.788   2.153   1.139
 1294TIP3    H1 3825   4.810   2.066   1.170
 1294TIP3    H2 3826   4.871   2.190   1.109
 1295TIP3   OH2 3827   5.664   3.770   4.510
 1295TIP3    H1 3828   5.735   3.774   4.445
 1295TIP3    H2 3829   5.703   3.805   4.590
 1296TIP3   OH2 3830   2.700   6.838   3.320
 1296TIP3    H1 3831   2.792   6.843   3.346
 1296TIP3    H2 3832   2.684   6.745   3.302
 1297TIP3   OH2 3833   6.702   7.206   0.303
 1297TIP3    H1 3834   6.684   7.265   0.375
 1297TIP3    H2 3835   6.662   7.248   0.226
 1298TIP3   OH2 3836   6.329   3.769   4.074
 1298TIP3    H1 3837   6.389   3.708   4.031
 1298TIP3    H2 3838   6.359   3.772   4.165
 1299TIP3   OH2 3839   2.225   4.036   6.016
 1299TIP3    H1 3840   2.131   4.044   6.029
 1299TIP3    H2 3841   2.254   3.974   6.083
 1300TIP3   OH2 3842   6.617   0.425   5.978
 1300TIP3    H1 3843   6.597   0.459   6.066
 1300TIP3    H2 3844   6.626   0.504   5.924
 1301TIP3   OH2 3845   1.337   1.534   5.408
 1301TIP3    H1 3846   1.398   1.589   5.459
 1301TIP3    H2 3847   1.359   1.445   5.434
 1302TIP3   OH2 3848   6.822   7.472   3.763
 1302TIP3    H1 3849   6.835   7.547   3.821
 1302TIP3    H2 3850   6.768   7.411   3.813
 1303TIP3   OH2 3851   6.677   3.299   2.147
 1303TIP3    H1 3852   6.625   3.376   2.123
 1303TIP3    H2 3853   6.762   3.335   2.174
 1304TIP3   OH2 3854   3.017   2.366   3.809
 1304TIP3    H1 3855   3.069   2.314   3.748
 1304TIP3    H2 3856   3.025   2.456   3.777
 1305TIP3   OH2 3857   8.051   6.874   6.557
 1305TIP3    H1 3858   7.975   6.828   6.521
 1305TIP3    H2 3859   8.051   6.850   6.650
 1306TIP3   OH2 3860   5.609   2.722   0.811
 1306TIP3    H1 3861   5.564   2.721   0.726
 1306TIP3    H2 3862   5.540   2.706   0.875
 1307TIP3   OH2 3863   4.237   3.802   2.904
 1307TIP3    H1 3864   4.242   3.738   2.833
 1307TIP3    H2 3865   4.271   3.883   2.866
 1308TIP3   OH2 3866   7.265   3.156   0.701
 1308TIP3    H1 3867   7.177   3.145   0.738
 1308TIP3    H2 3868   7.291   3.245   0.726
 1309TIP3   OH2 3869   2.310   2.141   4.478
 1309TIP3    H1 3870   2.324   2.104   4.565
 1309TIP3    H2 3871   2.215   2.132   4.463
 1310TIP3   OH2 3872   4.428   6.586   1.661
 1310TIP3    H1 3873   4.348   6.551   1.699
 1310TIP3    H2 3874   4.399   6.655   1.602
 1311TIP3   OH2 3875   0.727   2.443   0.598
 1311TIP3    H1 3876   0.658   2.437   0.665
 1311TIP3    H2 3877   0.808   2.422   0.645
 1312TIP3   OH2 3878   3.145   5.712   2.267
 1312TIP3    H1 3879   3.211   5.774   2.296
 1312TIP3    H2 3880   3.161   5.702   2.173
 1313TIP3   OH2 3881   7.690   1.954   1.923
 1313TIP3    H1 3882   7.673   1.874   1.872
 1313TIP3    H2 3883   7.608   1.971   1.969
 1314TIP3   OH2 3884   8.020   4.061   4.059
 1314TIP3    H1 3885   8.054   4.060   3.969
 1314TIP3    H2 3886   7.935   4.104   4.052
 1315TIP3   OH2 3887   6.261   5.276   5.147
 1315TIP3    H1 3888   6.178   5.310   5.179
 1315TIP3    H2 3889   6.249   5.268   5.052
 1316TIP3   OH2 3890   7.219   6.199   1.953
 1316TIP3    H1 3891   7.184   6.259   2.019
 1316TIP3    H2 3892   7.314   6.211   1.958
 1317TIP3   OH2 3893   2.038   0.942   2.952
 1317TIP3    H1 3894   2.018   0.864   3.004
 1317TIP3    H2 3895   2.134   0.949   2.957
 1318TIP3   OH2 3896   7.868   1.949   5.109
 1318TIP3    H1 3897   7.838   2.038   5.092
 1318TIP3    H2 3898   7.834   1.927   5.195
 1319TIP3   OH2 3899   2.181   7.282   4.976
 1319TIP3    H1 3900   2.198   7.296   5.069
 1319TIP3    H2 3901   2.094   7.319   4.962
 1320TIP3   OH2 3902   2.623   3.077   1.053
 1320TIP3    H1 3903   2.655   2.987   1.053
 1320TIP3    H2 3904   2.552   3.078   1.117
 1321TIP3   OH2 3905   3.008   5.447   4.422
 1321TIP3    H1 3906   2.923   5.416   4.452
 1321TIP3    H2 3907   3.035   5.383   4.357
 1322TIP3   OH2 3908   0.899   2.211   5.227
 1322TIP3    H1 3909   0.928   2.246   5.144
 1322TIP3    H2 3910   0.849   2.132   5.204
 1323TIP3   OH2 3911   2.791   4.586   2.135
 1323TIP3    H1 3912   2.863   4.568   2.196
 1323TIP3    H2 3913   2.771   4.679   2.148
 1324TIP3   OH2 3914   2.322   6.462   1.464
 1324TIP3    H1 3915   2.241   6.412   1.468
 1324TIP3    H2 3916   2.391   6.397   1.448
 1325TIP3   OH2 3917   4.522   6.305   6.531
 1325TIP3    H1 3918   4.437   6.275   6.562
 1325TIP3    H2 3919   4.563   6.228   6.492
 1326TIP3   OH2 3920   3.281   7.680   3.532
 1326TIP3    H1 3921   3.221   7.606   3.521
 1326TIP3    H2 3922   3.284   7.721   3.445
 1327TIP3   OH2 3923   2.107   5.810   3.750
 1327TIP3    H1 3924   2.041   5.850   3.694
 1327TIP3    H2 3925   2.057   5.782   3.828
 1328TIP3   OH2 3926   2.060   3.460   0.661
 1328TIP3    H1 3927   2.083   3.377   0.702
 1328TIP3    H2 3928   2.143   3.508   0.656
 1329TIP3   OH2 3929   2.902   4.064   1.420
 1329TIP3    H1 3930   2.861   3.982   1.392
 1329TIP3    H2 3931   2.985   4.037   1.459
 1330TIP3   OH2 3932   5.644   5.505   5.813
 1330TIP3    H1 3933   5.637   5.424   5.864
 1330TIP3    H2 3934   5.678   5.477   5.728
 1331TIP3   OH2 3935   0.641   5.659   2.273
 1331TIP3    H1 3936   0.643   5.721   2.346
 1331TIP3    H2 3937   0.610   5.710   2.198
 1332TIP3   OH2 3938   3.152   7.598   5.956
 1332TIP3    H1 3939   3.082   7.652   5.919
 1332TIP3    H2 3940   3.233   7.646   5.934
 1333TIP3   OH2 3941   6.612   7.412   1.605
 1333TIP3    H1 3942   6.614   7.500   1.567
 1333TIP3    H2 3943   6.529   7.408   1.651
 1334TIP3   OH2 3944   1.825   3.166   1.333
 1334TIP3    H1 3945   1.784   3.235   1.281
 1334TIP3    H2 3946   1.755   3.134   1.390
 1335TIP3   OH2 3947   0.592   6.784   0.061
 1335TIP3    H1 3948   0.539   6.809   0.137
 1335TIP3    H2 3949   0.574   6.690   0.050
 1336TIP3   OH2 3950   3.259   2.206   4.179
 1336TIP3    H1 3951   3.179   2.258   4.169
 1336TIP3    H2 3952   3.251   2.166   4.266
 1337TIP3   OH2 3953   2.593   1.981   4.998
 1337TIP3    H1 3954   2.538   2.049   5.038
 1337TIP3    H2 3955   2.609   1.918   5.069
 1338TIP3   OH2 3956   4.591   2.697   6.109
 1338TIP3    H1 3957   4.559   2.782   6.080
 1338TIP3    H2 3958   4.518   2.637   6.090
 1339TIP3   OH2 3959   3.715   1.772   4.673
 1339TIP3    H1 3960   3.643   1.709   4.679
 1339TIP3    H2 3961   3.677   1.855   4.699
 1340TIP3   OH2 3962   3.797   4.429   3.477
 1340TIP3    H1 3963   3.744   4.435   3.556
 1340TIP3    H2 3964   3.794   4.517   3.439
 1341TIP3   OH2 3965   4.974   6.404   0.602
 1341TIP3    H1 3966   5.005   6.466   0.668
 1341TIP3    H2 3967   5.042   6.403   0.535
 1342TIP3   OH2 3968   4.766   7.149   2.545
 1342TIP3    H1 3969   4.705   7.221   2.526
 1342TIP3    H2 3970   4.835   7.158   2.479
 1343TIP3   OH2 3971   1.173   7.685   2.918
 1343TIP3    H1 3972   1.110   7.647   2.979
 1343TIP3    H2 3973   1.255   7.641   2.938
 1344TIP3   OH2 3974   0.993   5.827   2.423
 1344TIP3    H1 3975   0.973   5.774   2.346
 1344TIP3    H2 3976   0.945   5.785   2.494
 1345TIP3   OH2 3977   1.249   5.386   5.475
 1345TIP3    H1 3978   1.239   5.355   5.565
 1345TIP3    H2 3979   1.313   5.327   5.436
 1346TIP3   OH2 3980   0.430   1.846   6.199
 1346TIP3    H1 3981   0.458   1.787   6.268
 1346TIP3    H2 3982   0.482   1.926   6.212
 1347TIP3   OH2 3983   7.808   7.064   0.572
 1347TIP3    H1 3984   7.716   7.066   0.547
 1347TIP3    H2 3985   7.814   7.123   0.648
 1348TIP3   OH2 3986   3.915   0.372   6.071
 1348TIP3    H1 3987   3.853   0.437   6.106
 1348TIP3    H2 3988   3.988   0.424   6.037
 1349TIP3   OH2 3989   1.287   4.441   3.189
 1349TIP3    H1 3990   1.229   4.458   3.262
 1349TIP3    H2 3991   1.338   4.364   3.215
 1350TIP3   OH2 3992   6.875   4.671   0.363
 1350TIP3    H1 3993   6.830   4.715   0.435
 1350TIP3    H2 3994   6.921   4.598   0.404
 1351TIP3   OH2 3995   4.844   2.821   4.487
 1351TIP3    H1 3996   4.755   2.825   4.524
 1351TIP3    H2 3997   4.882   2.742   4.526
 1352TIP3   OH2 3998   3.496   3.099   2.098
 1352TIP3    H1 3999   3.545   3.017   2.092
 1352TIP3    H2 4000   3.448   3.093   2.181
 1353TIP3   OH2 4001   8.256   2.797   0.166
 1353TIP3    H1 4002   8.348   2.791   0.190
 1353TIP3    H2 4003   8.249   2.747   0.085
 1354TIP3   OH2 4004   4.514   4.900   1.227
 1354TIP3    H1 4005   4.447   4.939   1.283
 1354TIP3    H2 4006   4.597   4.920   1.270
 1355TIP3   OH2 4007   0.093   7.411   5.405
 1355TIP3    H1 4008   0.082   7.329   5.453
 1355TIP3    H2 4009   0.185   7.433   5.417
 1356TIP3   OH2 4010   1.181   0.547   0.373
 1356TIP3    H1 4011   1.200   0.636   0.403
 1356TIP3    H2 4012   1.126   0.510   0.441
 1357TIP3   OH2 4013   0.466   4.610   4.975
 1357TIP3    H1 4014   0.469   4.538   5.038
 1357TIP3    H2 4015   0.382   4.653   4.992
 1358TIP3   OH2 4016   0.663   1.520   4.658
 1358TIP3    H1 4017   0.756   1.511   4.682
 1358TIP3    H2 4018   0.616   1.474   4.727
 1359TIP3   OH2 4019   4.606   0.131   0.428
 1359TIP3    H1 4020   4.555   0.206   0.459
 1359TIP3    H2 4021   4.547   0.056   0.439
 1360TIP3   OH2 4022   5.452   1.038   0.525
 1360TIP3    H1 4023   5.477   1.086   0.604
 1360TIP3    H2 4024   5.494   1.086   0.454
 1361TIP3   OH2 4025   2.085   1.369   2.121
 1361TIP3    H1 4026   2.120   1.281   2.129
 1361TIP3    H2 4027   2.000   1.366   2.166
 1362TIP3   OH2 4028   4.757   1.092   1.782
 1362TIP3    H1 4029   4.775   1.013   1.833
 1362TIP3    H2 4030   4.666   1.083   1.755
 1363TIP3   OH2 4031   2.607   1.032   0.144
 1363TIP3    H1 4032   2.558   1.098   0.094
 1363TIP3    H2 4033   2.570   1.037   0.232
 1364TIP3   OH2 4034   5.398   7.643   6.113
 1364TIP3    H1 4035   5.339   7.648   6.188
 1364TIP3    H2 4036   5.410   7.734   6.086
 1365TIP3   OH2 4037   5.448   2.665   3.048
 1365TIP3    H1 4038   5.366   2.615   3.047
 1365TIP3    H2 4039   5.475   2.665   3.140
 1366TIP3   OH2 4040   8.082   2.761   3.264
 1366TIP3    H1 4041   8.100   2.667   3.255
 1366TIP3    H2 4042   7.996   2.765   3.305
 1367TIP3   OH2 4043   6.232   6.079   5.444
 1367TIP3    H1 4044   6.294   6.006   5.440
 1367TIP3    H2 4045   6.194   6.084   5.356
 1368TIP3   OH2 4046   7.501   7.681   1.320
 1368TIP3    H1 4047   7.410   7.687   1.350
 1368TIP3    H2 4048   7.497   7.712   1.229
 1369TIP3   OH2 4049   0.195   1.379   2.254
 1369TIP3    H1 4050   0.286   1.404   2.273
 1369TIP3    H2 4051   0.145   1.409   2.329
 1370TIP3   OH2 4052   3.845   3.469   2.470
 1370TIP3    H1 4053   3.785   3.544   2.471
 1370TIP3    H2 4054   3.893   3.478   2.388
 1371TIP3   OH2 4055   0.339   2.248   2.076
 1371TIP3    H1 4056   0.290   2.168   2.097
 1371TIP3    H2 4057   0.276   2.319   2.089
 1372TIP3   OH2 4058   0.602   5.241   3.483
 1372TIP3    H1 4059   0.524   5.198   3.518
 1372TIP3    H2 4060   0.675   5.205   3.534
 1373TIP3   OH2 4061   1.848   6.622   2.061
 1373TIP3    H1 4062   1.870   6.565   1.988
 1373TIP3    H2 4063   1.915   6.604   2.127
 1374TIP3   OH2 4064   5.719   7.533   2.243
 1374TIP3    H1 4065   5.642   7.524   2.301
 1374TIP3    H2 4066   5.709   7.621   2.206
 1375TIP3   OH2 4067   2.346   4.619   1.948
 1375TIP3    H1 4068   2.295   4.537   1.945
 1375TIP3    H2 4069   2.283   4.687   1.925
 1376TIP3   OH2 4070   3.359   7.540   4.842
 1376TIP3    H1 4071   3.425   7.559   4.775
 1376TIP3    H2 4072   3.370   7.447   4.862
 1377TIP3   OH2 4073   1.935   5.657   6.505
 1377TIP3    H1 4074   2.027   5.635   6.521
 1377TIP3    H2 4075   1.938   5.741   6.459
 1378TIP3   OH2 4076   6.090   0.028   4.632
 1378TIP3    H1 4077   6.071  -0.060   4.599
 1378TIP3    H2 4078   6.144   0.013   4.710
 1379TIP3   OH2 4079   7.981   3.672   0.618
 1379TIP3    H1 4080   7.957   3.637   0.704
 1379TIP3    H2 4081   8.062   3.628   0.595
 1380TIP3   OH2 4082   7.885   5.146   5.364
 1380TIP3    H1 4083   7.940   5.068   5.363
 1380TIP3    H2 4084   7.811   5.124   5.308
 1381TIP3   OH2 4085   0.035   6.844   6.038
 1381TIP3    H1 4086   0.045   6.913   6.104
 1381TIP3    H2 4087  -0.037   6.874   5.982
 1382TIP3   OH2 4088   5.141   3.664   4.097
 1382TIP3    H1 4089   5.198   3.588   4.109
 1382TIP3    H2 4090   5.097   3.648   4.013
 1383TIP3   OH2 4091   7.177   4.369   5.609
 1383TIP3    H1 4092   7.243   4.439   5.613
 1383TIP3    H2 4093   7.110   4.397   5.671
 1384TIP3   OH2 4094   5.494   0.569   0.873
 1384TIP3    H1 4095   5.450   0.577   0.788
 1384TIP3    H2 4096   5.457   0.640   0.926
 1385TIP3   OH2 4097   6.443   0.579   5.022
 1385TIP3    H1 4098   6.368   0.636   5.038
 1385TIP3    H2 4099   6.425   0.539   4.937
 1386TIP3   OH2 4100   2.939   3.802   0.860
 1386TIP3    H1 4101   3.006   3.802   0.928
 1386TIP3    H2 4102   2.976   3.748   0.789
 1387TIP3   OH2 4103   6.655   3.867   6.241
 1387TIP3    H1 4104   6.632   3.950   6.285
 1387TIP3    H2 4105   6.706   3.819   6.306
 1388TIP3   OH2 4106   2.258   1.950   4.044
 1388TIP3    H1 4107   2.193   2.005   4.000
 1388TIP3    H2 4108   2.217   1.926   4.127
 1389TIP3   OH2 4109   5.198   3.005   4.627
 1389TIP3    H1 4110   5.161   2.981   4.712
 1389TIP3    H2 4111   5.250   2.930   4.601
 1390TIP3   OH2 4112   5.011   1.260   1.963
 1390TIP3    H1 4113   4.933   1.240   2.014
 1390TIP3    H2 4114   5.002   1.353   1.940
 1391TIP3   OH2 4115   1.333   6.804   5.863
 1391TIP3    H1 4116   1.381   6.727   5.892
 1391TIP3    H2 4117   1.389   6.845   5.797
 1392TIP3   OH2 4118   2.635   0.795   2.299
 1392TIP3    H1 4119   2.550   0.783   2.256
 1392TIP3    H2 4120   2.614   0.815   2.390
 1393TIP3   OH2 4121   4.050   1.876   4.483
 1393TIP3    H1 4122   4.100   1.795   4.482
 1393TIP3    H2 4123   4.046   1.901   4.575
 1394TIP3   OH2 4124   0.591   2.860   6.635
 1394TIP3    H1 4125   0.657   2.815   6.689
 1394TIP3    H2 4126   0.518   2.799   6.630
 1395TIP3   OH2 4127   4.531   4.185   2.522
 1395TIP3    H1 4128   4.473   4.200   2.597
 1395TIP3    H2 4129   4.490   4.112   2.475
 1396TIP3   OH2 4130   3.612   5.047   3.512
 1396TIP3    H1 4131   3.532   5.027   3.561
 1396TIP3    H2 4132   3.582   5.058   3.421
 1397TIP3   OH2 4133   2.668   3.346   1.761
 1397TIP3    H1 4134   2.682   3.434   1.725
 1397TIP3    H2 4135   2.756   3.307   1.764
 1398TIP3   OH2 4136   2.604   2.075   3.713
 1398TIP3    H1 4137   2.549   2.074   3.791
 1398TIP3    H2 4138   2.680   2.021   3.737
 1399TIP3   OH2 4139   3.675   1.798   5.815
 1399TIP3    H1 4140   3.746   1.853   5.851
 1399TIP3    H2 4141   3.717   1.714   5.797
 1400TIP3   OH2 4142   0.359   4.175   4.426
 1400TIP3    H1 4143   0.413   4.159   4.504
 1400TIP3    H2 4144   0.269   4.171   4.459
 1401TIP3   OH2 4145   0.201   6.889   2.561
 1401TIP3    H1 4146   0.260   6.939   2.618
 1401TIP3    H2 4147   0.117   6.934   2.567
 1402TIP3   OH2 4148   7.620   4.904   2.121
 1402TIP3    H1 4149   7.682   4.836   2.094
 1402TIP3    H2 4150   7.556   4.857   2.174
 1403TIP3   OH2 4151   5.685   5.253   5.974
 1403TIP3    H1 4152   5.738   5.177   5.998
 1403TIP3    H2 4153   5.639   5.278   6.054
 1404TIP3   OH2 4154   0.717   6.910   4.088
 1404TIP3    H1 4155   0.662   6.836   4.114
 1404TIP3    H2 4156   0.760   6.936   4.169
 1405TIP3   OH2 4157   3.687   6.427   1.440
 1405TIP3    H1 4158   3.650   6.385   1.363
 1405TIP3    H2 4159   3.773   6.387   1.451
 1406TIP3   OH2 4160   3.372   3.898   6.481
 1406TIP3    H1 4161   3.358   3.806   6.459
 1406TIP3    H2 4162   3.304   3.917   6.546
 1407TIP3   OH2 4163   1.222   5.001   0.120
 1407TIP3    H1 4164   1.168   5.023   0.196
 1407TIP3    H2 4165   1.242   4.908   0.131
 1408TIP3   OH2 4166   0.106   7.152   5.533
 1408TIP3    H1 4167   0.154   7.092   5.589
 1408TIP3    H2 4168   0.014   7.132   5.549
 1409TIP3   OH2 4169   7.871   4.358   0.427
 1409TIP3    H1 4170   7.870   4.346   0.332
 1409TIP3    H2 4171   7.938   4.297   0.458
 1410TIP3   OH2 4172   7.065   2.583   5.946
 1410TIP3    H1 4173   7.079   2.637   5.868
 1410TIP3    H2 4174   7.014   2.639   6.004
 1411TIP3   OH2 4175   7.502   7.183   2.070
 1411TIP3    H1 4176   7.553   7.223   1.999
 1411TIP3    H2 4177   7.455   7.257   2.110
 1412TIP3   OH2 4178   7.377   0.169   0.487
 1412TIP3    H1 4179   7.338   0.248   0.449
 1412TIP3    H2 4180   7.441   0.202   0.549
 1413TIP3   OH2 4181   0.327   3.659   3.708
 1413TIP3    H1 4182   0.288   3.634   3.792
 1413TIP3    H2 4183   0.262   3.635   3.643
 1414TIP3   OH2 4184   0.703   4.307   2.944
 1414TIP3    H1 4185   0.764   4.235   2.926
 1414TIP3    H2 4186   0.753   4.386   2.922
 1415TIP3   OH2 4187   4.176   3.279   4.510
 1415TIP3    H1 4188   4.251   3.260   4.454
 1415TIP3    H2 4189   4.115   3.326   4.453
 1416TIP3   OH2 4190   7.541   3.128   4.401
 1416TIP3    H1 4191   7.536   3.092   4.312
 1416TIP3    H2 4192   7.590   3.209   4.391
 1417TIP3   OH2 4193   2.472   6.394   5.964
 1417TIP3    H1 4194   2.438   6.429   5.882
 1417TIP3    H2 4195   2.447   6.459   6.030
 1418TIP3   OH2 4196   2.701   7.529   0.952
 1418TIP3    H1 4197   2.757   7.452   0.957
 1418TIP3    H2 4198   2.758   7.602   0.977
 1419TIP3   OH2 4199   7.106   3.371   1.147
 1419TIP3    H1 4200   7.189   3.408   1.177
 1419TIP3    H2 4201   7.047   3.447   1.140
 1420TIP3   OH2 4202   7.470   5.713   2.607
 1420TIP3    H1 4203   7.436   5.797   2.577
 1420TIP3    H2 4204   7.480   5.660   2.528
 1421TIP3   OH2 4205   4.459   5.200   6.384
 1421TIP3    H1 4206   4.528   5.250   6.429
 1421TIP3    H2 4207   4.481   5.109   6.402
 1422TIP3   OH2 4208   8.101   6.006   0.755
 1422TIP3    H1 4209   8.031   6.036   0.812
 1422TIP3    H2 4210   8.141   6.086   0.721
 1423TIP3   OH2 4211   4.076   6.763   0.323
 1423TIP3    H1 4212   4.131   6.692   0.356
 1423TIP3    H2 4213   4.104   6.840   0.373
 1424TIP3   OH2 4214   1.538   6.433   0.214
 1424TIP3    H1 4215   1.592   6.390   0.147
 1424TIP3    H2 4216   1.454   6.387   0.209
 1425TIP3   OH2 4217   2.835   2.642   0.582
 1425TIP3    H1 4218   2.904   2.702   0.609
 1425TIP3    H2 4219   2.792   2.616   0.664
 1426TIP3   OH2 4220   7.171   1.119   4.166
 1426TIP3    H1 4221   7.213   1.112   4.251
 1426TIP3    H2 4222   7.242   1.115   4.103
 1427TIP3   OH2 4223   7.295   4.104   0.881
 1427TIP3    H1 4224   7.328   4.183   0.922
 1427TIP3    H2 4225   7.314   4.034   0.943
 1428TIP3   OH2 4226   7.710   6.571   3.277
 1428TIP3    H1 4227   7.752   6.593   3.194
 1428TIP3    H2 4228   7.735   6.479   3.292
 1429TIP3   OH2 4229   0.038   2.774   4.242
 1429TIP3    H1 4230   0.107   2.803   4.302
 1429TIP3    H2 4231   0.004   2.694   4.281
 1430TIP3   OH2 4232   1.535   6.557   0.462
 1430TIP3    H1 4233   1.537   6.510   0.379
 1430TIP3    H2 4234   1.452   6.604   0.462
 1431TIP3   OH2 4235   2.149   1.395   2.767
 1431TIP3    H1 4236   2.212   1.334   2.728
 1431TIP3    H2 4237   2.146   1.468   2.706
 1432TIP3   OH2 4238   2.915   0.241   5.839
 1432TIP3    H1 4239   2.922   0.332   5.869
 1432TIP3    H2 4240   3.003   0.205   5.852
 1433TIP3   OH2 4241   3.183   1.182   2.032
 1433TIP3    H1 4242   3.107   1.146   2.075
 1433TIP3    H2 4243   3.154   1.268   1.999
 1434TIP3   OH2 4244   4.063   0.244   2.936
 1434TIP3    H1 4245   3.971   0.218   2.925
 1434TIP3    H2 4246   4.113   0.179   2.888
 1435TIP3   OH2 4247   4.898   3.470   2.420
 1435TIP3    H1 4248   4.837   3.540   2.397
 1435TIP3    H2 4249   4.842   3.399   2.452
 1436TIP3   OH2 4250   1.463   1.289   2.268
 1436TIP3    H1 4251   1.446   1.380   2.246
 1436TIP3    H2 4252   1.377   1.252   2.288
 1437TIP3   OH2 4253   1.602   1.155   0.097
 1437TIP3    H1 4254   1.511   1.133   0.116
 1437TIP3    H2 4255   1.597   1.240   0.053
 1438TIP3   OH2 4256   0.411   5.290   4.702
 1438TIP3    H1 4257   0.441   5.357   4.641
 1438TIP3    H2 4258   0.431   5.326   4.788
 1439TIP3   OH2 4259   7.431   3.403   1.278
 1439TIP3    H1 4260   7.392   3.334   1.224
 1439TIP3    H2 4261   7.487   3.356   1.339
 1440TIP3   OH2 4262   7.255   4.800   0.859
 1440TIP3    H1 4263   7.278   4.853   0.936
 1440TIP3    H2 4264   7.329   4.812   0.799
 1441TIP3   OH2 4265   8.167   4.165   6.229
 1441TIP3    H1 4266   8.142   4.097   6.292
 1441TIP3    H2 4267   8.168   4.120   6.145
 1442TIP3   OH2 4268   6.161   3.177   1.509
 1442TIP3    H1 4269   6.234   3.235   1.531
 1442TIP3    H2 4270   6.131   3.144   1.593
 1443TIP3   OH2 4271   4.427   1.772   0.731
 1443TIP3    H1 4272   4.438   1.836   0.660
 1443TIP3    H2 4273   4.362   1.812   0.788
 1444TIP3   OH2 4274   6.017   0.829   2.566
 1444TIP3    H1 4275   6.006   0.800   2.657
 1444TIP3    H2 4276   6.080   0.768   2.528
 1445TIP3   OH2 4277   6.636   5.734   3.794
 1445TIP3    H1 4278   6.670   5.784   3.719
 1445TIP3    H2 4279   6.705   5.671   3.814
 1446TIP3   OH2 4280   6.763   4.105   0.863
 1446TIP3    H1 4281   6.671   4.082   0.879
 1446TIP3    H2 4282   6.810   4.022   0.867
 1447TIP3   OH2 4283   4.201   7.279   5.195
 1447TIP3    H1 4284   4.286   7.291   5.153
 1447TIP3    H2 4285   4.212   7.317   5.282
 1448TIP3   OH2 4286   0.969   0.140   0.320
 1448TIP3    H1 4287   0.875   0.126   0.324
 1448TIP3    H2 4288   1.002   0.106   0.402
 1449TIP3   OH2 4289   3.301   4.667   2.714
 1449TIP3    H1 4290   3.283   4.602   2.646
 1449TIP3    H2 4291   3.305   4.750   2.666
 1450TIP3   OH2 4292   1.853   5.781   1.576
 1450TIP3    H1 4293   1.824   5.770   1.666
 1450TIP3    H2 4294   1.775   5.765   1.523
 1451TIP3   OH2 4295   1.729   3.041   4.986
 1451TIP3    H1 4296   1.811   3.088   5.002
 1451TIP3    H2 4297   1.681   3.096   4.924
 1452TIP3   OH2 4298   7.071   0.842   5.705
 1452TIP3    H1 4299   7.117   0.788   5.770
 1452TIP3    H2 4300   7.036   0.779   5.643
 1453TIP3   OH2 4301   7.419   0.747   6.052
 1453TIP3    H1 4302   7.458   0.819   6.002
 1453TIP3    H2 4303   7.383   0.789   6.130
 1454TIP3   OH2 4304   8.368   5.901   0.392
 1454TIP3    H1 4305   8.373   5.810   0.363
 1454TIP3    H2 4306   8.274   5.919   0.398
 1455TIP3   OH2 4307   3.574   0.711   1.139
 1455TIP3    H1 4308   3.539   0.670   1.218
 1455TIP3    H2 4309   3.588   0.803   1.163
 1456TIP3   OH2 4310   2.028   4.270   1.715
 1456TIP3    H1 4311   2.065   4.187   1.745
 1456TIP3    H2 4312   1.936   4.252   1.700
 1457TIP3   OH2 4313   8.182   3.251   4.659
 1457TIP3    H1 4314   8.114   3.238   4.592
 1457TIP3    H2 4315   8.253   3.193   4.632
 1458TIP3   OH2 4316   0.901   1.533   1.124
 1458TIP3    H1 4317   0.828   1.558   1.181
 1458TIP3    H2 4318   0.958   1.611   1.122
 1459TIP3   OH2 4319   6.172   7.821   1.320
 1459TIP3    H1 4320   6.205   7.770   1.393
 1459TIP3    H2 4321   6.135   7.900   1.360
 1460TIP3   OH2 4322   1.492   5.324   3.345
 1460TIP3    H1 4323   1.421   5.358   3.398
 1460TIP3    H2 4324   1.496   5.383   3.269
 1461TIP3   OH2 4325   4.804   3.775   1.093
 1461TIP3    H1 4326   4.720   3.735   1.070
 1461TIP3    H2 4327   4.851   3.780   1.010
 1462TIP3   OH2 4328   4.590   5.685   2.962
 1462TIP3    H1 4329   4.630   5.651   2.882
 1462TIP3    H2 4330   4.563   5.608   3.011
 1463TIP3   OH2 4331   1.908   1.243   3.675
 1463TIP3    H1 4332   1.834   1.193   3.709
 1463TIP3    H2 4333   1.962   1.261   3.752
 1464TIP3   OH2 4334   7.301   6.204   4.105
 1464TIP3    H1 4335   7.393   6.190   4.082
 1464TIP3    H2 4336   7.267   6.116   4.122
 1465TIP3   OH2 4337   7.321   2.658   3.605
 1465TIP3    H1 4338   7.256   2.708   3.555
 1465TIP3    H2 4339   7.282   2.649   3.692
 1466TIP3   OH2 4340  -0.045   3.653   6.061
 1466TIP3    H1 4341  -0.010   3.607   6.137
 1466TIP3    H2 4342   0.023   3.644   5.994
 1467TIP3   OH2 4343   6.568   7.108   2.226
 1467TIP3    H1 4344   6.501   7.173   2.243
 1467TIP3    H2 4345   6.523   7.024   2.234
 1468TIP3   OH2 4346   6.846   4.587   6.474
 1468TIP3    H1 4347   6.756   4.586   6.507
 1468TIP3    H2 4348   6.837   4.564   6.381
 1469TIP3   OH2 4349   2.181   7.349   5.307
 1469TIP3    H1 4350   2.235   7.271   5.303
 1469TIP3    H2 4351   2.092   7.318   5.289
 1470TIP3   OH2 4352   6.253   3.813   3.205
 1470TIP3    H1 4353   6.274   3.755   3.132
 1470TIP3    H2 4354   6.292   3.769   3.282
 1471TIP3   OH2 4355   5.687   7.068   0.144
 1471TIP3    H1 4356   5.625   7.086   0.215
 1471TIP3    H2 4357   5.741   7.147   0.139
 1472TIP3   OH2 4358   4.686   2.272   0.138
 1472TIP3    H1 4359   4.610   2.326   0.117
 1472TIP3    H2 4360   4.687   2.204   0.071
 1473TIP3   OH2 4361   4.089   7.164   1.224
 1473TIP3    H1 4362   4.097   7.086   1.168
 1473TIP3    H2 4363   4.086   7.129   1.313
 1474TIP3   OH2 4364   6.765   6.914   6.331
 1474TIP3    H1 4365   6.723   6.837   6.293
 1474TIP3    H2 4366   6.692   6.966   6.365
 1475TIP3   OH2 4367   3.533   6.092   1.981
 1475TIP3    H1 4368   3.491   6.052   2.056
 1475TIP3    H2 4369   3.605   6.032   1.959
 1476TIP3   OH2 4370   4.190   0.426   5.441
 1476TIP3    H1 4371   4.277   0.453   5.472
 1476TIP3    H2 4372   4.208   0.377   5.361
 1477TIP3   OH2 4373   3.229   7.461   3.952
 1477TIP3    H1 4374   3.233   7.399   4.025
 1477TIP3    H2 4375   3.276   7.418   3.881
 1478TIP3   OH2 4376   3.975   0.245   0.902
 1478TIP3    H1 4377   4.046   0.197   0.946
 1478TIP3    H2 4378   4.009   0.261   0.814
 1479TIP3   OH2 4379   2.717   1.538   6.523
 1479TIP3    H1 4380   2.794   1.583   6.488
 1479TIP3    H2 4381   2.644   1.569   6.470
 1480TIP3   OH2 4382   5.895   4.811   2.858
 1480TIP3    H1 4383   5.938   4.896   2.850
 1480TIP3    H2 4384   5.815   4.830   2.908
 1481TIP3   OH2 4385   4.585   3.654   5.627
 1481TIP3    H1 4386   4.562   3.731   5.679
 1481TIP3    H2 4387   4.518   3.589   5.649
 1482TIP3   OH2 4388   1.911   0.921   4.521
 1482TIP3    H1 4389   1.906   0.836   4.564
 1482TIP3    H2 4390   1.927   0.902   4.429
 1483TIP3   OH2 4391   3.441   4.729   1.218
 1483TIP3    H1 4392   3.359   4.727   1.269
 1483TIP3    H2 4393   3.445   4.643   1.176
 1484TIP3   OH2 4394   0.798   2.349   1.139
 1484TIP3    H1 4395   0.858   2.315   1.206
 1484TIP3    H2 4396   0.854   2.373   1.066
 1485TIP3   OH2 4397   4.823   4.784   1.072
 1485TIP3    H1 4398   4.915   4.783   1.045
 1485TIP3    H2 4399   4.819   4.851   1.140
 1486TIP3   OH2 4400   0.198   1.933   5.224
 1486TIP3    H1 4401   0.155   2.018   5.237
 1486TIP3    H2 4402   0.244   1.942   5.140
 1487TIP3   OH2 4403   4.844   5.437   0.863
 1487TIP3    H1 4404   4.758   5.401   0.841
 1487TIP3    H2 4405   4.888   5.365   0.909
 1488TIP3   OH2 4406   4.675   6.651   3.842
 1488TIP3    H1 4407   4.680   6.562   3.806
 1488TIP3    H2 4408   4.756   6.661   3.892
 1489TIP3   OH2 4409   3.923   0.941   4.579
 1489TIP3    H1 4410   3.984   0.869   4.566
 1489TIP3    H2 4411   3.860   0.933   4.507
 1490TIP3   OH2 4412   2.754   1.206   0.400
 1490TIP3    H1 4413   2.795   1.216   0.486
 1490TIP3    H2 4414   2.665   1.238   0.411
 1491TIP3   OH2 4415   1.947   2.634   2.033
 1491TIP3    H1 4416   2.006   2.565   2.002
 1491TIP3    H2 4417   1.889   2.589   2.095
 1492TIP3   OH2 4418   7.133   3.787   3.539
 1492TIP3    H1 4419   7.191   3.726   3.492
 1492TIP3    H2 4420   7.164   3.785   3.629
 1493TIP3   OH2 4421   6.289   4.054   2.241
 1493TIP3    H1 4422   6.246   3.978   2.280
 1493TIP3    H2 4423   6.374   4.059   2.286
 1494TIP3   OH2 4424   2.616   4.005   5.463
 1494TIP3    H1 4425   2.628   3.976   5.553
 1494TIP3    H2 4426   2.651   3.934   5.410
 1495TIP3   OH2 4427   7.347   4.296   5.371
 1495TIP3    H1 4428   7.301   4.290   5.454
 1495TIP3    H2 4429   7.288   4.346   5.314
 1496TIP3   OH2 4430   5.928   1.369   5.653
 1496TIP3    H1 4431   5.973   1.298   5.698
 1496TIP3    H2 4432   5.890   1.422   5.724
 1497TIP3   OH2 4433   0.235   2.393   4.033
 1497TIP3    H1 4434   0.203   2.418   3.946
 1497TIP3    H2 4435   0.202   2.304   4.047
 1498TIP3   OH2 4436   8.239   4.295   6.506
 1498TIP3    H1 4437   8.282   4.260   6.585
 1498TIP3    H2 4438   8.149   4.312   6.534
 1499TIP3   OH2 4439   0.057   7.447   6.277
 1499TIP3    H1 4440  -0.012   7.395   6.237
 1499TIP3    H2 4441   0.067   7.522   6.219
 1500TIP3   OH2 4442   3.018   1.842   1.530
 1500TIP3    H1 4443   3.088   1.849   1.595
 1500TIP3    H2 4444   2.953   1.785   1.572
 1501TIP3   OH2 4445   6.883   3.855   6.591
 1501TIP3    H1 4446   6.921   3.781   6.639
 1501TIP3    H2 4447   6.876   3.925   6.657
 1502TIP3   OH2 4448   0.426   2.604   1.053
 1502TIP3    H1 4449   0.479   2.563   1.121
 1502TIP3    H2 4450   0.392   2.531   1.001
 1503TIP3   OH2 4451   1.386   7.042   3.501
 1503TIP3    H1 4452   1.347   7.061   3.586
 1503TIP3    H2 4453   1.397   6.947   3.500
 1504TIP3   OH2 4454   2.397   7.386   2.208
 1504TIP3    H1 4455   2.408   7.292   2.224
 1504TIP3    H2 4456   2.378   7.423   2.295
 1505TIP3   OH2 4457   6.104   6.514   4.697
 1505TIP3    H1 4458   6.169   6.445   4.712
 1505TIP3    H2 4459   6.144   6.570   4.631
 1506TIP3   OH2 4460   4.819   7.478   3.183
 1506TIP3    H1 4461   4.862   7.455   3.265
 1506TIP3    H2 4462   4.824   7.399   3.130
 1507TIP3   OH2 4463   3.742   6.363   5.937
 1507TIP3    H1 4464   3.810   6.430   5.946
 1507TIP3    H2 4465   3.666   6.411   5.903
 1508TIP3   OH2 4466   3.609   2.113   2.888
 1508TIP3    H1 4467   3.568   2.181   2.834
 1508TIP3    H2 4468   3.702   2.132   2.884
 1509TIP3   OH2 4469   0.059   4.583   3.084
 1509TIP3    H1 4470   0.141   4.547   3.051
 1509TIP3    H2 4471   0.052   4.669   3.042
 1510TIP3   OH2 4472   4.850   6.508   6.312
 1510TIP3    H1 4473   4.818   6.552   6.233
 1510TIP3    H2 4474   4.777   6.516   6.374
 1511TIP3   OH2 4475   4.978   7.507   6.015
 1511TIP3    H1 4476   4.946   7.551   5.936
 1511TIP3    H2 4477   4.956   7.567   6.086
 1512TIP3   OH2 4478   1.350   7.559   5.406
 1512TIP3    H1 4479   1.393   7.490   5.457
 1512TIP3    H2 4480   1.422   7.612   5.372
 1513TIP3   OH2 4481   0.975   3.348   4.934
 1513TIP3    H1 4482   1.066   3.370   4.953
 1513TIP3    H2 4483   0.965   3.366   4.840
 1514TIP3   OH2 4484   7.350   5.531   2.805
 1514TIP3    H1 4485   7.389   5.599   2.750
 1514TIP3    H2 4486   7.297   5.479   2.744
 1515TIP3   OH2 4487   6.614   0.937   6.431
 1515TIP3    H1 4488   6.605   1.026   6.396
 1515TIP3    H2 4489   6.525   0.912   6.456
 1516TIP3   OH2 4490   1.730   1.678   3.859
 1516TIP3    H1 4491   1.776   1.622   3.796
 1516TIP3    H2 4492   1.655   1.713   3.810
 1517TIP3   OH2 4493   3.733   5.229   6.079
 1517TIP3    H1 4494   3.808   5.233   6.138
 1517TIP3    H2 4495   3.742   5.144   6.035
 1518TIP3   OH2 4496   3.182   6.929   6.608
 1518TIP3    H1 4497   3.274   6.938   6.632
 1518TIP3    H2 4498   3.182   6.867   6.536
 1519TIP3   OH2 4499   3.767   4.785   5.556
 1519TIP3    H1 4500   3.802   4.701   5.586
 1519TIP3    H2 4501   3.823   4.809   5.482
 1520TIP3   OH2 4502   7.376   3.047   5.788
 1520TIP3    H1 4503   7.337   3.101   5.856
 1520TIP3    H2 4504   7.333   3.074   5.707
 1521TIP3   OH2 4505   8.093   1.533   2.499
 1521TIP3    H1 4506   8.151   1.541   2.574
 1521TIP3    H2 4507   8.016   1.585   2.523
 1522TIP3   OH2 4508   4.847   1.232   0.141
 1522TIP3    H1 4509   4.801   1.167   0.087
 1522TIP3    H2 4510   4.855   1.190   0.226
 1523TIP3   OH2 4511   6.991   3.896   5.085
 1523TIP3    H1 4512   7.013   3.980   5.126
 1523TIP3    H2 4513   7.075   3.861   5.054
 1524TIP3   OH2 4514   1.365   7.105   4.735
 1524TIP3    H1 4515   1.345   7.161   4.660
 1524TIP3    H2 4516   1.460   7.110   4.744
 1525TIP3   OH2 4517   4.309   6.938   6.181
 1525TIP3    H1 4518   4.243   6.900   6.240
 1525TIP3    H2 4519   4.372   6.866   6.167
 1526TIP3   OH2 4520   1.390   0.894   2.629
 1526TIP3    H1 4521   1.350   0.844   2.700
 1526TIP3    H2 4522   1.424   0.828   2.569
 1527TIP3   OH2 4523   0.142   4.667   4.491
 1527TIP3    H1 4524   0.182   4.582   4.477
 1527TIP3    H2 4525   0.064   4.667   4.435
 1528TIP3   OH2 4526   8.218   4.422   3.925
 1528TIP3    H1 4527   8.282   4.493   3.931
 1528TIP3    H2 4528   8.153   4.454   3.862
 1529TIP3   OH2 4529   4.672   5.301   6.518
 1529TIP3    H1 4530   4.716   5.266   6.441
 1529TIP3    H2 4531   4.686   5.235   6.586
 1530TIP3   OH2 4532   1.652   7.658   0.151
 1530TIP3    H1 4533   1.693   7.660   0.237
 1530TIP3    H2 4534   1.580   7.721   0.157
 1531TIP3   OH2 4535   5.617   5.486   1.620
 1531TIP3    H1 4536   5.594   5.578   1.635
 1531TIP3    H2 4537   5.581   5.440   1.695
 1532TIP3   OH2 4538   7.784   5.256   3.243
 1532TIP3    H1 4539   7.736   5.176   3.264
 1532TIP3    H2 4540   7.822   5.284   3.327
 1533TIP3   OH2 4541   1.565   0.657   6.093
 1533TIP3    H1 4542   1.595   0.611   6.015
 1533TIP3    H2 4543   1.610   0.613   6.165
 1534TIP3   OH2 4544   2.374   1.295   2.345
 1534TIP3    H1 4545   2.286   1.266   2.324
 1534TIP3    H2 4546   2.430   1.219   2.327
 1535TIP3   OH2 4547   1.725   7.797   0.668
 1535TIP3    H1 4548   1.724   7.702   0.668
 1535TIP3    H2 4549   1.750   7.821   0.757
 1536TIP3   OH2 4550   1.277   3.833   3.736
 1536TIP3    H1 4551   1.366   3.812   3.708
 1536TIP3    H2 4552   1.267   3.926   3.716
 1537TIP3   OH2 4553   8.173   6.182   0.998
 1537TIP3    H1 4554   8.191   6.224   0.914
 1537TIP3    H2 4555   8.088   6.140   0.987
 1538TIP3   OH2 4556   4.262   1.219   1.246
 1538TIP3    H1 4557   4.304   1.248   1.327
 1538TIP3    H2 4558   4.221   1.298   1.210
 1539TIP3   OH2 4559   4.865   7.619   0.560
 1539TIP3    H1 4560   4.793   7.561   0.534
 1539TIP3    H2 4561   4.822   7.694   0.601
 1540TIP3   OH2 4562   7.868   2.576   1.155
 1540TIP3    H1 4563   7.883   2.496   1.104
 1540TIP3    H2 4564   7.930   2.639   1.118
 1541TIP3   OH2 4565   6.143   7.002   0.764
 1541TIP3    H1 4566   6.069   6.954   0.728
 1541TIP3    H2 4567   6.218   6.973   0.713
 1542TIP3   OH2 4568   3.432   2.152   5.697
 1542TIP3    H1 4569   3.462   2.148   5.788
 1542TIP3    H2 4570   3.457   2.239   5.667
 1543TIP3   OH2 4571   7.644   2.189   4.849
 1543TIP3    H1 4572   7.613   2.174   4.760
 1543TIP3    H2 4573   7.646   2.102   4.889
 1544TIP3   OH2 4574   6.127   6.451   2.796
 1544TIP3    H1 4575   6.221   6.466   2.806
 1544TIP3    H2 4576   6.121   6.373   2.740
 1545TIP3   OH2 4577   6.874   3.482   4.900
 1545TIP3    H1 4578   6.913   3.424   4.965
 1545TIP3    H2 4579   6.866   3.566   4.945
 1546TIP3   OH2 4580   3.439   4.312   4.542
 1546TIP3    H1 4581   3.407   4.227   4.574
 1546TIP3    H2 4582   3.517   4.330   4.595
 1547TIP3   OH2 4583   7.987   0.959   0.999
 1547TIP3    H1 4584   7.948   0.877   1.030
 1547TIP3    H2 4585   7.915   1.003   0.954
 1548TIP3   OH2 4586   6.384   1.523   6.480
 1548TIP3    H1 4587   6.333   1.564   6.550
 1548TIP3    H2 4588   6.352   1.565   6.400
 1549TIP3   OH2 4589   5.559   1.053   5.493
 1549TIP3    H1 4590   5.592   1.139   5.517
 1549TIP3    H2 4591   5.464   1.060   5.503
 1550TIP3   OH2 4592   2.182   4.395   5.383
 1550TIP3    H1 4593   2.139   4.384   5.467
 1550TIP3    H2 4594   2.222   4.309   5.366
 1551TIP3   OH2 4595   0.302   5.346   0.665
 1551TIP3    H1 4596   0.349   5.327   0.747
 1551TIP3    H2 4597   0.355   5.414   0.623
 1552TIP3   OH2 4598   2.609   0.124   5.509
 1552TIP3    H1 4599   2.687   0.130   5.454
 1552TIP3    H2 4600   2.642   0.136   5.599
 1553TIP3   OH2 4601   5.340   5.565   3.080
 1553TIP3    H1 4602   5.280   5.639   3.066
 1553TIP3    H2 4603   5.374   5.578   3.168
 1554TIP3   OH2 4604   7.299   6.342   2.605
 1554TIP3    H1 4605   7.248   6.420   2.627
 1554TIP3    H2 4606   7.267   6.316   2.519
 1555TIP3   OH2 4607   0.054   6.229   4.854
 1555TIP3    H1 4608   0.127   6.291   4.867
 1555TIP3    H2 4609   0.043   6.187   4.940
 1556TIP3   OH2 4610   7.787   3.113   3.461
 1556TIP3    H1 4611   7.869   3.134   3.416
 1556TIP3    H2 4612   7.725   3.180   3.433
 1557TIP3   OH2 4613   6.087   7.707   5.766
 1557TIP3    H1 4614   6.037   7.631   5.735
 1557TIP3    H2 4615   6.020   7.774   5.784
 1558TIP3   OH2 4616   5.496   7.190   0.303
 1558TIP3    H1 4617   5.521   7.244   0.378
 1558TIP3    H2 4618   5.458   7.111   0.343
 1559TIP3   OH2 4619   3.985   7.072   1.447
 1559TIP3    H1 4620   3.907   7.051   1.396
 1559TIP3    H2 4621   3.953   7.082   1.537
 1560TIP3   OH2 4622   5.788   5.891   4.071
 1560TIP3    H1 4623   5.879   5.922   4.066
 1560TIP3    H2 4624   5.796   5.798   4.092
 1561TIP3   OH2 4625   1.875   7.802   5.868
 1561TIP3    H1 4626   1.858   7.790   5.962
 1561TIP3    H2 4627   1.790   7.825   5.831
 1562TIP3   OH2 4628   6.780   5.786   5.749
 1562TIP3    H1 4629   6.714   5.720   5.769
 1562TIP3    H2 4630   6.864   5.742   5.765
 1563TIP3   OH2 4631   6.392   5.311   0.488
 1563TIP3    H1 4632   6.434   5.238   0.443
 1563TIP3    H2 4633   6.414   5.299   0.580
 1564TIP3   OH2 4634   6.833   5.982   0.750
 1564TIP3    H1 4635   6.768   6.000   0.682
 1564TIP3    H2 4636   6.916   6.008   0.711
 1565TIP3   OH2 4637   2.051   5.272   6.091
 1565TIP3    H1 4638   2.032   5.340   6.026
 1565TIP3    H2 4639   2.050   5.319   6.175
 1566TIP3   OH2 4640   1.910   6.854   6.189
 1566TIP3    H1 4641   1.876   6.838   6.277
 1566TIP3    H2 4642   1.832   6.873   6.136
 1567TIP3   OH2 4643   3.093   6.330   5.877
 1567TIP3    H1 4644   3.177   6.300   5.842
 1567TIP3    H2 4645   3.110   6.419   5.906
 1568TIP3   OH2 4646   2.349   7.243   3.190
 1568TIP3    H1 4647   2.442   7.226   3.203
 1568TIP3    H2 4648   2.313   7.160   3.159
 1569TIP3   OH2 4649   6.202   4.350   6.241
 1569TIP3    H1 4650   6.259   4.426   6.255
 1569TIP3    H2 4651   6.261   4.278   6.221
 1570TIP3   OH2 4652   0.386   4.440   2.707
 1570TIP3    H1 4653   0.298   4.458   2.673
 1570TIP3    H2 4654   0.442   4.506   2.666
 1571TIP3   OH2 4655   5.806   0.755   5.832
 1571TIP3    H1 4656   5.822   0.687   5.897
 1571TIP3    H2 4657   5.757   0.823   5.879
 1572TIP3   OH2 4658   0.228   6.928   1.979
 1572TIP3    H1 4659   0.166   6.922   1.907
 1572TIP3    H2 4660   0.267   6.841   1.985
 1573TIP3   OH2 4661   2.408   5.555   1.099
 1573TIP3    H1 4662   2.400   5.600   1.183
 1573TIP3    H2 4663   2.447   5.471   1.120
 1574TIP3   OH2 4664   1.431   7.458   3.373
 1574TIP3    H1 4665   1.377   7.443   3.451
 1574TIP3    H2 4666   1.472   7.374   3.355
 1575TIP3   OH2 4667   3.996   3.617   4.945
 1575TIP3    H1 4668   3.982   3.525   4.968
 1575TIP3    H2 4669   4.031   3.616   4.856
 1576TIP3   OH2 4670   1.649   1.707   3.231
 1576TIP3    H1 4671   1.701   1.628   3.248
 1576TIP3    H2 4672   1.653   1.717   3.135
 1577TIP3   OH2 4673   6.775   7.252   1.874
 1577TIP3    H1 4674   6.718   7.306   1.927
 1577TIP3    H2 4675   6.732   7.166   1.871
 1578TIP3   OH2 4676   0.464   3.636   2.870
 1578TIP3    H1 4677   0.441   3.672   2.955
 1578TIP3    H2 4678   0.550   3.674   2.851
 1579TIP3   OH2 4679   6.506   3.444   0.663
 1579TIP3    H1 4680   6.475   3.469   0.576
 1579TIP3    H2 4681   6.537   3.526   0.702
 1580TIP3   OH2 4682   8.052   1.531   4.077
 1580TIP3    H1 4683   8.103   1.608   4.100
 1580TIP3    H2 4684   8.102   1.458   4.113
 1581TIP3   OH2 4685   6.904   0.469   1.792
 1581TIP3    H1 4686   6.829   0.528   1.802
 1581TIP3    H2 4687   6.954   0.481   1.873
 1582TIP3   OH2 4688   2.337   1.610   4.598
 1582TIP3    H1 4689   2.256   1.566   4.623
 1582TIP3    H2 4690   2.313   1.702   4.590
 1583TIP3   OH2 4691   1.545   7.169   4.027
 1583TIP3    H1 4692   1.511   7.087   4.063
 1583TIP3    H2 4693   1.618   7.143   3.972
 1584TIP3   OH2 4694   6.936   3.610   6.772
 1584TIP3    H1 4695   6.966   3.570   6.690
 1584TIP3    H2 4696   7.005   3.588   6.835
 1585TIP3   OH2 4697   1.247   4.056   3.037
 1585TIP3    H1 4698   1.174   4.116   3.026
 1585TIP3    H2 4699   1.325   4.110   3.021
 1586TIP3   OH2 4700   7.985   0.474   0.596
 1586TIP3    H1 4701   7.900   0.506   0.625
 1586TIP3    H2 4702   7.965   0.398   0.541
 1587TIP3   OH2 4703   3.929   4.099   2.594
 1587TIP3    H1 4704   3.921   4.009   2.564
 1587TIP3    H2 4705   3.989   4.095   2.668
 1588TIP3   OH2 4706   7.856   7.545   3.098
 1588TIP3    H1 4707   7.869   7.542   3.003
 1588TIP3    H2 4708   7.769   7.506   3.111
 1589TIP3   OH2 4709   6.199   2.025   3.033
 1589TIP3    H1 4710   6.248   1.971   3.095
 1589TIP3    H2 4711   6.119   2.048   3.081
 1590TIP3   OH2 4712   3.651   6.485   3.233
 1590TIP3    H1 4713   3.623   6.575   3.216
 1590TIP3    H2 4714   3.746   6.490   3.242
 1591TIP3   OH2 4715   2.288   4.020   5.663
 1591TIP3    H1 4716   2.285   4.113   5.685
 1591TIP3    H2 4717   2.352   3.983   5.723
 1592TIP3   OH2 4718   4.719   6.577   6.096
 1592TIP3    H1 4719   4.723   6.572   6.000
 1592TIP3    H2 4720   4.630   6.553   6.118
 1593TIP3   OH2 4721   2.157   2.429   4.530
 1593TIP3    H1 4722   2.086   2.450   4.469
 1593TIP3    H2 4723   2.236   2.431   4.477
 1594TIP3   OH2 4724   6.343   0.126   4.319
 1594TIP3    H1 4725   6.428   0.090   4.346
 1594TIP3    H2 4726   6.313   0.067   4.250
 1595TIP3   OH2 4727   5.166   1.940   0.749
 1595TIP3    H1 4728   5.128   1.978   0.829
 1595TIP3    H2 4729   5.174   2.015   0.690
 1596TIP3   OH2 4730   6.432   3.813   4.389
 1596TIP3    H1 4731   6.358   3.869   4.365
 1596TIP3    H2 4732   6.503   3.875   4.409
 1597TIP3   OH2 4733   1.479   6.063   6.134
 1597TIP3    H1 4734   1.560   6.046   6.086
 1597TIP3    H2 4735   1.423   5.988   6.114
 1598TIP3   OH2 4736   2.436   2.608   4.822
 1598TIP3    H1 4737   2.507   2.650   4.870
 1598TIP3    H2 4738   2.392   2.553   4.887
 1599TIP3   OH2 4739   4.499   5.050   4.113
 1599TIP3    H1 4740   4.512   5.095   4.029
 1599TIP3    H2 4741   4.563   4.979   4.112
 1600TIP3   OH2 4742   1.534   0.307   3.331
 1600TIP3    H1 4743   1.537   0.350   3.416
 1600TIP3    H2 4744   1.536   0.380   3.268
 1601TIP3   OH2 4745   5.054   0.329   1.538
 1601TIP3    H1 4746   5.084   0.420   1.546
 1601TIP3    H2 4747   5.129   0.277   1.568
 1602TIP3   OH2 4748   6.920   5.184   6.342
 1602TIP3    H1 4749   6.891   5.097   6.316
 1602TIP3    H2 4750   6.842   5.225   6.381
 1603TIP3   OH2 4751   3.279   7.250   1.502
 1603TIP3    H1 4752   3.240   7.328   1.462
 1603TIP3    H2 4753   3.289   7.274   1.595
 1604TIP3   OH2 4754   6.424   5.086   5.906
 1604TIP3    H1 4755   6.473   5.168   5.909
 1604TIP3    H2 4756   6.359   5.099   5.838
 1605TIP3   OH2 4757   4.147   6.193   1.917
 1605TIP3    H1 4758   4.133   6.204   1.823
 1605TIP3    H2 4759   4.059   6.195   1.955
 1606TIP3   OH2 4760   6.261   5.881   1.008
 1606TIP3    H1 4761   6.313   5.839   0.938
 1606TIP3    H2 4762   6.325   5.932   1.057
 1607TIP3   OH2 4763   6.027   2.173   1.962
 1607TIP3    H1 4764   5.963   2.103   1.967
 1607TIP3    H2 4765   6.106   2.137   2.002
 1608TIP3   OH2 4766   6.096   6.370   6.033
 1608TIP3    H1 4767   6.095   6.375   5.938
 1608TIP3    H2 4768   6.098   6.276   6.052
 1609TIP3   OH2 4769   7.339   7.638   4.431
 1609TIP3    H1 4770   7.272   7.620   4.366
 1609TIP3    H2 4771   7.405   7.690   4.384
 1610TIP3   OH2 4772   5.963   7.514   2.338
 1610TIP3    H1 4773   5.971   7.419   2.350
 1610TIP3    H2 4774   5.875   7.526   2.302
 1611TIP3   OH2 4775   7.411   7.010   6.269
 1611TIP3    H1 4776   7.506   7.001   6.274
 1611TIP3    H2 4777   7.394   7.102   6.290
 1612TIP3   OH2 4778   2.421   5.297   4.259
 1612TIP3    H1 4779   2.456   5.232   4.198
 1612TIP3    H2 4780   2.429   5.380   4.213
 1613TIP3   OH2 4781   5.639   5.519   6.645
 1613TIP3    H1 4782   5.659   5.565   6.563
 1613TIP3    H2 4783   5.569   5.458   6.621
 1614TIP3   OH2 4784   2.979   7.233   5.416
 1614TIP3    H1 4785   2.922   7.295   5.461
 1614TIP3    H2 4786   3.013   7.283   5.341
 1615TIP3   OH2 4787   7.817   0.772   1.335
 1615TIP3    H1 4788   7.740   0.742   1.383
 1615TIP3    H2 4789   7.788   0.852   1.291
 1616TIP3   OH2 4790   7.241   4.818   5.389
 1616TIP3    H1 4791   7.178   4.747   5.403
 1616TIP3    H2 4792   7.311   4.779   5.337
 1617TIP3   OH2 4793   2.917   6.641   6.394
 1617TIP3    H1 4794   2.932   6.592   6.313
 1617TIP3    H2 4795   2.980   6.713   6.390
 1618TIP3   OH2 4796   5.319   6.466   0.793
 1618TIP3    H1 4797   5.357   6.422   0.869
 1618TIP3    H2 4798   5.224   6.464   0.810
 1619TIP3   OH2 4799   0.257   0.838   1.262
 1619TIP3    H1 4800   0.285   0.853   1.352
 1619TIP3    H2 4801   0.316   0.892   1.209
 1620TIP3   OH2 4802   0.608   1.050   1.796
 1620TIP3    H1 4803   0.541   1.117   1.804
 1620TIP3    H2 4804   0.568   0.971   1.833
 1621TIP3   OH2 4805   4.842   0.767   2.918
 1621TIP3    H1 4806   4.936   0.773   2.935
 1621TIP3    H2 4807   4.825   0.673   2.914
 1622TIP3   OH2 4808   5.272   5.563   6.685
 1622TIP3    H1 4809   5.241   5.632   6.626
 1622TIP3    H2 4810   5.286   5.608   6.769
 1623TIP3   OH2 4811   6.761   2.798   3.128
 1623TIP3    H1 4812   6.705   2.786   3.052
 1623TIP3    H2 4813   6.850   2.780   3.096
 1624TIP3   OH2 4814   7.313   1.898   1.958
 1624TIP3    H1 4815   7.353   1.985   1.949
 1624TIP3    H2 4816   7.317   1.880   2.052
 1625TIP3   OH2 4817   4.184   3.805   2.175
 1625TIP3    H1 4818   4.133   3.774   2.249
 1625TIP3    H2 4819   4.274   3.811   2.208
 1626TIP3   OH2 4820   7.543   5.300   5.290
 1626TIP3    H1 4821   7.488   5.237   5.337
 1626TIP3    H2 4822   7.607   5.329   5.354
 1627TIP3   OH2 4823   7.846   3.620   2.957
 1627TIP3    H1 4824   7.810   3.532   2.972
 1627TIP3    H2 4825   7.931   3.604   2.918
 1628TIP3   OH2 4826   6.378   6.378   2.632
 1628TIP3    H1 4827   6.416   6.456   2.590
 1628TIP3    H2 4828   6.452   6.337   2.676
 1629TIP3   OH2 4829   5.751   7.740   3.801
 1629TIP3    H1 4830   5.729   7.785   3.883
 1629TIP3    H2 4831   5.692   7.664   3.800
 1630TIP3   OH2 4832   4.301   5.680   5.751
 1630TIP3    H1 4833   4.352   5.610   5.711
 1630TIP3    H2 4834   4.366   5.733   5.798
 1631TIP3   OH2 4835   6.637   4.179   5.196
 1631TIP3    H1 4836   6.635   4.203   5.288
 1631TIP3    H2 4837   6.544   4.175   5.170
 1632TIP3   OH2 4838   4.639   2.681   2.107
 1632TIP3    H1 4839   4.680   2.763   2.134
 1632TIP3    H2 4840   4.694   2.613   2.146
 1633TIP3   OH2 4841   1.830   4.946   1.082
 1633TIP3    H1 4842   1.860   5.004   1.012
 1633TIP3    H2 4843   1.897   4.953   1.150
 1634TIP3   OH2 4844   7.200   5.831   0.814
 1634TIP3    H1 4845   7.284   5.803   0.852
 1634TIP3    H2 4846   7.142   5.757   0.829
 1635TIP3   OH2 4847   7.023   3.306   5.075
 1635TIP3    H1 4848   7.040   3.332   5.165
 1635TIP3    H2 4849   7.106   3.317   5.030
 1636TIP3   OH2 4850   2.284   2.663   5.902
 1636TIP3    H1 4851   2.356   2.665   5.965
 1636TIP3    H2 4852   2.229   2.589   5.931
 1637TIP3   OH2 4853   1.554   3.310   1.911
 1637TIP3    H1 4854   1.567   3.215   1.913
 1637TIP3    H2 4855   1.563   3.333   1.819
 1638TIP3   OH2 4856   5.349   4.165   1.153
 1638TIP3    H1 4857   5.289   4.091   1.163
 1638TIP3    H2 4858   5.303   4.226   1.096
 1639TIP3   OH2 4859   1.164   0.615   3.166
 1639TIP3    H1 4860   1.134   0.524   3.164
 1639TIP3    H2 4861   1.242   0.616   3.110
 1640TIP3   OH2 4862   1.523   4.490   3.566
 1640TIP3    H1 4863   1.458   4.532   3.510
 1640TIP3    H2 4864   1.581   4.444   3.505
 1641TIP3   OH2 4865   5.817   3.499   5.771
 1641TIP3    H1 4866   5.832   3.460   5.857
 1641TIP3    H2 4867   5.873   3.576   5.769
 1642TIP3   OH2 4868   0.782   1.905   6.299
 1642TIP3    H1 4869   0.869   1.941   6.313
 1642TIP3    H2 4870   0.737   1.916   6.383
 1643TIP3   OH2 4871   1.677   5.846   2.056
 1643TIP3    H1 4872   1.634   5.804   2.130
 1643TIP3    H2 4873   1.739   5.908   2.095
 1644TIP3   OH2 4874   6.748   1.395   5.749
 1644TIP3    H1 4875   6.760   1.386   5.654
 1644TIP3    H2 4876   6.837   1.406   5.783
 1645TIP3   OH2 4877   3.757   2.108   5.573
 1645TIP3    H1 4878   3.724   2.030   5.529
 1645TIP3    H2 4879   3.845   2.121   5.537
 1646TIP3   OH2 4880   0.366   6.496   5.367
 1646TIP3    H1 4881   0.359   6.531   5.279
 1646TIP3    H2 4882   0.280   6.459   5.386
 1647TIP3   OH2 4883   5.634   1.091   3.871
 1647TIP3    H1 4884   5.640   1.077   3.966
 1647TIP3    H2 4885   5.550   1.053   3.847
 1648TIP3   OH2 4886   3.852   3.686   1.161
 1648TIP3    H1 4887   3.843   3.719   1.251
 1648TIP3    H2 4888   3.906   3.752   1.117
 1649TIP3   OH2 4889   0.101   0.778   3.651
 1649TIP3    H1 4890   0.083   0.784   3.557
 1649TIP3    H2 4891   0.073   0.689   3.675
 1650TIP3   OH2 4892   2.334   0.050   1.589
 1650TIP3    H1 4893   2.333  -0.018   1.656
 1650TIP3    H2 4894   2.330   0.132   1.637
 1651TIP3   OH2 4895   0.280   0.556   4.308
 1651TIP3    H1 4896   0.188   0.558   4.338
 1651TIP3    H2 4897   0.287   0.629   4.247
 1652TIP3   OH2 4898   8.071   7.638   6.140
 1652TIP3    H1 4899   8.105   7.686   6.216
 1652TIP3    H2 4900   8.094   7.547   6.158
 1653TIP3   OH2 4901   3.839   4.617   2.314
 1653TIP3    H1 4902   3.766   4.670   2.281
 1653TIP3    H2 4903   3.855   4.552   2.246
 1654TIP3   OH2 4904   5.588   1.662  -0.014
 1654TIP3    H1 4905   5.558   1.615   0.064
 1654TIP3    H2 4906   5.535   1.742  -0.014
 1655TIP3   OH2 4907   5.624   4.738   6.127
 1655TIP3    H1 4908   5.670   4.800   6.184
 1655TIP3    H2 4909   5.565   4.690   6.186
 1656TIP3   OH2 4910   4.203   3.722   2.643
 1656TIP3    H1 4911   4.204   3.795   2.581
 1656TIP3    H2 4912   4.114   3.687   2.637
 1657TIP3   OH2 4913   0.190   6.166   4.232
 1657TIP3    H1 4914   0.095   6.154   4.221
 1657TIP3    H2 4915   0.203   6.178   4.326
 1658TIP3   OH2 4916   2.130   6.113   1.809
 1658TIP3    H1 4917   2.198   6.152   1.755
 1658TIP3    H2 4918   2.094   6.187   1.859
 1659TIP3   OH2 4919   7.015   5.312   2.349
 1659TIP3    H1 4920   7.003   5.323   2.444
 1659TIP3    H2 4921   7.031   5.218   2.338
 1660TIP3   OH2 4922   0.015   7.047   4.707
 1660TIP3    H1 4923  -0.066   7.013   4.669
 1660TIP3    H2 4924   0.085   7.010   4.654
 1661TIP3   OH2 4925   5.665   3.193   2.248
 1661TIP3    H1 4926   5.607   3.117   2.252
 1661TIP3    H2 4927   5.673   3.222   2.339
 1662TIP3   OH2 4928   5.423   2.673   6.609
 1662TIP3    H1 4929   5.375   2.755   6.609
 1662TIP3    H2 4930   5.371   2.614   6.554
 1663TIP3   OH2 4931   4.498   4.106   5.735
 1663TIP3    H1 4932   4.510   4.014   5.757
 1663TIP3    H2 4933   4.522   4.153   5.815
 1664TIP3   OH2 4934   0.002   7.735   0.770
 1664TIP3    H1 4935   0.085   7.688   0.763
 1664TIP3    H2 4936  -0.013   7.742   0.864
 1665TIP3   OH2 4937   2.687   3.582   6.231
 1665TIP3    H1 4938   2.675   3.569   6.325
 1665TIP3    H2 4939   2.688   3.494   6.195
 1666TIP3   OH2 4940   3.630   3.537   5.445
 1666TIP3    H1 4941   3.652   3.478   5.373
 1666TIP3    H2 4942   3.690   3.512   5.515
 1667TIP3   OH2 4943   3.643   6.028   6.618
 1667TIP3    H1 4944   3.599   6.113   6.623
 1667TIP3    H2 4945   3.676   6.024   6.528
 1668TIP3   OH2 4946   2.061   1.130   1.288
 1668TIP3    H1 4947   2.136   1.075   1.308
 1668TIP3    H2 4948   2.092   1.220   1.302
 1669TIP3   OH2 4949   1.044   4.264   1.056
 1669TIP3    H1 4950   1.139   4.251   1.046
 1669TIP3    H2 4951   1.026   4.347   1.013
 1670TIP3   OH2 4952   0.143   2.060   2.145
 1670TIP3    H1 4953   0.110   2.094   2.062
 1670TIP3    H2 4954   0.068   2.065   2.205
 1671TIP3   OH2 4955   1.493   0.887   1.547
 1671TIP3    H1 4956   1.487   0.982   1.537
 1671TIP3    H2 4957   1.418   0.852   1.500
 1672TIP3   OH2 4958   3.735   7.212   5.643
 1672TIP3    H1 4959   3.738   7.138   5.704
 1672TIP3    H2 4960   3.658   7.194   5.588
 1673TIP3   OH2 4961   1.283   3.452   4.433
 1673TIP3    H1 4962   1.295   3.515   4.503
 1673TIP3    H2 4963   1.268   3.505   4.355
 1674TIP3   OH2 4964   5.125   3.108   0.728
 1674TIP3    H1 4965   5.163   3.155   0.654
 1674TIP3    H2 4966   5.193   3.047   0.756
 1675TIP3   OH2 4967   3.570   7.321   5.249
 1675TIP3    H1 4968   3.556   7.378   5.325
 1675TIP3    H2 4969   3.558   7.379   5.174
 1676TIP3   OH2 4970   4.906   2.867   1.900
 1676TIP3    H1 4971   4.976   2.802   1.892
 1676TIP3    H2 4972   4.887   2.893   1.810
 1677TIP3   OH2 4973   1.559   7.620   5.744
 1677TIP3    H1 4974   1.569   7.549   5.807
 1677TIP3    H2 4975   1.559   7.577   5.659
 1678TIP3   OH2 4976   0.211   7.407   3.886
 1678TIP3    H1 4977   0.299   7.370   3.880
 1678TIP3    H2 4978   0.205   7.466   3.810
 1679TIP3   OH2 4979   6.828   2.839   1.191
 1679TIP3    H1 4980   6.868   2.924   1.170
 1679TIP3    H2 4981   6.838   2.787   1.111
 1680TIP3   OH2 4982   0.117   1.970   2.924
 1680TIP3    H1 4983   0.186   1.970   2.858
 1680TIP3    H2 4984   0.155   1.924   2.999
 1681TIP3   OH2 4985   0.967   3.498   4.352
 1681TIP3    H1 4986   1.024   3.575   4.344
 1681TIP3    H2 4987   0.986   3.447   4.273
 1682TIP3   OH2 4988   0.124   3.766   1.652
 1682TIP3    H1 4989   0.072   3.744   1.575
 1682TIP3    H2 4990   0.192   3.699   1.656
 1683TIP3   OH2 4991   8.130   2.461   3.645
 1683TIP3    H1 4992   8.213   2.456   3.693
 1683TIP3    H2 4993   8.064   2.473   3.713
 1684TIP3   OH2 4994   3.508   4.434   5.072
 1684TIP3    H1 4995   3.452   4.406   5.144
 1684TIP3    H2 4996   3.552   4.355   5.042
 1685TIP3   OH2 4997   3.252   7.714   6.740
 1685TIP3    H1 4998   3.223   7.626   6.716
 1685TIP3    H2 4999   3.342   7.720   6.707
 1686TIP3   OH2 5000   4.757   5.664   0.945
 1686TIP3    H1 5001   4.806   5.582   0.957
 1686TIP3    H2 5002   4.773   5.713   1.026
 1687TIP3   OH2 5003   1.035   3.221   6.244
 1687TIP3    H1 5004   1.070   3.304   6.211
 1687TIP3    H2 5005   1.110   3.179   6.286
 1688TIP3   OH2 5006   0.950   4.658   1.219
 1688TIP3    H1 5007   0.927   4.573   1.256
 1688TIP3    H2 5008   1.045   4.658   1.215
 1689TIP3   OH2 5009   2.669   5.239   4.875
 1689TIP3    H1 5010   2.665   5.143   4.880
 1689TIP3    H2 5011   2.762   5.259   4.884
 1690TIP3   OH2 5012   0.407   0.318   4.645
 1690TIP3    H1 5013   0.383   0.392   4.702
 1690TIP3    H2 5014   0.419   0.245   4.706
 1691TIP3   OH2 5015   1.982   5.440   0.578
 1691TIP3    H1 5016   2.052   5.424   0.515
 1691TIP3    H2 5017   1.971   5.357   0.623
 1692TIP3   OH2 5018   0.223   3.992   3.548
 1692TIP3    H1 5019   0.189   3.911   3.511
 1692TIP3    H2 5020   0.292   4.019   3.487
 1693TIP3   OH2 5021   2.082   1.607   5.193
 1693TIP3    H1 5022   2.083   1.691   5.239
 1693TIP3    H2 5023   2.094   1.631   5.101
 1694TIP3   OH2 5024   7.397   7.627   6.345
 1694TIP3    H1 5025   7.431   7.708   6.384
 1694TIP3    H2 5026   7.315   7.610   6.390
 1695TIP3   OH2 5027   3.065   5.246   4.243
 1695TIP3    H1 5028   3.107   5.167   4.277
 1695TIP3    H2 5029   3.073   5.239   4.148
 1696TIP3   OH2 5030   1.630   2.005   1.814
 1696TIP3    H1 5031   1.560   1.943   1.833
 1696TIP3    H2 5032   1.703   1.951   1.785
 1697TIP3   OH2 5033   0.506   7.305   0.774
 1697TIP3    H1 5034   0.481   7.298   0.867
 1697TIP3    H2 5035   0.580   7.366   0.774
 1698TIP3   OH2 5036   6.387   3.308   2.742
 1698TIP3    H1 5037   6.396   3.213   2.742
 1698TIP3    H2 5038   6.364   3.330   2.652
 1699TIP3   OH2 5039   7.639   2.351   1.247
 1699TIP3    H1 5040   7.692   2.271   1.244
 1699TIP3    H2 5041   7.614   2.366   1.157
 1700TIP3   OH2 5042   5.744   6.147   1.410
 1700TIP3    H1 5043   5.739   6.170   1.318
 1700TIP3    H2 5044   5.796   6.067   1.413
 1701TIP3   OH2 5045   0.702   3.247   2.771
 1701TIP3    H1 5046   0.677   3.155   2.781
 1701TIP3    H2 5047   0.635   3.284   2.713
 1702TIP3   OH2 5048   7.369   2.478   4.340
 1702TIP3    H1 5049   7.277   2.502   4.352
 1702TIP3    H2 5050   7.396   2.522   4.260
 1703TIP3   OH2 5051   4.951   0.182   2.207
 1703TIP3    H1 5052   5.041   0.168   2.179
 1703TIP3    H2 5053   4.946   0.276   2.226
 1704TIP3   OH2 5054   0.627   1.043   2.594
 1704TIP3    H1 5055   0.666   0.955   2.590
 1704TIP3    H2 5056   0.682   1.096   2.537
 1705TIP3   OH2 5057   2.980   5.754   0.302
 1705TIP3    H1 5058   3.040   5.680   0.302
 1705TIP3    H2 5059   2.982   5.787   0.391
 1706TIP3   OH2 5060   6.241   1.829   1.933
 1706TIP3    H1 5061   6.334   1.831   1.910
 1706TIP3    H2 5062   6.199   1.784   1.860
 1707TIP3   OH2 5063   6.859   6.047   1.612
 1707TIP3    H1 5064   6.936   6.041   1.667
 1707TIP3    H2 5065   6.862   6.136   1.575
 1708TIP3   OH2 5066   7.257   1.033   5.606
 1708TIP3    H1 5067   7.248   1.036   5.701
 1708TIP3    H2 5068   7.183   0.981   5.576
 1709TIP3   OH2 5069   0.700   3.021   2.449
 1709TIP3    H1 5070   0.745   2.947   2.490
 1709TIP3    H2 5071   0.673   2.989   2.363
 1710TIP3   OH2 5072   6.026   6.586   0.151
 1710TIP3    H1 5073   6.090   6.564   0.219
 1710TIP3    H2 5074   5.946   6.541   0.177
 1711TIP3   OH2 5075   7.009   6.844   6.237
 1711TIP3    H1 5076   7.048   6.835   6.324
 1711TIP3    H2 5077   6.920   6.875   6.254
 1712TIP3   OH2 5078   4.231   5.384   6.419
 1712TIP3    H1 5079   4.311   5.334   6.433
 1712TIP3    H2 5080   4.161   5.319   6.422
 1713TIP3   OH2 5081   5.600   3.826   1.652
 1713TIP3    H1 5082   5.662   3.792   1.716
 1713TIP3    H2 5083   5.552   3.749   1.621
 1714TIP3   OH2 5084   7.736   0.475   5.085
 1714TIP3    H1 5085   7.735   0.560   5.131
 1714TIP3    H2 5086   7.658   0.430   5.118
 1715TIP3   OH2 5087   7.265   5.087   1.022
 1715TIP3    H1 5088   7.177   5.120   1.040
 1715TIP3    H2 5089   7.322   5.138   1.080
 1716TIP3   OH2 5090   2.292   7.592   1.254
 1716TIP3    H1 5091   2.355   7.521   1.269
 1716TIP3    H2 5092   2.279   7.632   1.341
 1717TIP3   OH2 5093   1.209   7.728   2.123
 1717TIP3    H1 5094   1.253   7.741   2.039
 1717TIP3    H2 5095   1.243   7.645   2.155
 1718TIP3   OH2 5096   2.857   3.901   2.539
 1718TIP3    H1 5097   2.912   3.905   2.617
 1718TIP3    H2 5098   2.865   3.811   2.507
 1719TIP3   OH2 5099   1.577   2.423   0.500
 1719TIP3    H1 5100   1.661   2.418   0.453
 1719TIP3    H2 5101   1.595   2.386   0.586
 1720TIP3   OH2 5102   7.619   2.366   4.179
 1720TIP3    H1 5103   7.633   2.305   4.107
 1720TIP3    H2 5104   7.685   2.342   4.244
 1721TIP3   OH2 5105   0.141   6.883   4.902
 1721TIP3    H1 5106   0.168   6.963   4.858
 1721TIP3    H2 5107   0.052   6.901   4.934
 1722TIP3   OH2 5108   6.579   4.584   2.611
 1722TIP3    H1 5109   6.632   4.663   2.623
 1722TIP3    H2 5110   6.496   4.604   2.655
 1723TIP3   OH2 5111   8.192   1.298   0.057
 1723TIP3    H1 5112   8.266   1.349   0.088
 1723TIP3    H2 5113   8.219   1.206   0.065
 1724TIP3   OH2 5114   8.215   6.114   3.148
 1724TIP3    H1 5115   8.267   6.194   3.154
 1724TIP3    H2 5116   8.149   6.124   3.216
 1725TIP3   OH2 5117   5.595   2.502   3.308
 1725TIP3    H1 5118   5.585   2.597   3.306
 1725TIP3    H2 5119   5.594   2.480   3.401
 1726TIP3   OH2 5120   1.130   6.870   1.302
 1726TIP3    H1 5121   1.061   6.910   1.248
 1726TIP3    H2 5122   1.108   6.895   1.392
 1727TIP3   OH2 5123   7.590   1.351   2.785
 1727TIP3    H1 5124   7.575   1.438   2.747
 1727TIP3    H2 5125   7.505   1.307   2.777
 1728TIP3   OH2 5126   5.934   6.157   2.667
 1728TIP3    H1 5127   6.021   6.163   2.627
 1728TIP3    H2 5128   5.948   6.105   2.746
 1729TIP3   OH2 5129   7.215   4.547   3.876
 1729TIP3    H1 5130   7.225   4.555   3.971
 1729TIP3    H2 5131   7.208   4.452   3.861
 1730TIP3   OH2 5132   2.039   2.445   4.780
 1730TIP3    H1 5133   2.073   2.442   4.691
 1730TIP3    H2 5134   2.078   2.524   4.817
 1731TIP3   OH2 5135   7.512   7.475   2.877
 1731TIP3    H1 5136   7.574   7.403   2.868
 1731TIP3    H2 5137   7.503   7.487   2.972
 1732TIP3   OH2 5138   2.867   5.301   1.778
 1732TIP3    H1 5139   2.932   5.267   1.717
 1732TIP3    H2 5140   2.888   5.394   1.786
 1733TIP3   OH2 5141   0.800   1.117   5.697
 1733TIP3    H1 5142   0.774   1.043   5.642
 1733TIP3    H2 5143   0.790   1.086   5.787
 1734TIP3   OH2 5144   0.592   2.547   2.631
 1734TIP3    H1 5145   0.654   2.475   2.624
 1734TIP3    H2 5146   0.577   2.557   2.725
 1735TIP3   OH2 5147   6.709   3.220   1.165
 1735TIP3    H1 5148   6.688   3.237   1.257
 1735TIP3    H2 5149   6.656   3.145   1.141
 1736TIP3   OH2 5150   5.798   4.631   6.314
 1736TIP3    H1 5151   5.725   4.574   6.290
 1736TIP3    H2 5152   5.773   4.669   6.398
 1737TIP3   OH2 5153   4.226   5.854   2.401
 1737TIP3    H1 5154   4.213   5.925   2.338
 1737TIP3    H2 5155   4.321   5.851   2.413
 1738TIP3   OH2 5156   5.226   6.053   4.705
 1738TIP3    H1 5157   5.170   6.131   4.702
 1738TIP3    H2 5158   5.204   6.011   4.788
 1739TIP3   OH2 5159   3.838   3.918   4.702
 1739TIP3    H1 5160   3.822   3.968   4.782
 1739TIP3    H2 5161   3.800   3.832   4.720
 1740TIP3   OH2 5162   6.134   7.471   1.325
 1740TIP3    H1 5163   6.093   7.468   1.239
 1740TIP3    H2 5164   6.157   7.380   1.344
 1741TIP3   OH2 5165   0.889   5.998   3.403
 1741TIP3    H1 5166   0.868   5.914   3.444
 1741TIP3    H2 5167   0.889   6.060   3.475
 1742TIP3   OH2 5168   4.192   0.239   0.692
 1742TIP3    H1 5169   4.278   0.272   0.719
 1742TIP3    H2 5170   4.167   0.296   0.619
 1743TIP3   OH2 5171   2.255   5.357   3.760
 1743TIP3    H1 5172   2.242   5.316   3.675
 1743TIP3    H2 5173   2.245   5.285   3.823
 1744TIP3   OH2 5174   4.194   5.843   6.240
 1744TIP3    H1 5175   4.247   5.910   6.198
 1744TIP3    H2 5176   4.110   5.886   6.257
 1745TIP3   OH2 5177   6.214   5.453   1.362
 1745TIP3    H1 5178   6.265   5.373   1.350
 1745TIP3    H2 5179   6.173   5.469   1.277
 1746TIP3   OH2 5180   4.476   7.573   5.261
 1746TIP3    H1 5181   4.532   7.631   5.312
 1746TIP3    H2 5182   4.418   7.533   5.325
 1747TIP3   OH2 5183   3.100   1.582   0.055
 1747TIP3    H1 5184   3.024   1.590  -0.003
 1747TIP3    H2 5185   3.138   1.497   0.035
 1748TIP3   OH2 5186   3.497  -0.043   2.919
 1748TIP3    H1 5187   3.493  -0.024   3.013
 1748TIP3    H2 5188   3.481   0.041   2.876
 1749TIP3   OH2 5189   0.964   0.175   2.895
 1749TIP3    H1 5190   1.009   0.198   2.813
 1749TIP3    H2 5191   1.033   0.141   2.952
 1750TIP3   OH2 5192   1.633   6.218   5.445
 1750TIP3    H1 5193   1.675   6.299   5.416
 1750TIP3    H2 5194   1.565   6.246   5.506
 1751TIP3   OH2 5195   1.811   0.373   0.482
 1751TIP3    H1 5196   1.749   0.366   0.554
 1751TIP3    H2 5197   1.757   0.390   0.405
 1752TIP3   OH2 5198   4.724   1.316   3.939
 1752TIP3    H1 5199   4.775   1.391   3.968
 1752TIP3    H2 5200   4.663   1.351   3.874
 1753TIP3   OH2 5201   0.709   4.300   4.830
 1753TIP3    H1 5202   0.688   4.208   4.815
 1753TIP3    H2 5203   0.691   4.342   4.747
 1754TIP3   OH2 5204   1.598   0.032   3.369
 1754TIP3    H1 5205   1.557   0.014   3.285
 1754TIP3    H2 5206   1.613   0.127   3.370
 1755TIP3   OH2 5207   7.341   1.397   5.472
 1755TIP3    H1 5208   7.342   1.450   5.551
 1755TIP3    H2 5209   7.256   1.354   5.473
 1756TIP3   OH2 5210   3.723   4.502   1.362
 1756TIP3    H1 5211   3.696   4.587   1.395
 1756TIP3    H2 5212   3.675   4.439   1.415
 1757TIP3   OH2 5213   5.943   5.653   1.234
 1757TIP3    H1 5214   5.950   5.745   1.207
 1757TIP3    H2 5215   5.956   5.603   1.153
 1758TIP3   OH2 5216   6.809   1.810   4.330
 1758TIP3    H1 5217   6.861   1.852   4.398
 1758TIP3    H2 5218   6.747   1.878   4.302
 1759TIP3   OH2 5219   2.150   2.800   3.759
 1759TIP3    H1 5220   2.197   2.864   3.705
 1759TIP3    H2 5221   2.058   2.820   3.745
 1760TIP3   OH2 5222   3.041   5.037   1.879
 1760TIP3    H1 5223   3.066   5.057   1.969
 1760TIP3    H2 5224   3.118   4.994   1.842
 1761TIP3   OH2 5225   6.741   3.418   6.767
 1761TIP3    H1 5226   6.812   3.483   6.760
 1761TIP3    H2 5227   6.764   3.352   6.702
 1762TIP3   OH2 5228   2.418   3.894   4.048
 1762TIP3    H1 5229   2.384   3.885   4.137
 1762TIP3    H2 5230   2.485   3.961   4.055
 1763TIP3   OH2 5231   4.599   0.258   5.672
 1763TIP3    H1 5232   4.540   0.192   5.708
 1763TIP3    H2 5233   4.579   0.260   5.578
 1764TIP3   OH2 5234   3.019   4.683   5.388
 1764TIP3    H1 5235   3.075   4.753   5.355
 1764TIP3    H2 5236   2.930   4.713   5.369
 1765TIP3   OH2 5237   0.979   6.682   0.934
 1765TIP3    H1 5238   1.049   6.638   0.885
 1765TIP3    H2 5239   1.023   6.720   1.010
 1766TIP3   OH2 5240   4.611   4.607   3.356
 1766TIP3    H1 5241   4.556   4.675   3.320
 1766TIP3    H2 5242   4.700   4.643   3.353
 1767TIP3   OH2 5243   2.694   6.110   5.494
 1767TIP3    H1 5244   2.602   6.102   5.519
 1767TIP3    H2 5245   2.707   6.040   5.429
 1768TIP3   OH2 5246   4.302   1.942   4.785
 1768TIP3    H1 5247   4.300   1.866   4.727
 1768TIP3    H2 5248   4.376   1.994   4.754
 1769TIP3   OH2 5249   3.598   5.423   6.223
 1769TIP3    H1 5250   3.519   5.387   6.262
 1769TIP3    H2 5251   3.632   5.353   6.168
 1770TIP3   OH2 5252   1.106   2.126   6.528
 1770TIP3    H1 5253   1.011   2.119   6.523
 1770TIP3    H2 5254   1.122   2.195   6.593
 1771TIP3   OH2 5255   8.247   6.272   4.587
 1771TIP3    H1 5256   8.267   6.197   4.530
 1771TIP3    H2 5257   8.304   6.261   4.662
 1772TIP3   OH2 5258   5.441   5.690   2.829
 1772TIP3    H1 5259   5.359   5.723   2.868
 1772TIP3    H2 5260   5.422   5.599   2.808
 1773TIP3   OH2 5261   3.659   1.178   1.572
 1773TIP3    H1 5262   3.741   1.225   1.556
 1773TIP3    H2 5263   3.663   1.154   1.665
 1774TIP3   OH2 5264   5.592   7.346   5.156
 1774TIP3    H1 5265   5.642   7.289   5.098
 1774TIP3    H2 5266   5.518   7.376   5.102
 1775TIP3   OH2 5267   1.287   2.889   5.169
 1775TIP3    H1 5268   1.312   2.902   5.078
 1775TIP3    H2 5269   1.295   2.795   5.183
 1776TIP3   OH2 5270   6.219   1.169   5.500
 1776TIP3    H1 5271   6.198   1.218   5.420
 1776TIP3    H2 5272   6.296   1.213   5.535
 1777TIP3   OH2 5273   6.902   6.738   6.537
 1777TIP3    H1 5274   6.924   6.672   6.471
 1777TIP3    H2 5275   6.884   6.817   6.487
 1778TIP3   OH2 5276   2.489   0.732   5.317
 1778TIP3    H1 5277   2.505   0.811   5.265
 1778TIP3    H2 5278   2.573   0.685   5.314
 1779TIP3   OH2 5279   5.752   2.151   3.288
 1779TIP3    H1 5280   5.731   2.150   3.382
 1779TIP3    H2 5281   5.677   2.194   3.248
 1780TIP3   OH2 5282   5.008   6.466   6.707
 1780TIP3    H1 5283   4.921   6.430   6.688
 1780TIP3    H2 5284   5.031   6.516   6.629
 1781TIP3   OH2 5285   5.341   4.807   6.426
 1781TIP3    H1 5286   5.380   4.854   6.499
 1781TIP3    H2 5287   5.249   4.799   6.449
 1782TIP3   OH2 5288   0.963   7.605   1.317
 1782TIP3    H1 5289   0.905   7.655   1.260
 1782TIP3    H2 5290   0.948   7.514   1.293
 1783TIP3   OH2 5291   0.454   6.953   2.684
 1783TIP3    H1 5292   0.492   7.040   2.674
 1783TIP3    H2 5293   0.461   6.913   2.597
 1784TIP3   OH2 5294   2.367   5.102   1.130
 1784TIP3    H1 5295   2.373   5.027   1.189
 1784TIP3    H2 5296   2.380   5.065   1.043
 1785TIP3   OH2 5297   4.197   0.549   3.380
 1785TIP3    H1 5298   4.201   0.536   3.475
 1785TIP3    H2 5299   4.288   0.553   3.352
 1786TIP3   OH2 5300   0.688   0.228   5.784
 1786TIP3    H1 5301   0.678   0.153   5.725
 1786TIP3    H2 5302   0.779   0.255   5.772
 1787TIP3   OH2 5303   0.423   5.555   3.261
 1787TIP3    H1 5304   0.379   5.612   3.198
 1787TIP3    H2 5305   0.352   5.522   3.316
 1788TIP3   OH2 5306   3.373   2.411   2.557
 1788TIP3    H1 5307   3.377   2.324   2.597
 1788TIP3    H2 5308   3.463   2.442   2.557
 1789TIP3   OH2 5309   1.183   1.670   1.840
 1789TIP3    H1 5310   1.208   1.693   1.750
 1789TIP3    H2 5311   1.087   1.677   1.840
 1790TIP3   OH2 5312   1.886   6.847   4.477
 1790TIP3    H1 5313   1.944   6.884   4.410
 1790TIP3    H2 5314   1.835   6.781   4.430
 1791TIP3   OH2 5315   7.632   2.707   5.330
 1791TIP3    H1 5316   7.681   2.743   5.404
 1791TIP3    H2 5317   7.564   2.653   5.371
 1792TIP3   OH2 5318   8.242   3.018   0.564
 1792TIP3    H1 5319   8.251   3.063   0.480
 1792TIP3    H2 5320   8.321   2.965   0.572
 1793TIP3   OH2 5321   1.433   0.162   4.884
 1793TIP3    H1 5322   1.376   0.178   4.809
 1793TIP3    H2 5323   1.374   0.130   4.953
 1794TIP3   OH2 5324   4.499   4.693   0.739
 1794TIP3    H1 5325   4.502   4.702   0.834
 1794TIP3    H2 5326   4.455   4.772   0.709
 1795TIP3   OH2 5327   5.964   4.116   2.663
 1795TIP3    H1 5328   5.997   4.050   2.724
 1795TIP3    H2 5329   5.870   4.118   2.677
 1796TIP3   OH2 5330   3.253   2.931   3.749
 1796TIP3    H1 5331   3.331   2.968   3.708
 1796TIP3    H2 5332   3.184   2.940   3.683
 1797TIP3   OH2 5333   6.487   5.773   1.956
 1797TIP3    H1 5334   6.519   5.821   2.032
 1797TIP3    H2 5335   6.473   5.840   1.890
 1798TIP3   OH2 5336   2.548   1.215   6.449
 1798TIP3    H1 5337   2.582   1.268   6.377
 1798TIP3    H2 5338   2.466   1.258   6.475
 1799TIP3   OH2 5339   6.554   7.214   3.291
 1799TIP3    H1 5340   6.511   7.268   3.357
 1799TIP3    H2 5341   6.563   7.128   3.332
 1800TIP3   OH2 5342   1.986   7.126   1.591
 1800TIP3    H1 5343   2.071   7.084   1.582
 1800TIP3    H2 5344   1.935   7.066   1.647
 1801TIP3   OH2 5345   7.891   1.149   5.364
 1801TIP3    H1 5346   7.837   1.083   5.320
 1801TIP3    H2 5347   7.978   1.109   5.369
 1802TIP3   OH2 5348   0.507   0.686   5.527
 1802TIP3    H1 5349   0.443   0.739   5.574
 1802TIP3    H2 5350   0.591   0.710   5.565
 1803TIP3   OH2 5351   5.454   7.530   1.919
 1803TIP3    H1 5352   5.374   7.512   1.968
 1803TIP3    H2 5353   5.430   7.518   1.827
 1804TIP3   OH2 5354   5.410   2.978   5.983
 1804TIP3    H1 5355   5.463   2.984   6.063
 1804TIP3    H2 5356   5.375   2.889   5.985
 1805TIP3   OH2 5357   5.092   1.504   4.355
 1805TIP3    H1 5358   5.086   1.543   4.268
 1805TIP3    H2 5359   5.030   1.554   4.408
 1806TIP3   OH2 5360   5.919   3.255   2.415
 1806TIP3    H1 5361   6.012   3.240   2.395
 1806TIP3    H2 5362   5.910   3.227   2.506
 1807TIP3   OH2 5363   6.483   2.384   1.409
 1807TIP3    H1 5364   6.550   2.356   1.471
 1807TIP3    H2 5365   6.480   2.480   1.418
 1808TIP3   OH2 5366   6.921   7.588   1.454
 1808TIP3    H1 5367   6.933   7.509   1.507
 1808TIP3    H2 5368   7.000   7.593   1.400
 1809TIP3   OH2 5369   3.954   6.354   2.553
 1809TIP3    H1 5370   4.038   6.396   2.574
 1809TIP3    H2 5371   3.890   6.403   2.605
 1810TIP3   OH2 5372   0.889   4.799   0.207
 1810TIP3    H1 5373   0.884   4.827   0.298
 1810TIP3    H2 5374   0.807   4.753   0.191
 1811TIP3   OH2 5375   3.122   1.277   1.406
 1811TIP3    H1 5376   3.215   1.285   1.386
 1811TIP3    H2 5377   3.089   1.366   1.405
 1812TIP3   OH2 5378   7.617   2.995   1.230
 1812TIP3    H1 5379   7.625   2.900   1.225
 1812TIP3    H2 5380   7.523   3.011   1.222
 1813TIP3   OH2 5381   4.359   2.354   4.918
 1813TIP3    H1 5382   4.293   2.393   4.862
 1813TIP3    H2 5383   4.324   2.268   4.941
 1814TIP3   OH2 5384   6.755   0.370   4.949
 1814TIP3    H1 5385   6.684   0.309   4.966
 1814TIP3    H2 5386   6.721   0.429   4.882
 1815TIP3   OH2 5387   7.772   4.963   6.729
 1815TIP3    H1 5388   7.842   5.025   6.712
 1815TIP3    H2 5389   7.753   4.924   6.644
 1816TIP3   OH2 5390   0.962   0.540   4.819
 1816TIP3    H1 5391   0.983   0.522   4.727
 1816TIP3    H2 5392   0.874   0.577   4.817
 1817TIP3   OH2 5393   6.321   2.472   4.003
 1817TIP3    H1 5394   6.258   2.399   4.001
 1817TIP3    H2 5395   6.397   2.439   3.956
 1818TIP3   OH2 5396   4.337   1.796   4.293
 1818TIP3    H1 5397   4.297   1.709   4.299
 1818TIP3    H2 5398   4.385   1.806   4.375
 1819TIP3   OH2 5399   3.186   0.351   4.795
 1819TIP3    H1 5400   3.195   0.256   4.803
 1819TIP3    H2 5401   3.201   0.384   4.883
 1820TIP3   OH2 5402   4.409   1.245   5.949
 1820TIP3    H1 5403   4.501   1.234   5.971
 1820TIP3    H2 5404   4.386   1.331   5.984
 1821TIP3   OH2 5405   6.813   6.002   6.308
 1821TIP3    H1 5406   6.903   6.009   6.277
 1821TIP3    H2 5407   6.802   5.909   6.328
 1822TIP3   OH2 5408   1.206   3.868   5.416
 1822TIP3    H1 5409   1.288   3.851   5.370
 1822TIP3    H2 5410   1.138   3.833   5.358
 1823TIP3   OH2 5411   2.017   4.934   3.441
 1823TIP3    H1 5412   2.112   4.935   3.438
 1823TIP3    H2 5413   1.995   4.855   3.490
 1824TIP3   OH2 5414   0.687   5.800   0.112
 1824TIP3    H1 5415   0.656   5.718   0.150
 1824TIP3    H2 5416   0.686   5.862   0.185
 1825TIP3   OH2 5417   0.919   5.394   3.661
 1825TIP3    H1 5418   0.957   5.342   3.590
 1825TIP3    H2 5419   0.992   5.445   3.696
 1826TIP3   OH2 5420   1.101   4.430   3.628
 1826TIP3    H1 5421   1.187   4.408   3.664
 1826TIP3    H2 5422   1.041   4.417   3.701
 1827TIP3   OH2 5423   6.187   4.380   4.248
 1827TIP3    H1 5424   6.160   4.299   4.292
 1827TIP3    H2 5425   6.207   4.441   4.318
 1828TIP3   OH2 5426   2.360   6.303   5.133
 1828TIP3    H1 5427   2.360   6.263   5.046
 1828TIP3    H2 5428   2.452   6.325   5.149
 1829TIP3   OH2 5429   0.260   2.649   4.986
 1829TIP3    H1 5430   0.201   2.655   5.061
 1829TIP3    H2 5431   0.279   2.555   4.979
 1830TIP3   OH2 5432   1.448   4.381   5.851
 1830TIP3    H1 5433   1.476   4.328   5.775
 1830TIP3    H2 5434   1.421   4.464   5.813
 1831TIP3   OH2 5435   6.152   5.905   3.616
 1831TIP3    H1 5436   6.065   5.885   3.651
 1831TIP3    H2 5437   6.136   5.966   3.544
 1832TIP3   OH2 5438   5.638   1.831   0.579
 1832TIP3    H1 5439   5.571   1.780   0.624
 1832TIP3    H2 5440   5.591   1.909   0.548
 1833TIP3   OH2 5441   3.437   7.343   6.204
 1833TIP3    H1 5442   3.447   7.340   6.109
 1833TIP3    H2 5443   3.502   7.407   6.233
 1834TIP3   OH2 5444   6.423   1.169   5.931
 1834TIP3    H1 5445   6.495   1.118   5.894
 1834TIP3    H2 5446   6.345   1.115   5.914
 1835TIP3   OH2 5447   7.172   0.343   4.858
 1835TIP3    H1 5448   7.206   0.397   4.787
 1835TIP3    H2 5449   7.248   0.323   4.912
 1836TIP3   OH2 5450   3.641   0.966   5.494
 1836TIP3    H1 5451   3.600   0.962   5.408
 1836TIP3    H2 5452   3.699   0.890   5.496
 1837TIP3   OH2 5453   0.349   1.902   6.625
 1837TIP3    H1 5454   0.359   1.846   6.702
 1837TIP3    H2 5455   0.341   1.991   6.660
 1838TIP3   OH2 5456   7.934   4.958   0.970
 1838TIP3    H1 5457   7.881   5.035   0.951
 1838TIP3    H2 5458   7.922   4.944   1.064
 1839TIP3   OH2 5459   4.911   5.922   0.072
 1839TIP3    H1 5460   4.952   5.967  -0.002
 1839TIP3    H2 5461   4.983   5.907   0.133
 1840TIP3   OH2 5462   6.167   1.703   5.253
 1840TIP3    H1 5463   6.141   1.780   5.303
 1840TIP3    H2 5464   6.248   1.728   5.209
 1841TIP3   OH2 5465   6.857   3.003   3.598
 1841TIP3    H1 5466   6.792   3.048   3.544
 1841TIP3    H2 5467   6.866   2.917   3.558
 1842TIP3   OH2 5468   3.503   3.714   4.448
 1842TIP3    H1 5469   3.525   3.797   4.489
 1842TIP3    H2 5470   3.464   3.737   4.365
 1843TIP3   OH2 5471   1.521   0.372   1.612
 1843TIP3    H1 5472   1.599   0.393   1.561
 1843TIP3    H2 5473   1.540   0.286   1.649
 1844TIP3   OH2 5474   5.292   0.604   0.177
 1844TIP3    H1 5475   5.357   0.603   0.106
 1844TIP3    H2 5476   5.313   0.683   0.227
 1845TIP3   OH2 5477   6.874   4.972   3.200
 1845TIP3    H1 5478   6.966   4.989   3.183
 1845TIP3    H2 5479   6.830   5.002   3.120
 1846TIP3   OH2 5480   3.611   3.007   4.239
 1846TIP3    H1 5481   3.591   2.999   4.145
 1846TIP3    H2 5482   3.530   3.040   4.278
 1847TIP3   OH2 5483   3.391   4.707   3.478
 1847TIP3    H1 5484   3.405   4.625   3.526
 1847TIP3    H2 5485   3.423   4.775   3.537
 1848TIP3   OH2 5486   5.997   5.740   5.581
 1848TIP3    H1 5487   5.986   5.786   5.664
 1848TIP3    H2 5488   6.006   5.648   5.606
 1849TIP3   OH2 5489   6.867   5.639   3.901
 1849TIP3    H1 5490   6.892   5.713   3.957
 1849TIP3    H2 5491   6.933   5.572   3.921
 1850TIP3   OH2 5492   5.062   7.724   3.418
 1850TIP3    H1 5493   5.109   7.640   3.415
 1850TIP3    H2 5494   5.053   7.748   3.326
 1851TIP3   OH2 5495   0.272   0.482   6.802
 1851TIP3    H1 5496   0.214   0.421   6.757
 1851TIP3    H2 5497   0.214   0.549   6.838
 1852TIP3   OH2 5498   2.127   1.113   2.117
 1852TIP3    H1 5499   2.056   1.051   2.134
 1852TIP3    H2 5500   2.203   1.076   2.161
 1853TIP3   OH2 5501   6.459   3.066   6.154
 1853TIP3    H1 5502   6.441   3.032   6.242
 1853TIP3    H2 5503   6.422   3.000   6.095
 1854TIP3   OH2 5504   8.154   4.106   2.242
 1854TIP3    H1 5505   8.105   4.103   2.159
 1854TIP3    H2 5506   8.096   4.064   2.305
 1855TIP3   OH2 5507   1.385   1.247   2.745
 1855TIP3    H1 5508   1.299   1.231   2.704
 1855TIP3    H2 5509   1.443   1.184   2.703
 1856TIP3   OH2 5510   4.415   3.168   0.096
 1856TIP3    H1 5511   4.431   3.258   0.123
 1856TIP3    H2 5512   4.443   3.115   0.170
 1857TIP3   OH2 5513   3.809   1.260   5.654
 1857TIP3    H1 5514   3.764   1.176   5.664
 1857TIP3    H2 5515   3.837   1.262   5.563
 1858TIP3   OH2 5516   4.545   6.118   4.818
 1858TIP3    H1 5517   4.639   6.100   4.814
 1858TIP3    H2 5518   4.504   6.032   4.812
 1859TIP3   OH2 5519   3.673   2.067   5.003
 1859TIP3    H1 5520   3.704   2.029   5.085
 1859TIP3    H2 5521   3.626   1.996   4.960
 1860TIP3   OH2 5522   5.019   1.588   0.997
 1860TIP3    H1 5523   5.010   1.495   1.019
 1860TIP3    H2 5524   5.037   1.630   1.081
 1861TIP3   OH2 5525   2.478   3.503   2.696
 1861TIP3    H1 5526   2.471   3.595   2.721
 1861TIP3    H2 5527   2.474   3.503   2.600
 1862TIP3   OH2 5528   0.689   2.459   5.915
 1862TIP3    H1 5529   0.771   2.491   5.954
 1862TIP3    H2 5530   0.648   2.409   5.985
 1863TIP3   OH2 5531   7.630   2.649   5.759
 1863TIP3    H1 5532   7.574   2.727   5.757
 1863TIP3    H2 5533   7.639   2.628   5.852
 1864TIP3   OH2 5534   2.821   3.572   6.650
 1864TIP3    H1 5535   2.743   3.570   6.595
 1864TIP3    H2 5536   2.792   3.612   6.732
 1865TIP3   OH2 5537   2.254   7.013   3.090
 1865TIP3    H1 5538   2.170   6.981   3.057
 1865TIP3    H2 5539   2.318   6.950   3.057
 1866TIP3   OH2 5540   6.768   1.141   0.335
 1866TIP3    H1 5541   6.724   1.068   0.293
 1866TIP3    H2 5542   6.735   1.140   0.425
 1867TIP3   OH2 5543   4.745   1.358   5.380
 1867TIP3    H1 5544   4.761   1.283   5.323
 1867TIP3    H2 5545   4.781   1.332   5.465
 1868TIP3   OH2 5546   5.035   2.643   0.883
 1868TIP3    H1 5547   5.029   2.712   0.817
 1868TIP3    H2 5548   5.037   2.690   0.967
 1869TIP3   OH2 5549   0.689   4.088   3.117
 1869TIP3    H1 5550   0.752   4.038   3.168
 1869TIP3    H2 5551   0.693   4.050   3.029
 1870TIP3   OH2 5552   3.957   4.371   0.005
 1870TIP3    H1 5553   4.035   4.320   0.028
 1870TIP3    H2 5554   3.884   4.318   0.035
 1871TIP3   OH2 5555   6.996   3.139   0.837
 1871TIP3    H1 5556   6.978   3.107   0.926
 1871TIP3    H2 5557   6.937   3.088   0.781
 1872TIP3   OH2 5558   6.699   7.790   1.132
 1872TIP3    H1 5559   6.669   7.818   1.045
 1872TIP3    H2 5560   6.629   7.817   1.191
 1873TIP3   OH2 5561   8.056   0.698   6.582
 1873TIP3    H1 5562   8.134   0.643   6.571
 1873TIP3    H2 5563   7.992   0.640   6.622
 1874TIP3   OH2 5564   7.226   6.383   0.582
 1874TIP3    H1 5565   7.268   6.438   0.649
 1874TIP3    H2 5566   7.227   6.295   0.619
 1875TIP3   OH2 5567   4.448   2.408   2.354
 1875TIP3    H1 5568   4.375   2.373   2.406
 1875TIP3    H2 5569   4.502   2.331   2.335
 1876TIP3   OH2 5570   1.909   3.123   5.230
 1876TIP3    H1 5571   1.913   3.218   5.241
 1876TIP3    H2 5572   1.817   3.101   5.246
 1877TIP3   OH2 5573   2.984  -0.012   4.296
 1877TIP3    H1 5574   3.062   0.044   4.297
 1877TIP3    H2 5575   2.997  -0.069   4.221
 1878TIP3   OH2 5576   2.679   1.766   1.115
 1878TIP3    H1 5577   2.621   1.698   1.082
 1878TIP3    H2 5578   2.707   1.815   1.037
 1879TIP3   OH2 5579   3.317   0.055   3.151
 1879TIP3    H1 5580   3.295   0.147   3.131
 1879TIP3    H2 5581   3.256   0.004   3.098
 1880TIP3   OH2 5582   0.799   5.149   6.453
 1880TIP3    H1 5583   0.874   5.097   6.423
 1880TIP3    H2 5584   0.778   5.113   6.539
 1881TIP3   OH2 5585   2.410   6.511   0.190
 1881TIP3    H1 5586   2.320   6.526   0.220
 1881TIP3    H2 5587   2.431   6.423   0.219
 1882TIP3   OH2 5588   0.700   4.023   2.548
 1882TIP3    H1 5589   0.788   4.003   2.579
 1882TIP3    H2 5590   0.714   4.077   2.470
 1883TIP3   OH2 5591   3.510   1.592   4.620
 1883TIP3    H1 5592   3.572   1.532   4.661
 1883TIP3    H2 5593   3.452   1.535   4.569
 1884TIP3   OH2 5594   6.043   5.344   1.603
 1884TIP3    H1 5595   6.110   5.355   1.536
 1884TIP3    H2 5596   5.961   5.366   1.558
 1885TIP3   OH2 5597   4.799   6.959   0.620
 1885TIP3    H1 5598   4.863   7.029   0.630
 1885TIP3    H2 5599   4.840   6.897   0.560
 1886TIP3   OH2 5600   0.420   3.362   4.397
 1886TIP3    H1 5601   0.487   3.330   4.337
 1886TIP3    H2 5602   0.470   3.400   4.470
 1887TIP3   OH2 5603   5.559   0.946   2.682
 1887TIP3    H1 5604   5.644   0.984   2.657
 1887TIP3    H2 5605   5.558   0.951   2.778
 1888TIP3   OH2 5606   2.616   3.856   0.350
 1888TIP3    H1 5607   2.595   3.936   0.398
 1888TIP3    H2 5608   2.555   3.791   0.386
 1889TIP3   OH2 5609   0.084   0.690   0.696
 1889TIP3    H1 5610   0.137   0.770   0.704
 1889TIP3    H2 5611   0.048   0.676   0.783
 1890TIP3   OH2 5612   3.791   4.187   0.898
 1890TIP3    H1 5613   3.879   4.193   0.935
 1890TIP3    H2 5614   3.804   4.176   0.804
 1891TIP3   OH2 5615   2.093   5.684   2.806
 1891TIP3    H1 5616   2.043   5.659   2.728
 1891TIP3    H2 5617   2.159   5.616   2.816
 1892TIP3   OH2 5618   0.122   6.224   3.447
 1892TIP3    H1 5619   0.137   6.279   3.371
 1892TIP3    H2 5620   0.070   6.151   3.415
 1893TIP3   OH2 5621   6.946   0.443   6.347
 1893TIP3    H1 5622   6.983   0.425   6.434
 1893TIP3    H2 5623   6.867   0.390   6.343
 1894TIP3   OH2 5624   0.066   1.464   4.362
 1894TIP3    H1 5625   0.078   1.387   4.418
 1894TIP3    H2 5626  -0.014   1.505   4.394
 1895TIP3   OH2 5627   3.425   2.092   3.099
 1895TIP3    H1 5628   3.494   2.056   3.043
 1895TIP3    H2 5629   3.344   2.080   3.049
 1896TIP3   OH2 5630   3.397   5.649   3.909
 1896TIP3    H1 5631   3.412   5.689   3.824
 1896TIP3    H2 5632   3.371   5.559   3.888
 1897TIP3   OH2 5633   0.618   2.515   4.705
 1897TIP3    H1 5634   0.542   2.563   4.671
 1897TIP3    H2 5635   0.581   2.437   4.746
 1898TIP3   OH2 5636   0.996   7.539   5.464
 1898TIP3    H1 5637   1.004   7.463   5.407
 1898TIP3    H2 5638   1.058   7.522   5.535
 1899TIP3   OH2 5639   2.856   3.329   0.410
 1899TIP3    H1 5640   2.884   3.421   0.407
 1899TIP3    H2 5641   2.893   3.290   0.331
 1900TIP3   OH2 5642   0.840   4.354   0.384
 1900TIP3    H1 5643   0.861   4.423   0.321
 1900TIP3    H2 5644   0.816   4.402   0.464
 1901TIP3   OH2 5645   6.833   5.363   5.030
 1901TIP3    H1 5646   6.817   5.455   5.011
 1901TIP3    H2 5647   6.825   5.356   5.125
 1902TIP3   OH2 5648   4.835   5.932   0.480
 1902TIP3    H1 5649   4.906   5.872   0.461
 1902TIP3    H2 5650   4.863   5.980   0.558
 1903TIP3   OH2 5651   5.434   0.772   6.106
 1903TIP3    H1 5652   5.377   0.785   6.030
 1903TIP3    H2 5653   5.375   0.740   6.175
 1904TIP3   OH2 5654   5.728   5.894   0.911
 1904TIP3    H1 5655   5.715   5.904   1.006
 1904TIP3    H2 5656   5.797   5.828   0.903
 1905TIP3   OH2 5657   5.718   3.160   1.152
 1905TIP3    H1 5658   5.737   3.082   1.100
 1905TIP3    H2 5659   5.792   3.169   1.211
 1906TIP3   OH2 5660   7.903   7.737   5.202
 1906TIP3    H1 5661   7.983   7.690   5.226
 1906TIP3    H2 5662   7.850   7.671   5.156
 1907TIP3   OH2 5663   0.292   6.433   4.188
 1907TIP3    H1 5664   0.243   6.353   4.168
 1907TIP3    H2 5665   0.291   6.439   4.283
 1908TIP3   OH2 5666   2.454   0.290   3.477
 1908TIP3    H1 5667   2.490   0.287   3.389
 1908TIP3    H2 5668   2.473   0.204   3.514
 1909TIP3   OH2 5669   7.139   3.063   6.591
 1909TIP3    H1 5670   7.157   3.116   6.669
 1909TIP3    H2 5671   7.080   2.994   6.622
 1910TIP3   OH2 5672   5.225   0.748   6.283
 1910TIP3    H1 5673   5.179   0.830   6.266
 1910TIP3    H2 5674   5.155   0.687   6.309
 1911TIP3   OH2 5675   0.537   2.064   1.351
 1911TIP3    H1 5676   0.625   2.041   1.322
 1911TIP3    H2 5677   0.481   2.048   1.275
 1912TIP3   OH2 5678   4.403   3.973   6.676
 1912TIP3    H1 5679   4.320   3.932   6.649
 1912TIP3    H2 5680   4.417   3.942   6.765
 1913TIP3   OH2 5681   8.073   6.995   4.639
 1913TIP3    H1 5682   8.033   6.932   4.580
 1913TIP3    H2 5683   7.999   7.036   4.684
 1914TIP3   OH2 5684   7.092   4.885   6.249
 1914TIP3    H1 5685   6.998   4.893   6.234
 1914TIP3    H2 5686   7.108   4.791   6.256
 1915TIP3   OH2 5687   1.046   1.196   1.738
 1915TIP3    H1 5688   0.953   1.185   1.719
 1915TIP3    H2 5689   1.051   1.188   1.834
 1916TIP3   OH2 5690   3.288   4.379   2.937
 1916TIP3    H1 5691   3.359   4.443   2.930
 1916TIP3    H2 5692   3.259   4.367   2.847
 1917TIP3   OH2 5693   1.098   7.113   4.564
 1917TIP3    H1 5694   1.023   7.066   4.602
 1917TIP3    H2 5695   1.147   7.045   4.518
 1918TIP3   OH2 5696   5.165   3.589   1.421
 1918TIP3    H1 5697   5.250   3.550   1.398
 1918TIP3    H2 5698   5.107   3.564   1.350
 1919TIP3   OH2 5699   1.625   3.004   5.851
 1919TIP3    H1 5700   1.580   2.988   5.768
 1919TIP3    H2 5701   1.568   3.065   5.897
 1920TIP3   OH2 5702   4.661   6.591   2.731
 1920TIP3    H1 5703   4.650   6.538   2.809
 1920TIP3    H2 5704   4.756   6.604   2.724
 1921TIP3   OH2 5705   6.347   5.240   4.262
 1921TIP3    H1 5706   6.436   5.241   4.298
 1921TIP3    H2 5707   6.334   5.329   4.230
 1922TIP3   OH2 5708   3.332   2.039   4.384
 1922TIP3    H1 5709   3.390   2.097   4.433
 1922TIP3    H2 5710   3.370   1.952   4.395
 1923TIP3   OH2 5711   1.625   6.195   1.315
 1923TIP3    H1 5712   1.700   6.159   1.269
 1923TIP3    H2 5713   1.643   6.289   1.322
 1924TIP3   OH2 5714   4.263   4.257   2.349
 1924TIP3    H1 5715   4.248   4.317   2.423
 1924TIP3    H2 5716   4.349   4.218   2.368
 1925TIP3   OH2 5717   1.929   7.392   3.476
 1925TIP3    H1 5718   1.954   7.367   3.386
 1925TIP3    H2 5719   1.860   7.457   3.464
 1926TIP3   OH2 5720   2.003   6.514   0.346
 1926TIP3    H1 5721   2.061   6.589   0.331
 1926TIP3    H2 5722   1.919   6.542   0.309
 1927TIP3   OH2 5723   0.145   2.728   3.942
 1927TIP3    H1 5724   0.068   2.749   3.890
 1927TIP3    H2 5725   0.114   2.726   4.033
 1928TIP3   OH2 5726   1.938   2.007   0.487
 1928TIP3    H1 5727   1.967   1.930   0.439
 1928TIP3    H2 5728   2.016   2.062   0.496
 1929TIP3   OH2 5729   6.967   5.365   3.093
 1929TIP3    H1 5730   6.895   5.408   3.046
 1929TIP3    H2 5731   7.043   5.420   3.073
 1930TIP3   OH2 5732   4.515   3.988   0.363
 1930TIP3    H1 5733   4.528   4.082   0.357
 1930TIP3    H2 5734   4.589   3.950   0.315
 1931TIP3   OH2 5735   0.509   3.370   0.341
 1931TIP3    H1 5736   0.591   3.410   0.310
 1931TIP3    H2 5737   0.461   3.443   0.380
 1932TIP3   OH2 5738   0.242   5.758   1.378
 1932TIP3    H1 5739   0.253   5.850   1.353
 1932TIP3    H2 5740   0.184   5.723   1.310
 1933TIP3   OH2 5741   6.759   1.376   0.161
 1933TIP3    H1 5742   6.835   1.357   0.105
 1933TIP3    H2 5743   6.757   1.303   0.224
 1934TIP3   OH2 5744   7.599   7.720   4.326
 1934TIP3    H1 5745   7.653   7.649   4.292
 1934TIP3    H2 5746   7.650   7.799   4.307
 1935TIP3   OH2 5747   0.814   0.272   3.327
 1935TIP3    H1 5748   0.773   0.212   3.390
 1935TIP3    H2 5749   0.908   0.258   3.339
 1936TIP3   OH2 5750   3.720   2.352   4.654
 1936TIP3    H1 5751   3.668   2.406   4.594
 1936TIP3    H2 5752   3.719   2.400   4.737
 1937TIP3   OH2 5753   6.975   6.329   2.806
 1937TIP3    H1 5754   7.064   6.354   2.832
 1937TIP3    H2 5755   6.919   6.399   2.841
 1938TIP3   OH2 5756   6.262   0.860   2.821
 1938TIP3    H1 5757   6.179   0.812   2.824
 1938TIP3    H2 5758   6.289   0.867   2.913
 1939TIP3   OH2 5759   7.954   4.349   0.947
 1939TIP3    H1 5760   7.954   4.408   0.871
 1939TIP3    H2 5761   7.995   4.269   0.914
 1940TIP3   OH2 5762   1.853   6.694   5.029
 1940TIP3    H1 5763   1.859   6.627   4.961
 1940TIP3    H2 5764   1.759   6.710   5.038
 1941TIP3   OH2 5765   0.689   7.752   6.447
 1941TIP3    H1 5766   0.725   7.838   6.468
 1941TIP3    H2 5767   0.637   7.767   6.367
 1942TIP3   OH2 5768   2.850   4.939   1.695
 1942TIP3    H1 5769   2.897   4.857   1.713
 1942TIP3    H2 5770   2.864   4.992   1.773
 1943TIP3   OH2 5771   6.346   6.310   4.345
 1943TIP3    H1 5772   6.353   6.259   4.264
 1943TIP3    H2 5773   6.436   6.326   4.371
 1944TIP3   OH2 5774   4.045   4.438   3.000
 1944TIP3    H1 5775   4.132   4.423   2.963
 1944TIP3    H2 5776   3.990   4.459   2.925
 1945TIP3   OH2 5777   1.708   6.896   2.980
 1945TIP3    H1 5778   1.749   6.941   2.905
 1945TIP3    H2 5779   1.725   6.803   2.964
 1946TIP3   OH2 5780   5.211   6.427   6.143
 1946TIP3    H1 5781   5.303   6.415   6.166
 1946TIP3    H2 5782   5.183   6.503   6.194
 1947TIP3   OH2 5783   7.103   0.353   0.630
 1947TIP3    H1 5784   7.166   0.351   0.702
 1947TIP3    H2 5785   7.087   0.446   0.614
 1948TIP3   OH2 5786   2.773   1.844   1.929
 1948TIP3    H1 5787   2.859   1.803   1.939
 1948TIP3    H2 5788   2.760   1.851   1.834
 1949TIP3   OH2 5789   7.643   1.258   4.499
 1949TIP3    H1 5790   7.644   1.202   4.422
 1949TIP3    H2 5791   7.644   1.198   4.573
 1950TIP3   OH2 5792   5.970   7.478   5.669
 1950TIP3    H1 5793   5.983   7.427   5.749
 1950TIP3    H2 5794   5.932   7.416   5.607
 1951TIP3   OH2 5795   7.729   0.193   5.429
 1951TIP3    H1 5796   7.727   0.286   5.452
 1951TIP3    H2 5797   7.646   0.178   5.383
 1952TIP3   OH2 5798   1.649   2.471   4.651
 1952TIP3    H1 5799   1.713   2.509   4.591
 1952TIP3    H2 5800   1.668   2.377   4.650
 1953TIP3   OH2 5801   6.248   7.501   4.038
 1953TIP3    H1 5802   6.340   7.518   4.062
 1953TIP3    H2 5803   6.210   7.588   4.029
 1954TIP3   OH2 5804   7.222   2.714   5.442
 1954TIP3    H1 5805   7.221   2.747   5.532
 1954TIP3    H2 5806   7.296   2.758   5.401
 1955TIP3   OH2 5807   0.091   0.625   5.678
 1955TIP3    H1 5808   0.145   0.704   5.682
 1955TIP3    H2 5809   0.136   0.569   5.616
 1956TIP3   OH2 5810   4.807   0.745   1.279
 1956TIP3    H1 5811   4.848   0.673   1.327
 1956TIP3    H2 5812   4.845   0.740   1.191
 1957TIP3   OH2 5813   3.317   5.174   0.802
 1957TIP3    H1 5814   3.298   5.095   0.852
 1957TIP3    H2 5815   3.410   5.167   0.780
 1958TIP3   OH2 5816   2.536   0.559   4.672
 1958TIP3    H1 5817   2.491   0.600   4.746
 1958TIP3    H2 5818   2.601   0.624   4.645
 1959TIP3   OH2 5819   2.884   2.969   2.285
 1959TIP3    H1 5820   2.859   2.878   2.303
 1959TIP3    H2 5821   2.861   3.017   2.364
 1960TIP3   OH2 5822   6.109   4.556   6.462
 1960TIP3    H1 5823   6.105   4.478   6.407
 1960TIP3    H2 5824   6.018   4.586   6.468
 1961TIP3   OH2 5825   4.926   0.654   2.425
 1961TIP3    H1 5826   4.855   0.591   2.436
 1961TIP3    H2 5827   4.901   0.729   2.479
 1962TIP3   OH2 5828   5.499   3.723   6.030
 1962TIP3    H1 5829   5.567   3.756   6.089
 1962TIP3    H2 5830   5.431   3.790   6.030
 1963TIP3   OH2 5831   6.384   6.680   1.992
 1963TIP3    H1 5832   6.339   6.654   2.072
 1963TIP3    H2 5833   6.364   6.610   1.930
 1964TIP3   OH2 5834   4.223   7.098   2.578
 1964TIP3    H1 5835   4.169   7.145   2.514
 1964TIP3    H2 5836   4.305   7.082   2.531
 1965TIP3   OH2 5837   3.542   5.299   4.421
 1965TIP3    H1 5838   3.460   5.345   4.439
 1965TIP3    H2 5839   3.514   5.212   4.392
 1966TIP3   OH2 5840   6.900   0.233   0.137
 1966TIP3    H1 5841   6.980   0.182   0.126
 1966TIP3    H2 5842   6.891   0.244   0.232
 1967TIP3   OH2 5843   3.508   4.490   3.614
 1967TIP3    H1 5844   3.574   4.441   3.664
 1967TIP3    H2 5845   3.428   4.482   3.666
 1968TIP3   OH2 5846   6.534   0.093   2.364
 1968TIP3    H1 5847   6.586   0.055   2.435
 1968TIP3    H2 5848   6.569   0.054   2.284
 1969TIP3   OH2 5849   2.210   0.343   3.775
 1969TIP3    H1 5850   2.173   0.426   3.745
 1969TIP3    H2 5851   2.298   0.366   3.806
 1970TIP3   OH2 5852   7.024   6.934   2.052
 1970TIP3    H1 5853   7.028   6.990   2.130
 1970TIP3    H2 5854   7.023   6.996   1.979
 1971TIP3   OH2 5855   0.022   0.525   3.798
 1971TIP3    H1 5856  -0.015   0.491   3.717
 1971TIP3    H2 5857   0.054   0.448   3.845
 1972TIP3   OH2 5858   5.284   7.472   0.463
 1972TIP3    H1 5859   5.249   7.402   0.409
 1972TIP3    H2 5860   5.294   7.433   0.550
 1973TIP3   OH2 5861   5.611   2.335   2.900
 1973TIP3    H1 5862   5.689   2.282   2.919
 1973TIP3    H2 5863   5.603   2.394   2.975
 1974TIP3   OH2 5864   2.577   3.064   0.336
 1974TIP3    H1 5865   2.553   3.081   0.427
 1974TIP3    H2 5866   2.500   3.089   0.285
 1975TIP3   OH2 5867   2.734   3.705   2.803
 1975TIP3    H1 5868   2.697   3.659   2.878
 1975TIP3    H2 5869   2.759   3.636   2.742
 1976TIP3   OH2 5870   0.194   6.231   1.077
 1976TIP3    H1 5871   0.103   6.210   1.096
 1976TIP3    H2 5872   0.234   6.146   1.056
 1977TIP3   OH2 5873   3.833   6.772   1.357
 1977TIP3    H1 5874   3.771   6.734   1.419
 1977TIP3    H2 5875   3.798   6.858   1.336
 1978TIP3   OH2 5876   3.505   7.130   5.504
 1978TIP3    H1 5877   3.431   7.071   5.514
 1978TIP3    H2 5878   3.479   7.190   5.434
 1979TIP3   OH2 5879   0.513   5.268   0.834
 1979TIP3    H1 5880   0.464   5.261   0.915
 1979TIP3    H2 5881   0.586   5.326   0.855
 1980TIP3   OH2 5882   5.206   2.236   5.930
 1980TIP3    H1 5883   5.178   2.185   5.854
 1980TIP3    H2 5884   5.298   2.258   5.912
 1981TIP3   OH2 5885   0.614   5.754   5.060
 1981TIP3    H1 5886   0.627   5.771   4.967
 1981TIP3    H2 5887   0.697   5.781   5.101
 1982TIP3   OH2 5888   3.206   6.392   3.259
 1982TIP3    H1 5889   3.300   6.376   3.268
 1982TIP3    H2 5890   3.198   6.441   3.177
 1983TIP3   OH2 5891   3.995   2.871   2.572
 1983TIP3    H1 5892   3.941   2.812   2.519
 1983TIP3    H2 5893   4.085   2.849   2.548
 1984TIP3   OH2 5894   5.977   2.452   4.558
 1984TIP3    H1 5895   6.019   2.522   4.609
 1984TIP3    H2 5896   5.941   2.393   4.624
 1985TIP3   OH2 5897   7.891   1.691   2.791
 1985TIP3    H1 5898   7.856   1.665   2.706
 1985TIP3    H2 5899   7.952   1.621   2.815
 1986TIP3   OH2 5900   8.193   6.581   2.613
 1986TIP3    H1 5901   8.170   6.589   2.705
 1986TIP3    H2 5902   8.288   6.583   2.611
 1987TIP3   OH2 5903   0.160   2.591   1.368
 1987TIP3    H1 5904   0.150   2.647   1.291
 1987TIP3    H2 5905   0.234   2.629   1.416
 1988TIP3   OH2 5906   1.082   6.298   1.906
 1988TIP3    H1 5907   1.011   6.359   1.889
 1988TIP3    H2 5908   1.080   6.284   2.000
 1989TIP3   OH2 5909   6.728   2.781   6.547
 1989TIP3    H1 5910   6.694   2.733   6.623
 1989TIP3    H2 5911   6.756   2.713   6.486
 1990TIP3   OH2 5912   8.127   0.966   1.971
 1990TIP3    H1 5913   8.147   1.048   2.016
 1990TIP3    H2 5914   8.077   0.993   1.894
 1991TIP3   OH2 5915   2.068   1.742   5.721
 1991TIP3    H1 5916   1.997   1.804   5.737
 1991TIP3    H2 5917   2.129   1.789   5.664
 1992TIP3   OH2 5918   6.441   1.793   1.356
 1992TIP3    H1 5919   6.453   1.874   1.308
 1992TIP3    H2 5920   6.530   1.764   1.377
 1993TIP3   OH2 5921   5.818   5.688   4.975
 1993TIP3    H1 5922   5.889   5.631   5.003
 1993TIP3    H2 5923   5.856   5.740   4.903
 1994TIP3   OH2 5924   2.736   3.476   2.626
 1994TIP3    H1 5925   2.641   3.466   2.637
 1994TIP3    H2 5926   2.772   3.396   2.664
 1995TIP3   OH2 5927   6.448   0.970   4.382
 1995TIP3    H1 5928   6.440   0.877   4.359
 1995TIP3    H2 5929   6.422   1.016   4.301
 1996TIP3   OH2 5930   3.165   6.015   2.473
 1996TIP3    H1 5931   3.229   6.081   2.448
 1996TIP3    H2 5932   3.110   6.058   2.539
 1997TIP3   OH2 5933   0.701   6.121   1.987
 1997TIP3    H1 5934   0.608   6.107   2.005
 1997TIP3    H2 5935   0.703   6.199   1.931
 1998TIP3   OH2 5936   5.322   3.928   2.418
 1998TIP3    H1 5937   5.333   3.939   2.512
 1998TIP3    H2 5938   5.382   3.992   2.380
 1999TIP3   OH2 5939   0.235   7.406   2.667
 1999TIP3    H1 5940   0.329   7.396   2.681
 1999TIP3    H2 5941   0.211   7.335   2.608
 2000TIP3   OH2 5942   8.255   0.712   5.916
 2000TIP3    H1 5943   8.273   0.660   5.838
 2000TIP3    H2 5944   8.341   0.736   5.950
 2001TIP3   OH2 5945   1.427   2.953   2.122
 2001TIP3    H1 5946   1.333   2.971   2.116
 2001TIP3    H2 5947   1.434   2.879   2.182
 2002TIP3   OH2 5948   4.613   2.057   0.329
 2002TIP3    H1 5949   4.626   2.133   0.272
 2002TIP3    H2 5950   4.623   1.981   0.272
 2003TIP3   OH2 5951   3.776   2.073   6.727
 2003TIP3    H1 5952   3.859   2.119   6.712
 2003TIP3    H2 5953   3.740   2.114   6.805
 2004TIP3   OH2 5954   6.162   2.862   5.401
 2004TIP3    H1 5955   6.118   2.906   5.473
 2004TIP3    H2 5956   6.255   2.875   5.418
 2005TIP3   OH2 5957   2.059   5.412   5.028
 2005TIP3    H1 5958   2.120   5.338   5.026
 2005TIP3    H2 5959   2.109   5.486   4.994
 2006TIP3   OH2 5960   3.711   1.077   5.025
 2006TIP3    H1 5961   3.732   0.993   5.065
 2006TIP3    H2 5962   3.632   1.107   5.070
 2007TIP3   OH2 5963   0.583   6.615   6.683
 2007TIP3    H1 5964   0.546   6.597   6.597
 2007TIP3    H2 5965   0.511   6.653   6.733
 2008TIP3   OH2 5966   6.464   6.931   2.617
 2008TIP3    H1 5967   6.369   6.919   2.625
 2008TIP3    H2 5968   6.474   7.016   2.574
 2009TIP3   OH2 5969   1.821   3.189   0.654
 2009TIP3    H1 5970   1.827   3.140   0.736
 2009TIP3    H2 5971   1.911   3.216   0.635
 2010TIP3   OH2 5972   0.416   3.663   5.583
 2010TIP3    H1 5973   0.391   3.682   5.673
 2010TIP3    H2 5974   0.427   3.568   5.581
 2011TIP3   OH2 5975   1.556   6.808   5.077
 2011TIP3    H1 5976   1.574   6.895   5.040
 2011TIP3    H2 5977   1.505   6.764   5.008
 2012TIP3   OH2 5978   1.737   4.316   5.690
 2012TIP3    H1 5979   1.750   4.310   5.596
 2012TIP3    H2 5980   1.758   4.229   5.724
 2013TIP3   OH2 5981   5.857   5.367   2.553
 2013TIP3    H1 5982   5.874   5.332   2.466
 2013TIP3    H2 5983   5.849   5.462   2.539
 2014TIP3   OH2 5984   5.228   0.938   2.762
 2014TIP3    H1 5985   5.292   0.868   2.749
 2014TIP3    H2 5986   5.210   0.938   2.856
 2015TIP3   OH2 5987   1.416   1.335   3.000
 2015TIP3    H1 5988   1.489   1.278   3.023
 2015TIP3    H2 5989   1.413   1.332   2.904
 2016TIP3   OH2 5990   3.022   1.293   0.312
 2016TIP3    H1 5991   2.939   1.246   0.326
 2016TIP3    H2 5992   3.061   1.250   0.236
 2017TIP3   OH2 5993   4.200   4.724   3.481
 2017TIP3    H1 5994   4.131   4.683   3.533
 2017TIP3    H2 5995   4.162   4.734   3.394
 2018TIP3   OH2 5996   5.106   0.093   3.439
 2018TIP3    H1 5997   5.186   0.095   3.387
 2018TIP3    H2 5998   5.102   0.004   3.474
 2019TIP3   OH2 5999   1.821   6.922   4.137
 2019TIP3    H1 6000   1.728   6.899   4.137
 2019TIP3    H2 6001   1.823   7.017   4.129
 2020TIP3   OH2 6002   0.789   7.136   6.247
 2020TIP3    H1 6003   0.745   7.213   6.282
 2020TIP3    H2 6004   0.729   7.102   6.180
 2021TIP3   OH2 6005   7.375   5.937   4.219
 2021TIP3    H1 6006   7.398   5.870   4.283
 2021TIP3    H2 6007   7.455   5.988   4.208
 2022TIP3   OH2 6008   1.931   1.661   4.158
 2022TIP3    H1 6009   1.945   1.753   4.135
 2022TIP3    H2 6010   2.016   1.630   4.188
 2023TIP3   OH2 6011   3.323   1.658   0.208
 2023TIP3    H1 6012   3.266   1.671   0.132
 2023TIP3    H2 6013   3.271   1.603   0.267
 2024TIP3   OH2 6014   3.322   5.779   2.025
 2024TIP3    H1 6015   3.412   5.746   2.023
 2024TIP3    H2 6016   3.291   5.767   1.936
 2025TIP3   OH2 6017   5.401   2.410   1.728
 2025TIP3    H1 6018   5.487   2.450   1.718
 2025TIP3    H2 6019   5.364   2.450   1.807
 2026TIP3   OH2 6020   4.715   3.463   5.479
 2026TIP3    H1 6021   4.635   3.425   5.442
 2026TIP3    H2 6022   4.684   3.538   5.530
 2027TIP3   OH2 6023   1.664   6.178   2.444
 2027TIP3    H1 6024   1.680   6.116   2.373
 2027TIP3    H2 6025   1.583   6.222   2.419
 2028TIP3   OH2 6026   7.555   6.596   6.288
 2028TIP3    H1 6027   7.584   6.552   6.367
 2028TIP3    H2 6028   7.518   6.679   6.319
 2029TIP3   OH2 6029   2.303   1.781   5.005
 2029TIP3    H1 6030   2.308   1.783   5.101
 2029TIP3    H2 6031   2.244   1.853   4.983
 2030TIP3   OH2 6032   4.500   7.324   0.118
 2030TIP3    H1 6033   4.589   7.300   0.143
 2030TIP3    H2 6034   4.505   7.417   0.097
 2031TIP3   OH2 6035   6.423   1.872   5.480
 2031TIP3    H1 6036   6.400   1.803   5.418
 2031TIP3    H2 6037   6.349   1.933   5.477
 2032TIP3   OH2 6038   2.015   2.392   1.750
 2032TIP3    H1 6039   1.930   2.435   1.739
 2032TIP3    H2 6040   2.063   2.447   1.811
 2033TIP3   OH2 6041   6.987   7.637   2.682
 2033TIP3    H1 6042   6.933   7.640   2.603
 2033TIP3    H2 6043   7.052   7.569   2.665
 2034TIP3   OH2 6044   1.074   4.766   4.114
 2034TIP3    H1 6045   1.067   4.792   4.206
 2034TIP3    H2 6046   0.988   4.785   4.078
 2035TIP3   OH2 6047   1.241   2.425   2.635
 2035TIP3    H1 6048   1.215   2.375   2.712
 2035TIP3    H2 6049   1.185   2.502   2.635
 2036TIP3   OH2 6050   0.465   3.855   5.374
 2036TIP3    H1 6051   0.463   3.794   5.300
 2036TIP3    H2 6052   0.433   3.938   5.338
 2037TIP3   OH2 6053   2.977   3.383   2.775
 2037TIP3    H1 6054   2.995   3.296   2.738
 2037TIP3    H2 6055   3.064   3.418   2.796
 2038TIP3   OH2 6056   5.089   4.966   4.039
 2038TIP3    H1 6057   5.148   4.967   4.115
 2038TIP3    H2 6058   5.146   4.944   3.965
 2039TIP3   OH2 6059   1.966   3.465   5.632
 2039TIP3    H1 6060   1.932   3.483   5.544
 2039TIP3    H2 6061   2.057   3.494   5.629
 2040TIP3   OH2 6062   6.816   6.644   3.242
 2040TIP3    H1 6063   6.822   6.667   3.335
 2040TIP3    H2 6064   6.742   6.584   3.237
 2041TIP3   OH2 6065   2.551   4.043   0.112
 2041TIP3    H1 6066   2.625   4.035   0.051
 2041TIP3    H2 6067   2.576   4.114   0.171
 2042TIP3   OH2 6068   5.784   2.222   0.104
 2042TIP3    H1 6069   5.755   2.137   0.070
 2042TIP3    H2 6070   5.869   2.204   0.144
 2043TIP3   OH2 6071   2.044   2.855   6.478
 2043TIP3    H1 6072   2.099   2.803   6.420
 2043TIP3    H2 6073   1.998   2.916   6.421
 2044TIP3   OH2 6074   2.364   6.622   4.353
 2044TIP3    H1 6075   2.355   6.528   4.342
 2044TIP3    H2 6076   2.366   6.635   4.448
 2045TIP3   OH2 6077   3.427   3.022   6.031
 2045TIP3    H1 6078   3.461   2.932   6.034
 2045TIP3    H2 6079   3.380   3.032   6.114
 2046TIP3   OH2 6080   3.049   0.895   1.750
 2046TIP3    H1 6081   3.068   0.852   1.834
 2046TIP3    H2 6082   3.044   0.988   1.771
 2047TIP3   OH2 6083   6.244   4.418   0.805
 2047TIP3    H1 6084   6.308   4.372   0.750
 2047TIP3    H2 6085   6.164   4.420   0.752
 2048TIP3   OH2 6086   6.984   1.759   1.466
 2048TIP3    H1 6087   6.992   1.695   1.395
 2048TIP3    H2 6088   7.031   1.720   1.540
 2049TIP3   OH2 6089   1.584   3.005   6.684
 2049TIP3    H1 6090   1.521   3.028   6.752
 2049TIP3    H2 6091   1.624   2.924   6.715
 2050TIP3   OH2 6092   6.537   5.223   2.671
 2050TIP3    H1 6093   6.490   5.142   2.690
 2050TIP3    H2 6094   6.483   5.291   2.711
 2051TIP3   OH2 6095   2.853   0.276   4.740
 2051TIP3    H1 6096   2.758   0.268   4.736
 2051TIP3    H2 6097   2.869   0.321   4.823
 2052TIP3   OH2 6098   3.000   4.555   1.002
 2052TIP3    H1 6099   3.081   4.516   1.033
 2052TIP3    H2 6100   2.993   4.526   0.911
 2053TIP3   OH2 6101   6.983   6.580   4.913
 2053TIP3    H1 6102   7.075   6.567   4.933
 2053TIP3    H2 6103   6.952   6.642   4.978
 2054TIP3   OH2 6104   0.044   3.933   0.894
 2054TIP3    H1 6105  -0.004   3.971   0.820
 2054TIP3    H2 6106   0.135   3.928   0.863
 2055TIP3   OH2 6107   7.630   1.304   3.048
 2055TIP3    H1 6108   7.623   1.314   2.953
 2055TIP3    H2 6109   7.720   1.274   3.063
 2056TIP3   OH2 6110   5.651   1.192   1.217
 2056TIP3    H1 6111   5.672   1.230   1.302
 2056TIP3    H2 6112   5.720   1.223   1.159
 2057TIP3   OH2 6113   5.972   2.140   4.760
 2057TIP3    H1 6114   5.940   2.230   4.751
 2057TIP3    H2 6115   5.898   2.091   4.795
 2058TIP3   OH2 6116   4.281   1.283   5.540
 2058TIP3    H1 6117   4.212   1.317   5.483
 2058TIP3    H2 6118   4.243   1.285   5.628
 2059TIP3   OH2 6119   0.132   0.560   0.303
 2059TIP3    H1 6120   0.041   0.589   0.308
 2059TIP3    H2 6121   0.132   0.495   0.233
 2060TIP3   OH2 6122   7.314   3.019   1.421
 2060TIP3    H1 6123   7.402   2.998   1.453
 2060TIP3    H2 6124   7.325   3.035   1.327
 2061TIP3   OH2 6125   0.789   3.133   0.415
 2061TIP3    H1 6126   0.867   3.165   0.459
 2061TIP3    H2 6127   0.808   3.143   0.322
 2062TIP3   OH2 6128   1.475   7.547   6.669
 2062TIP3    H1 6129   1.413   7.477   6.650
 2062TIP3    H2 6130   1.422   7.627   6.668
 2063TIP3   OH2 6131   8.110   6.466   0.519
 2063TIP3    H1 6132   8.079   6.529   0.584
 2063TIP3    H2 6133   8.186   6.507   0.480
 2064TIP3   OH2 6134   4.703   1.416   3.559
 2064TIP3    H1 6135   4.665   1.388   3.643
 2064TIP3    H2 6136   4.739   1.503   3.578
 2065TIP3   OH2 6137   7.911   5.148   2.504
 2065TIP3    H1 6138   7.908   5.234   2.460
 2065TIP3    H2 6139   7.909   5.169   2.597
 2066TIP3   OH2 6140   3.925   1.413   2.556
 2066TIP3    H1 6141   4.005   1.413   2.503
 2066TIP3    H2 6142   3.919   1.324   2.590
 2067TIP3   OH2 6143   3.569   0.882   2.997
 2067TIP3    H1 6144   3.560   0.798   2.952
 2067TIP3    H2 6145   3.520   0.943   2.942
 2068TIP3   OH2 6146   6.805   4.736   5.664
 2068TIP3    H1 6147   6.840   4.825   5.661
 2068TIP3    H2 6148   6.715   4.745   5.632
 2069TIP3   OH2 6149   1.672   7.304   4.465
 2069TIP3    H1 6150   1.646   7.358   4.390
 2069TIP3    H2 6151   1.677   7.215   4.431
 2070TIP3   OH2 6152   2.089   3.833   3.884
 2070TIP3    H1 6153   2.134   3.760   3.927
 2070TIP3    H2 6154   2.033   3.791   3.819
 2071TIP3   OH2 6155   4.850   0.138   2.486
 2071TIP3    H1 6156   4.841   0.051   2.526
 2071TIP3    H2 6157   4.890   0.121   2.401
 2072TIP3   OH2 6158   5.320   5.502   4.356
 2072TIP3    H1 6159   5.359   5.454   4.429
 2072TIP3    H2 6160   5.394   5.520   4.297
 2073TIP3   OH2 6161   3.515   6.306   4.573
 2073TIP3    H1 6162   3.481   6.292   4.661
 2073TIP3    H2 6163   3.465   6.246   4.518
 2074TIP3   OH2 6164   4.350   0.649   4.388
 2074TIP3    H1 6165   4.347   0.584   4.459
 2074TIP3    H2 6166   4.437   0.638   4.350
 2075TIP3   OH2 6167   0.105   3.342   1.487
 2075TIP3    H1 6168   0.043   3.290   1.537
 2075TIP3    H2 6169   0.114   3.424   1.537
 2076TIP3   OH2 6170   7.716   3.332   2.416
 2076TIP3    H1 6171   7.794   3.370   2.456
 2076TIP3    H2 6172   7.744   3.305   2.329
 2077TIP3   OH2 6173   5.548   6.215   1.138
 2077TIP3    H1 6174   5.488   6.271   1.188
 2077TIP3    H2 6175   5.608   6.275   1.095
 2078TIP3   OH2 6176   1.274   2.145   2.561
 2078TIP3    H1 6177   1.242   2.100   2.482
 2078TIP3    H2 6178   1.264   2.238   2.541
 2079TIP3   OH2 6179   4.353   2.347   0.256
 2079TIP3    H1 6180   4.420   2.328   0.322
 2079TIP3    H2 6181   4.349   2.267   0.203
 2080TIP3   OH2 6182   0.806   5.291   1.615
 2080TIP3    H1 6183   0.809   5.248   1.529
 2080TIP3    H2 6184   0.881   5.256   1.662
 2081TIP3   OH2 6185   7.585   7.822   3.495
 2081TIP3    H1 6186   7.618   7.732   3.505
 2081TIP3    H2 6187   7.496   7.811   3.461
 2082TIP3   OH2 6188   3.922   5.026   6.795
 2082TIP3    H1 6189   3.953   5.116   6.798
 2082TIP3    H2 6190   3.953   4.992   6.711
 2083TIP3   OH2 6191   7.553   4.580   1.199
 2083TIP3    H1 6192   7.630   4.526   1.177
 2083TIP3    H2 6193   7.521   4.544   1.281
 2084TIP3   OH2 6194   7.167   2.360   3.196
 2084TIP3    H1 6195   7.258   2.335   3.182
 2084TIP3    H2 6196   7.168   2.407   3.279
 2085TIP3   OH2 6197   5.213   5.208   1.094
 2085TIP3    H1 6198   5.258   5.170   1.019
 2085TIP3    H2 6199   5.253   5.294   1.105
 2086TIP3   OH2 6200   1.992   0.508   6.734
 2086TIP3    H1 6201   2.072   0.478   6.777
 2086TIP3    H2 6202   2.005   0.603   6.724
 2087TIP3   OH2 6203   6.380   7.686   4.627
 2087TIP3    H1 6204   6.288   7.662   4.616
 2087TIP3    H2 6205   6.429   7.612   4.591
 2088TIP3   OH2 6206   6.634   4.437  -0.067
 2088TIP3    H1 6207   6.555   4.408  -0.020
 2088TIP3    H2 6208   6.702   4.439   0.000
 2089TIP3   OH2 6209   6.399   7.227   5.833
 2089TIP3    H1 6210   6.350   7.290   5.886
 2089TIP3    H2 6211   6.490   7.236   5.863
 2090TIP3   OH2 6212   6.219   7.539   0.797
 2090TIP3    H1 6213   6.155   7.609   0.783
 2090TIP3    H2 6214   6.169   7.468   0.836
 2091TIP3   OH2 6215   1.055   2.660   6.660
 2091TIP3    H1 6216   1.148   2.681   6.669
 2091TIP3    H2 6217   1.048   2.569   6.688
 2092TIP3   OH2 6218   1.111   5.997   0.085
 2092TIP3    H1 6219   1.099   6.078   0.135
 2092TIP3    H2 6220   1.205   5.990   0.073
 2093TIP3   OH2 6221   5.616   4.404   5.815
 2093TIP3    H1 6222   5.632   4.495   5.792
 2093TIP3    H2 6223   5.618   4.403   5.910
 2094TIP3   OH2 6224   7.276   0.838   4.746
 2094TIP3    H1 6225   7.189   0.812   4.716
 2094TIP3    H2 6226   7.276   0.934   4.743
 2095TIP3   OH2 6227   4.779   4.176   5.870
 2095TIP3    H1 6228   4.841   4.248   5.860
 2095TIP3    H2 6229   4.773   4.136   5.783
 2096TIP3   OH2 6230   4.614   2.679   4.249
 2096TIP3    H1 6231   4.585   2.690   4.340
 2096TIP3    H2 6232   4.587   2.590   4.225
 2097TIP3   OH2 6233   2.475   4.773   3.427
 2097TIP3    H1 6234   2.489   4.681   3.404
 2097TIP3    H2 6235   2.563   4.808   3.440
 2098TIP3   OH2 6236   8.004   3.506   5.265
 2098TIP3    H1 6237   8.093   3.531   5.240
 2098TIP3    H2 6238   8.016   3.442   5.336
 2099TIP3   OH2 6239   2.539   7.053   1.850
 2099TIP3    H1 6240   2.555   7.029   1.759
 2099TIP3    H2 6241   2.588   6.989   1.901
 2100TIP3   OH2 6242   1.688   2.507   4.953
 2100TIP3    H1 6243   1.697   2.499   4.857
 2100TIP3    H2 6244   1.708   2.599   4.971
 2101TIP3   OH2 6245   7.597   0.699   5.162
 2101TIP3    H1 6246   7.562   0.750   5.235
 2101TIP3    H2 6247   7.548   0.729   5.085
 2102TIP3   OH2 6248   0.938   0.495   1.842
 2102TIP3    H1 6249   0.908   0.467   1.929
 2102TIP3    H2 6250   1.033   0.493   1.849
 2103TIP3   OH2 6251   5.177   4.387   6.183
 2103TIP3    H1 6252   5.194   4.431   6.266
 2103TIP3    H2 6253   5.138   4.455   6.128
 2104TIP3   OH2 6254   3.100   5.268   0.143
 2104TIP3    H1 6255   3.150   5.263   0.062
 2104TIP3    H2 6256   3.077   5.178   0.163
 2105TIP3   OH2 6257   3.217   7.400   0.125
 2105TIP3    H1 6258   3.135   7.362   0.154
 2105TIP3    H2 6259   3.213   7.491   0.155
 2106TIP3   OH2 6260   0.503   1.102   0.689
 2106TIP3    H1 6261   0.504   1.012   0.722
 2106TIP3    H2 6262   0.525   1.094   0.596
 2107TIP3   OH2 6263   4.149   1.957   3.015
 2107TIP3    H1 6264   4.158   1.953   3.111
 2107TIP3    H2 6265   4.077   2.019   3.000
 2108TIP3   OH2 6266   2.717   2.796   5.215
 2108TIP3    H1 6267   2.667   2.842   5.282
 2108TIP3    H2 6268   2.801   2.777   5.258
 2109TIP3   OH2 6269   2.688   7.323   1.373
 2109TIP3    H1 6270   2.677   7.373   1.454
 2109TIP3    H2 6271   2.650   7.378   1.305
 2110TIP3   OH2 6272   3.254   3.120   2.811
 2110TIP3    H1 6273   3.185   3.128   2.746
 2110TIP3    H2 6274   3.331   3.161   2.770
 2111TIP3   OH2 6275   5.340   7.121   0.982
 2111TIP3    H1 6276   5.302   7.037   1.007
 2111TIP3    H2 6277   5.278   7.158   0.920
 2112TIP3   OH2 6278   6.395   5.155   1.094
 2112TIP3    H1 6279   6.432   5.173   1.008
 2112TIP3    H2 6280   6.373   5.062   1.092
 2113TIP3   OH2 6281   3.499   6.422   6.229
 2113TIP3    H1 6282   3.575   6.418   6.170
 2113TIP3    H2 6283   3.455   6.504   6.206
 2114TIP3   OH2 6284   5.350   4.920   0.031
 2114TIP3    H1 6285   5.440   4.898   0.054
 2114TIP3    H2 6286   5.341   4.891  -0.060
 2115TIP3   OH2 6287   0.086   7.247   1.149
 2115TIP3    H1 6288   0.164   7.229   1.096
 2115TIP3    H2 6289   0.119   7.298   1.223
 2116TIP3   OH2 6290   4.199   4.507   3.229
 2116TIP3    H1 6291   4.132   4.520   3.162
 2116TIP3    H2 6292   4.231   4.596   3.248
 2117TIP3   OH2 6293   3.150   5.838   4.784
 2117TIP3    H1 6294   3.144   5.911   4.722
 2117TIP3    H2 6295   3.064   5.796   4.778
 2118TIP3   OH2 6296   5.273   3.631   5.882
 2118TIP3    H1 6297   5.364   3.638   5.909
 2118TIP3    H2 6298   5.262   3.700   5.817
 2119TIP3   OH2 6299   3.691   6.439   4.957
 2119TIP3    H1 6300   3.651   6.413   5.040
 2119TIP3    H2 6301   3.683   6.534   4.955
 2120TIP3   OH2 6302   2.644   6.129   4.761
 2120TIP3    H1 6303   2.673   6.167   4.678
 2120TIP3    H2 6304   2.624   6.038   4.740
 2121TIP3   OH2 6305   6.807   2.558   6.370
 2121TIP3    H1 6306   6.896   2.580   6.344
 2121TIP3    H2 6307   6.813   2.468   6.403
 2122TIP3   OH2 6308   8.228   6.491   5.343
 2122TIP3    H1 6309   8.280   6.426   5.390
 2122TIP3    H2 6310   8.267   6.575   5.366
 2123TIP3   OH2 6311   8.109   7.470   4.499
 2123TIP3    H1 6312   8.154   7.390   4.527
 2123TIP3    H2 6313   8.177   7.519   4.452
 2124TIP3   OH2 6314   0.076   4.644   3.943
 2124TIP3    H1 6315   0.095   4.661   3.851
 2124TIP3    H2 6316   0.098   4.725   3.988
 2125TIP3   OH2 6317   3.720   6.587   6.142
 2125TIP3    H1 6318   3.648   6.650   6.150
 2125TIP3    H2 6319   3.799   6.638   6.159
 2126TIP3   OH2 6320   5.660   4.929   6.345
 2126TIP3    H1 6321   5.696   5.016   6.359
 2126TIP3    H2 6322   5.683   4.881   6.425
 2127TIP3   OH2 6323   3.952   6.933   5.633
 2127TIP3    H1 6324   4.034   6.980   5.648
 2127TIP3    H2 6325   3.964   6.889   5.549
 2128TIP3   OH2 6326   4.989   1.636   3.676
 2128TIP3    H1 6327   4.987   1.684   3.759
 2128TIP3    H2 6328   5.081   1.616   3.662
 2129TIP3   OH2 6329   6.903   6.744   4.687
 2129TIP3    H1 6330   6.977   6.771   4.633
 2129TIP3    H2 6331   6.942   6.689   4.756
 2130TIP3   OH2 6332   1.255   6.540   3.994
 2130TIP3    H1 6333   1.258   6.618   4.049
 2130TIP3    H2 6334   1.178   6.553   3.938
 2131TIP3   OH2 6335   2.199   7.649   1.499
 2131TIP3    H1 6336   2.184   7.735   1.537
 2131TIP3    H2 6337   2.147   7.589   1.552
 2132TIP3   OH2 6338   6.700   4.863   0.871
 2132TIP3    H1 6339   6.777   4.879   0.926
 2132TIP3    H2 6340   6.626   4.865   0.932
 2133TIP3   OH2 6341   8.314   7.253   3.970
 2133TIP3    H1 6342   8.278   7.197   3.901
 2133TIP3    H2 6343   8.392   7.292   3.930
 2134TIP3   OH2 6344   6.217   3.061   1.266
 2134TIP3    H1 6345   6.174   3.097   1.343
 2134TIP3    H2 6346   6.251   3.137   1.219
 2135TIP3   OH2 6347   4.610   5.478   4.523
 2135TIP3    H1 6348   4.597   5.386   4.499
 2135TIP3    H2 6349   4.522   5.514   4.532
 2136TIP3   OH2 6350   0.572   0.569   2.116
 2136TIP3    H1 6351   0.493   0.521   2.139
 2136TIP3    H2 6352   0.634   0.549   2.186
 2137TIP3   OH2 6353   4.553   0.575   0.544
 2137TIP3    H1 6354   4.460   0.579   0.570
 2137TIP3    H2 6355   4.589   0.658   0.577
 2138TIP3   OH2 6356   1.253   4.287   0.045
 2138TIP3    H1 6357   1.210   4.355   0.095
 2138TIP3    H2 6358   1.244   4.208   0.099
 2139TIP3   OH2 6359   7.305   7.353   6.694
 2139TIP3    H1 6360   7.295   7.363   6.788
 2139TIP3    H2 6361   7.391   7.389   6.674
 2140TIP3   OH2 6362   1.361   5.026   4.736
 2140TIP3    H1 6363   1.416   5.008   4.812
 2140TIP3    H2 6364   1.325   4.940   4.712
 2141TIP3   OH2 6365   7.634   4.628   3.577
 2141TIP3    H1 6366   7.578   4.642   3.654
 2141TIP3    H2 6367   7.677   4.544   3.594
 2142TIP3   OH2 6368   1.443   3.969   5.989
 2142TIP3    H1 6369   1.397   3.930   6.064
 2142TIP3    H2 6370   1.455   4.061   6.014
 2143TIP3   OH2 6371   4.252   6.221   4.566
 2143TIP3    H1 6372   4.196   6.268   4.504
 2143TIP3    H2 6373   4.231   6.260   4.651
 2144TIP3   OH2 6374   6.562   2.938   5.832
 2144TIP3    H1 6375   6.518   3.023   5.829
 2144TIP3    H2 6376   6.514   2.889   5.900
 2145TIP3   OH2 6377   4.563   3.813   1.357
 2145TIP3    H1 6378   4.532   3.733   1.401
 2145TIP3    H2 6379   4.652   3.825   1.390
 2146TIP3   OH2 6380   5.592   0.092   0.534
 2146TIP3    H1 6381   5.639   0.172   0.557
 2146TIP3    H2 6382   5.599   0.037   0.612
 2147TIP3   OH2 6383   5.101   6.104   5.212
 2147TIP3    H1 6384   5.031   6.082   5.274
 2147TIP3    H2 6385   5.115   6.198   5.223
 2148TIP3   OH2 6386   5.777   5.415   1.020
 2148TIP3    H1 6387   5.800   5.365   0.942
 2148TIP3    H2 6388   5.796   5.506   0.997
 2149TIP3   OH2 6389   3.689   3.122   6.362
 2149TIP3    H1 6390   3.774   3.162   6.375
 2149TIP3    H2 6391   3.642   3.182   6.304
 2150TIP3   OH2 6392   2.882   6.541   1.751
 2150TIP3    H1 6393   2.922   6.584   1.827
 2150TIP3    H2 6394   2.915   6.590   1.676
 2151TIP3   OH2 6395   4.409   0.165   3.693
 2151TIP3    H1 6396   4.428   0.155   3.786
 2151TIP3    H2 6397   4.461   0.239   3.665
 2152TIP3   OH2 6398   0.958   1.753   3.115
 2152TIP3    H1 6399   1.031   1.783   3.169
 2152TIP3    H2 6400   0.952   1.659   3.134
 2153TIP3   OH2 6401   3.467   6.164   5.567
 2153TIP3    H1 6402   3.465   6.069   5.555
 2153TIP3    H2 6403   3.554   6.181   5.604
 2154TIP3   OH2 6404   7.817   0.330   0.788
 2154TIP3    H1 6405   7.749   0.366   0.731
 2154TIP3    H2 6406   7.876   0.284   0.729
 2155TIP3   OH2 6407   1.869   7.707   4.024
 2155TIP3    H1 6408   1.830   7.793   4.009
 2155TIP3    H2 6409   1.949   7.707   3.971
 2156TIP3   OH2 6410   7.708   0.478   0.149
 2156TIP3    H1 6411   7.632   0.515   0.193
 2156TIP3    H2 6412   7.697   0.384   0.157
 2157TIP3   OH2 6413   2.664   7.599   0.146
 2157TIP3    H1 6414   2.699   7.553   0.223
 2157TIP3    H2 6415   2.601   7.662   0.183
 2158TIP3   OH2 6416   4.838   6.200   2.469
 2158TIP3    H1 6417   4.902   6.145   2.422
 2158TIP3    H2 6418   4.756   6.186   2.422
 2159TIP3   OH2 6419   0.392   7.687   2.207
 2159TIP3    H1 6420   0.488   7.680   2.203
 2159TIP3    H2 6421   0.360   7.600   2.184
 2160TIP3   OH2 6422   3.056   7.096   0.999
 2160TIP3    H1 6423   3.009   7.132   1.075
 2160TIP3    H2 6424   2.987   7.064   0.942
 2161TIP3   OH2 6425   0.825   6.819   5.032
 2161TIP3    H1 6426   0.819   6.840   5.125
 2161TIP3    H2 6427   0.856   6.900   4.991
 2162TIP3   OH2 6428   0.785   1.977   5.110
 2162TIP3    H1 6429   0.858   1.938   5.062
 2162TIP3    H2 6430   0.737   2.026   5.044
 2163TIP3   OH2 6431   7.305   5.121   4.252
 2163TIP3    H1 6432   7.400   5.110   4.248
 2163TIP3    H2 6433   7.292   5.216   4.259
 2164TIP3   OH2 6434   7.431   3.746   2.110
 2164TIP3    H1 6435   7.354   3.705   2.072
 2164TIP3    H2 6436   7.453   3.692   2.186
 2165TIP3   OH2 6437   0.495   4.095   4.194
 2165TIP3    H1 6438   0.421   4.104   4.254
 2165TIP3    H2 6439   0.455   4.102   4.107
 2166TIP3   OH2 6440   4.750   6.111   3.565
 2166TIP3    H1 6441   4.745   6.056   3.486
 2166TIP3    H2 6442   4.722   6.054   3.636
 2167TIP3   OH2 6443   0.774   1.656   0.409
 2167TIP3    H1 6444   0.775   1.705   0.327
 2167TIP3    H2 6445   0.776   1.564   0.382
 2168TIP3   OH2 6446   3.346   7.385   2.392
 2168TIP3    H1 6447   3.434   7.348   2.388
 2168TIP3    H2 6448   3.345   7.438   2.472
 2169TIP3   OH2 6449   6.522   6.437   1.077
 2169TIP3    H1 6450   6.599   6.456   1.024
 2169TIP3    H2 6451   6.503   6.519   1.122
 2170TIP3   OH2 6452   4.205   5.085   6.599
 2170TIP3    H1 6453   4.121   5.126   6.617
 2170TIP3    H2 6454   4.200   5.059   6.507
 2171TIP3   OH2 6455   5.234   4.756   0.550
 2171TIP3    H1 6456   5.261   4.687   0.610
 2171TIP3    H2 6457   5.167   4.805   0.598
 2172TIP3   OH2 6458   2.465   3.896   2.108
 2172TIP3    H1 6459   2.401   3.900   2.179
 2172TIP3    H2 6460   2.541   3.852   2.148
 2173TIP3   OH2 6461   3.407   3.340   0.386
 2173TIP3    H1 6462   3.390   3.281   0.459
 2173TIP3    H2 6463   3.498   3.323   0.362
 2174TIP3   OH2 6464   0.106   2.200   5.106
 2174TIP3    H1 6465   0.014   2.227   5.098
 2174TIP3    H2 6466   0.114   2.124   5.049
 2175TIP3   OH2 6467   2.096   5.347   5.572
 2175TIP3    H1 6468   2.116   5.254   5.569
 2175TIP3    H2 6469   2.047   5.359   5.653
 2176TIP3   OH2 6470   6.178   1.192   6.826
 2176TIP3    H1 6471   6.259   1.165   6.784
 2176TIP3    H2 6472   6.127   1.232   6.756
 2177TIP3   OH2 6473   7.785   1.050   0.821
 2177TIP3    H1 6474   7.754   1.101   0.746
 2177TIP3    H2 6475   7.738   0.967   0.815
 2178TIP3   OH2 6476   3.203   1.737   0.591
 2178TIP3    H1 6477   3.249   1.797   0.531
 2178TIP3    H2 6478   3.129   1.788   0.623
 2179TIP3   OH2 6479   4.436   2.407   2.084
 2179TIP3    H1 6480   4.409   2.407   2.176
 2179TIP3    H2 6481   4.409   2.494   2.052
 2180TIP3   OH2 6482   1.959   7.348   5.625
 2180TIP3    H1 6483   2.014   7.379   5.552
 2180TIP3    H2 6484   1.931   7.428   5.669
 2181TIP3   OH2 6485   8.155   2.824   2.504
 2181TIP3    H1 6486   8.229   2.867   2.461
 2181TIP3    H2 6487   8.132   2.883   2.576
 2182TIP3   OH2 6488   3.898   4.262   4.648
 2182TIP3    H1 6489   3.921   4.275   4.556
 2182TIP3    H2 6490   3.957   4.320   4.695
 2183TIP3   OH2 6491   1.769   7.541   3.039
 2183TIP3    H1 6492   1.755   7.481   2.965
 2183TIP3    H2 6493   1.862   7.535   3.057
 2184TIP3   OH2 6494   7.535   0.431   6.509
 2184TIP3    H1 6495   7.476   0.465   6.441
 2184TIP3    H2 6496   7.562   0.345   6.476
 2185TIP3   OH2 6497   0.505   3.083   3.309
 2185TIP3    H1 6498   0.541   3.013   3.364
 2185TIP3    H2 6499   0.426   3.111   3.355
 2186TIP3   OH2 6500   6.845   4.124   4.420
 2186TIP3    H1 6501   6.937   4.126   4.444
 2186TIP3    H2 6502   6.837   4.191   4.352
 2187TIP3   OH2 6503   4.479   2.536   5.611
 2187TIP3    H1 6504   4.458   2.607   5.671
 2187TIP3    H2 6505   4.530   2.578   5.542
 2188TIP3   OH2 6506   6.915   7.789   3.585
 2188TIP3    H1 6507   7.000   7.778   3.542
 2188TIP3    H2 6508   6.891   7.701   3.614
 2189TIP3   OH2 6509   1.238   5.277   5.756
 2189TIP3    H1 6510   1.261   5.233   5.838
 2189TIP3    H2 6511   1.175   5.219   5.714
 2190TIP3   OH2 6512   7.684   5.068   0.560
 2190TIP3    H1 6513   7.760   5.030   0.605
 2190TIP3    H2 6514   7.721   5.141   0.510
 2191TIP3   OH2 6515   0.404   1.107   2.361
 2191TIP3    H1 6516   0.489   1.149   2.348
 2191TIP3    H2 6517   0.416   1.018   2.326
 2192TIP3   OH2 6518   7.941   4.949   1.261
 2192TIP3    H1 6519   7.925   5.042   1.279
 2192TIP3    H2 6520   7.872   4.903   1.308
 2193TIP3   OH2 6521   4.701   7.220   3.968
 2193TIP3    H1 6522   4.737   7.306   3.988
 2193TIP3    H2 6523   4.748   7.160   4.026
 2194TIP3   OH2 6524   0.112   5.173   3.778
 2194TIP3    H1 6525   0.116   5.223   3.860
 2194TIP3    H2 6526   0.029   5.125   3.784
 2195TIP3   OH2 6527   3.414   6.961   4.488
 2195TIP3    H1 6528   3.443   6.888   4.434
 2195TIP3    H2 6529   3.321   6.944   4.504
 2196TIP3   OH2 6530   7.205   6.131   0.812
 2196TIP3    H1 6531   7.247   6.047   0.791
 2196TIP3    H2 6532   7.144   6.146   0.740
 2197TIP3   OH2 6533   6.750   2.337   5.228
 2197TIP3    H1 6534   6.683   2.390   5.185
 2197TIP3    H2 6535   6.701   2.266   5.269
 2198TIP3   OH2 6536   1.805   3.117   2.783
 2198TIP3    H1 6537   1.800   3.034   2.830
 2198TIP3    H2 6538   1.797   3.093   2.691
 2199TIP3   OH2 6539   1.424   2.447   1.652
 2199TIP3    H1 6540   1.432   2.446   1.747
 2199TIP3    H2 6541   1.449   2.358   1.625
 2200TIP3   OH2 6542   6.517   4.592   1.336
 2200TIP3    H1 6543   6.600   4.624   1.372
 2200TIP3    H2 6544   6.521   4.616   1.243
 2201TIP3   OH2 6545   5.637   4.388   0.286
 2201TIP3    H1 6546   5.716   4.336   0.304
 2201TIP3    H2 6547   5.602   4.410   0.372
 2202TIP3   OH2 6548   6.722   7.497   4.732
 2202TIP3    H1 6549   6.714   7.407   4.702
 2202TIP3    H2 6550   6.640   7.515   4.778
 2203TIP3   OH2 6551   5.126   5.727   1.768
 2203TIP3    H1 6552   5.180   5.800   1.798
 2203TIP3    H2 6553   5.100   5.751   1.679
 2204TIP3   OH2 6554   8.001   7.520   2.842
 2204TIP3    H1 6555   7.914   7.549   2.811
 2204TIP3    H2 6556   8.029   7.457   2.776
 2205TIP3   OH2 6557   0.354   2.361   5.968
 2205TIP3    H1 6558   0.408   2.406   6.033
 2205TIP3    H2 6559   0.265   2.365   6.003
 2206TIP3   OH2 6560   0.263   6.145   2.006
 2206TIP3    H1 6561   0.205   6.211   1.968
 2206TIP3    H2 6562   0.205   6.088   2.057
 2207TIP3   OH2 6563   1.409   6.200   5.846
 2207TIP3    H1 6564   1.417   6.233   5.935
 2207TIP3    H2 6565   1.498   6.198   5.812
 2208TIP3   OH2 6566   4.943   2.655   4.256
 2208TIP3    H1 6567   4.850   2.677   4.261
 2208TIP3    H2 6568   4.963   2.617   4.341
 2209TIP3   OH2 6569   6.952   0.931   4.208
 2209TIP3    H1 6570   6.996   1.015   4.201
 2209TIP3    H2 6571   7.006   0.870   4.158
 2210TIP3   OH2 6572   5.183   5.256   4.164
 2210TIP3    H1 6573   5.133   5.237   4.085
 2210TIP3    H2 6574   5.203   5.169   4.200
 2211TIP3   OH2 6575   6.238   0.951   5.893
 2211TIP3    H1 6576   6.149   0.956   5.859
 2211TIP3    H2 6577   6.247   0.861   5.922
 2212TIP3   OH2 6578   4.391   7.282   1.414
 2212TIP3    H1 6579   4.311   7.334   1.428
 2212TIP3    H2 6580   4.372   7.198   1.456
 2213TIP3   OH2 6581   2.506   0.328   3.062
 2213TIP3    H1 6582   2.494   0.301   2.971
 2213TIP3    H2 6583   2.600   0.320   3.077
 2214TIP3   OH2 6584   3.245   4.796   0.438
 2214TIP3    H1 6585   3.316   4.782   0.375
 2214TIP3    H2 6586   3.279   4.760   0.520
 2215TIP3   OH2 6587   1.296   6.005   5.684
 2215TIP3    H1 6588   1.388   6.008   5.656
 2215TIP3    H2 6589   1.292   6.069   5.756
 2216TIP3   OH2 6590   2.426   5.968   0.078
 2216TIP3    H1 6591   2.375   6.044   0.049
 2216TIP3    H2 6592   2.424   5.973   0.174
 2217TIP3   OH2 6593   2.051   3.589   0.252
 2217TIP3    H1 6594   2.037   3.601   0.158
 2217TIP3    H2 6595   2.144   3.610   0.265
 2218TIP3   OH2 6596   4.002   6.043   6.468
 2218TIP3    H1 6597   3.953   6.010   6.542
 2218TIP3    H2 6598   4.005   6.137   6.480
 2219TIP3   OH2 6599   4.442   7.118   0.455
 2219TIP3    H1 6600   4.470   7.028   0.442
 2219TIP3    H2 6601   4.372   7.131   0.391
 2220TIP3   OH2 6602   2.304   2.145   5.641
 2220TIP3    H1 6603   2.391   2.146   5.682
 2220TIP3    H2 6604   2.256   2.214   5.685
 2221TIP3   OH2 6605   5.724   4.446   4.630
 2221TIP3    H1 6606   5.685   4.390   4.563
 2221TIP3    H2 6607   5.706   4.402   4.713
 2222TIP3   OH2 6608   2.183   6.132   0.475
 2222TIP3    H1 6609   2.112   6.093   0.526
 2222TIP3    H2 6610   2.218   6.201   0.532
 2223TIP3   OH2 6611   6.916   2.336   4.677
 2223TIP3    H1 6612   6.833   2.305   4.713
 2223TIP3    H2 6613   6.957   2.257   4.641
 2224TIP3   OH2 6614   7.864   2.133   4.555
 2224TIP3    H1 6615   7.784   2.150   4.605
 2224TIP3    H2 6616   7.886   2.042   4.575
 2225TIP3   OH2 6617   3.026   5.276   6.574
 2225TIP3    H1 6618   2.948   5.230   6.545
 2225TIP3    H2 6619   2.995   5.342   6.635
 2226TIP3   OH2 6620   5.766   1.575   2.470
 2226TIP3    H1 6621   5.786   1.654   2.419
 2226TIP3    H2 6622   5.851   1.544   2.500
 2227TIP3   OH2 6623   2.690   1.011   1.470
 2227TIP3    H1 6624   2.742   1.031   1.548
 2227TIP3    H2 6625   2.703   1.086   1.412
 2228TIP3   OH2 6626   3.979   4.634   0.559
 2228TIP3    H1 6627   3.884   4.633   0.574
 2228TIP3    H2 6628   4.006   4.722   0.585
 2229TIP3   OH2 6629   1.703   4.833   3.067
 2229TIP3    H1 6630   1.757   4.884   3.007
 2229TIP3    H2 6631   1.622   4.884   3.075
 2230TIP3   OH2 6632   7.053   1.105   3.352
 2230TIP3    H1 6633   6.959   1.095   3.336
 2230TIP3    H2 6634   7.073   1.040   3.420
 2231TIP3   OH2 6635   4.469   0.878   1.752
 2231TIP3    H1 6636   4.471   0.859   1.846
 2231TIP3    H2 6637   4.443   0.796   1.711
 2232TIP3   OH2 6638   2.285   2.893   5.451
 2232TIP3    H1 6639   2.267   2.809   5.408
 2232TIP3    H2 6640   2.251   2.959   5.390
 2233TIP3   OH2 6641   8.144   7.155   2.156
 2233TIP3    H1 6642   8.216   7.106   2.196
 2233TIP3    H2 6643   8.178   7.244   2.146
 2234TIP3   OH2 6644   6.146   4.422   1.912
 2234TIP3    H1 6645   6.133   4.334   1.947
 2234TIP3    H2 6646   6.170   4.408   1.820
 2235TIP3   OH2 6647   3.854   3.081   2.410
 2235TIP3    H1 6648   3.879   3.087   2.318
 2235TIP3    H2 6649   3.887   2.996   2.438
 2236TIP3   OH2 6650   6.278   2.054   2.082
 2236TIP3    H1 6651   6.285   1.961   2.060
 2236TIP3    H2 6652   6.246   2.055   2.172
 2237TIP3   OH2 6653   4.402   6.313   4.153
 2237TIP3    H1 6654   4.428   6.297   4.243
 2237TIP3    H2 6655   4.367   6.229   4.123
 2238TIP3   OH2 6656   1.709   4.246   4.525
 2238TIP3    H1 6657   1.649   4.292   4.467
 2238TIP3    H2 6658   1.794   4.287   4.510
 2239TIP3   OH2 6659   1.924   6.708   5.834
 2239TIP3    H1 6660   1.955   6.668   5.753
 2239TIP3    H2 6661   1.850   6.654   5.861
 2240TIP3   OH2 6662   2.431   1.261   5.870
 2240TIP3    H1 6663   2.434   1.180   5.922
 2240TIP3    H2 6664   2.376   1.320   5.921
 2241TIP3   OH2 6665   2.639   6.940   0.642
 2241TIP3    H1 6666   2.669   6.850   0.654
 2241TIP3    H2 6667   2.547   6.931   0.616
 2242TIP3   OH2 6668   0.201   7.200   3.036
 2242TIP3    H1 6669   0.193   7.280   2.984
 2242TIP3    H2 6670   0.287   7.164   3.011
 2243TIP3   OH2 6671   7.197   6.863   1.652
 2243TIP3    H1 6672   7.175   6.815   1.732
 2243TIP3    H2 6673   7.151   6.946   1.660
 2244TIP3   OH2 6674   4.542   7.190   5.544
 2244TIP3    H1 6675   4.545   7.182   5.640
 2244TIP3    H2 6676   4.525   7.282   5.528
 2245TIP3   OH2 6677   3.234   4.297   4.724
 2245TIP3    H1 6678   3.273   4.383   4.709
 2245TIP3    H2 6679   3.196   4.272   4.640
 2246TIP3   OH2 6680   7.883   3.344   0.738
 2246TIP3    H1 6681   7.825   3.415   0.713
 2246TIP3    H2 6682   7.834   3.264   0.718
 2247TIP3   OH2 6683   0.704   1.002   0.133
 2247TIP3    H1 6684   0.747   0.930   0.085
 2247TIP3    H2 6685   0.697   1.072   0.068
 2248TIP3   OH2 6686   4.765   6.872   4.887
 2248TIP3    H1 6687   4.722   6.916   4.960
 2248TIP3    H2 6688   4.693   6.837   4.835
 2249TIP3   OH2 6689   4.416   3.152   2.207
 2249TIP3    H1 6690   4.508   3.156   2.180
 2249TIP3    H2 6691   4.412   3.203   2.287
 2250TIP3   OH2 6692   0.924   1.960   2.957
 2250TIP3    H1 6693   0.907   2.020   3.029
 2250TIP3    H2 6694   0.926   1.873   2.997
 2251TIP3   OH2 6695   3.609   2.531   2.426
 2251TIP3    H1 6696   3.574   2.479   2.354
 2251TIP3    H2 6697   3.702   2.510   2.428
 2252TIP3   OH2 6698   7.728   7.599   5.513
 2252TIP3    H1 6699   7.822   7.585   5.514
 2252TIP3    H2 6700   7.718   7.695   5.513
 2253TIP3   OH2 6701   4.211   1.072   1.775
 2253TIP3    H1 6702   4.221   0.994   1.719
 2253TIP3    H2 6703   4.270   1.057   1.849
 2254TIP3   OH2 6704   5.871   2.712   1.618
 2254TIP3    H1 6705   5.841   2.803   1.617
 2254TIP3    H2 6706   5.935   2.707   1.547
 2255TIP3   OH2 6707   3.595   1.222   2.182
 2255TIP3    H1 6708   3.674   1.276   2.182
 2255TIP3    H2 6709   3.591   1.184   2.270
 2256TIP3   OH2 6710   2.281   2.453   5.682
 2256TIP3    H1 6711   2.375   2.445   5.669
 2256TIP3    H2 6712   2.266   2.547   5.695
 2257TIP3   OH2 6713   4.706   1.122   3.597
 2257TIP3    H1 6714   4.656   1.187   3.646
 2257TIP3    H2 6715   4.652   1.043   3.601
 2258TIP3   OH2 6716   0.078   6.395   2.352
 2258TIP3    H1 6717   0.117   6.477   2.382
 2258TIP3    H2 6718   0.099   6.390   2.259
 2259TIP3   OH2 6719   4.641   3.227   3.898
 2259TIP3    H1 6720   4.547   3.216   3.883
 2259TIP3    H2 6721   4.670   3.142   3.933
 2260TIP3   OH2 6722   0.283   2.525   4.576
 2260TIP3    H1 6723   0.216   2.464   4.606
 2260TIP3    H2 6724   0.359   2.470   4.558
 2261TIP3   OH2 6725   4.605   7.598   5.678
 2261TIP3    H1 6726   4.549   7.640   5.743
 2261TIP3    H2 6727   4.586   7.504   5.687
 2262TIP3   OH2 6728   4.081   7.408   0.433
 2262TIP3    H1 6729   4.032   7.472   0.382
 2262TIP3    H2 6730   4.079   7.442   0.522
 2263TIP3   OH2 6731   2.753   5.235   0.000
 2263TIP3    H1 6732   2.816   5.256  -0.069
 2263TIP3    H2 6733   2.800   5.172   0.056
 2264TIP3   OH2 6734   4.095   5.289   5.527
 2264TIP3    H1 6735   4.025   5.313   5.466
 2264TIP3    H2 6736   4.174   5.291   5.474
 2265TIP3   OH2 6737   2.683   0.761   0.213
 2265TIP3    H1 6738   2.621   0.708   0.164
 2265TIP3    H2 6739   2.638   0.843   0.230
 2266TIP3   OH2 6740   2.690   5.975   4.240
 2266TIP3    H1 6741   2.735   5.994   4.321
 2266TIP3    H2 6742   2.760   5.949   4.179
 2267TIP3   OH2 6743   3.688   3.179   6.788
 2267TIP3    H1 6744   3.603   3.216   6.766
 2267TIP3    H2 6745   3.668   3.097   6.833
 2268TIP3   OH2 6746   5.256   1.179   3.567
 2268TIP3    H1 6747   5.237   1.271   3.548
 2268TIP3    H2 6748   5.254   1.174   3.663
 2269TIP3   OH2 6749   1.844   0.549   5.005
 2269TIP3    H1 6750   1.764   0.501   4.982
 2269TIP3    H2 6751   1.829   0.578   5.095
 2270TIP3   OH2 6752   8.326   7.685   5.908
 2270TIP3    H1 6753   8.334   7.598   5.869
 2270TIP3    H2 6754   8.290   7.670   5.995
 2271TIP3   OH2 6755   0.600   0.119   4.505
 2271TIP3    H1 6756   0.540   0.188   4.535
 2271TIP3    H2 6757   0.544   0.058   4.457
 2272TIP3   OH2 6758   1.943   6.962   1.223
 2272TIP3    H1 6759   1.901   7.006   1.296
 2272TIP3    H2 6760   1.939   7.026   1.151
 2273TIP3   OH2 6761   2.182   6.931   4.286
 2273TIP3    H1 6762   2.270   6.943   4.322
 2273TIP3    H2 6763   2.190   6.854   4.229
 2274TIP3   OH2 6764   1.022   6.435   2.349
 2274TIP3    H1 6765   0.935   6.407   2.377
 2274TIP3    H2 6766   1.050   6.368   2.286
 2275TIP3   OH2 6767   0.103   6.344   0.532
 2275TIP3    H1 6768   0.197   6.357   0.521
 2275TIP3    H2 6769   0.069   6.344   0.442
 2276TIP3   OH2 6770   6.616   0.272   2.067
 2276TIP3    H1 6771   6.694   0.227   2.098
 2276TIP3    H2 6772   6.631   0.284   1.973
 2277TIP3   OH2 6773   4.642   6.040   5.997
 2277TIP3    H1 6774   4.681   6.123   6.025
 2277TIP3    H2 6775   4.712   5.976   6.009
 2278TIP3   OH2 6776   4.488   4.396   1.642
 2278TIP3    H1 6777   4.401   4.391   1.681
 2278TIP3    H2 6778   4.503   4.308   1.606
 2279TIP3   OH2 6779   3.579   5.486   6.737
 2279TIP3    H1 6780   3.497   5.461   6.695
 2279TIP3    H2 6781   3.647   5.440   6.689
 2280TIP3   OH2 6782   5.146   3.263   5.629
 2280TIP3    H1 6783   5.126   3.316   5.706
 2280TIP3    H2 6784   5.170   3.326   5.562
 2281TIP3   OH2 6785   0.699   7.453   5.946
 2281TIP3    H1 6786   0.670   7.363   5.931
 2281TIP3    H2 6787   0.749   7.476   5.867
 2282TIP3   OH2 6788   6.028   0.857   0.436
 2282TIP3    H1 6789   6.040   0.781   0.380
 2282TIP3    H2 6790   5.982   0.824   0.513
 2283TIP3   OH2 6791   5.701   6.009   0.149
 2283TIP3    H1 6792   5.770   6.040   0.090
 2283TIP3    H2 6793   5.621   6.045   0.113
 2284TIP3   OH2 6794   4.448   1.029   3.326
 2284TIP3    H1 6795   4.408   0.963   3.270
 2284TIP3    H2 6796   4.520   1.064   3.274
 2285TIP3   OH2 6797   5.745   0.158   5.687
 2285TIP3    H1 6798   5.742   0.175   5.593
 2285TIP3    H2 6799   5.673   0.096   5.702
 2286TIP3   OH2 6800   7.523   7.260   0.341
 2286TIP3    H1 6801   7.529   7.355   0.345
 2286TIP3    H2 6802   7.463   7.242   0.269
 2287TIP3   OH2 6803   0.324   1.238   1.496
 2287TIP3    H1 6804   0.331   1.143   1.505
 2287TIP3    H2 6805   0.230   1.256   1.492
 2288TIP3   OH2 6806   5.797   4.084   5.096
 2288TIP3    H1 6807   5.844   4.011   5.055
 2288TIP3    H2 6808   5.854   4.160   5.082
 2289TIP3   OH2 6809   0.571   5.208   5.707
 2289TIP3    H1 6810   0.595   5.143   5.773
 2289TIP3    H2 6811   0.512   5.268   5.753
 2290TIP3   OH2 6812   7.932   6.865   3.492
 2290TIP3    H1 6813   8.019   6.825   3.486
 2290TIP3    H2 6814   7.947   6.949   3.535
 2291TIP3   OH2 6815   7.692   0.745   4.229
 2291TIP3    H1 6816   7.693   0.730   4.324
 2291TIP3    H2 6817   7.605   0.781   4.211
 2292TIP3   OH2 6818   2.344   2.613   3.775
 2292TIP3    H1 6819   2.265   2.656   3.740
 2292TIP3    H2 6820   2.365   2.547   3.709
 2293TIP3   OH2 6821   5.827   3.035   2.093
 2293TIP3    H1 6822   5.769   3.091   2.144
 2293TIP3    H2 6823   5.863   3.093   2.025
 2294TIP3   OH2 6824   7.365   3.871   2.359
 2294TIP3    H1 6825   7.373   3.780   2.390
 2294TIP3    H2 6826   7.401   3.869   2.271
 2295TIP3   OH2 6827   5.356   1.629   6.242
 2295TIP3    H1 6828   5.355   1.635   6.338
 2295TIP3    H2 6829   5.385   1.715   6.213
 2296TIP3   OH2 6830   0.597   2.770   3.162
 2296TIP3    H1 6831   0.552   2.693   3.196
 2296TIP3    H2 6832   0.531   2.840   3.165
 2297TIP3   OH2 6833   5.837   3.358   2.132
 2297TIP3    H1 6834   5.801   3.298   2.197
 2297TIP3    H2 6835   5.776   3.355   2.059
 2298TIP3   OH2 6836   4.288   0.621   0.643
 2298TIP3    H1 6837   4.290   0.658   0.731
 2298TIP3    H2 6838   4.244   0.689   0.591
 2299TIP3   OH2 6839   8.178   6.123   2.284
 2299TIP3    H1 6840   8.240   6.075   2.229
 2299TIP3    H2 6841   8.092   6.100   2.249
 2300TIP3   OH2 6842   0.720   4.115   4.481
 2300TIP3    H1 6843   0.747   4.072   4.562
 2300TIP3    H2 6844   0.743   4.207   4.493
 2301TIP3   OH2 6845   1.418   1.636   2.868
 2301TIP3    H1 6846   1.456   1.606   2.950
 2301TIP3    H2 6847   1.463   1.586   2.800
 2302TIP3   OH2 6848   7.766   4.586   6.673
 2302TIP3    H1 6849   7.691   4.637   6.703
 2302TIP3    H2 6850   7.750   4.498   6.705
 2303TIP3   OH2 6851   2.974   4.437   0.759
 2303TIP3    H1 6852   2.958   4.457   0.667
 2303TIP3    H2 6853   2.997   4.344   0.761
 2304TIP3   OH2 6854   6.224   0.688   5.267
 2304TIP3    H1 6855   6.232   0.713   5.175
 2304TIP3    H2 6856   6.187   0.765   5.309
 2305TIP3   OH2 6857   5.328   5.006   2.577
 2305TIP3    H1 6858   5.334   5.089   2.624
 2305TIP3    H2 6859   5.258   4.958   2.623
 2306TIP3   OH2 6860   7.765   1.593   2.144
 2306TIP3    H1 6861   7.772   1.510   2.191
 2306TIP3    H2 6862   7.690   1.637   2.184
 2307TIP3   OH2 6863   3.410   1.964   6.509
 2307TIP3    H1 6864   3.404   1.996   6.599
 2307TIP3    H2 6865   3.349   2.019   6.459
 2308TIP3   OH2 6866   1.904   3.577   6.204
 2308TIP3    H1 6867   1.982   3.613   6.246
 2308TIP3    H2 6868   1.907   3.611   6.114
 2309TIP3   OH2 6869   0.983   0.631   1.426
 2309TIP3    H1 6870   1.010   0.687   1.353
 2309TIP3    H2 6871   0.950   0.551   1.384
 2310TIP3   OH2 6872   0.518   5.795   4.319
 2310TIP3    H1 6873   0.586   5.748   4.367
 2310TIP3    H2 6874   0.441   5.738   4.324
 2311TIP3   OH2 6875   4.346   4.077   2.973
 2311TIP3    H1 6876   4.357   4.027   3.054
 2311TIP3    H2 6877   4.413   4.146   2.979
 2312TIP3   OH2 6878   6.768   6.076   1.036
 2312TIP3    H1 6879   6.851   6.123   1.043
 2312TIP3    H2 6880   6.757   6.063   0.941
 2313TIP3   OH2 6881   3.716   3.156   4.977
 2313TIP3    H1 6882   3.679   3.145   4.889
 2313TIP3    H2 6883   3.655   3.109   5.034
 2314TIP3   OH2 6884   1.241   3.892   4.509
 2314TIP3    H1 6885   1.262   3.800   4.494
 2314TIP3    H2 6886   1.207   3.895   4.599
 2315TIP3   OH2 6887   2.497   6.109   5.980
 2315TIP3    H1 6888   2.494   6.199   5.950
 2315TIP3    H2 6889   2.585   6.099   6.017
 2316TIP3   OH2 6890   4.959   5.057   2.533
 2316TIP3    H1 6891   4.938   5.151   2.543
 2316TIP3    H2 6892   5.049   5.055   2.503
 2317TIP3   OH2 6893   6.848   6.734   0.360
 2317TIP3    H1 6894   6.761   6.712   0.328
 2317TIP3    H2 6895   6.895   6.765   0.282
 2318TIP3   OH2 6896   4.324   5.982   1.960
 2318TIP3    H1 6897   4.261   5.910   1.954
 2318TIP3    H2 6898   4.273   6.056   1.993
 2319TIP3   OH2 6899   5.309   7.368   0.709
 2319TIP3    H1 6900   5.234   7.344   0.763
 2319TIP3    H2 6901   5.380   7.383   0.772
 2320TIP3   OH2 6902   7.287   5.207   4.838
 2320TIP3    H1 6903   7.291   5.189   4.932
 2320TIP3    H2 6904   7.375   5.188   4.806
 2321TIP3   OH2 6905   8.087   0.523   4.488
 2321TIP3    H1 6906   8.123   0.535   4.400
 2321TIP3    H2 6907   8.037   0.442   4.482
 2322TIP3   OH2 6908   6.353   0.462   3.584
 2322TIP3    H1 6909   6.391   0.457   3.496
 2322TIP3    H2 6910   6.423   0.498   3.638
 2323TIP3   OH2 6911   4.525   0.702   5.855
 2323TIP3    H1 6912   4.486   0.709   5.942
 2323TIP3    H2 6913   4.515   0.789   5.817
 2324TIP3   OH2 6914   3.986   6.511   1.925
 2324TIP3    H1 6915   3.983   6.436   1.984
 2324TIP3    H2 6916   3.894   6.529   1.904
 2325TIP3   OH2 6917   1.895   0.257   5.108
 2325TIP3    H1 6918   1.873   0.165   5.092
 2325TIP3    H2 6919   1.888   0.298   5.022
 2326TIP3   OH2 6920   5.932   7.639   1.410
 2326TIP3    H1 6921   6.001   7.673   1.468
 2326TIP3    H2 6922   5.976   7.573   1.357
 2327TIP3   OH2 6923   5.406   2.145   1.956
 2327TIP3    H1 6924   5.404   2.213   2.024
 2327TIP3    H2 6925   5.449   2.187   1.881
 2328TIP3   OH2 6926   1.565   2.213   3.259
 2328TIP3    H1 6927   1.550   2.122   3.286
 2328TIP3    H2 6928   1.514   2.265   3.320
 2329TIP3   OH2 6929   7.668   3.011   6.667
 2329TIP3    H1 6930   7.619   3.027   6.586
 2329TIP3    H2 6931   7.643   2.922   6.693
 2330TIP3   OH2 6932   0.692   1.899   0.015
 2330TIP3    H1 6933   0.609   1.868  -0.021
 2330TIP3    H2 6934   0.680   1.994   0.025
 2331TIP3   OH2 6935   6.088   3.511   5.637
 2331TIP3    H1 6936   6.116   3.436   5.586
 2331TIP3    H2 6937   6.056   3.473   5.719
 2332TIP3   OH2 6938   1.193   4.777   1.147
 2332TIP3    H1 6939   1.193   4.872   1.135
 2332TIP3    H2 6940   1.196   4.742   1.058
 2333TIP3   OH2 6941   2.255   2.849   3.341
 2333TIP3    H1 6942   2.319   2.780   3.359
 2333TIP3    H2 6943   2.303   2.913   3.288
 2334TIP3   OH2 6944   6.179   3.086   5.975
 2334TIP3    H1 6945   6.181   3.068   6.069
 2334TIP3    H2 6946   6.139   3.008   5.936
 2335TIP3   OH2 6947   3.404   5.318   3.526
 2335TIP3    H1 6948   3.497   5.300   3.516
 2335TIP3    H2 6949   3.364   5.233   3.542
 2336TIP3   OH2 6950   7.848   4.248   3.584
 2336TIP3    H1 6951   7.862   4.156   3.606
 2336TIP3    H2 6952   7.827   4.247   3.491
 2337TIP3   OH2 6953   6.654   3.061   0.188
 2337TIP3    H1 6954   6.577   3.112   0.165
 2337TIP3    H2 6955   6.680   3.020   0.105
 2338TIP3   OH2 6956   1.844   4.696   2.788
 2338TIP3    H1 6957   1.896   4.670   2.864
 2338TIP3    H2 6958   1.774   4.630   2.784
 2339TIP3   OH2 6959   3.654   7.408   3.559
 2339TIP3    H1 6960   3.716   7.449   3.499
 2339TIP3    H2 6961   3.705   7.343   3.606
 2340TIP3   OH2 6962   7.348   4.997   2.702
 2340TIP3    H1 6963   7.357   4.903   2.721
 2340TIP3    H2 6964   7.256   5.016   2.720
 2341TIP3   OH2 6965   5.918   0.622   5.610
 2341TIP3    H1 6966   5.863   0.649   5.684
 2341TIP3    H2 6967   5.856   0.599   5.541
 2342TIP3   OH2 6968   0.982   3.975   3.591
 2342TIP3    H1 6969   1.000   3.941   3.679
 2342TIP3    H2 6970   1.056   4.033   3.572
 2343TIP3   OH2 6971   7.598   3.026   2.507
 2343TIP3    H1 6972   7.535   2.957   2.487
 2343TIP3    H2 6973   7.625   3.059   2.421
 2344TIP3   OH2 6974   2.558   1.782   2.190
 2344TIP3    H1 6975   2.652   1.766   2.194
 2344TIP3    H2 6976   2.518   1.699   2.213
 2345TIP3   OH2 6977   3.186   3.060   2.313
 2345TIP3    H1 6978   3.117   2.995   2.328
 2345TIP3    H2 6979   3.260   3.028   2.364
 2346TIP3   OH2 6980   0.537   4.599   5.572
 2346TIP3    H1 6981   0.507   4.665   5.634
 2346TIP3    H2 6982   0.602   4.548   5.621
 2347TIP3   OH2 6983   3.306   6.760   5.416
 2347TIP3    H1 6984   3.263   6.674   5.411
 2347TIP3    H2 6985   3.366   6.751   5.490
 2348TIP3   OH2 6986   4.290   7.743   2.996
 2348TIP3    H1 6987   4.232   7.735   3.073
 2348TIP3    H2 6988   4.305   7.653   2.968
 2349TIP3   OH2 6989   8.083   5.412   6.612
 2349TIP3    H1 6990   8.005   5.399   6.559
 2349TIP3    H2 6991   8.151   5.436   6.549
 2350TIP3   OH2 6992   1.978   0.303   2.490
 2350TIP3    H1 6993   1.959   0.397   2.493
 2350TIP3    H2 6994   1.932   0.271   2.412
 2351TIP3   OH2 6995   3.231   6.360   0.511
 2351TIP3    H1 6996   3.195   6.286   0.559
 2351TIP3    H2 6997   3.298   6.322   0.455
 2352TIP3   OH2 6998   0.052   3.118   0.046
 2352TIP3    H1 6999   0.025   3.185  -0.016
 2352TIP3    H2 7000   0.027   3.035   0.004
 2353TIP3   OH2 7001   6.485   6.215   3.127
 2353TIP3    H1 7002   6.419   6.175   3.183
 2353TIP3    H2 7003   6.477   6.169   3.044
 2354TIP3   OH2 7004   5.371   2.935   0.062
 2354TIP3    H1 7005   5.453   2.982   0.047
 2354TIP3    H2 7006   5.393   2.843   0.052
 2355TIP3   OH2 7007   7.327   0.815   1.629
 2355TIP3    H1 7008   7.267   0.770   1.570
 2355TIP3    H2 7009   7.276   0.829   1.709
 2356TIP3   OH2 7010   0.263   2.299   0.549
 2356TIP3    H1 7011   0.255   2.337   0.462
 2356TIP3    H2 7012   0.205   2.351   0.605
 2357TIP3   OH2 7013   4.514   3.496   4.726
 2357TIP3    H1 7014   4.445   3.498   4.792
 2357TIP3    H2 7015   4.522   3.404   4.701
 2358TIP3   OH2 7016   5.374   5.588   5.626
 2358TIP3    H1 7017   5.300   5.609   5.570
 2358TIP3    H2 7018   5.444   5.647   5.597
 2359TIP3   OH2 7019   4.811   1.963   4.052
 2359TIP3    H1 7020   4.727   2.003   4.030
 2359TIP3    H2 7021   4.793   1.910   4.130
 2360TIP3   OH2 7022   1.329   7.112   0.163
 2360TIP3    H1 7023   1.285   7.031   0.189
 2360TIP3    H2 7024   1.282   7.141   0.085
 2361TIP3   OH2 7025   4.565   0.071   3.033
 2361TIP3    H1 7026   4.569   0.073   3.129
 2361TIP3    H2 7027   4.629   0.138   3.006
 2362TIP3   OH2 7028   2.825   1.732   5.986
 2362TIP3    H1 7029   2.856   1.822   5.996
 2362TIP3    H2 7030   2.732   1.741   5.963
 2363TIP3   OH2 7031   0.784   1.937   1.267
 2363TIP3    H1 7032   0.876   1.962   1.259
 2363TIP3    H2 7033   0.787   1.844   1.290
 2364TIP3   OH2 7034   3.154   5.520   5.597
 2364TIP3    H1 7035   3.150   5.616   5.597
 2364TIP3    H2 7036   3.191   5.498   5.683
 2365TIP3   OH2 7037   6.677   3.472   1.354
 2365TIP3    H1 7038   6.661   3.551   1.302
 2365TIP3    H2 7039   6.737   3.501   1.423
 2366TIP3   OH2 7040   4.199   3.653   1.797
 2366TIP3    H1 7041   4.175   3.648   1.704
 2366TIP3    H2 7042   4.253   3.732   1.803
 2367TIP3   OH2 7043   2.560   7.336   2.541
 2367TIP3    H1 7044   2.642   7.336   2.590
 2367TIP3    H2 7045   2.581   7.376   2.457
 2368TIP3   OH2 7046   6.447   3.028   2.464
 2368TIP3    H1 7047   6.530   3.076   2.461
 2368TIP3    H2 7048   6.447   2.975   2.385
 2369TIP3   OH2 7049   0.684   5.545   3.647
 2369TIP3    H1 7050   0.766   5.505   3.675
 2369TIP3    H2 7051   0.648   5.485   3.582
 2370TIP3   OH2 7052   2.380   3.888   3.501
 2370TIP3    H1 7053   2.409   3.821   3.439
 2370TIP3    H2 7054   2.398   3.852   3.587
 2371TIP3   OH2 7055   2.043   5.734   1.015
 2371TIP3    H1 7056   2.036   5.706   0.924
 2371TIP3    H2 7057   1.954   5.729   1.049
 2372TIP3   OH2 7058   7.246   1.760   4.476
 2372TIP3    H1 7059   7.305   1.696   4.516
 2372TIP3    H2 7060   7.297   1.800   4.406
 2373TIP3   OH2 7061   7.286   6.181   4.559
 2373TIP3    H1 7062   7.245   6.102   4.524
 2373TIP3    H2 7063   7.347   6.210   4.491
 2374TIP3   OH2 7064   6.303   5.002   6.694
 2374TIP3    H1 7065   6.313   5.058   6.617
 2374TIP3    H2 7066   6.380   5.021   6.748
 2375TIP3   OH2 7067   3.692   3.452   4.315
 2375TIP3    H1 7068   3.613   3.445   4.261
 2375TIP3    H2 7069   3.738   3.528   4.279
 2376TIP3   OH2 7070   3.806   0.343   0.601
 2376TIP3    H1 7071   3.787   0.435   0.622
 2376TIP3    H2 7072   3.744   0.293   0.654
 2377TIP3   OH2 7073   3.251   3.782   0.858
 2377TIP3    H1 7074   3.313   3.710   0.841
 2377TIP3    H2 7075   3.245   3.786   0.953
 2378TIP3   OH2 7076   5.197   7.561   4.167
 2378TIP3    H1 7077   5.145   7.599   4.096
 2378TIP3    H2 7078   5.168   7.608   4.245
 2379TIP3   OH2 7079   2.990   2.431   2.224
 2379TIP3    H1 7080   2.947   2.347   2.241
 2379TIP3    H2 7081   3.053   2.440   2.295
 2380TIP3   OH2 7082   5.705   0.329   0.244
 2380TIP3    H1 7083   5.773   0.262   0.255
 2380TIP3    H2 7084   5.745   0.409   0.277
 2381TIP3   OH2 7085   6.163   3.920   4.259
 2381TIP3    H1 7086   6.177   3.999   4.207
 2381TIP3    H2 7087   6.128   3.856   4.197
 2382TIP3   OH2 7088   6.829   6.767   5.732
 2382TIP3    H1 7089   6.830   6.673   5.720
 2382TIP3    H2 7090   6.773   6.781   5.809
 2383TIP3   OH2 7091   0.871   6.884   6.036
 2383TIP3    H1 7092   0.909   6.972   6.043
 2383TIP3    H2 7093   0.940   6.826   6.068
 2384TIP3   OH2 7094   7.358   2.810   4.960
 2384TIP3    H1 7095   7.365   2.760   4.879
 2384TIP3    H2 7096   7.270   2.792   4.993
 2385TIP3   OH2 7097   4.337   7.234   1.111
 2385TIP3    H1 7098   4.247   7.211   1.131
 2385TIP3    H2 7099   4.372   7.270   1.193
 2386TIP3   OH2 7100   0.632   0.207   0.113
 2386TIP3    H1 7101   0.636   0.189   0.207
 2386TIP3    H2 7102   0.670   0.129   0.072
 2387TIP3   OH2 7103   7.078   6.517   0.221
 2387TIP3    H1 7104   7.090   6.562   0.137
 2387TIP3    H2 7105   7.159   6.468   0.233
 2388TIP3   OH2 7106   5.375   3.379   1.421
 2388TIP3    H1 7107   5.326   3.335   1.351
 2388TIP3    H2 7108   5.415   3.308   1.471
 2389TIP3   OH2 7109   0.842   5.174   0.331
 2389TIP3    H1 7110   0.771   5.139   0.385
 2389TIP3    H2 7111   0.803   5.186   0.245
 2390TIP3   OH2 7112   8.007   4.580   2.583
 2390TIP3    H1 7113   8.098   4.597   2.559
 2390TIP3    H2 7114   7.957   4.646   2.535
 2391TIP3   OH2 7115   7.430   7.098   2.782
 2391TIP3    H1 7116   7.509   7.138   2.817
 2391TIP3    H2 7117   7.449   7.005   2.779
 2392TIP3   OH2 7118   5.474   4.181   5.727
 2392TIP3    H1 7119   5.548   4.146   5.677
 2392TIP3    H2 7120   5.499   4.271   5.746
 2393TIP3   OH2 7121   7.053   3.167   4.307
 2393TIP3    H1 7122   6.993   3.111   4.357
 2393TIP3    H2 7123   7.076   3.238   4.368
 2394TIP3   OH2 7124   4.697   4.308   0.683
 2394TIP3    H1 7125   4.616   4.353   0.705
 2394TIP3    H2 7126   4.705   4.318   0.588
 2395TIP3   OH2 7127   0.555   6.369   4.050
 2395TIP3    H1 7128   0.496   6.295   4.066
 2395TIP3    H2 7129   0.568   6.407   4.137
 2396TIP3   OH2 7130   6.614   5.844   2.982
 2396TIP3    H1 7131   6.531   5.840   2.935
 2396TIP3    H2 7132   6.681   5.838   2.914
 2397TIP3   OH2 7133   2.207   5.092   2.003
 2397TIP3    H1 7134   2.178   5.145   2.078
 2397TIP3    H2 7135   2.128   5.079   1.951
 2398TIP3   OH2 7136   1.033   5.189   2.470
 2398TIP3    H1 7137   1.030   5.100   2.437
 2398TIP3    H2 7138   1.015   5.244   2.394
 2399TIP3   OH2 7139   7.131   4.291   2.929
 2399TIP3    H1 7140   7.143   4.274   3.023
 2399TIP3    H2 7141   7.213   4.260   2.889
 2400TIP3   OH2 7142   1.621   7.400   6.289
 2400TIP3    H1 7143   1.675   7.339   6.239
 2400TIP3    H2 7144   1.545   7.349   6.316
 2401TIP3   OH2 7145   7.020   6.190   1.035
 2401TIP3    H1 7146   7.037   6.279   1.066
 2401TIP3    H2 7147   7.064   6.185   0.950
 2402TIP3   OH2 7148   2.822   5.513   0.420
 2402TIP3    H1 7149   2.786   5.426   0.438
 2402TIP3    H2 7150   2.857   5.542   0.504
 2403TIP3   OH2 7151   6.011   2.839   5.162
 2403TIP3    H1 7152   5.933   2.850   5.216
 2403TIP3    H2 7153   6.081   2.881   5.213
 2404TIP3   OH2 7154   7.167   3.329   5.969
 2404TIP3    H1 7155   7.146   3.371   6.053
 2404TIP3    H2 7156   7.091   3.348   5.914
 2405TIP3   OH2 7157   7.790   3.045   0.757
 2405TIP3    H1 7158   7.879   3.010   0.746
 2405TIP3    H2 7159   7.785   3.070   0.849
 2406TIP3   OH2 7160   1.145   2.933   2.140
 2406TIP3    H1 7161   1.053   2.935   2.169
 2406TIP3    H2 7162   1.176   2.847   2.166
 2407TIP3   OH2 7163   0.847   7.097   0.122
 2407TIP3    H1 7164   0.911   7.158   0.159
 2407TIP3    H2 7165   0.898   7.042   0.063
 2408TIP3   OH2 7166   5.314   7.188   3.464
 2408TIP3    H1 7167   5.386   7.184   3.527
 2408TIP3    H2 7168   5.346   7.245   3.394
 2409TIP3   OH2 7169   4.090   3.235   0.334
 2409TIP3    H1 7170   4.159   3.218   0.398
 2409TIP3    H2 7171   4.023   3.169   0.353
 2410TIP3   OH2 7172   8.292   5.321   1.037
 2410TIP3    H1 7173   8.251   5.385   1.096
 2410TIP3    H2 7174   8.312   5.371   0.958
 2411TIP3   OH2 7175   4.382   7.495   2.921
 2411TIP3    H1 7176   4.466   7.520   2.960
 2411TIP3    H2 7177   4.369   7.404   2.948
 2412TIP3   OH2 7178   6.566   4.964   6.113
 2412TIP3    H1 7179   6.549   4.871   6.099
 2412TIP3    H2 7180   6.505   5.008   6.054
 2413TIP3   OH2 7181   5.320   3.904   0.686
 2413TIP3    H1 7182   5.372   3.888   0.765
 2413TIP3    H2 7183   5.383   3.932   0.620
 2414TIP3   OH2 7184   3.714   5.130   4.259
 2414TIP3    H1 7185   3.691   5.209   4.209
 2414TIP3    H2 7186   3.808   5.120   4.246
 2415TIP3   OH2 7187   5.241   5.270   2.402
 2415TIP3    H1 7188   5.287   5.303   2.480
 2415TIP3    H2 7189   5.162   5.324   2.397
 2416TIP3   OH2 7190   1.699   4.059   2.833
 2416TIP3    H1 7191   1.734   4.112   2.761
 2416TIP3    H2 7192   1.605   4.079   2.833
 2417TIP3   OH2 7193   3.694   5.708   5.759
 2417TIP3    H1 7194   3.656   5.650   5.824
 2417TIP3    H2 7195   3.684   5.662   5.676
 2418TIP3   OH2 7196   2.540   1.430   1.282
 2418TIP3    H1 7197   2.461   1.471   1.247
 2418TIP3    H2 7198   2.559   1.359   1.221
 2419TIP3   OH2 7199   3.848   7.816   2.616
 2419TIP3    H1 7200   3.785   7.751   2.646
 2419TIP3    H2 7201   3.812   7.900   2.643
 2420TIP3   OH2 7202   6.150   6.796   3.464
 2420TIP3    H1 7203   6.186   6.710   3.486
 2420TIP3    H2 7204   6.167   6.806   3.370
 2421TIP3   OH2 7205   5.631   5.009   3.408
 2421TIP3    H1 7206   5.580   4.969   3.478
 2421TIP3    H2 7207   5.717   4.967   3.415
 2422TIP3   OH2 7208   5.291   5.796   0.527
 2422TIP3    H1 7209   5.334   5.838   0.601
 2422TIP3    H2 7210   5.363   5.759   0.475
 2423TIP3   OH2 7211   5.787   4.935   4.013
 2423TIP3    H1 7212   5.810   4.843   4.023
 2423TIP3    H2 7213   5.695   4.934   3.986
 2424TIP3   OH2 7214   0.593   3.003   2.185
 2424TIP3    H1 7215   0.527   2.934   2.192
 2424TIP3    H2 7216   0.601   3.020   2.092
 2425TIP3   OH2 7217   3.926   3.785   5.295
 2425TIP3    H1 7218   4.019   3.792   5.275
 2425TIP3    H2 7219   3.921   3.792   5.390
 2426TIP3   OH2 7220   7.968   5.853   6.494
 2426TIP3    H1 7221   7.980   5.889   6.582
 2426TIP3    H2 7222   7.884   5.807   6.498
 2427TIP3   OH2 7223   5.757   0.148   2.369
 2427TIP3    H1 7224   5.805   0.212   2.421
 2427TIP3    H2 7225   5.675   0.193   2.347
 2428TIP3   OH2 7226   3.629   5.147   1.276
 2428TIP3    H1 7227   3.614   5.111   1.363
 2428TIP3    H2 7228   3.661   5.073   1.225
 2429TIP3   OH2 7229   7.511   2.229   0.550
 2429TIP3    H1 7230   7.599   2.200   0.573
 2429TIP3    H2 7231   7.489   2.178   0.471
 2430TIP3   OH2 7232   7.263   1.670   5.842
 2430TIP3    H1 7233   7.314   1.658   5.922
 2430TIP3    H2 7234   7.328   1.677   5.772
 2431TIP3   OH2 7235   6.595   5.022   4.134
 2431TIP3    H1 7236   6.501   5.021   4.117
 2431TIP3    H2 7237   6.610   5.104   4.180
 2432TIP3   OH2 7238   4.484   0.158   0.048
 2432TIP3    H1 7239   4.528   0.079   0.018
 2432TIP3    H2 7240   4.391   0.142   0.030
 2433TIP3   OH2 7241   0.397   5.408   1.840
 2433TIP3    H1 7242   0.435   5.400   1.753
 2433TIP3    H2 7243   0.468   5.439   1.895
 2434TIP3   OH2 7244   1.805   2.208   2.338
 2434TIP3    H1 7245   1.885   2.167   2.373
 2434TIP3    H2 7246   1.746   2.214   2.413
 2435TIP3   OH2 7247   8.040   7.794   0.690
 2435TIP3    H1 7248   8.048   7.778   0.596
 2435TIP3    H2 7249   8.131   7.795   0.722
 2436TIP3   OH2 7250   1.265   6.349   3.659
 2436TIP3    H1 7251   1.240   6.360   3.567
 2436TIP3    H2 7252   1.242   6.258   3.679
 2437TIP3   OH2 7253   7.391   7.359   0.708
 2437TIP3    H1 7254   7.312   7.338   0.758
 2437TIP3    H2 7255   7.398   7.289   0.644
 2438TIP3   OH2 7256   6.144   1.659   5.732
 2438TIP3    H1 7257   6.080   1.649   5.660
 2438TIP3    H2 7258   6.124   1.585   5.790
 2439TIP3   OH2 7259   5.121   2.168   1.333
 2439TIP3    H1 7260   5.052   2.177   1.398
 2439TIP3    H2 7261   5.102   2.235   1.267
 2440TIP3   OH2 7262   0.583   5.975   3.580
 2440TIP3    H1 7263   0.489   5.983   3.560
 2440TIP3    H2 7264   0.612   6.064   3.596
 2441TIP3   OH2 7265   5.035   3.829   3.711
 2441TIP3    H1 7266   5.062   3.860   3.624
 2441TIP3    H2 7267   5.086   3.750   3.725
 2442TIP3   OH2 7268   1.981   0.962   0.571
 2442TIP3    H1 7269   2.041   0.904   0.619
 2442TIP3    H2 7270   2.037   1.029   0.533
 2443TIP3   OH2 7271   6.913   4.493   2.972
 2443TIP3    H1 7272   6.957   4.427   2.919
 2443TIP3    H2 7273   6.822   4.462   2.976
 2444TIP3   OH2 7274   0.781   4.839   1.083
 2444TIP3    H1 7275   0.839   4.770   1.116
 2444TIP3    H2 7276   0.773   4.821   0.989
 2445TIP3   OH2 7277   1.201   1.378   4.056
 2445TIP3    H1 7278   1.119   1.369   4.105
 2445TIP3    H2 7279   1.247   1.450   4.100
 2446TIP3   OH2 7280   5.205   4.943   3.786
 2446TIP3    H1 7281   5.217   4.895   3.704
 2446TIP3    H2 7282   5.119   4.984   3.778
 2447TIP3   OH2 7283   5.603   5.973   3.609
 2447TIP3    H1 7284   5.569   5.990   3.697
 2447TIP3    H2 7285   5.685   6.022   3.605
 2448TIP3   OH2 7286   5.653   7.066   5.231
 2448TIP3    H1 7287   5.622   7.152   5.260
 2448TIP3    H2 7288   5.676   7.080   5.139
 2449TIP3   OH2 7289   7.522   7.773   2.441
 2449TIP3    H1 7290   7.550   7.685   2.463
 2449TIP3    H2 7291   7.598   7.828   2.458
 2450TIP3   OH2 7292   3.970   2.625   4.039
 2450TIP3    H1 7293   4.057   2.666   4.041
 2450TIP3    H2 7294   3.946   2.625   3.946
 2451TIP3   OH2 7295   5.683   3.594   2.754
 2451TIP3    H1 7296   5.706   3.501   2.764
 2451TIP3    H2 7297   5.602   3.594   2.704
 2452TIP3   OH2 7298   2.050   7.725   2.599
 2452TIP3    H1 7299   2.027   7.658   2.664
 2452TIP3    H2 7300   2.000   7.700   2.521
 2453TIP3   OH2 7301   2.213   5.706   5.226
 2453TIP3    H1 7302   2.182   5.703   5.135
 2453TIP3    H2 7303   2.224   5.614   5.251
 2454TIP3   OH2 7304   2.925   1.742   4.456
 2454TIP3    H1 7305   3.000   1.802   4.451
 2454TIP3    H2 7306   2.946   1.684   4.530
 2455TIP3   OH2 7307   8.073   7.737   3.156
 2455TIP3    H1 7308   8.012   7.671   3.123
 2455TIP3    H2 7309   8.019   7.815   3.169
 2456TIP3   OH2 7310   4.285   7.272   0.845
 2456TIP3    H1 7311   4.277   7.178   0.825
 2456TIP3    H2 7312   4.326   7.275   0.931
 2457TIP3   OH2 7313   5.101   5.288   5.921
 2457TIP3    H1 7314   5.168   5.313   5.858
 2457TIP3    H2 7315   5.038   5.237   5.871
 2458TIP3   OH2 7316   2.255   5.919   2.517
 2458TIP3    H1 7317   2.187   5.853   2.531
 2458TIP3    H2 7318   2.226   5.994   2.569
 2459TIP3   OH2 7319   7.320   4.930   4.057
 2459TIP3    H1 7320   7.347   5.002   4.113
 2459TIP3    H2 7321   7.344   4.958   3.969
 2460TIP3   OH2 7322   2.279   6.401   2.133
 2460TIP3    H1 7323   2.269   6.313   2.097
 2460TIP3    H2 7324   2.197   6.418   2.178
 2461TIP3   OH2 7325   2.434   2.072   2.369
 2461TIP3    H1 7326   2.382   2.030   2.301
 2461TIP3    H2 7327   2.418   2.020   2.448
 2462TIP3   OH2 7328   3.968   6.071   1.101
 2462TIP3    H1 7329   3.937   6.076   1.010
 2462TIP3    H2 7330   3.957   5.979   1.125
 2463TIP3   OH2 7331   6.310   5.890   4.889
 2463TIP3    H1 7332   6.287   5.982   4.878
 2463TIP3    H2 7333   6.259   5.844   4.822
 2464TIP3   OH2 7334   6.022   6.102   3.450
 2464TIP3    H1 7335   5.976   6.101   3.366
 2464TIP3    H2 7336   6.071   6.184   3.450
 2465TIP3   OH2 7337   1.407   1.572   3.908
 2465TIP3    H1 7338   1.379   1.484   3.880
 2465TIP3    H2 7339   1.430   1.562   4.000
 2466TIP3   OH2 7340   6.049   4.721   0.082
 2466TIP3    H1 7341   5.975   4.763   0.125
 2466TIP3    H2 7342   6.097   4.679   0.154
 2467TIP3   OH2 7343   1.844   0.847   4.266
 2467TIP3    H1 7344   1.797   0.921   4.226
 2467TIP3    H2 7345   1.912   0.826   4.203
 2468TIP3   OH2 7346   4.601   3.506   3.195
 2468TIP3    H1 7347   4.532   3.502   3.262
 2468TIP3    H2 7348   4.553   3.517   3.112
 2469TIP3   OH2 7349   0.728   2.328   2.855
 2469TIP3    H1 7350   0.704   2.236   2.866
 2469TIP3    H2 7351   0.655   2.376   2.894
 2470TIP3   OH2 7352   1.343   6.446   2.681
 2470TIP3    H1 7353   1.294   6.390   2.620
 2470TIP3    H2 7354   1.434   6.417   2.672
 2471TIP3   OH2 7355   1.574   1.304   6.344
 2471TIP3    H1 7356   1.655   1.345   6.314
 2471TIP3    H2 7357   1.556   1.235   6.280
 2472TIP3   OH2 7358   7.885   2.982   4.451
 2472TIP3    H1 7359   7.887   3.073   4.480
 2472TIP3    H2 7360   7.916   2.932   4.527
 2473TIP3   OH2 7361   0.988   1.596   5.942
 2473TIP3    H1 7362   0.982   1.632   5.853
 2473TIP3    H2 7363   0.905   1.620   5.983
 2474TIP3   OH2 7364   6.137   7.314   2.084
 2474TIP3    H1 7365   6.078   7.296   2.158
 2474TIP3    H2 7366   6.152   7.408   2.087
 2475TIP3   OH2 7367   1.672   6.280   0.891
 2475TIP3    H1 7368   1.746   6.224   0.915
 2475TIP3    H2 7369   1.708   6.340   0.825
 2476TIP3   OH2 7370   4.934   6.941   2.033
 2476TIP3    H1 7371   4.951   6.995   1.955
 2476TIP3    H2 7372   4.840   6.921   2.029
 2477TIP3   OH2 7373   6.954   0.604   5.563
 2477TIP3    H1 7374   7.015   0.547   5.516
 2477TIP3    H2 7375   6.883   0.619   5.501
 2478TIP3   OH2 7376   0.042   2.542   5.559
 2478TIP3    H1 7377   0.048   2.483   5.484
 2478TIP3    H2 7378   0.111   2.512   5.618
 2479TIP3   OH2 7379   7.353   3.444   3.762
 2479TIP3    H1 7380   7.325   3.534   3.775
 2479TIP3    H2 7381   7.431   3.434   3.816
 2480TIP3   OH2 7382   2.571   1.876   5.574
 2480TIP3    H1 7383   2.635   1.813   5.608
 2480TIP3    H2 7384   2.505   1.822   5.530
 2481TIP3   OH2 7385   6.456   4.359   2.884
 2481TIP3    H1 7386   6.414   4.276   2.864
 2481TIP3    H2 7387   6.416   4.421   2.823
 2482TIP3   OH2 7388   4.045   5.277   4.839
 2482TIP3    H1 7389   4.122   5.242   4.794
 2482TIP3    H2 7390   4.070   5.279   4.932
 2483TIP3   OH2 7391   4.033   4.009   5.118
 2483TIP3    H1 7392   4.105   4.030   5.177
 2483TIP3    H2 7393   4.074   3.963   5.045
 2484TIP3   OH2 7394   1.886   0.516   3.545
 2484TIP3    H1 7395   1.831   0.472   3.610
 2484TIP3    H2 7396   1.945   0.449   3.513
 2485TIP3   OH2 7397   3.027   7.482   4.617
 2485TIP3    H1 7398   2.943   7.523   4.598
 2485TIP3    H2 7399   3.023   7.459   4.710
 2486TIP3   OH2 7400   6.477   6.951   3.389
 2486TIP3    H1 7401   6.403   7.006   3.416
 2486TIP3    H2 7402   6.443   6.900   3.316
 2487TIP3   OH2 7403   1.370   5.406   3.786
 2487TIP3    H1 7404   1.344   5.343   3.853
 2487TIP3    H2 7405   1.461   5.384   3.767
 2488TIP3   OH2 7406   7.372   7.132   3.401
 2488TIP3    H1 7407   7.450   7.079   3.418
 2488TIP3    H2 7408   7.302   7.069   3.385
 2489TIP3   OH2 7409   4.050   0.437   0.494
 2489TIP3    H1 7410   4.049   0.521   0.540
 2489TIP3    H2 7411   3.965   0.398   0.513
 2490TIP3   OH2 7412   6.229   3.501   2.386
 2490TIP3    H1 7413   6.277   3.420   2.406
 2490TIP3    H2 7414   6.229   3.507   2.291
 2491TIP3   OH2 7415   7.504   3.560   5.262
 2491TIP3    H1 7416   7.465   3.589   5.344
 2491TIP3    H2 7417   7.592   3.533   5.285
 2492TIP3   OH2 7418   4.164   4.547   5.917
 2492TIP3    H1 7419   4.089   4.488   5.912
 2492TIP3    H2 7420   4.143   4.607   5.989
 2493TIP3   OH2 7421   7.286   1.309   1.593
 2493TIP3    H1 7422   7.227   1.264   1.533
 2493TIP3    H2 7423   7.332   1.239   1.639
 2494TIP3   OH2 7424   4.027   4.596   6.315
 2494TIP3    H1 7425   3.939   4.614   6.283
 2494TIP3    H2 7426   4.071   4.553   6.242
 2495TIP3   OH2 7427   4.737   2.653   0.089
 2495TIP3    H1 7428   4.801   2.585   0.109
 2495TIP3    H2 7429   4.741   2.712   0.164
 2496TIP3   OH2 7430   3.165   2.991   4.438
 2496TIP3    H1 7431   3.113   3.072   4.438
 2496TIP3    H2 7432   3.143   2.948   4.355
 2497TIP3   OH2 7433   2.900   4.166   3.948
 2497TIP3    H1 7434   2.891   4.255   3.982
 2497TIP3    H2 7435   2.985   4.136   3.981
 2498TIP3   OH2 7436   0.686   3.790   3.312
 2498TIP3    H1 7437   0.724   3.718   3.263
 2498TIP3    H2 7438   0.752   3.860   3.308
 2499TIP3   OH2 7439   5.271   0.257   3.613
 2499TIP3    H1 7440   5.290   0.350   3.619
 2499TIP3    H2 7441   5.199   0.251   3.550
 2500TIP3   OH2 7442   4.618   5.298   4.797
 2500TIP3    H1 7443   4.529   5.333   4.791
 2500TIP3    H2 7444   4.626   5.238   4.723
 2501TIP3   OH2 7445   1.340   4.740   1.513
 2501TIP3    H1 7446   1.332   4.835   1.503
 2501TIP3    H2 7447   1.284   4.719   1.588
 2502TIP3   OH2 7448   6.125   2.806   1.867
 2502TIP3    H1 7449   6.136   2.809   1.962
 2502TIP3    H2 7450   6.047   2.753   1.853
 2503TIP3   OH2 7451   2.658   7.566   0.616
 2503TIP3    H1 7452   2.677   7.596   0.705
 2503TIP3    H2 7453   2.600   7.491   0.627
 2504TIP3   OH2 7454   1.618   6.846   1.864
 2504TIP3    H1 7455   1.590   6.902   1.792
 2504TIP3    H2 7456   1.550   6.856   1.930
 2505TIP3   OH2 7457   6.081   3.226   1.987
 2505TIP3    H1 7458   6.008   3.276   2.022
 2505TIP3    H2 7459   6.141   3.215   2.061
 2506TIP3   OH2 7460   1.503   0.440   4.497
 2506TIP3    H1 7461   1.525   0.533   4.496
 2506TIP3    H2 7462   1.407   0.439   4.504
 2507TIP3   OH2 7463   0.702   2.081   1.618
 2507TIP3    H1 7464   0.699   2.111   1.709
 2507TIP3    H2 7465   0.795   2.067   1.601
 2508TIP3   OH2 7466   3.307   4.436   6.362
 2508TIP3    H1 7467   3.279   4.513   6.313
 2508TIP3    H2 7468   3.225   4.393   6.386
 2509TIP3   OH2 7469   2.436   0.182   1.322
 2509TIP3    H1 7470   2.396   0.156   1.239
 2509TIP3    H2 7471   2.448   0.101   1.371
 2510TIP3   OH2 7472   5.689   7.150   5.820
 2510TIP3    H1 7473   5.628   7.135   5.748
 2510TIP3    H2 7474   5.675   7.241   5.845
 2511TIP3   OH2 7475   5.229   6.155   5.706
 2511TIP3    H1 7476   5.155   6.175   5.764
 2511TIP3    H2 7477   5.191   6.105   5.634
 2512TIP3   OH2 7478   5.263   5.671   2.123
 2512TIP3    H1 7479   5.256   5.580   2.094
 2512TIP3    H2 7480   5.347   5.701   2.089
 2513TIP3   OH2 7481   0.437   4.035   3.052
 2513TIP3    H1 7482   0.460   4.089   2.976
 2513TIP3    H2 7483   0.515   4.041   3.108
 2514TIP3   OH2 7484   7.475   7.555   5.422
 2514TIP3    H1 7485   7.570   7.556   5.436
 2514TIP3    H2 7486   7.446   7.641   5.453
 2515TIP3   OH2 7487   8.155   6.230  -0.072
 2515TIP3    H1 7488   8.080   6.259  -0.019
 2515TIP3    H2 7489   8.209   6.180  -0.011
 2516TIP3   OH2 7490   3.944   1.158   1.504
 2516TIP3    H1 7491   3.990   1.091   1.553
 2516TIP3    H2 7492   3.893   1.110   1.438
 2517TIP3   OH2 7493   0.373   1.483   4.217
 2517TIP3    H1 7494   0.309   1.433   4.266
 2517TIP3    H2 7495   0.440   1.506   4.281
 2518TIP3   OH2 7496   1.308   2.896   1.319
 2518TIP3    H1 7497   1.278   2.822   1.265
 2518TIP3    H2 7498   1.258   2.971   1.286
 2519TIP3   OH2 7499   7.599   4.026   6.079
 2519TIP3    H1 7500   7.674   3.975   6.049
 2519TIP3    H2 7501   7.560   4.060   5.998
 2520TIP3   OH2 7502   5.785   2.521   5.892
 2520TIP3    H1 7503   5.852   2.562   5.947
 2520TIP3    H2 7504   5.834   2.467   5.830
 2521TIP3   OH2 7505   2.927   7.552   5.470
 2521TIP3    H1 7506   2.999   7.583   5.525
 2521TIP3    H2 7507   2.921   7.617   5.400
 2522TIP3   OH2 7508   2.230   7.424   2.985
 2522TIP3    H1 7509   2.301   7.361   3.003
 2522TIP3    H2 7510   2.150   7.373   2.995
 2523TIP3   OH2 7511   6.098   2.472   2.367
 2523TIP3    H1 7512   6.016   2.515   2.343
 2523TIP3    H2 7513   6.145   2.461   2.285
 2524TIP3   OH2 7514   0.998   0.769   6.137
 2524TIP3    H1 7515   1.061   0.711   6.178
 2524TIP3    H2 7516   0.927   0.778   6.201
 2525TIP3   OH2 7517   2.033   1.174   4.070
 2525TIP3    H1 7518   2.121   1.147   4.042
 2525TIP3    H2 7519   2.046   1.213   4.156
 2526TIP3   OH2 7520   8.233   6.998   0.780
 2526TIP3    H1 7521   8.300   7.037   0.724
 2526TIP3    H2 7522   8.260   7.019   0.869
 2527TIP3   OH2 7523   6.300   2.321   4.963
 2527TIP3    H1 7524   6.273   2.298   4.874
 2527TIP3    H2 7525   6.219   2.320   5.014
 2528TIP3   OH2 7526   6.586   5.205   2.274
 2528TIP3    H1 7527   6.506   5.255   2.263
 2528TIP3    H2 7528   6.557   5.115   2.290
 2529TIP3   OH2 7529   3.826   0.852   2.029
 2529TIP3    H1 7530   3.792   0.814   1.948
 2529TIP3    H2 7531   3.781   0.804   2.098
 2530TIP3   OH2 7532   7.235   0.973   3.532
 2530TIP3    H1 7533   7.277   1.044   3.580
 2530TIP3    H2 7534   7.204   0.914   3.600
 2531TIP3   OH2 7535   8.297   4.049   5.646
 2531TIP3    H1 7536   8.303   3.976   5.585
 2531TIP3    H2 7537   8.225   4.102   5.612
 2532TIP3   OH2 7538   1.680   1.068   4.502
 2532TIP3    H1 7539   1.652   1.072   4.411
 2532TIP3    H2 7540   1.774   1.049   4.498
 2533TIP3   OH2 7541   2.323   2.199   2.789
 2533TIP3    H1 7542   2.265   2.253   2.735
 2533TIP3    H2 7543   2.273   2.183   2.869
 2534TIP3   OH2 7544   7.721   5.087   1.828
 2534TIP3    H1 7545   7.798   5.044   1.791
 2534TIP3    H2 7546   7.647   5.053   1.777
 2535TIP3   OH2 7547   5.026   0.823   6.633
 2535TIP3    H1 7548   4.935   0.811   6.605
 2535TIP3    H2 7549   5.056   0.898   6.581
 2536TIP3   OH2 7550   2.831   6.321   6.530
 2536TIP3    H1 7551   2.794   6.294   6.614
 2536TIP3    H2 7552   2.763   6.375   6.490
 2537TIP3   OH2 7553   5.251   5.372   1.365
 2537TIP3    H1 7554   5.246   5.342   1.455
 2537TIP3    H2 7555   5.195   5.310   1.316
 2538TIP3   OH2 7556   5.423   5.386   2.904
 2538TIP3    H1 7557   5.381   5.440   2.971
 2538TIP3    H2 7558   5.473   5.321   2.954
 2539TIP3   OH2 7559   2.560   6.376   4.452
 2539TIP3    H1 7560   2.486   6.343   4.503
 2539TIP3    H2 7561   2.634   6.322   4.480
 2540TIP3   OH2 7562   1.816   2.407   5.191
 2540TIP3    H1 7563   1.777   2.429   5.276
 2540TIP3    H2 7564   1.751   2.436   5.127
 2541TIP3   OH2 7565   1.312   2.100   3.782
 2541TIP3    H1 7566   1.291   2.007   3.769
 2541TIP3    H2 7567   1.335   2.107   3.874
 2542TIP3   OH2 7568   6.733   1.931   1.216
 2542TIP3    H1 7569   6.715   1.862   1.152
 2542TIP3    H2 7570   6.729   1.886   1.301
 2543TIP3   OH2 7571   2.539   6.313   1.452
 2543TIP3    H1 7572   2.593   6.328   1.530
 2543TIP3    H2 7573   2.520   6.219   1.453
 2544TIP3   OH2 7574   6.761   6.921   1.053
 2544TIP3    H1 7575   6.672   6.929   1.017
 2544TIP3    H2 7576   6.757   6.966   1.137
 2545TIP3   OH2 7577   1.080   5.999   1.805
 2545TIP3    H1 7578   1.135   5.980   1.881
 2545TIP3    H2 7579   1.141   6.026   1.737
 2546TIP3   OH2 7580   0.800   4.446   2.457
 2546TIP3    H1 7581   0.788   4.359   2.418
 2546TIP3    H2 7582   0.838   4.498   2.387
 2547TIP3   OH2 7583   3.852   5.997   1.677
 2547TIP3    H1 7584   3.850   6.026   1.586
 2547TIP3    H2 7585   3.941   5.966   1.691
 2548TIP3   OH2 7586   7.009   2.761   3.991
 2548TIP3    H1 7587   7.005   2.848   4.031
 2548TIP3    H2 7588   7.052   2.706   4.057
 2549TIP3   OH2 7589   5.551   6.885   3.649
 2549TIP3    H1 7590   5.589   6.958   3.697
 2549TIP3    H2 7591   5.548   6.915   3.558
 2550TIP3   OH2 7592   1.087   0.810   1.672
 2550TIP3    H1 7593   1.052   0.764   1.595
 2550TIP3    H2 7594   1.092   0.902   1.645
 2551TIP3   OH2 7595   7.610   6.630   3.546
 2551TIP3    H1 7596   7.642   6.652   3.458
 2551TIP3    H2 7597   7.542   6.695   3.564
 2552TIP3   OH2 7598   3.632   6.172   5.103
 2552TIP3    H1 7599   3.723   6.168   5.134
 2552TIP3    H2 7600   3.581   6.197   5.180
 2553TIP3   OH2 7601   6.002   4.971   6.426
 2553TIP3    H1 7602   6.006   5.058   6.465
 2553TIP3    H2 7603   5.922   4.932   6.463
 2554TIP3   OH2 7604   6.692   2.792   6.198
 2554TIP3    H1 7605   6.605   2.824   6.175
 2554TIP3    H2 7606   6.677   2.705   6.234
 2555TIP3   OH2 7607   6.570   2.101   5.332
 2555TIP3    H1 7608   6.566   2.087   5.237
 2555TIP3    H2 7609   6.569   2.013   5.369
 2556TIP3   OH2 7610   6.306   0.755   4.703
 2556TIP3    H1 7611   6.303   0.711   4.788
 2556TIP3    H2 7612   6.290   0.686   4.640
 2557TIP3   OH2 7613   6.875   3.335   6.315
 2557TIP3    H1 7614   6.933   3.388   6.260
 2557TIP3    H2 7615   6.844   3.265   6.257
 2558TIP3   OH2 7616   6.902   1.818   5.971
 2558TIP3    H1 7617   6.834   1.864   6.020
 2558TIP3    H2 7618   6.934   1.882   5.908
 2559TIP3   OH2 7619   0.405   1.238   3.599
 2559TIP3    H1 7620   0.419   1.302   3.668
 2559TIP3    H2 7621   0.322   1.196   3.621
 2560TIP3   OH2 7622   3.795   4.567   5.239
 2560TIP3    H1 7623   3.846   4.520   5.173
 2560TIP3    H2 7624   3.741   4.628   5.189
 2561TIP3   OH2 7625   5.377   7.146   5.046
 2561TIP3    H1 7626   5.340   7.180   4.964
 2561TIP3    H2 7627   5.453   7.096   5.018
 2562TIP3   OH2 7628   7.905   1.304   5.882
 2562TIP3    H1 7629   7.891   1.294   5.788
 2562TIP3    H2 7630   7.909   1.215   5.916
 2563TIP3   OH2 7631   6.860   7.340   2.198
 2563TIP3    H1 7632   6.944   7.333   2.153
 2563TIP3    H2 7633   6.799   7.371   2.131
 2564TIP3   OH2 7634   7.575   4.224   5.242
 2564TIP3    H1 7635   7.603   4.165   5.312
 2564TIP3    H2 7636   7.484   4.244   5.262
 2565TIP3   OH2 7637   5.483   5.006   1.150
 2565TIP3    H1 7638   5.535   4.943   1.199
 2565TIP3    H2 7639   5.394   4.997   1.185
 2566TIP3   OH2 7640   3.970   4.651   4.469
 2566TIP3    H1 7641   3.882   4.686   4.477
 2566TIP3    H2 7642   4.002   4.646   4.560
 2567TIP3   OH2 7643   3.099   2.897   2.636
 2567TIP3    H1 7644   3.061   2.830   2.580
 2567TIP3    H2 7645   3.157   2.849   2.695
 2568TIP3   OH2 7646   0.277   0.345   5.819
 2568TIP3    H1 7647   0.310   0.265   5.779
 2568TIP3    H2 7648   0.331   0.415   5.781
 2569TIP3   OH2 7649   5.658   3.196   1.582
 2569TIP3    H1 7650   5.657   3.272   1.524
 2569TIP3    H2 7651   5.586   3.212   1.643
 2570TIP3   OH2 7652   5.417   3.336   3.278
 2570TIP3    H1 7653   5.355   3.313   3.209
 2570TIP3    H2 7654   5.363   3.349   3.355
 2571TIP3   OH2 7655   6.888   5.044   1.606
 2571TIP3    H1 7656   6.803   5.025   1.647
 2571TIP3    H2 7657   6.930   4.958   1.598
 2572TIP3   OH2 7658   1.374   2.331   0.243
 2572TIP3    H1 7659   1.386   2.236   0.249
 2572TIP3    H2 7660   1.283   2.341   0.216
 2573TIP3   OH2 7661   4.731   3.069   0.455
 2573TIP3    H1 7662   4.818   3.099   0.432
 2573TIP3    H2 7663   4.710   3.116   0.536
 2574TIP3   OH2 7664   4.723   1.072   3.198
 2574TIP3    H1 7665   4.775   1.036   3.127
 2574TIP3    H2 7666   4.684   1.152   3.162
 2575TIP3   OH2 7667   7.899   6.596   6.694
 2575TIP3    H1 7668   7.878   6.525   6.634
 2575TIP3    H2 7669   7.834   6.663   6.675
 2576TIP3   OH2 7670   3.689   6.824   3.787
 2576TIP3    H1 7671   3.605   6.847   3.828
 2576TIP3    H2 7672   3.709   6.898   3.731
 2577TIP3   OH2 7673   3.236   0.702   3.486
 2577TIP3    H1 7674   3.226   0.730   3.395
 2577TIP3    H2 7675   3.328   0.716   3.506
 2578TIP3   OH2 7676   0.490   7.478   3.725
 2578TIP3    H1 7677   0.425   7.479   3.654
 2578TIP3    H2 7678   0.476   7.394   3.769
 2579TIP3   OH2 7679   3.008   3.100   4.072
 2579TIP3    H1 7680   2.999   3.176   4.130
 2579TIP3    H2 7681   2.949   3.118   3.999
 2580TIP3   OH2 7682   1.658   4.529   0.679
 2580TIP3    H1 7683   1.747   4.496   0.683
 2580TIP3    H2 7684   1.638   4.555   0.769
 2581TIP3   OH2 7685   2.299   1.583   6.375
 2581TIP3    H1 7686   2.228   1.531   6.338
 2581TIP3    H2 7687   2.294   1.565   6.469
 2582TIP3   OH2 7688   1.549   6.796   6.750
 2582TIP3    H1 7689   1.637   6.812   6.784
 2582TIP3    H2 7690   1.559   6.792   6.655
 2583TIP3   OH2 7691   7.945   5.904  -0.047
 2583TIP3    H1 7692   7.947   5.982   0.009
 2583TIP3    H2 7693   7.944   5.830   0.015
 2584TIP3   OH2 7694   6.299   0.871   3.135
 2584TIP3    H1 7695   6.350   0.842   3.211
 2584TIP3    H2 7696   6.217   0.820   3.141
 2585TIP3   OH2 7697   7.260   3.011   2.887
 2585TIP3    H1 7698   7.175   3.044   2.917
 2585TIP3    H2 7699   7.260   3.026   2.792
 2586TIP3   OH2 7700   2.639   3.125   2.147
 2586TIP3    H1 7701   2.712   3.069   2.173
 2586TIP3    H2 7702   2.561   3.079   2.179
 2587TIP3   OH2 7703   1.474   5.121   0.783
 2587TIP3    H1 7704   1.472   5.189   0.851
 2587TIP3    H2 7705   1.510   5.165   0.706
 2588TIP3   OH2 7706   4.057   0.373   6.387
 2588TIP3    H1 7707   4.082   0.450   6.439
 2588TIP3    H2 7708   4.097   0.389   6.301
 2589TIP3   OH2 7709   6.651   0.055   6.505
 2589TIP3    H1 7710   6.586  -0.015   6.513
 2589TIP3    H2 7711   6.622   0.122   6.567
 2590TIP3   OH2 7712   6.628   5.412   4.120
 2590TIP3    H1 7713   6.623   5.364   4.037
 2590TIP3    H2 7714   6.537   5.428   4.145
 2591TIP3   OH2 7715   4.778   1.390   6.563
 2591TIP3    H1 7716   4.799   1.432   6.480
 2591TIP3    H2 7717   4.682   1.390   6.566
 2592TIP3   OH2 7718   6.168   4.086   3.213
 2592TIP3    H1 7719   6.093   4.110   3.158
 2592TIP3    H2 7720   6.153   3.994   3.234
 2593TIP3   OH2 7721   8.169   2.586   4.376
 2593TIP3    H1 7722   8.076   2.594   4.352
 2593TIP3    H2 7723   8.182   2.653   4.444
 2594TIP3   OH2 7724   6.306   5.974   3.927
 2594TIP3    H1 7725   6.369   6.039   3.896
 2594TIP3    H2 7726   6.221   6.010   3.904
 2595TIP3   OH2 7727   6.617   7.695   1.898
 2595TIP3    H1 7728   6.647   7.779   1.931
 2595TIP3    H2 7729   6.665   7.683   1.816
 2596TIP3   OH2 7730   7.674   6.888   4.105
 2596TIP3    H1 7731   7.731   6.825   4.149
 2596TIP3    H2 7732   7.732   6.961   4.083
 2597TIP3   OH2 7733   3.109   7.191   3.309
 2597TIP3    H1 7734   3.067   7.182   3.224
 2597TIP3    H2 7735   3.149   7.278   3.308
 2598TIP3   OH2 7736   2.907   6.265   0.368
 2598TIP3    H1 7737   2.821   6.247   0.330
 2598TIP3    H2 7738   2.890   6.327   0.438
 2599TIP3   OH2 7739   4.063   5.333   0.748
 2599TIP3    H1 7740   4.053   5.276   0.824
 2599TIP3    H2 7741   4.096   5.415   0.784
 2600TIP3   OH2 7742  -0.042   1.344   2.936
 2600TIP3    H1 7743   0.052   1.349   2.957
 2600TIP3    H2 7744  -0.045   1.293   2.855
 2601TIP3   OH2 7745   2.285   4.134   5.365
 2601TIP3    H1 7746   2.199   4.099   5.385
 2601TIP3    H2 7747   2.309   4.094   5.282
 2602TIP3   OH2 7748   1.292   2.591   5.252
 2602TIP3    H1 7749   1.360   2.597   5.319
 2602TIP3    H2 7750   1.332   2.540   5.182
 2603TIP3   OH2 7751   2.628   0.719   5.035
 2603TIP3    H1 7752   2.641   0.643   4.978
 2603TIP3    H2 7753   2.715   0.739   5.069
 2604TIP3   OH2 7754   1.497   5.296   5.951
 2604TIP3    H1 7755   1.481   5.346   6.031
 2604TIP3    H2 7756   1.590   5.275   5.953
 2605TIP3   OH2 7757   2.089   1.345   3.857
 2605TIP3    H1 7758   2.081   1.282   3.928
 2605TIP3    H2 7759   2.184   1.352   3.843
 2606TIP3   OH2 7760   0.629  -0.006   5.263
 2606TIP3    H1 7761   0.633   0.089   5.261
 2606TIP3    H2 7762   0.572  -0.030   5.190
 2607TIP3   OH2 7763   4.739   2.800   0.884
 2607TIP3    H1 7764   4.663   2.855   0.866
 2607TIP3    H2 7765   4.803   2.825   0.817
 2608TIP3   OH2 7766   5.056   4.846   3.282
 2608TIP3    H1 7767   5.137   4.797   3.266
 2608TIP3    H2 7768   5.029   4.876   3.196
 2609TIP3   OH2 7769   3.125   4.642   1.550
 2609TIP3    H1 7770   3.139   4.701   1.476
 2609TIP3    H2 7771   3.142   4.555   1.515
 2610TIP3   OH2 7772   6.612   5.227   4.381
 2610TIP3    H1 7773   6.600   5.317   4.410
 2610TIP3    H2 7774   6.705   5.222   4.360
 2611TIP3   OH2 7775   0.153   1.027   5.552
 2611TIP3    H1 7776   0.157   1.120   5.576
 2611TIP3    H2 7777   0.061   1.003   5.564
 2612TIP3   OH2 7778   2.799   2.602   3.291
 2612TIP3    H1 7779   2.732   2.548   3.334
 2612TIP3    H2 7780   2.793   2.579   3.198
 2613TIP3   OH2 7781   1.167   5.564   3.157
 2613TIP3    H1 7782   1.200   5.647   3.193
 2613TIP3    H2 7783   1.246   5.512   3.142
 2614TIP3   OH2 7784   0.719   6.978   0.334
 2614TIP3    H1 7785   0.761   6.994   0.249
 2614TIP3    H2 7786   0.751   7.048   0.390
 2615TIP3   OH2 7787   3.847   0.860   3.240
 2615TIP3    H1 7788   3.759   0.829   3.263
 2615TIP3    H2 7789   3.899   0.780   3.230
 2616TIP3   OH2 7790   6.846   4.302   4.224
 2616TIP3    H1 7791   6.918   4.365   4.220
 2616TIP3    H2 7792   6.833   4.275   4.133
 2617TIP3   OH2 7793   3.936   6.275   2.311
 2617TIP3    H1 7794   4.004   6.331   2.275
 2617TIP3    H2 7795   3.940   6.289   2.406
 2618TIP3   OH2 7796   6.054   0.441   0.671
 2618TIP3    H1 7797   6.103   0.396   0.739
 2618TIP3    H2 7798   6.027   0.371   0.611
 2619TIP3   OH2 7799   3.255   1.894   2.949
 2619TIP3    H1 7800   3.191   1.855   3.007
 2619TIP3    H2 7801   3.204   1.935   2.880
 2620TIP3   OH2 7802   7.568   5.205   4.779
 2620TIP3    H1 7803   7.605   5.238   4.861
 2620TIP3    H2 7804   7.620   5.127   4.759
 2621TIP3   OH2 7805   2.304   0.873   3.405
 2621TIP3    H1 7806   2.222   0.830   3.429
 2621TIP3    H2 7807   2.369   0.839   3.467
 2622TIP3   OH2 7808   6.668   3.913   4.465
 2622TIP3    H1 7809   6.732   3.975   4.430
 2622TIP3    H2 7810   6.686   3.911   4.559
 2623TIP3   OH2 7811   3.782   6.548   2.683
 2623TIP3    H1 7812   3.701   6.566   2.731
 2623TIP3    H2 7813   3.851   6.561   2.748
 2624TIP3   OH2 7814   3.857   2.576   0.374
 2624TIP3    H1 7815   3.774   2.587   0.420
 2624TIP3    H2 7816   3.901   2.660   0.383
 2625TIP3   OH2 7817   4.963   7.209   2.372
 2625TIP3    H1 7818   4.955   7.305   2.368
 2625TIP3    H2 7819   4.974   7.182   2.281
 2626TIP3   OH2 7820   0.288   0.499   0.019
 2626TIP3    H1 7821   0.222   0.568   0.018
 2626TIP3    H2 7822   0.346   0.522   0.091
 2627TIP3   OH2 7823   5.799   6.474   2.606
 2627TIP3    H1 7824   5.751   6.405   2.650
 2627TIP3    H2 7825   5.834   6.432   2.527
 2628TIP3   OH2 7826   4.099   1.715   3.391
 2628TIP3    H1 7827   4.154   1.655   3.340
 2628TIP3    H2 7828   4.083   1.668   3.473
 2629TIP3   OH2 7829   1.355   1.981   6.565
 2629TIP3    H1 7830   1.367   1.939   6.650
 2629TIP3    H2 7831   1.265   2.015   6.567
 2630TIP3   OH2 7832   0.383   0.360   4.162
 2630TIP3    H1 7833   0.350   0.417   4.231
 2630TIP3    H2 7834   0.455   0.409   4.123
 2631TIP3   OH2 7835   2.057   6.725   1.788
 2631TIP3    H1 7836   1.984   6.786   1.785
 2631TIP3    H2 7837   2.016   6.639   1.799
 2632TIP3   OH2 7838   3.573   0.802   5.268
 2632TIP3    H1 7839   3.507   0.756   5.215
 2632TIP3    H2 7840   3.654   0.752   5.253
 2633TIP3   OH2 7841   1.149   2.955   1.846
 2633TIP3    H1 7842   1.156   2.891   1.776
 2633TIP3    H2 7843   1.113   2.905   1.920
 2634TIP3   OH2 7844   8.120   0.390   6.672
 2634TIP3    H1 7845   8.036   0.364   6.709
 2634TIP3    H2 7846   8.128   0.339   6.592
 2635TIP3   OH2 7847   0.685   3.654   6.794
 2635TIP3    H1 7848   0.600   3.614   6.815
 2635TIP3    H2 7849   0.741   3.581   6.770
 2636TIP3   OH2 7850   3.960   0.299   2.277
 2636TIP3    H1 7851   3.887   0.340   2.322
 2636TIP3    H2 7852   3.920   0.246   2.208
 2637TIP3   OH2 7853   0.626   3.644   6.019
 2637TIP3    H1 7854   0.712   3.660   6.057
 2637TIP3    H2 7855   0.576   3.724   6.037
 2638TIP3   OH2 7856   5.877   1.261   0.825
 2638TIP3    H1 7857   5.810   1.241   0.759
 2638TIP3    H2 7858   5.956   1.280   0.774
 2639TIP3   OH2 7859   1.405   5.593   0.423
 2639TIP3    H1 7860   1.450   5.525   0.373
 2639TIP3    H2 7861   1.413   5.672   0.370
 2640TIP3   OH2 7862   0.106   4.214   2.257
 2640TIP3    H1 7863   0.167   4.140   2.256
 2640TIP3    H2 7864   0.020   4.175   2.272
 2641TIP3   OH2 7865   5.091   5.362   4.412
 2641TIP3    H1 7866   5.066   5.297   4.346
 2641TIP3    H2 7867   5.167   5.406   4.375
 2642TIP3   OH2 7868   6.841   3.489   1.602
 2642TIP3    H1 7869   6.777   3.553   1.634
 2642TIP3    H2 7870   6.896   3.470   1.678
 2643TIP3   OH2 7871   4.362   6.769   2.802
 2643TIP3    H1 7872   4.302   6.696   2.788
 2643TIP3    H2 7873   4.433   6.731   2.854
 2644TIP3   OH2 7874   7.949   0.638   2.671
 2644TIP3    H1 7875   8.015   0.660   2.737
 2644TIP3    H2 7876   7.978   0.554   2.635
 2645TIP3   OH2 7877   6.398   5.424   0.926
 2645TIP3    H1 7878   6.374   5.449   1.015
 2645TIP3    H2 7879   6.476   5.475   0.906
 2646TIP3   OH2 7880   2.138   0.848   4.323
 2646TIP3    H1 7881   2.133   0.760   4.285
 2646TIP3    H2 7882   2.183   0.835   4.407
 2647TIP3   OH2 7883   3.193   0.253   4.098
 2647TIP3    H1 7884   3.252   0.230   4.169
 2647TIP3    H2 7885   3.156   0.169   4.070
 2648TIP3   OH2 7886   7.570   7.563   6.144
 2648TIP3    H1 7887   7.622   7.644   6.142
 2648TIP3    H2 7888   7.497   7.584   6.202
 2649TIP3   OH2 7889   1.062   6.276   4.990
 2649TIP3    H1 7890   1.014   6.199   5.020
 2649TIP3    H2 7891   1.100   6.313   5.070
 2650TIP3   OH2 7892   6.364   0.917   6.515
 2650TIP3    H1 7893   6.317   0.912   6.432
 2650TIP3    H2 7894   6.299   0.896   6.581
 2651TIP3   OH2 7895   7.296   4.579   1.523
 2651TIP3    H1 7896   7.336   4.519   1.586
 2651TIP3    H2 7897   7.252   4.645   1.577
 2652TIP3   OH2 7898   2.326   2.012   3.297
 2652TIP3    H1 7899   2.279   2.083   3.340
 2652TIP3    H2 7900   2.417   2.023   3.326
 2653TIP3   OH2 7901   6.338   2.379   3.256
 2653TIP3    H1 7902   6.338   2.398   3.162
 2653TIP3    H2 7903   6.427   2.400   3.285
 2654TIP3   OH2 7904   0.522   1.572   5.384
 2654TIP3    H1 7905   0.587   1.562   5.454
 2654TIP3    H2 7906   0.540   1.658   5.346
 2655TIP3   OH2 7907   0.651   7.054   0.717
 2655TIP3    H1 7908   0.584   7.121   0.728
 2655TIP3    H2 7909   0.727   7.087   0.766
 2656TIP3   OH2 7910   6.640   7.135   1.581
 2656TIP3    H1 7911   6.633   7.230   1.586
 2656TIP3    H2 7912   6.558   7.103   1.618
 2657TIP3   OH2 7913   4.242   2.100   5.000
 2657TIP3    H1 7914   4.267   2.028   4.941
 2657TIP3    H2 7915   4.146   2.100   4.997
 2658TIP3   OH2 7916   0.288   2.156   0.170
 2658TIP3    H1 7917   0.319   2.235   0.126
 2658TIP3    H2 7918   0.206   2.182   0.212
 2659TIP3   OH2 7919   1.300   0.273   0.430
 2659TIP3    H1 7920   1.267   0.343   0.374
 2659TIP3    H2 7921   1.222   0.237   0.472
 2660TIP3   OH2 7922   2.105   6.921   5.231
 2660TIP3    H1 7923   2.023   6.872   5.229
 2660TIP3    H2 7924   2.092   6.992   5.168
 2661TIP3   OH2 7925   7.517   4.456   2.643
 2661TIP3    H1 7926   7.551   4.504   2.567
 2661TIP3    H2 7927   7.573   4.484   2.715
 2662TIP3   OH2 7928   0.570   0.546   2.491
 2662TIP3    H1 7929   0.516   0.625   2.497
 2662TIP3    H2 7930   0.572   0.512   2.580
 2663TIP3   OH2 7931   1.109   3.992   4.278
 2663TIP3    H1 7932   1.149   3.948   4.353
 2663TIP3    H2 7933   1.122   4.086   4.296
 2664TIP3   OH2 7934   4.826   7.662   3.801
 2664TIP3    H1 7935   4.740   7.681   3.838
 2664TIP3    H2 7936   4.810   7.592   3.738
 2665TIP3   OH2 7937   1.962   6.346   0.808
 2665TIP3    H1 7938   2.016   6.267   0.812
 2665TIP3    H2 7939   1.935   6.362   0.898
 2666TIP3   OH2 7940   8.024   1.691   5.535
 2666TIP3    H1 7941   7.953   1.670   5.475
 2666TIP3    H2 7942   8.082   1.749   5.486
 2667TIP3   OH2 7943   4.211   1.991   3.310
 2667TIP3    H1 7944   4.148   2.062   3.299
 2667TIP3    H2 7945   4.172   1.934   3.376
 2668TIP3   OH2 7946   2.819   4.923   6.181
 2668TIP3    H1 7947   2.746   4.884   6.229
 2668TIP3    H2 7948   2.780   4.997   6.134
 2669TIP3   OH2 7949   4.992   4.239   5.165
 2669TIP3    H1 7950   5.069   4.271   5.213
 2669TIP3    H2 7951   5.021   4.155   5.128
 2670TIP3   OH2 7952   2.940   7.560   6.225
 2670TIP3    H1 7953   2.954   7.475   6.267
 2670TIP3    H2 7954   2.888   7.541   6.148
 2671TIP3   OH2 7955   5.760   0.551   0.393
 2671TIP3    H1 7956   5.730   0.500   0.468
 2671TIP3    H2 7957   5.740   0.642   0.417
 2672TIP3   OH2 7958   2.260   7.227   3.940
 2672TIP3    H1 7959   2.179   7.272   3.918
 2672TIP3    H2 7960   2.243   7.135   3.920
 2673TIP3   OH2 7961   1.491   1.152   0.523
 2673TIP3    H1 7962   1.559   1.219   0.531
 2673TIP3    H2 7963   1.481   1.138   0.428
 2674TIP3   OH2 7964   2.389   2.384   2.392
 2674TIP3    H1 7965   2.467   2.397   2.338
 2674TIP3    H2 7966   2.362   2.294   2.374
 2675TIP3   OH2 7967   5.083   3.997   5.094
 2675TIP3    H1 7968   5.053   3.923   5.042
 2675TIP3    H2 7969   5.131   3.958   5.167
 2676TIP3   OH2 7970   0.590   2.748   5.537
 2676TIP3    H1 7971   0.599   2.829   5.586
 2676TIP3    H2 7972   0.498   2.723   5.548
 2677TIP3   OH2 7973   5.908   5.419   1.383
 2677TIP3    H1 7974   5.901   5.512   1.362
 2677TIP3    H2 7975   5.857   5.375   1.316
 2678TIP3   OH2 7976   4.315   1.301   3.942
 2678TIP3    H1 7977   4.248   1.298   3.873
 2678TIP3    H2 7978   4.311   1.392   3.973
 2679TIP3   OH2 7979   4.085   5.250   4.419
 2679TIP3    H1 7980   4.170   5.209   4.431
 2679TIP3    H2 7981   4.069   5.246   4.324
 2680TIP3   OH2 7982   5.814   0.762   6.379
 2680TIP3    H1 7983   5.902   0.736   6.352
 2680TIP3    H2 7984   5.797   0.842   6.330
 2681TIP3   OH2 7985   1.028   7.273   5.380
 2681TIP3    H1 7986   1.046   7.242   5.469
 2681TIP3    H2 7987   1.079   7.215   5.324
 2682TIP3   OH2 7988   3.878   2.853   3.371
 2682TIP3    H1 7989   3.923   2.772   3.394
 2682TIP3    H2 7990   3.802   2.825   3.320
 2683TIP3   OH2 7991   1.290   5.246   3.984
 2683TIP3    H1 7992   1.267   5.154   3.985
 2683TIP3    H2 7993   1.213   5.291   4.019
 2684TIP3   OH2 7994   3.485   2.771   5.956
 2684TIP3    H1 7995   3.424   2.698   5.942
 2684TIP3    H2 7996   3.522   2.787   5.869
 2685TIP3   OH2 7997   5.368   3.777   3.178
 2685TIP3    H1 7998   5.355   3.867   3.149
 2685TIP3    H2 7999   5.448   3.779   3.231
 2686TIP3   OH2 8000   5.050   2.005   2.399
 2686TIP3    H1 8001   5.107   1.945   2.350
 2686TIP3    H2 8002   4.965   1.996   2.356
 2687TIP3   OH2 8003   2.310   5.138   6.051
 2687TIP3    H1 8004   2.300   5.145   5.956
 2687TIP3    H2 8005   2.236   5.188   6.086
 2688TIP3   OH2 8006   4.365   5.740   5.364
 2688TIP3    H1 8007   4.281   5.709   5.329
 2688TIP3    H2 8008   4.430   5.679   5.330
 2689TIP3   OH2 8009   2.550   0.348   2.088
 2689TIP3    H1 8010   2.605   0.279   2.126
 2689TIP3    H2 8011   2.609   0.422   2.076
 2690TIP3   OH2 8012   2.440   0.669   2.897
 2690TIP3    H1 8013   2.422   0.655   2.804
 2690TIP3    H2 8014   2.468   0.584   2.930
 2691TIP3   OH2 8015   1.121   3.152   4.230
 2691TIP3    H1 8016   1.096   3.181   4.318
 2691TIP3    H2 8017   1.069   3.072   4.216
 2692TIP3   OH2 8018   3.391   4.790   3.188
 2692TIP3    H1 8019   3.428   4.733   3.122
 2692TIP3    H2 8020   3.334   4.734   3.240
 2693TIP3   OH2 8021   0.300   4.857   6.661
 2693TIP3    H1 8022   0.231   4.791   6.659
 2693TIP3    H2 8023   0.287   4.907   6.580
 2694TIP3   OH2 8024   3.609   3.654   2.107
 2694TIP3    H1 8025   3.552   3.593   2.154
 2694TIP3    H2 8026   3.693   3.648   2.152
 2695TIP3   OH2 8027   3.011   5.570   1.537
 2695TIP3    H1 8028   2.975   5.544   1.452
 2695TIP3    H2 8029   3.066   5.646   1.517
 2696TIP3   OH2 8030   2.370   6.113   6.241
 2696TIP3    H1 8031   2.405   6.187   6.291
 2696TIP3    H2 8032   2.425   6.110   6.162
 2697TIP3   OH2 8033   7.319   7.461   3.572
 2697TIP3    H1 8034   7.284   7.413   3.497
 2697TIP3    H2 8035   7.243   7.479   3.627
 2698TIP3   OH2 8036   3.977   2.257   5.158
 2698TIP3    H1 8037   4.056   2.311   5.163
 2698TIP3    H2 8038   3.984   2.198   5.234
 2699TIP3   OH2 8039   4.256   1.187   6.730
 2699TIP3    H1 8040   4.243   1.233   6.813
 2699TIP3    H2 8041   4.332   1.131   6.746
 2700TIP3   OH2 8042   8.043   2.979   0.216
 2700TIP3    H1 8043   7.981   2.922   0.262
 2700TIP3    H2 8044   8.113   2.920   0.188
 2701TIP3   OH2 8045   4.549   1.146   4.079
 2701TIP3    H1 8046   4.619   1.203   4.045
 2701TIP3    H2 8047   4.478   1.155   4.016
 2702TIP3   OH2 8048   2.176   5.156   2.299
 2702TIP3    H1 8049   2.101   5.149   2.358
 2702TIP3    H2 8050   2.246   5.108   2.344
 2703TIP3   OH2 8051   4.236   0.149   2.184
 2703TIP3    H1 8052   4.210   0.241   2.187
 2703TIP3    H2 8053   4.164   0.105   2.139
 2704TIP3   OH2 8054   5.422   2.403   6.139
 2704TIP3    H1 8055   5.348   2.394   6.079
 2704TIP3    H2 8056   5.394   2.470   6.202
 2705TIP3   OH2 8057   7.938   2.459   6.190
 2705TIP3    H1 8058   7.979   2.411   6.118
 2705TIP3    H2 8059   7.940   2.550   6.163
 2706TIP3   OH2 8060   7.161   0.620   4.389
 2706TIP3    H1 8061   7.170   0.713   4.365
 2706TIP3    H2 8062   7.070   0.598   4.366
 2707TIP3   OH2 8063   7.786   6.698   0.115
 2707TIP3    H1 8064   7.794   6.680   0.209
 2707TIP3    H2 8065   7.728   6.630   0.082
 2708TIP3   OH2 8066   5.159   1.812   3.881
 2708TIP3    H1 8067   5.168   1.830   3.788
 2708TIP3    H2 8068   5.110   1.887   3.915
 2709TIP3   OH2 8069   6.097   0.224   2.845
 2709TIP3    H1 8070   6.191   0.210   2.838
 2709TIP3    H2 8071   6.061   0.188   2.764
 2710TIP3   OH2 8072   5.938   3.574   2.041
 2710TIP3    H1 8073   6.033   3.565   2.042
 2710TIP3    H2 8074   5.906   3.494   2.083
 2711TIP3   OH2 8075   3.355   1.028   2.210
 2711TIP3    H1 8076   3.390   1.085   2.277
 2711TIP3    H2 8077   3.309   1.087   2.149
 2712TIP3   OH2 8078   6.834   7.576   4.194
 2712TIP3    H1 8079   6.792   7.570   4.280
 2712TIP3    H2 8080   6.826   7.488   4.158
 2713TIP3   OH2 8081   5.786   0.923   1.485
 2713TIP3    H1 8082   5.793   0.945   1.578
 2713TIP3    H2 8083   5.694   0.898   1.473
 2714TIP3   OH2 8084   7.178   6.751   1.055
 2714TIP3    H1 8085   7.251   6.813   1.063
 2714TIP3    H2 8086   7.155   6.729   1.145
 2715TIP3   OH2 8087   4.099   6.043   3.903
 2715TIP3    H1 8088   4.006   6.018   3.905
 2715TIP3    H2 8089   4.103   6.118   3.844
 2716TIP3   OH2 8090   4.197   6.512   4.237
 2716TIP3    H1 8091   4.242   6.464   4.168
 2716TIP3    H2 8092   4.162   6.444   4.295
 2717TIP3   OH2 8093   6.222   2.839   0.545
 2717TIP3    H1 8094   6.314   2.813   0.534
 2717TIP3    H2 8095   6.173   2.760   0.526
 2718TIP3   OH2 8096   1.561   5.353   5.690
 2718TIP3    H1 8097   1.558   5.448   5.678
 2718TIP3    H2 8098   1.524   5.338   5.777
 2719TIP3   OH2 8099   4.090   4.862   5.060
 2719TIP3    H1 8100   4.124   4.943   5.100
 2719TIP3    H2 8101   4.168   4.809   5.044
 2720TIP3   OH2 8102   7.659   5.740   1.497
 2720TIP3    H1 8103   7.570   5.732   1.532
 2720TIP3    H2 8104   7.656   5.697   1.412
 2721TIP3   OH2 8105   5.967   7.303   0.624
 2721TIP3    H1 8106   5.931   7.373   0.569
 2721TIP3    H2 8107   6.040   7.267   0.574
 2722TIP3   OH2 8108   2.310   7.796   5.138
 2722TIP3    H1 8109   2.266   7.843   5.208
 2722TIP3    H2 8110   2.383   7.752   5.181
 2723TIP3   OH2 8111   6.794   3.051   5.940
 2723TIP3    H1 8112   6.764   3.127   5.989
 2723TIP3    H2 8113   6.714   3.008   5.911
 2724TIP3   OH2 8114   7.843   1.192   3.245
 2724TIP3    H1 8115   7.873   1.174   3.156
 2724TIP3    H2 8116   7.857   1.286   3.256
 2725TIP3   OH2 8117   1.492   5.815   0.656
 2725TIP3    H1 8118   1.415   5.767   0.688
 2725TIP3    H2 8119   1.456   5.895   0.617
 2726TIP3   OH2 8120   6.672  -0.020   3.339
 2726TIP3    H1 8121   6.679   0.061   3.288
 2726TIP3    H2 8122   6.741  -0.076   3.304
 2727TIP3   OH2 8123   4.651   0.666   6.750
 2727TIP3    H1 8124   4.628   0.590   6.697
 2727TIP3    H2 8125   4.730   0.638   6.797
 2728TIP3   OH2 8126   0.207   0.146   4.219
 2728TIP3    H1 8127   0.186   0.179   4.306
 2728TIP3    H2 8128   0.271   0.208   4.184
 2729TIP3   OH2 8129   2.819   4.613   3.817
 2729TIP3    H1 8130   2.772   4.530   3.811
 2729TIP3    H2 8131   2.895   4.594   3.871
 2730TIP3   OH2 8132   4.380   3.524   6.093
 2730TIP3    H1 8133   4.324   3.455   6.057
 2730TIP3    H2 8134   4.454   3.477   6.132
 2731TIP3   OH2 8135   2.537   7.217   0.830
 2731TIP3    H1 8136   2.581   7.132   0.820
 2731TIP3    H2 8137   2.536   7.253   0.742
 2732TIP3   OH2 8138   0.627   1.841   2.688
 2732TIP3    H1 8139   0.703   1.822   2.633
 2732TIP3    H2 8140   0.663   1.891   2.762
 2733TIP3   OH2 8141   3.452   3.618   1.150
 2733TIP3    H1 8142   3.522   3.577   1.100
 2733TIP3    H2 8143   3.449   3.708   1.117
 2734TIP3   OH2 8144   6.763   5.760   2.259
 2734TIP3    H1 8145   6.767   5.725   2.170
 2734TIP3    H2 8146   6.709   5.839   2.251
 2735TIP3   OH2 8147   4.618   2.766   6.722
 2735TIP3    H1 8148   4.523   2.754   6.718
 2735TIP3    H2 8149   4.647   2.708   6.793
 2736TIP3   OH2 8150   5.573   3.653   5.789
 2736TIP3    H1 8151   5.662   3.623   5.808
 2736TIP3    H2 8152   5.535   3.670   5.875
 2737TIP3   OH2 8153   0.339   2.883   3.090
 2737TIP3    H1 8154   0.371   2.960   3.043
 2737TIP3    H2 8155   0.245   2.898   3.099
 2738TIP3   OH2 8156   5.822   5.349   3.206
 2738TIP3    H1 8157   5.787   5.401   3.134
 2738TIP3    H2 8158   5.906   5.390   3.226
 2739TIP3   OH2 8159   2.834   5.772   5.618
 2739TIP3    H1 8160   2.747   5.804   5.643
 2739TIP3    H2 8161   2.825   5.747   5.527
 2740TIP3   OH2 8162   3.397   3.540   5.286
 2740TIP3    H1 8163   3.377   3.454   5.249
 2740TIP3    H2 8164   3.466   3.523   5.350
 2741TIP3   OH2 8165   7.403   3.279   1.741
 2741TIP3    H1 8166   7.332   3.240   1.691
 2741TIP3    H2 8167   7.426   3.213   1.806
 2742TIP3   OH2 8168   0.519   5.035   2.637
 2742TIP3    H1 8169   0.607   4.999   2.626
 2742TIP3    H2 8170   0.534   5.128   2.657
 2743TIP3   OH2 8171   6.166   5.534   3.803
 2743TIP3    H1 8172   6.199   5.456   3.758
 2743TIP3    H2 8173   6.232   5.601   3.786
 2744TIP3   OH2 8174   5.448   2.290   5.156
 2744TIP3    H1 8175   5.400   2.367   5.123
 2744TIP3    H2 8176   5.466   2.311   5.247
 2745TIP3   OH2 8177   5.789   7.004   2.022
 2745TIP3    H1 8178   5.806   6.985   1.930
 2745TIP3    H2 8179   5.796   7.099   2.028
 2746TIP3   OH2 8180   7.665   4.119   0.491
 2746TIP3    H1 8181   7.612   4.132   0.570
 2746TIP3    H2 8182   7.754   4.143   0.518
 2747TIP3   OH2 8183   8.005   5.312   0.724
 2747TIP3    H1 8184   8.073   5.380   0.721
 2747TIP3    H2 8185   7.927   5.357   0.755
 2748TIP3   OH2 8186   5.413   4.251   2.762
 2748TIP3    H1 8187   5.475   4.182   2.738
 2748TIP3    H2 8188   5.340   4.205   2.803
 2749TIP3   OH2 8189   4.610   4.506   2.868
 2749TIP3    H1 8190   4.642   4.574   2.927
 2749TIP3    H2 8191   4.558   4.553   2.803
 2750TIP3   OH2 8192   7.869   4.181   3.294
 2750TIP3    H1 8193   7.945   4.175   3.235
 2750TIP3    H2 8194   7.793   4.178   3.236
 2751TIP3   OH2 8195   7.725   0.676   2.857
 2751TIP3    H1 8196   7.706   0.768   2.837
 2751TIP3    H2 8197   7.787   0.650   2.788
 2752TIP3   OH2 8198   3.293   5.213   5.677
 2752TIP3    H1 8199   3.276   5.120   5.688
 2752TIP3    H2 8200   3.283   5.250   5.765
 2753TIP3   OH2 8201   4.994   6.598   5.388
 2753TIP3    H1 8202   4.905   6.632   5.397
 2753TIP3    H2 8203   5.047   6.675   5.369
 2754TIP3   OH2 8204   0.547   4.731   3.312
 2754TIP3    H1 8205   0.468   4.764   3.271
 2754TIP3    H2 8206   0.524   4.643   3.343
 2755TIP3   OH2 8207   3.703   0.068   5.319
 2755TIP3    H1 8208   3.788   0.090   5.280
 2755TIP3    H2 8209   3.657   0.020   5.249
 2756TIP3   OH2 8210   3.454   5.394   1.217
 2756TIP3    H1 8211   3.451   5.305   1.254
 2756TIP3    H2 8212   3.533   5.433   1.256
 2757TIP3   OH2 8213   1.863   1.156   2.992
 2757TIP3    H1 8214   1.889   1.192   3.077
 2757TIP3    H2 8215   1.919   1.079   2.980
 2758TIP3   OH2 8216   5.542   5.843   6.221
 2758TIP3    H1 8217   5.593   5.861   6.142
 2758TIP3    H2 8218   5.451   5.845   6.191
 2759TIP3   OH2 8219   1.591   2.468   4.134
 2759TIP3    H1 8220   1.540   2.537   4.177
 2759TIP3    H2 8221   1.669   2.458   4.188
 2760TIP3   OH2 8222   7.017   1.582   1.234
 2760TIP3    H1 8223   6.956   1.510   1.220
 2760TIP3    H2 8224   7.087   1.567   1.171
 2761TIP3   OH2 8225   5.675   4.364   3.970
 2761TIP3    H1 8226   5.687   4.269   3.980
 2761TIP3    H2 8227   5.615   4.373   3.896
 2762TIP3   OH2 8228   4.533   2.472   3.104
 2762TIP3    H1 8229   4.549   2.452   3.012
 2762TIP3    H2 8230   4.441   2.447   3.119
 2763TIP3   OH2 8231   5.710   7.258   2.154
 2763TIP3    H1 8232   5.672   7.229   2.237
 2763TIP3    H2 8233   5.735   7.349   2.169
 2764TIP3   OH2 8234   2.534   4.584   1.482
 2764TIP3    H1 8235   2.554   4.537   1.563
 2764TIP3    H2 8236   2.603   4.557   1.421
 2765TIP3   OH2 8237   0.504   1.779   4.172
 2765TIP3    H1 8238   0.430   1.838   4.162
 2765TIP3    H2 8239   0.466   1.691   4.170
 2766TIP3   OH2 8240   0.660   4.826   6.593
 2766TIP3    H1 8241   0.740   4.876   6.605
 2766TIP3    H2 8242   0.645   4.784   6.677
 2767TIP3   OH2 8243   7.149   1.783   1.010
 2767TIP3    H1 8244   7.195   1.714   1.058
 2767TIP3    H2 8245   7.200   1.795   0.930
 2768TIP3   OH2 8246   6.968   7.142   3.430
 2768TIP3    H1 8247   7.004   7.068   3.381
 2768TIP3    H2 8248   6.874   7.125   3.432
 2769TIP3   OH2 8249   5.351   6.146   6.692
 2769TIP3    H1 8250   5.361   6.182   6.604
 2769TIP3    H2 8251   5.357   6.051   6.681
 2770TIP3   OH2 8252   7.201   2.423   1.446
 2770TIP3    H1 8253   7.199   2.518   1.448
 2770TIP3    H2 8254   7.114   2.397   1.415
 2771TIP3   OH2 8255   0.221   4.721   5.495
 2771TIP3    H1 8256   0.149   4.747   5.437
 2771TIP3    H2 8257   0.182   4.722   5.583
 2772TIP3   OH2 8258   1.813   2.829   5.790
 2772TIP3    H1 8259   1.898   2.873   5.784
 2772TIP3    H2 8260   1.752   2.897   5.819
 2773TIP3   OH2 8261   0.371   3.501   2.661
 2773TIP3    H1 8262   0.409   3.561   2.725
 2773TIP3    H2 8263   0.443   3.443   2.636
 2774TIP3   OH2 8264   6.257   3.551   5.359
 2774TIP3    H1 8265   6.293   3.464   5.377
 2774TIP3    H2 8266   6.167   3.534   5.331
 2775TIP3   OH2 8267   3.844   2.446   0.749
 2775TIP3    H1 8268   3.879   2.386   0.815
 2775TIP3    H2 8269   3.922   2.486   0.710
 2776TIP3   OH2 8270   2.116   7.629   6.749
 2776TIP3    H1 8271   2.057   7.585   6.811
 2776TIP3    H2 8272   2.092   7.722   6.755
 2777TIP3   OH2 8273   5.836   7.249   1.338
 2777TIP3    H1 8274   5.824   7.279   1.248
 2777TIP3    H2 8275   5.924   7.211   1.340
 2778TIP3   OH2 8276   5.124   2.151   2.733
 2778TIP3    H1 8277   5.172   2.177   2.811
 2778TIP3    H2 8278   5.034   2.177   2.750
 2779TIP3   OH2 8279   5.471   6.080   3.026
 2779TIP3    H1 8280   5.490   6.076   2.932
 2779TIP3    H2 8281   5.538   6.137   3.062
 2780TIP3   OH2 8282   2.676   0.104   6.185
 2780TIP3    H1 8283   2.644   0.103   6.275
 2780TIP3    H2 8284   2.752   0.046   6.187
 2781TIP3   OH2 8285   1.307   3.360   3.109
 2781TIP3    H1 8286   1.382   3.420   3.100
 2781TIP3    H2 8287   1.329   3.287   3.051
 2782TIP3   OH2 8288   3.211   0.053   4.883
 2782TIP3    H1 8289   3.262  -0.028   4.889
 2782TIP3    H2 8290   3.247   0.109   4.951
 2783TIP3   OH2 8291   1.549   4.567   2.317
 2783TIP3    H1 8292   1.544   4.475   2.344
 2783TIP3    H2 8293   1.592   4.565   2.232
 2784TIP3   OH2 8294   4.541   1.541   5.654
 2784TIP3    H1 8295   4.574   1.454   5.675
 2784TIP3    H2 8296   4.604   1.601   5.695
 2785TIP3   OH2 8297   2.135   3.231   0.835
 2785TIP3    H1 8298   2.102   3.264   0.919
 2785TIP3    H2 8299   2.228   3.216   0.851
 2786TIP3   OH2 8300   2.992   7.803   0.364
 2786TIP3    H1 8301   3.000   7.875   0.300
 2786TIP3    H2 8302   2.936   7.839   0.433
 2787TIP3   OH2 8303   2.790   3.986   4.518
 2787TIP3    H1 8304   2.848   3.983   4.594
 2787TIP3    H2 8305   2.741   4.067   4.528
 2788TIP3   OH2 8306   7.443   3.598   4.104
 2788TIP3    H1 8307   7.518   3.559   4.060
 2788TIP3    H2 8308   7.375   3.531   4.101
 2789TIP3   OH2 8309   7.474   2.982   2.205
 2789TIP3    H1 8310   7.488   2.890   2.180
 2789TIP3    H2 8311   7.558   3.009   2.242
 2790TIP3   OH2 8312   7.941   3.248   4.844
 2790TIP3    H1 8313   7.983   3.163   4.858
 2790TIP3    H2 8314   7.934   3.256   4.749
 2791TIP3   OH2 8315   3.758   2.699   6.712
 2791TIP3    H1 8316   3.683   2.716   6.656
 2791TIP3    H2 8317   3.773   2.605   6.704
 2792TIP3   OH2 8318   6.777   5.350   5.995
 2792TIP3    H1 8319   6.738   5.364   6.082
 2792TIP3    H2 8320   6.807   5.437   5.969
 2793TIP3   OH2 8321   6.972   1.178   4.514
 2793TIP3    H1 8322   6.938   1.268   4.524
 2793TIP3    H2 8323   7.063   1.190   4.487
 2794TIP3   OH2 8324   1.189   4.132   6.557
 2794TIP3    H1 8325   1.261   4.070   6.569
 2794TIP3    H2 8326   1.119   4.097   6.612
 2795TIP3   OH2 8327   7.408   4.580   5.549
 2795TIP3    H1 8328   7.437   4.569   5.458
 2795TIP3    H2 8329   7.445   4.664   5.576
 2796TIP3   OH2 8330   6.696   0.840   4.483
 2796TIP3    H1 8331   6.629   0.887   4.433
 2796TIP3    H2 8332   6.720   0.901   4.553
 2797TIP3   OH2 8333   4.046   4.587   4.738
 2797TIP3    H1 8334   4.021   4.679   4.739
 2797TIP3    H2 8335   4.141   4.588   4.750
 2798TIP3   OH2 8336   1.512   4.676   4.102
 2798TIP3    H1 8337   1.441   4.706   4.045
 2798TIP3    H2 8338   1.505   4.731   4.180
 2799TIP3   OH2 8339   5.695   3.297   0.896
 2799TIP3    H1 8340   5.639   3.367   0.930
 2799TIP3    H2 8341   5.758   3.280   0.967
 2800TIP3   OH2 8342   4.673   1.793   2.077
 2800TIP3    H1 8343   4.688   1.794   1.983
 2800TIP3    H2 8344   4.713   1.711   2.107
 2801TIP3   OH2 8345   6.689   5.926   1.855
 2801TIP3    H1 8346   6.718   6.015   1.837
 2801TIP3    H2 8347   6.737   5.900   1.934
 2802TIP3   OH2 8348   5.938   0.269   1.712
 2802TIP3    H1 8349   5.958   0.175   1.710
 2802TIP3    H2 8350   5.903   0.283   1.800
 2803TIP3   OH2 8351   4.446   1.390   2.285
 2803TIP3    H1 8352   4.400   1.471   2.307
 2803TIP3    H2 8353   4.516   1.384   2.349
 2804TIP3   OH2 8354   5.455   3.880   4.733
 2804TIP3    H1 8355   5.542   3.889   4.695
 2804TIP3    H2 8356   5.399   3.936   4.680
 2805TIP3   OH2 8357   2.699   2.295   5.251
 2805TIP3    H1 8358   2.743   2.250   5.323
 2805TIP3    H2 8359   2.688   2.385   5.282
 2806TIP3   OH2 8360   2.729   2.215   6.755
 2806TIP3    H1 8361   2.670   2.290   6.746
 2806TIP3    H2 8362   2.732   2.176   6.668
 2807TIP3   OH2 8363   5.578   4.327   6.555
 2807TIP3    H1 8364   5.570   4.256   6.619
 2807TIP3    H2 8365   5.634   4.392   6.598
 2808TIP3   OH2 8366   8.134   7.182   3.344
 2808TIP3    H1 8367   8.081   7.236   3.285
 2808TIP3    H2 8368   8.124   7.093   3.309
 2809TIP3   OH2 8369   0.740   6.426   5.995
 2809TIP3    H1 8370   0.822   6.409   6.042
 2809TIP3    H2 8371   0.763   6.494   5.931
 2810TIP3   OH2 8372   1.905   4.337   3.612
 2810TIP3    H1 8373   1.973   4.370   3.670
 2810TIP3    H2 8374   1.878   4.254   3.652
 2811TIP3   OH2 8375   2.188   3.451   6.639
 2811TIP3    H1 8376   2.109   3.499   6.614
 2811TIP3    H2 8377   2.259   3.513   6.627
 2812TIP3   OH2 8378   7.532   1.539   6.681
 2812TIP3    H1 8379   7.582   1.573   6.755
 2812TIP3    H2 8380   7.474   1.611   6.655
 2813TIP3   OH2 8381   7.090   1.584   6.490
 2813TIP3    H1 8382   7.097   1.647   6.418
 2813TIP3    H2 8383   7.170   1.531   6.483
 2814TIP3   OH2 8384   6.797   6.189   2.467
 2814TIP3    H1 8385   6.714   6.141   2.455
 2814TIP3    H2 8386   6.806   6.240   2.387
 2815TIP3   OH2 8387   0.065   6.570   0.788
 2815TIP3    H1 8388   0.068   6.621   0.707
 2815TIP3    H2 8389   0.135   6.606   0.842
 2816TIP3   OH2 8390   4.244   4.365   5.404
 2816TIP3    H1 8391   4.174   4.409   5.355
 2816TIP3    H2 8392   4.322   4.377   5.349
 2817TIP3   OH2 8393   6.166   1.975   5.355
 2817TIP3    H1 8394   6.201   2.060   5.384
 2817TIP3    H2 8395   6.081   1.996   5.317
 2818TIP3   OH2 8396   4.188   7.734   0.517
 2818TIP3    H1 8397   4.109   7.747   0.463
 2818TIP3    H2 8398   4.259   7.765   0.461
 2819TIP3   OH2 8399   6.625   6.194   1.673
 2819TIP3    H1 8400   6.613   6.273   1.620
 2819TIP3    H2 8401   6.584   6.125   1.621
 2820TIP3   OH2 8402   8.291   1.437   3.207
 2820TIP3    H1 8403   8.251   1.359   3.247
 2820TIP3    H2 8404   8.293   1.417   3.114
 2821TIP3   OH2 8405   3.012   1.933   0.401
 2821TIP3    H1 8406   3.108   1.926   0.401
 2821TIP3    H2 8407   2.984   1.864   0.341
 2822TIP3   OH2 8408   2.133   0.608   6.384
 2822TIP3    H1 8409   2.054   0.661   6.399
 2822TIP3    H2 8410   2.182   0.657   6.318
 2823TIP3   OH2 8411   6.397   3.399   4.439
 2823TIP3    H1 8412   6.480   3.439   4.413
 2823TIP3    H2 8413   6.413   3.305   4.432
 2824TIP3   OH2 8414   5.611   4.932   5.833
 2824TIP3    H1 8415   5.516   4.945   5.831
 2824TIP3    H2 8416   5.636   4.948   5.925
 2825TIP3   OH2 8417   4.162   6.978   0.469
 2825TIP3    H1 8418   4.184   7.045   0.404
 2825TIP3    H2 8419   4.245   6.938   0.491
 2826TIP3   OH2 8420   3.805   0.643   5.224
 2826TIP3    H1 8421   3.749   0.569   5.249
 2826TIP3    H2 8422   3.886   0.630   5.275
 2827TIP3   OH2 8423   8.057   5.440   4.580
 2827TIP3    H1 8424   8.130   5.451   4.641
 2827TIP3    H2 8425   8.052   5.524   4.533
 2828TIP3   OH2 8426   8.308   2.718   0.490
 2828TIP3    H1 8427   8.227   2.674   0.514
 2828TIP3    H2 8428   8.298   2.740   0.398
 2829TIP3   OH2 8429   3.219   3.402   0.140
 2829TIP3    H1 8430   3.143   3.344   0.147
 2829TIP3    H2 8431   3.288   3.346   0.102
 2830TIP3   OH2 8432   6.977   3.058   5.688
 2830TIP3    H1 8433   7.022   3.119   5.629
 2830TIP3    H2 8434   6.890   3.096   5.701
 2831TIP3   OH2 8435   6.889   4.108   0.119
 2831TIP3    H1 8436   6.896   4.195   0.159
 2831TIP3    H2 8437   6.878   4.126   0.026
 2832TIP3   OH2 8438   4.267   3.744   4.005
 2832TIP3    H1 8439   4.228   3.789   3.931
 2832TIP3    H2 8440   4.353   3.786   4.017
 2833TIP3   OH2 8441   8.078   4.563   5.381
 2833TIP3    H1 8442   8.108   4.628   5.445
 2833TIP3    H2 8443   8.039   4.614   5.310
 2834TIP3   OH2 8444   5.740   5.983   4.367
 2834TIP3    H1 8445   5.714   5.901   4.408
 2834TIP3    H2 8446   5.747   5.962   4.274
 2835TIP3   OH2 8447   4.688   0.187   3.833
 2835TIP3    H1 8448   4.658   0.267   3.789
 2835TIP3    H2 8449   4.624   0.172   3.902
 2836TIP3   OH2 8450   3.256   3.826   1.854
 2836TIP3    H1 8451   3.289   3.890   1.791
 2836TIP3    H2 8452   3.328   3.811   1.915
 2837TIP3   OH2 8453   4.542   7.339   4.432
 2837TIP3    H1 8454   4.624   7.291   4.443
 2837TIP3    H2 8455   4.506   7.345   4.520
 2838TIP3   OH2 8456   0.675   5.199   4.422
 2838TIP3    H1 8457   0.674   5.271   4.485
 2838TIP3    H2 8458   0.605   5.141   4.452
 2839TIP3   OH2 8459   2.398   2.438   1.351
 2839TIP3    H1 8460   2.372   2.357   1.395
 2839TIP3    H2 8461   2.315   2.484   1.335
 2840TIP3   OH2 8462   3.485   0.129   3.924
 2840TIP3    H1 8463   3.490   0.212   3.875
 2840TIP3    H2 8464   3.428   0.074   3.871
 2841TIP3   OH2 8465   5.484   6.736   0.413
 2841TIP3    H1 8466   5.505   6.705   0.501
 2841TIP3    H2 8467   5.536   6.681   0.355
 2842TIP3   OH2 8468   7.822   4.560   5.854
 2842TIP3    H1 8469   7.812   4.487   5.792
 2842TIP3    H2 8470   7.741   4.609   5.846
 2843TIP3   OH2 8471   4.982   1.026   3.502
 2843TIP3    H1 8472   4.988   1.104   3.558
 2843TIP3    H2 8473   4.889   1.008   3.496
 2844TIP3   OH2 8474   4.216   2.946   4.821
 2844TIP3    H1 8475   4.206   2.896   4.902
 2844TIP3    H2 8476   4.225   2.880   4.753
 2845TIP3   OH2 8477   5.662   4.965   5.244
 2845TIP3    H1 8478   5.725   5.005   5.184
 2845TIP3    H2 8479   5.576   4.995   5.213
 2846TIP3   OH2 8480   7.124   5.459   3.852
 2846TIP3    H1 8481   7.216   5.446   3.877
 2846TIP3    H2 8482   7.122   5.439   3.759
 2847TIP3   OH2 8483   1.436   3.803   5.299
 2847TIP3    H1 8484   1.482   3.877   5.261
 2847TIP3    H2 8485   1.476   3.726   5.258
 2848TIP3   OH2 8486   7.357   0.134   2.524
 2848TIP3    H1 8487   7.349   0.226   2.549
 2848TIP3    H2 8488   7.384   0.089   2.604
 2849TIP3   OH2 8489   2.664   0.843   6.006
 2849TIP3    H1 8490   2.583   0.813   5.965
 2849TIP3    H2 8491   2.641   0.859   6.097
 2850TIP3   OH2 8492   0.217   1.309   3.025
 2850TIP3    H1 8493   0.216   1.214   3.008
 2850TIP3    H2 8494   0.245   1.317   3.116
 2851TIP3   OH2 8495   7.839   2.702   0.040
 2851TIP3    H1 8496   7.768   2.767   0.042
 2851TIP3    H2 8497   7.794   2.618   0.030
 2852TIP3   OH2 8498   7.365   2.891   0.042
 2852TIP3    H1 8499   7.385   2.982   0.066
 2852TIP3    H2 8500   7.372   2.842   0.124
 2853TIP3   OH2 8501   6.181   3.998   6.683
 2853TIP3    H1 8502   6.160   4.032   6.596
 2853TIP3    H2 8503   6.274   4.018   6.694
 2854TIP3   OH2 8504   4.688   2.315   4.283
 2854TIP3    H1 8505   4.712   2.244   4.343
 2854TIP3    H2 8506   4.771   2.344   4.246
 2855TIP3   OH2 8507   1.828   7.728   6.666
 2855TIP3    H1 8508   1.825   7.645   6.618
 2855TIP3    H2 8509   1.852   7.703   6.755
 2856TIP3   OH2 8510   4.503   5.746   0.811
 2856TIP3    H1 8511   4.584   5.758   0.861
 2856TIP3    H2 8512   4.529   5.757   0.720
 2857TIP3   OH2 8513   4.532  -0.015   0.962
 2857TIP3    H1 8514   4.580  -0.073   1.020
 2857TIP3    H2 8515   4.596   0.052   0.937
 2858TIP3   OH2 8516   7.824   7.703   1.339
 2858TIP3    H1 8517   7.743   7.660   1.366
 2858TIP3    H2 8518   7.851   7.754   1.416
 2859TIP3   OH2 8519   3.234   2.937   6.452
 2859TIP3    H1 8520   3.263   2.853   6.418
 2859TIP3    H2 8521   3.221   2.921   6.546
 2860TIP3   OH2 8522   6.374   5.516   6.764
 2860TIP3    H1 8523   6.310   5.570   6.810
 2860TIP3    H2 8524   6.456   5.533   6.811
 2861TIP3   OH2 8525   8.148   6.145   5.392
 2861TIP3    H1 8526   8.185   6.091   5.462
 2861TIP3    H2 8527   8.124   6.227   5.435
 2862TIP3   OH2 8528   7.548   6.024   0.987
 2862TIP3    H1 8529   7.479   6.088   0.969
 2862TIP3    H2 8530   7.624   6.077   1.011
 2863TIP3   OH2 8531   7.781   6.977   2.304
 2863TIP3    H1 8532   7.729   6.921   2.246
 2863TIP3    H2 8533   7.792   6.924   2.383
 2864TIP3   OH2 8534   0.443   3.970   4.674
 2864TIP3    H1 8535   0.532   3.980   4.708
 2864TIP3    H2 8536   0.449   3.901   4.609
 2865TIP3   OH2 8537   1.403   0.681   5.829
 2865TIP3    H1 8538   1.371   0.599   5.867
 2865TIP3    H2 8539   1.351   0.693   5.750
 2866TIP3   OH2 8540   1.754   0.154   5.327
 2866TIP3    H1 8541   1.662   0.142   5.303
 2866TIP3    H2 8542   1.796   0.185   5.246
 2867TIP3   OH2 8543   8.245   5.758   6.086
 2867TIP3    H1 8544   8.219   5.667   6.094
 2867TIP3    H2 8545   8.169   5.808   6.114
 2868TIP3   OH2 8546   5.662   6.310   2.778
 2868TIP3    H1 8547   5.581   6.339   2.819
 2868TIP3    H2 8548   5.668   6.217   2.799
 2869TIP3   OH2 8549   5.335   0.672   0.670
 2869TIP3    H1 8550   5.277   0.619   0.615
 2869TIP3    H2 8551   5.292   0.757   0.675
 2870TIP3   OH2 8552   7.899   4.033   3.721
 2870TIP3    H1 8553   7.845   4.041   3.800
 2870TIP3    H2 8554   7.937   3.945   3.727
 2871TIP3   OH2 8555   3.939   1.199   1.097
 2871TIP3    H1 8556   3.866   1.258   1.114
 2871TIP3    H2 8557   4.012   1.258   1.075
 2872TIP3   OH2 8558   3.567   7.784   3.061
 2872TIP3    H1 8559   3.577   7.830   3.144
 2872TIP3    H2 8560   3.601   7.696   3.079
 2873TIP3   OH2 8561   7.270   4.093   4.896
 2873TIP3    H1 8562   7.231   4.118   4.980
 2873TIP3    H2 8563   7.363   4.079   4.916
 2874TIP3   OH2 8564   7.933   1.375   1.303
 2874TIP3    H1 8565   7.926   1.438   1.231
 2874TIP3    H2 8566   7.926   1.428   1.382
 2875TIP3   OH2 8567   5.747   0.933   4.515
 2875TIP3    H1 8568   5.778   0.950   4.605
 2875TIP3    H2 8569   5.779   0.845   4.496
 2876TIP3   OH2 8570   1.473   4.995   2.995
 2876TIP3    H1 8571   1.400   5.026   3.048
 2876TIP3    H2 8572   1.433   4.953   2.919
 2877TIP3   OH2 8573   0.453   5.909   1.702
 2877TIP3    H1 8574   0.523   5.887   1.764
 2877TIP3    H2 8575   0.411   5.825   1.683
 2878TIP3   OH2 8576   1.075   2.233   1.868
 2878TIP3    H1 8577   1.153   2.266   1.913
 2878TIP3    H2 8578   1.109   2.166   1.809
 2879TIP3   OH2 8579   6.163   3.565   1.623
 2879TIP3    H1 8580   6.151   3.572   1.528
 2879TIP3    H2 8581   6.116   3.641   1.659
 2880TIP3   OH2 8582   3.201   5.226   5.165
 2880TIP3    H1 8583   3.212   5.312   5.124
 2880TIP3    H2 8584   3.257   5.229   5.243
 2881TIP3   OH2 8585   5.472   0.931   4.536
 2881TIP3    H1 8586   5.567   0.938   4.549
 2881TIP3    H2 8587   5.457   0.838   4.520
 2882TIP3   OH2 8588   1.279   5.679   0.764
 2882TIP3    H1 8589   1.230   5.756   0.792
 2882TIP3    H2 8590   1.252   5.665   0.673
 2883TIP3   OH2 8591   4.328   5.541   1.053
 2883TIP3    H1 8592   4.258   5.519   0.992
 2883TIP3    H2 8593   4.391   5.590   1.000
 2884TIP3   OH2 8594   7.354   7.702   4.688
 2884TIP3    H1 8595   7.260   7.693   4.705
 2884TIP3    H2 8596   7.365   7.668   4.600
 2885TIP3   OH2 8597   0.168   1.131   2.139
 2885TIP3    H1 8598   0.216   1.204   2.180
 2885TIP3    H2 8599   0.113   1.097   2.209
 2886TIP3   OH2 8600   3.675   1.163   4.251
 2886TIP3    H1 8601   3.615   1.111   4.304
 2886TIP3    H2 8602   3.761   1.124   4.267
 2887TIP3   OH2 8603   0.186   3.355   0.832
 2887TIP3    H1 8604   0.129   3.342   0.756
 2887TIP3    H2 8605   0.238   3.432   0.810
 2888TIP3   OH2 8606   1.664   1.923   5.637
 2888TIP3    H1 8607   1.727   1.854   5.615
 2888TIP3    H2 8608   1.688   1.950   5.726
 2889TIP3   OH2 8609   5.358   0.814   2.107
 2889TIP3    H1 8610   5.419   0.817   2.181
 2889TIP3    H2 8611   5.410   0.846   2.033
 2890TIP3   OH2 8612   1.945   5.307   1.920
 2890TIP3    H1 8613   1.874   5.370   1.929
 2890TIP3    H2 8614   1.909   5.225   1.954
 2891TIP3   OH2 8615   2.801   5.472   6.361
 2891TIP3    H1 8616   2.731   5.534   6.341
 2891TIP3    H2 8617   2.758   5.386   6.357
 2892TIP3   OH2 8618   1.710   1.454   3.292
 2892TIP3    H1 8619   1.635   1.420   3.340
 2892TIP3    H2 8620   1.769   1.379   3.284
 2893TIP3   OH2 8621   3.923   3.821   5.909
 2893TIP3    H1 8622   3.986   3.891   5.892
 2893TIP3    H2 8623   3.838   3.857   5.883
 2894TIP3   OH2 8624   4.760   5.935   3.362
 2894TIP3    H1 8625   4.812   5.865   3.323
 2894TIP3    H2 8626   4.689   5.950   3.298
 2895TIP3   OH2 8627   0.468   1.644   3.774
 2895TIP3    H1 8628   0.400   1.632   3.841
 2895TIP3    H2 8629   0.510   1.558   3.767
 2896TIP3   OH2 8630   6.948   5.467   4.735
 2896TIP3    H1 8631   7.031   5.511   4.755
 2896TIP3    H2 8632   6.885   5.505   4.796
 2897TIP3   OH2 8633   3.857   5.058   1.572
 2897TIP3    H1 8634   3.876   4.969   1.543
 2897TIP3    H2 8635   3.762   5.065   1.570
 2898TIP3   OH2 8636   6.794   5.094   4.682
 2898TIP3    H1 8637   6.862   5.131   4.738
 2898TIP3    H2 8638   6.742   5.170   4.655
 2899TIP3   OH2 8639   1.245   2.934   3.060
 2899TIP3    H1 8640   1.189   2.868   3.021
 2899TIP3    H2 8641   1.194   2.968   3.133
 2900TIP3   OH2 8642   0.136   6.702   6.737
 2900TIP3    H1 8643   0.116   6.621   6.690
 2900TIP3    H2 8644   0.112   6.771   6.676
 2901TIP3   OH2 8645   5.569   5.913   3.924
 2901TIP3    H1 8646   5.641   5.934   3.983
 2901TIP3    H2 8647   5.551   5.820   3.940
 2902TIP3   OH2 8648   5.326   1.380   2.188
 2902TIP3    H1 8649   5.399   1.428   2.225
 2902TIP3    H2 8650   5.277   1.445   2.138
 2903TIP3   OH2 8651   5.870   6.512   3.519
 2903TIP3    H1 8652   5.930   6.447   3.557
 2903TIP3    H2 8653   5.813   6.537   3.591
 2904TIP3   OH2 8654   3.311   1.921   6.110
 2904TIP3    H1 8655   3.280   1.870   6.185
 2904TIP3    H2 8656   3.380   1.868   6.071
 2905TIP3   OH2 8657   3.084   6.342   1.242
 2905TIP3    H1 8658   3.035   6.345   1.323
 2905TIP3    H2 8659   3.033   6.284   1.184
 2906TIP3   OH2 8660   2.800   5.914   3.996
 2906TIP3    H1 8661   2.862   5.869   4.054
 2906TIP3    H2 8662   2.849   5.927   3.915
 2907TIP3   OH2 8663   8.074   6.085   5.830
 2907TIP3    H1 8664   8.005   6.023   5.852
 2907TIP3    H2 8665   8.029   6.168   5.817
 2908TIP3   OH2 8666   2.924   4.900   3.103
 2908TIP3    H1 8667   2.829   4.910   3.108
 2908TIP3    H2 8668   2.939   4.855   3.020
 2909TIP3   OH2 8669   7.997   5.651   1.522
 2909TIP3    H1 8670   8.082   5.681   1.553
 2909TIP3    H2 8671   7.974   5.711   1.451
 2910TIP3   OH2 8672   7.862   6.231   1.838
 2910TIP3    H1 8673   7.883   6.319   1.871
 2910TIP3    H2 8674   7.864   6.240   1.743
 2911TIP3   OH2 8675   2.896   0.857   4.810
 2911TIP3    H1 8676   2.952   0.932   4.791
 2911TIP3    H2 8677   2.905   0.843   4.905
 2912TIP3   OH2 8678   4.103   0.430   4.920
 2912TIP3    H1 8679   4.125   0.347   4.963
 2912TIP3    H2 8680   4.009   0.424   4.903
 2913TIP3   OH2 8681   5.902   5.900   1.461
 2913TIP3    H1 8682   5.900   5.805   1.466
 2913TIP3    H2 8683   5.994   5.922   1.446
 2914TIP3   OH2 8684   5.374   5.178   3.881
 2914TIP3    H1 8685   5.280   5.179   3.899
 2914TIP3    H2 8686   5.382   5.216   3.793
 2915TIP3   OH2 8687   6.608   0.610   6.779
 2915TIP3    H1 8688   6.621   0.703   6.761
 2915TIP3    H2 8689   6.619   0.568   6.694
 2916TIP3   OH2 8690   3.986   7.817   1.520
 2916TIP3    H1 8691   3.991   7.912   1.530
 2916TIP3    H2 8692   4.050   7.783   1.582
 2917TIP3   OH2 8693   3.503   4.260   5.375
 2917TIP3    H1 8694   3.586   4.218   5.398
 2917TIP3    H2 8695   3.522   4.353   5.373
 2918TIP3   OH2 8696   0.187   6.106   2.381
 2918TIP3    H1 8697   0.192   6.055   2.300
 2918TIP3    H2 8698   0.277   6.114   2.411
 2919TIP3   OH2 8699   3.265   6.775   5.996
 2919TIP3    H1 8700   3.203   6.834   6.039
 2919TIP3    H2 8701   3.224   6.755   5.912
 2920TIP3   OH2 8702   3.159   4.459   5.892
 2920TIP3    H1 8703   3.140   4.432   5.981
 2920TIP3    H2 8704   3.179   4.378   5.846
 2921TIP3   OH2 8705   6.539   2.168   4.851
 2921TIP3    H1 8706   6.573   2.233   4.790
 2921TIP3    H2 8707   6.473   2.215   4.902
 2922TIP3   OH2 8708   6.611   7.614   2.201
 2922TIP3    H1 8709   6.704   7.633   2.212
 2922TIP3    H2 8710   6.600   7.604   2.106
 2923TIP3   OH2 8711   2.339   6.799   0.539
 2923TIP3    H1 8712   2.320   6.763   0.626
 2923TIP3    H2 8713   2.397   6.734   0.499
 2924TIP3   OH2 8714   1.405   0.971   0.910
 2924TIP3    H1 8715   1.337   1.038   0.909
 2924TIP3    H2 8716   1.449   0.982   0.994
 2925TIP3   OH2 8717   1.232   1.540   1.309
 2925TIP3    H1 8718   1.313   1.574   1.271
 2925TIP3    H2 8719   1.168   1.546   1.239
 2926TIP3   OH2 8720   5.208   7.339   6.398
 2926TIP3    H1 8721   5.285   7.395   6.408
 2926TIP3    H2 8722   5.230   7.281   6.325
 2927TIP3   OH2 8723   3.741   5.465   6.509
 2927TIP3    H1 8724   3.676   5.514   6.460
 2927TIP3    H2 8725   3.805   5.530   6.536
 2928TIP3   OH2 8726   6.165   7.006   3.648
 2928TIP3    H1 8727   6.146   6.947   3.575
 2928TIP3    H2 8728   6.254   6.982   3.676
 2929TIP3   OH2 8729   4.755   0.906   4.044
 2929TIP3    H1 8730   4.676   0.952   4.072
 2929TIP3    H2 8731   4.807   0.972   3.999
 2930TIP3   OH2 8732   0.831   1.897   3.826
 2930TIP3    H1 8733   0.868   1.984   3.814
 2930TIP3    H2 8734   0.740   1.905   3.799
 2931TIP3   OH2 8735   7.190   1.914   1.324
 2931TIP3    H1 8736   7.111   1.860   1.325
 2931TIP3    H2 8737   7.173   1.979   1.256
 2932TIP3   OH2 8738   3.724   5.802   3.441
 2932TIP3    H1 8739   3.754   5.758   3.520
 2932TIP3    H2 8740   3.692   5.732   3.384
 2933TIP3   OH2 8741   0.189   2.786   5.664
 2933TIP3    H1 8742   0.136   2.721   5.618
 2933TIP3    H2 8743   0.227   2.840   5.595
 2934TIP3   OH2 8744   3.173   3.986   2.564
 2934TIP3    H1 8745   3.157   3.906   2.513
 2934TIP3    H2 8746   3.198   4.051   2.499
 2935TIP3   OH2 8747   3.226   5.561   1.164
 2935TIP3    H1 8748   3.246   5.578   1.072
 2935TIP3    H2 8749   3.301   5.512   1.197
 2936TIP3   OH2 8750   6.084   1.235   6.565
 2936TIP3    H1 8751   6.035   1.172   6.512
 2936TIP3    H2 8752   6.168   1.244   6.520
 2937TIP3   OH2 8753   2.972   6.147   2.209
 2937TIP3    H1 8754   2.939   6.212   2.272
 2937TIP3    H2 8755   3.066   6.143   2.227
 2938TIP3   OH2 8756   6.641   0.789   1.527
 2938TIP3    H1 8757   6.657   0.845   1.451
 2938TIP3    H2 8758   6.597   0.712   1.491
 2939TIP3   OH2 8759   0.248   2.003   0.760
 2939TIP3    H1 8760   0.269   1.910   0.759
 2939TIP3    H2 8761   0.301   2.039   0.832
 2940TIP3   OH2 8762   4.547   2.674   3.647
 2940TIP3    H1 8763   4.537   2.731   3.723
 2940TIP3    H2 8764   4.633   2.634   3.658
 2941TIP3   OH2 8765   7.517   3.694   3.146
 2941TIP3    H1 8766   7.531   3.734   3.232
 2941TIP3    H2 8767   7.483   3.607   3.165
 2942TIP3   OH2 8768   5.598   0.265   1.317
 2942TIP3    H1 8769   5.680   0.221   1.342
 2942TIP3    H2 8770   5.588   0.334   1.382
 2943TIP3   OH2 8771   1.313   4.169   1.261
 2943TIP3    H1 8772   1.237   4.112   1.255
 2943TIP3    H2 8773   1.319   4.210   1.175
 2944TIP3   OH2 8774   1.479   5.693   2.911
 2944TIP3    H1 8775   1.536   5.626   2.875
 2944TIP3    H2 8776   1.534   5.741   2.973
 2945TIP3   OH2 8777   3.637   7.288   1.122
 2945TIP3    H1 8778   3.606   7.217   1.065
 2945TIP3    H2 8779   3.596   7.270   1.207
 2946TIP3   OH2 8780   3.596   7.770   4.710
 2946TIP3    H1 8781   3.600   7.720   4.629
 2946TIP3    H2 8782   3.679   7.750   4.754
 2947TIP3   OH2 8783   5.915   1.704   3.764
 2947TIP3    H1 8784   5.932   1.667   3.850
 2947TIP3    H2 8785   5.992   1.681   3.712
 2948TIP3   OH2 8786   6.671   3.564   4.701
 2948TIP3    H1 8787   6.730   3.531   4.768
 2948TIP3    H2 8788   6.682   3.505   4.627
 2949TIP3   OH2 8789   7.008   1.998   1.109
 2949TIP3    H1 8790   6.920   1.961   1.124
 2949TIP3    H2 8791   7.052   1.932   1.055
 2950TIP3   OH2 8792   5.912   6.107   5.583
 2950TIP3    H1 8793   5.927   6.054   5.661
 2950TIP3    H2 8794   5.914   6.045   5.510
 2951TIP3   OH2 8795   2.535   2.757   0.536
 2951TIP3    H1 8796   2.554   2.671   0.573
 2951TIP3    H2 8797   2.573   2.755   0.448
 2952TIP3   OH2 8798   8.137   2.334   6.687
 2952TIP3    H1 8799   8.062   2.308   6.740
 2952TIP3    H2 8800   8.100   2.357   6.602
 2953TIP3   OH2 8801   1.607   7.187   5.325
 2953TIP3    H1 8802   1.564   7.244   5.389
 2953TIP3    H2 8803   1.671   7.137   5.376
 2954TIP3   OH2 8804   3.146   6.184   3.439
 2954TIP3    H1 8805   3.211   6.114   3.430
 2954TIP3    H2 8806   3.165   6.243   3.366
 2955TIP3   OH2 8807   7.982   3.742   5.422
 2955TIP3    H1 8808   8.057   3.792   5.453
 2955TIP3    H2 8809   8.015   3.654   5.406
 2956TIP3   OH2 8810   4.251   4.446   4.465
 2956TIP3    H1 8811   4.266   4.430   4.371
 2956TIP3    H2 8812   4.158   4.432   4.477
 2957TIP3   OH2 8813   5.087   2.993   5.522
 2957TIP3    H1 8814   5.076   3.037   5.607
 2957TIP3    H2 8815   5.181   2.976   5.515
 2958TIP3   OH2 8816   4.481   5.864   5.840
 2958TIP3    H1 8817   4.463   5.925   5.768
 2958TIP3    H2 8818   4.510   5.919   5.912
 2959TIP3   OH2 8819   3.478   4.617   5.347
 2959TIP3    H1 8820   3.572   4.601   5.346
 2959TIP3    H2 8821   3.470   4.712   5.362
 2960TIP3   OH2 8822   3.388   4.019   1.660
 2960TIP3    H1 8823   3.452   4.076   1.703
 2960TIP3    H2 8824   3.435   3.981   1.586
 2961TIP3   OH2 8825   1.821   2.662   3.333
 2961TIP3    H1 8826   1.813   2.655   3.238
 2961TIP3    H2 8827   1.873   2.742   3.346
 2962TIP3   OH2 8828   2.667   5.988   3.282
 2962TIP3    H1 8829   2.706   6.068   3.246
 2962TIP3    H2 8830   2.618   6.018   3.359
 2963TIP3   OH2 8831   0.431   5.342   1.402
 2963TIP3    H1 8832   0.496   5.313   1.338
 2963TIP3    H2 8833   0.483   5.386   1.470
 2964TIP3   OH2 8834   5.182   1.663   0.779
 2964TIP3    H1 8835   5.121   1.633   0.846
 2964TIP3    H2 8836   5.164   1.756   0.771
 2965TIP3   OH2 8837   2.035   4.625   1.760
 2965TIP3    H1 8838   2.074   4.706   1.793
 2965TIP3    H2 8839   2.054   4.560   1.828
 2966TIP3   OH2 8840   5.239   3.525   3.584
 2966TIP3    H1 8841   5.235   3.576   3.503
 2966TIP3    H2 8842   5.187   3.447   3.567
 2967TIP3   OH2 8843   3.314   6.334   2.934
 2967TIP3    H1 8844   3.401   6.370   2.917
 2967TIP3    H2 8845   3.331   6.250   2.976
 2968TIP3   OH2 8846   6.840   0.666   0.815
 2968TIP3    H1 8847   6.869   0.657   0.906
 2968TIP3    H2 8848   6.761   0.720   0.820
 2969TIP3   OH2 8849   5.415   2.048   6.295
 2969TIP3    H1 8850   5.378   2.135   6.306
 2969TIP3    H2 8851   5.413   2.009   6.382
 2970TIP3   OH2 8852   3.386   7.127   4.274
 2970TIP3    H1 8853   3.416   7.099   4.361
 2970TIP3    H2 8854   3.465   7.158   4.230
 2971TIP3   OH2 8855   0.735   7.572   4.647
 2971TIP3    H1 8856   0.698   7.540   4.729
 2971TIP3    H2 8857   0.789   7.500   4.615
 2972TIP3   OH2 8858   1.261   0.487   4.274
 2972TIP3    H1 8859   1.298   0.407   4.238
 2972TIP3    H2 8860   1.278   0.554   4.207
 2973TIP3   OH2 8861   2.140   4.096   2.195
 2973TIP3    H1 8862   2.121   4.078   2.287
 2973TIP3    H2 8863   2.226   4.138   2.196
 2974TIP3   OH2 8864   7.523   3.314   5.746
 2974TIP3    H1 8865   7.434   3.313   5.713
 2974TIP3    H2 8866   7.578   3.311   5.668
 2975TIP3   OH2 8867   5.685   7.744   0.457
 2975TIP3    H1 8868   5.720   7.752   0.368
 2975TIP3    H2 8869   5.593   7.723   0.444
 2976TIP3   OH2 8870   0.750   6.492   2.151
 2976TIP3    H1 8871   0.770   6.418   2.208
 2976TIP3    H2 8872   0.663   6.521   2.178
 2977TIP3   OH2 8873   6.011   0.829   3.076
 2977TIP3    H1 8874   5.956   0.830   3.154
 2977TIP3    H2 8875   6.050   0.916   3.073
 2978TIP3   OH2 8876   2.175   4.087   4.114
 2978TIP3    H1 8877   2.090   4.092   4.157
 2978TIP3    H2 8878   2.198   3.995   4.116
 2979TIP3   OH2 8879   3.241   6.201   2.675
 2979TIP3    H1 8880   3.182   6.137   2.715
 2979TIP3    H2 8881   3.232   6.280   2.730
 2980TIP3   OH2 8882   4.578   0.834   3.569
 2980TIP3    H1 8883   4.552   0.782   3.645
 2980TIP3    H2 8884   4.496   0.859   3.527
 2981TIP3   OH2 8885   3.539   6.658   3.022
 2981TIP3    H1 8886   3.553   6.683   2.931
 2981TIP3    H2 8887   3.620   6.684   3.066
 2982TIP3   OH2 8888   2.687   7.650   4.011
 2982TIP3    H1 8889   2.678   7.683   3.922
 2982TIP3    H2 8890   2.597   7.636   4.041
 2983TIP3   OH2 8891   0.304   6.664   4.048
 2983TIP3    H1 8892   0.212   6.682   4.030
 2983TIP3    H2 8893   0.303   6.577   4.090
 2984TIP3   OH2 8894   3.629   6.710   4.913
 2984TIP3    H1 8895   3.580   6.750   4.841
 2984TIP3    H2 8896   3.699   6.772   4.931
 2985TIP3   OH2 8897   0.367   6.623   0.578
 2985TIP3    H1 8898   0.430   6.658   0.642
 2985TIP3    H2 8899   0.348   6.535   0.610
 2986TIP3   OH2 8900   1.688   3.889   0.518
 2986TIP3    H1 8901   1.763   3.837   0.490
 2986TIP3    H2 8902   1.699   3.973   0.474
 2987TIP3   OH2 8903   1.955   4.147   6.692
 2987TIP3    H1 8904   2.010   4.149   6.770
 2987TIP3    H2 8905   1.866   4.160   6.726
 2988TIP3   OH2 8906   0.077   3.751   6.379
 2988TIP3    H1 8907   0.071   3.661   6.345
 2988TIP3    H2 8908   0.124   3.743   6.462
 2989TIP3   OH2 8909   5.475   1.588   3.796
 2989TIP3    H1 8910   5.515   1.502   3.810
 2989TIP3    H2 8911   5.539   1.636   3.744
 2990TIP3   OH2 8912   4.631   5.930   0.124
 2990TIP3    H1 8913   4.725   5.929   0.140
 2990TIP3    H2 8914   4.623   5.949   0.031
 2991TIP3   OH2 8915   1.216   4.674   0.872
 2991TIP3    H1 8916   1.179   4.726   0.801
 2991TIP3    H2 8917   1.296   4.721   0.897
 2992TIP3   OH2 8918   1.574   3.837   1.371
 2992TIP3    H1 8919   1.515   3.825   1.296
 2992TIP3    H2 8920   1.543   3.917   1.414
 2993TIP3   OH2 8921   8.350   3.100   6.739
 2993TIP3    H1 8922   8.431   3.070   6.698
 2993TIP3    H2 8923   8.318   3.023   6.787
 2994TIP3   OH2 8924   8.257   7.593   2.968
 2994TIP3    H1 8925   8.175   7.561   2.931
 2994TIP3    H2 8926   8.230   7.663   3.028
 2995TIP3   OH2 8927   2.537   1.128   4.241
 2995TIP3    H1 8928   2.465   1.099   4.297
 2995TIP3    H2 8929   2.553   1.054   4.182
 2996TIP3   OH2 8930   6.740   2.217   3.385
 2996TIP3    H1 8931   6.756   2.184   3.296
 2996TIP3    H2 8932   6.811   2.179   3.437
 2997TIP3   OH2 8933   0.902   1.029   6.647
 2997TIP3    H1 8934   0.873   0.963   6.710
 2997TIP3    H2 8935   0.914   1.108   6.700
 2998TIP3   OH2 8936   3.462   0.804   5.968
 2998TIP3    H1 8937   3.485   0.862   5.895
 2998TIP3    H2 8938   3.545   0.763   5.993
 2999TIP3   OH2 8939   0.045   0.013   1.534
 2999TIP3    H1 8940  -0.033   0.068   1.532
 2999TIP3    H2 8941   0.081   0.026   1.622
 3000TIP3   OH2 8942   7.171   0.102   3.890
 3000TIP3    H1 8943   7.128   0.020   3.916
 3000TIP3    H2 8944   7.173   0.155   3.970
 3001TIP3   OH2 8945   0.213   2.925   6.565
 3001TIP3    H1 8946   0.297   2.941   6.521
 3001TIP3    H2 8947   0.175   2.851   6.518
 3002TIP3   OH2 8948   3.961   4.377   2.543
 3002TIP3    H1 8949   3.922   4.386   2.456
 3002TIP3    H2 8950   3.951   4.284   2.563
 3003TIP3   OH2 8951   4.813   2.793   0.319
 3003TIP3    H1 8952   4.907   2.793   0.338
 3003TIP3    H2 8953   4.788   2.886   0.320
 3004TIP3   OH2 8954   4.751   5.211   1.259
 3004TIP3    H1 8955   4.690   5.232   1.330
 3004TIP3    H2 8956   4.793   5.129   1.287
 3005TIP3   OH2 8957   1.801   4.997   0.181
 3005TIP3    H1 8958   1.710   4.982   0.206
 3005TIP3    H2 8959   1.809   5.092   0.175
 3006TIP3   OH2 8960   2.607   4.389   2.287
 3006TIP3    H1 8961   2.623   4.307   2.241
 3006TIP3    H2 8962   2.676   4.448   2.257
 3007TIP3   OH2 8963   3.468   0.354   0.444
 3007TIP3    H1 8964   3.411   0.335   0.370
 3007TIP3    H2 8965   3.479   0.270   0.488
 3008TIP3   OH2 8966   0.973   6.051   6.462
 3008TIP3    H1 8967   0.919   6.095   6.527
 3008TIP3    H2 8968   1.038   6.002   6.513
 3009TIP3   OH2 8969   7.459   5.486   2.467
 3009TIP3    H1 8970   7.435   5.419   2.530
 3009TIP3    H2 8971   7.501   5.439   2.395
 3010TIP3   OH2 8972   4.719   6.666   1.569
 3010TIP3    H1 8973   4.772   6.704   1.499
 3010TIP3    H2 8974   4.680   6.741   1.613
 3011TIP3   OH2 8975   5.959   3.954   1.527
 3011TIP3    H1 8976   5.909   3.895   1.470
 3011TIP3    H2 8977   5.988   4.024   1.468
 3012TIP3   OH2 8978   2.390   1.365   1.780
 3012TIP3    H1 8979   2.365   1.443   1.829
 3012TIP3    H2 8980   2.321   1.301   1.800
 3013TIP3   OH2 8981   1.599   6.517   1.269
 3013TIP3    H1 8982   1.527   6.580   1.280
 3013TIP3    H2 8983   1.675   6.572   1.249
 3014TIP3   OH2 8984   2.795   1.385   2.641
 3014TIP3    H1 8985   2.842   1.302   2.653
 3014TIP3    H2 8986   2.707   1.367   2.674
 3015TIP3   OH2 8987   7.518   0.758   2.500
 3015TIP3    H1 8988   7.422   0.759   2.503
 3015TIP3    H2 8989   7.543   0.705   2.577
 3016TIP3   OH2 8990   1.638   3.597   6.224
 3016TIP3    H1 8991   1.602   3.608   6.312
 3016TIP3    H2 8992   1.732   3.614   6.233
 3017TIP3   OH2 8993   7.534   0.186   4.691
 3017TIP3    H1 8994   7.595   0.112   4.701
 3017TIP3    H2 8995   7.588   0.257   4.658
 3018TIP3   OH2 8996   1.204   2.006   1.714
 3018TIP3    H1 8997   1.248   1.929   1.748
 3018TIP3    H2 8998   1.253   2.030   1.635
 3019TIP3   OH2 8999   5.314   4.573   4.025
 3019TIP3    H1 9000   5.349   4.565   4.114
 3019TIP3    H2 9001   5.355   4.501   3.977
 3020TIP3   OH2 9002   1.378   4.532   5.177
 3020TIP3    H1 9003   1.449   4.566   5.122
 3020TIP3    H2 9004   1.298   4.561   5.133
 3021TIP3   OH2 9005   5.481   7.398   0.904
 3021TIP3    H1 9006   5.462   7.359   0.989
 3021TIP3    H2 9007   5.574   7.380   0.890
 3022TIP3   OH2 9008   7.673   3.899   2.383
 3022TIP3    H1 9009   7.651   3.887   2.476
 3022TIP3    H2 9010   7.644   3.988   2.363
 3023TIP3   OH2 9011   0.357   1.752   1.750
 3023TIP3    H1 9012   0.367   1.673   1.696
 3023TIP3    H2 9013   0.341   1.718   1.838
 3024TIP3   OH2 9014   2.648   7.350   6.776
 3024TIP3    H1 9015   2.609   7.281   6.722
 3024TIP3    H2 9016   2.736   7.361   6.740
 3025TIP3   OH2 9017   7.416   0.592   4.104
 3025TIP3    H1 9018   7.470   0.660   4.066
 3025TIP3    H2 9019   7.424   0.518   4.044
 3026TIP3   OH2 9020   8.256   5.451   1.863
 3026TIP3    H1 9021   8.189   5.406   1.812
 3026TIP3    H2 9022   8.322   5.384   1.880
 3027TIP3   OH2 9023   6.612   3.561   4.375
 3027TIP3    H1 9024   6.569   3.644   4.395
 3027TIP3    H2 9025   6.704   3.583   4.365
 3028TIP3   OH2 9026   2.250   2.877   2.465
 3028TIP3    H1 9027   2.177   2.881   2.403
 3028TIP3    H2 9028   2.219   2.924   2.542
 3029TIP3   OH2 9029   4.988   3.815   2.495
 3029TIP3    H1 9030   4.931   3.820   2.572
 3029TIP3    H2 9031   5.004   3.721   2.483
 3030TIP3   OH2 9032   0.311   7.539   3.533
 3030TIP3    H1 9033   0.218   7.553   3.516
 3030TIP3    H2 9034   0.349   7.627   3.528
 3031TIP3   OH2 9035   4.998   6.697   3.549
 3031TIP3    H1 9036   5.049   6.672   3.472
 3031TIP3    H2 9037   5.057   6.685   3.623
 3032TIP3   OH2 9038   7.200   2.440   5.042
 3032TIP3    H1 9039   7.141   2.368   5.066
 3032TIP3    H2 9040   7.287   2.401   5.043
 3033TIP3   OH2 9041   8.249   2.563   6.092
 3033TIP3    H1 9042   8.301   2.611   6.156
 3033TIP3    H2 9043   8.282   2.592   6.008
 3034TIP3   OH2 9044   2.707   5.549   2.594
 3034TIP3    H1 9045   2.785   5.601   2.612
 3034TIP3    H2 9046   2.715   5.472   2.650
 3035TIP3   OH2 9047   8.059   7.488   2.450
 3035TIP3    H1 9048   8.137   7.492   2.394
 3035TIP3    H2 9049   8.013   7.570   2.432
 3036TIP3   OH2 9050   5.036   2.278   4.407
 3036TIP3    H1 9051   4.982   2.201   4.391
 3036TIP3    H2 9052   5.109   2.269   4.346
 3037TIP3   OH2 9053   2.776   4.686   0.781
 3037TIP3    H1 9054   2.714   4.642   0.839
 3037TIP3    H2 9055   2.862   4.668   0.820
 3038TIP3   OH2 9056   0.600   4.091   2.068
 3038TIP3    H1 9057   0.574   4.051   1.985
 3038TIP3    H2 9058   0.528   4.150   2.090
 3039TIP3   OH2 9059   2.982   7.072   6.462
 3039TIP3    H1 9060   3.041   7.065   6.537
 3039TIP3    H2 9061   2.912   7.009   6.482
 3040TIP3   OH2 9062   2.159   2.210   3.375
 3040TIP3    H1 9063   2.144   2.304   3.371
 3040TIP3    H2 9064   2.071   2.171   3.370
 3041TIP3   OH2 9065   4.589   0.691   2.479
 3041TIP3    H1 9066   4.495   0.707   2.489
 3041TIP3    H2 9067   4.611   0.729   2.394
 3042TIP3   OH2 9068   0.491   6.188   1.283
 3042TIP3    H1 9069   0.466   6.227   1.367
 3042TIP3    H2 9070   0.469   6.254   1.218
 3043TIP3   OH2 9071   6.524   0.356   0.509
 3043TIP3    H1 9072   6.554   0.387   0.595
 3043TIP3    H2 9073   6.575   0.408   0.446
 3044TIP3   OH2 9074   5.414   0.377   2.831
 3044TIP3    H1 9075   5.361   0.298   2.823
 3044TIP3    H2 9076   5.488   0.362   2.773
 3045TIP3   OH2 9077   7.299   0.559   6.352
 3045TIP3    H1 9078   7.210   0.595   6.343
 3045TIP3    H2 9079   7.310   0.502   6.276
 3046TIP3   OH2 9080   7.955   1.143   6.280
 3046TIP3    H1 9081   7.978   1.235   6.293
 3046TIP3    H2 9082   7.957   1.105   6.368
 3047TIP3   OH2 9083   0.080   3.851   5.154
 3047TIP3    H1 9084   0.119   3.763   5.161
 3047TIP3    H2 9085   0.136   3.897   5.092
 3048TIP3   OH2 9086   1.208   3.477   1.063
 3048TIP3    H1 9087   1.289   3.519   1.032
 3048TIP3    H2 9088   1.194   3.405   1.002
 3049TIP3   OH2 9089   0.036   1.451   2.002
 3049TIP3    H1 9090   0.012   1.535   2.040
 3049TIP3    H2 9091   0.086   1.406   2.071
 3050TIP3   OH2 9092   0.053   0.142   1.851
 3050TIP3    H1 9093   0.129   0.201   1.852
 3050TIP3    H2 9094  -0.020   0.199   1.824
 3051TIP3   OH2 9095   3.539   3.690   6.306
 3051TIP3    H1 9096   3.463   3.641   6.275
 3051TIP3    H2 9097   3.614   3.636   6.280
 3052TIP3   OH2 9098   6.222   5.198   3.748
 3052TIP3    H1 9099   6.259   5.117   3.713
 3052TIP3    H2 9100   6.155   5.169   3.810
 3053TIP3   OH2 9101   4.727   3.962   1.643
 3053TIP3    H1 9102   4.697   4.028   1.705
 3053TIP3    H2 9103   4.708   3.879   1.685
 3054TIP3   OH2 9104   7.008   7.112   1.853
 3054TIP3    H1 9105   6.924   7.154   1.873
 3054TIP3    H2 9106   6.993   7.068   1.769
 3055TIP3   OH2 9107   2.486   0.237   0.505
 3055TIP3    H1 9108   2.499   0.271   0.593
 3055TIP3    H2 9109   2.391   0.227   0.497
 3056TIP3   OH2 9110   4.572   0.390   3.694
 3056TIP3    H1 9111   4.605   0.402   3.605
 3056TIP3    H2 9112   4.513   0.464   3.708
 3057TIP3   OH2 9113   3.349   6.563   5.181
 3057TIP3    H1 9114   3.265   6.556   5.226
 3057TIP3    H2 9115   3.336   6.631   5.116
 3058TIP3   OH2 9116   4.093   7.451   3.993
 3058TIP3    H1 9117   4.167   7.452   4.054
 3058TIP3    H2 9118   4.018   7.423   4.046
 3059TIP3   OH2 9119   1.788   3.923   2.511
 3059TIP3    H1 9120   1.704   3.965   2.491
 3059TIP3    H2 9121   1.764   3.843   2.557
 3060TIP3   OH2 9122   3.121   4.404   4.026
 3060TIP3    H1 9123   3.181   4.459   3.975
 3060TIP3    H2 9124   3.034   4.437   4.004
 3061TIP3   OH2 9125   1.448   4.773   2.746
 3061TIP3    H1 9126   1.439   4.734   2.658
 3061TIP3    H2 9127   1.358   4.795   2.771
 3062TIP3   OH2 9128   1.777   0.249   1.232
 3062TIP3    H1 9129   1.708   0.298   1.187
 3062TIP3    H2 9130   1.734   0.170   1.264
 3063TIP3   OH2 9131   7.860   2.361   5.632
 3063TIP3    H1 9132   7.906   2.277   5.621
 3063TIP3    H2 9133   7.929   2.426   5.635
 3064TIP3   OH2 9134   5.216   2.636   4.175
 3064TIP3    H1 9135   5.243   2.722   4.142
 3064TIP3    H2 9136   5.124   2.647   4.197
 3065TIP3   OH2 9137   0.292   1.567   2.945
 3065TIP3    H1 9138   0.378   1.576   2.984
 3065TIP3    H2 9139   0.259   1.483   2.976
 3066TIP3   OH2 9140   7.074   7.667   4.697
 3066TIP3    H1 9141   7.008   7.665   4.766
 3066TIP3    H2 9142   7.029   7.705   4.621
 3067TIP3   OH2 9143   4.860   0.793   4.506
 3067TIP3    H1 9144   4.908   0.847   4.569
 3067TIP3    H2 9145   4.928   0.737   4.467
 3068TIP3   OH2 9146   7.591   4.168   2.780
 3068TIP3    H1 9147   7.569   4.243   2.836
 3068TIP3    H2 9148   7.548   4.187   2.697
 3069TIP3   OH2 9149   8.013   2.022   2.504
 3069TIP3    H1 9150   7.950   2.089   2.477
 3069TIP3    H2 9151   7.984   1.996   2.592
 3070TIP3   OH2 9152   2.817   4.973   4.323
 3070TIP3    H1 9153   2.838   4.974   4.229
 3070TIP3    H2 9154   2.898   4.947   4.365
 3071TIP3   OH2 9155   1.426   0.492   0.799
 3071TIP3    H1 9156   1.440   0.526   0.710
 3071TIP3    H2 9157   1.332   0.479   0.806
 3072TIP3   OH2 9158   4.581   4.767   5.706
 3072TIP3    H1 9159   4.486   4.763   5.700
 3072TIP3    H2 9160   4.609   4.675   5.706
 3073TIP3   OH2 9161   6.434   7.086   4.507
 3073TIP3    H1 9162   6.436   7.151   4.577
 3073TIP3    H2 9163   6.362   7.028   4.530
 3074TIP3   OH2 9164   2.198   6.700   3.437
 3074TIP3    H1 9165   2.226   6.773   3.492
 3074TIP3    H2 9166   2.274   6.681   3.382
 3075TIP3   OH2 9167   1.685   1.819   2.538
 3075TIP3    H1 9168   1.600   1.841   2.499
 3075TIP3    H2 9169   1.750   1.849   2.475
 3076TIP3   OH2 9170   7.112   7.158   5.891
 3076TIP3    H1 9171   7.173   7.216   5.936
 3076TIP3    H2 9172   7.127   7.072   5.932
 3077TIP3   OH2 9173   0.675   5.502   4.222
 3077TIP3    H1 9174   0.661   5.412   4.194
 3077TIP3    H2 9175   0.658   5.500   4.316
 3078TIP3   OH2 9176   6.372   2.498   4.598
 3078TIP3    H1 9177   6.363   2.501   4.503
 3078TIP3    H2 9178   6.320   2.571   4.630
 3079TIP3   OH2 9179   3.258   5.816   2.823
 3079TIP3    H1 9180   3.264   5.759   2.900
 3079TIP3    H2 9181   3.165   5.817   2.801
 3080TIP3   OH2 9182   5.250   4.509   5.534
 3080TIP3    H1 9183   5.333   4.555   5.549
 3080TIP3    H2 9184   5.183   4.573   5.555
 3081TIP3   OH2 9185   0.072   5.033   4.693
 3081TIP3    H1 9186   0.016   5.072   4.760
 3081TIP3    H2 9187   0.111   5.108   4.648
 3082TIP3   OH2 9188   4.330   4.168   2.706
 3082TIP3    H1 9189   4.314   4.139   2.795
 3082TIP3    H2 9190   4.245   4.198   2.674
 3083TIP3   OH2 9191   5.824   3.735   1.406
 3083TIP3    H1 9192   5.729   3.743   1.410
 3083TIP3    H2 9193   5.842   3.645   1.434
 3084TIP3   OH2 9194   3.088   4.196   0.472
 3084TIP3    H1 9195   3.066   4.289   0.478
 3084TIP3    H2 9196   3.151   4.191   0.400
 3085TIP3   OH2 9197   6.059   4.357   2.467
 3085TIP3    H1 9198   6.001   4.302   2.519
 3085TIP3    H2 9199   6.013   4.441   2.462
 3086TIP3   OH2 9200   6.738   6.323   5.135
 3086TIP3    H1 9201   6.700   6.365   5.057
 3086TIP3    H2 9202   6.689   6.241   5.145
 3087TIP3   OH2 9203   6.552   4.299   1.158
 3087TIP3    H1 9204   6.628   4.248   1.188
 3087TIP3    H2 9205   6.478   4.261   1.204
 3088TIP3   OH2 9206   8.179   7.695   6.728
 3088TIP3    H1 9207   8.274   7.707   6.718
 3088TIP3    H2 9208   8.160   7.616   6.678
 3089TIP3   OH2 9209   8.253   7.585   0.411
 3089TIP3    H1 9210   8.200   7.664   0.404
 3089TIP3    H2 9211   8.198   7.524   0.460
 3090TIP3   OH2 9212   4.274   5.365   5.240
 3090TIP3    H1 9213   4.309   5.392   5.155
 3090TIP3    H2 9214   4.224   5.441   5.270
 3091TIP3   OH2 9215   3.470   0.607   0.574
 3091TIP3    H1 9216   3.558   0.599   0.611
 3091TIP3    H2 9217   3.455   0.523   0.531
 3092TIP3   OH2 9218   7.393   3.815   5.115
 3092TIP3    H1 9219   7.315   3.764   5.093
 3092TIP3    H2 9220   7.428   3.772   5.193
 3093TIP3   OH2 9221   8.004   7.010   1.924
 3093TIP3    H1 9222   8.002   6.919   1.955
 3093TIP3    H2 9223   8.057   7.056   1.988
 3094TIP3   OH2 9224   0.888   4.965   6.016
 3094TIP3    H1 9225   0.934   5.039   6.056
 3094TIP3    H2 9226   0.885   4.899   6.085
 3095TIP3   OH2 9227   4.495   3.818   6.394
 3095TIP3    H1 9228   4.482   3.908   6.425
 3095TIP3    H2 9229   4.587   3.799   6.415
 3096TIP3   OH2 9230   4.193   4.644   1.347
 3096TIP3    H1 9231   4.171   4.689   1.265
 3096TIP3    H2 9232   4.171   4.553   1.331
 3097TIP3   OH2 9233   7.809   2.777   6.354
 3097TIP3    H1 9234   7.814   2.766   6.259
 3097TIP3    H2 9235   7.854   2.860   6.371
 3098TIP3   OH2 9236   3.696   3.002   5.493
 3098TIP3    H1 9237   3.762   2.933   5.487
 3098TIP3    H2 9238   3.638   2.972   5.563
 3099TIP3   OH2 9239   3.817   2.317   4.945
 3099TIP3    H1 9240   3.801   2.223   4.947
 3099TIP3    H2 9241   3.860   2.336   5.028
 3100TIP3   OH2 9242   7.136   6.446   2.107
 3100TIP3    H1 9243   7.224   6.461   2.073
 3100TIP3    H2 9244   7.091   6.530   2.097
 3101TIP3   OH2 9245   1.939   7.503   3.727
 3101TIP3    H1 9246   1.868   7.564   3.747
 3101TIP3    H2 9247   1.925   7.480   3.635
 3102TIP3   OH2 9248   1.442   1.444   0.668
 3102TIP3    H1 9249   1.419   1.353   0.648
 3102TIP3    H2 9250   1.448   1.447   0.763
 3103TIP3   OH2 9251   7.575   5.402   2.228
 3103TIP3    H1 9252   7.495   5.349   2.230
 3103TIP3    H2 9253   7.630   5.360   2.162
 3104TIP3   OH2 9254   4.810   3.854   2.960
 3104TIP3    H1 9255   4.722   3.817   2.972
 3104TIP3    H2 9256   4.864   3.779   2.933
 3105TIP3   OH2 9257   4.332   0.833   5.476
 3105TIP3    H1 9258   4.336   0.921   5.438
 3105TIP3    H2 9259   4.242   0.823   5.505
 3106TIP3   OH2 9260   5.756   6.072   4.702
 3106TIP3    H1 9261   5.780   6.131   4.631
 3106TIP3    H2 9262   5.664   6.052   4.686
 3107TIP3   OH2 9263   5.080   1.339   0.069
 3107TIP3    H1 9264   5.096   1.374   0.157
 3107TIP3    H2 9265   4.996   1.293   0.076
 3108TIP3   OH2 9266   2.003   0.781   0.053
 3108TIP3    H1 9267   1.935   0.830   0.007
 3108TIP3    H2 9268   1.976   0.784   0.145
 3109TIP3   OH2 9269   4.249   5.510   5.938
 3109TIP3    H1 9270   4.170   5.522   5.989
 3109TIP3    H2 9271   4.253   5.585   5.879
 3110TIP3   OH2 9272   3.106   3.279   2.048
 3110TIP3    H1 9273   3.020   3.244   2.070
 3110TIP3    H2 9274   3.113   3.267   1.953
 3111TIP3   OH2 9275   6.052   7.697   0.056
 3111TIP3    H1 9276   6.140   7.677   0.024
 3111TIP3    H2 9277   6.007   7.613   0.058
 3112TIP3   OH2 9278   6.409   0.995   4.686
 3112TIP3    H1 9279   6.446   0.993   4.598
 3112TIP3    H2 9280   6.368   0.909   4.696
 3113TIP3   OH2 9281   2.484   6.004   3.963
 3113TIP3    H1 9282   2.407   6.042   3.921
 3113TIP3    H2 9283   2.559   6.048   3.921
 3114TIP3   OH2 9284   0.503   3.781   2.007
 3114TIP3    H1 9285   0.459   3.840   1.945
 3114TIP3    H2 9286   0.433   3.725   2.041
 3115TIP3   OH2 9287   0.740   7.337   3.549
 3115TIP3    H1 9288   0.731   7.390   3.628
 3115TIP3    H2 9289   0.698   7.389   3.480
 3116TIP3   OH2 9290   6.471   7.188   2.472
 3116TIP3    H1 9291   6.397   7.225   2.426
 3116TIP3    H2 9292   6.540   7.255   2.467
 3117TIP3   OH2 9293   3.088   6.346   6.441
 3117TIP3    H1 9294   3.011   6.337   6.496
 3117TIP3    H2 9295   3.056   6.330   6.352
 3118TIP3   OH2 9296   3.577   6.044   3.124
 3118TIP3    H1 9297   3.617   6.103   3.059
 3118TIP3    H2 9298   3.512   5.995   3.074
 3119TIP3   OH2 9299   7.997   4.538   6.520
 3119TIP3    H1 9300   8.048   4.613   6.551
 3119TIP3    H2 9301   7.917   4.539   6.573
 3120TIP3   OH2 9302   6.156   4.586   5.555
 3120TIP3    H1 9303   6.064   4.572   5.533
 3120TIP3    H2 9304   6.204   4.567   5.474
 3121TIP3   OH2 9305   7.831   7.138   4.678
 3121TIP3    H1 9306   7.858   7.198   4.608
 3121TIP3    H2 9307   7.735   7.135   4.670
 3122TIP3   OH2 9308   7.448   5.889   5.022
 3122TIP3    H1 9309   7.418   5.947   4.953
 3122TIP3    H2 9310   7.515   5.834   4.980
 3123TIP3   OH2 9311   0.668   4.490   3.745
 3123TIP3    H1 9312   0.630   4.410   3.709
 3123TIP3    H2 9313   0.683   4.546   3.668
 3124TIP3   OH2 9314   4.679   1.655   0.751
 3124TIP3    H1 9315   4.607   1.718   0.755
 3124TIP3    H2 9316   4.746   1.699   0.697
 3125TIP3   OH2 9317   5.617   2.512   1.140
 3125TIP3    H1 9318   5.712   2.500   1.137
 3125TIP3    H2 9319   5.606   2.607   1.153
 3126TIP3   OH2 9320   1.777   2.881   4.622
 3126TIP3    H1 9321   1.816   2.863   4.707
 3126TIP3    H2 9322   1.796   2.974   4.606
 3127TIP3   OH2 9323   0.153   1.466   4.688
 3127TIP3    H1 9324   0.132   1.377   4.657
 3127TIP3    H2 9325   0.183   1.512   4.609
 3128TIP3   OH2 9326   5.472   5.979   5.657
 3128TIP3    H1 9327   5.451   5.995   5.565
 3128TIP3    H2 9328   5.519   5.896   5.656
 3129TIP3   OH2 9329   5.962   6.118   2.258
 3129TIP3    H1 9330   5.908   6.136   2.335
 3129TIP3    H2 9331   5.899   6.095   2.190
 3130TIP3   OH2 9332   6.953   3.485   0.231
 3130TIP3    H1 9333   7.009   3.489   0.153
 3130TIP3    H2 9334   7.007   3.442   0.297
 3131TIP3   OH2 9335   4.984   2.272   3.496
 3131TIP3    H1 9336   4.945   2.341   3.550
 3131TIP3    H2 9337   4.924   2.263   3.422
 3132TIP3   OH2 9338   4.235   4.587   2.299
 3132TIP3    H1 9339   4.238   4.530   2.376
 3132TIP3    H2 9340   4.300   4.550   2.240
 3133TIP3   OH2 9341   3.201   6.564   3.028
 3133TIP3    H1 9342   3.245   6.487   2.991
 3133TIP3    H2 9343   3.113   6.560   2.991
 3134TIP3   OH2 9344   0.563   1.258   1.406
 3134TIP3    H1 9345   0.487   1.260   1.464
 3134TIP3    H2 9346   0.528   1.231   1.321
 3135TIP3   OH2 9347   7.462   2.042   1.303
 3135TIP3    H1 9348   7.480   2.130   1.271
 3135TIP3    H2 9349   7.410   2.001   1.235
 3136TIP3   OH2 9350   3.132   4.175   4.514
 3136TIP3    H1 9351   3.153   4.082   4.517
 3136TIP3    H2 9352   3.090   4.187   4.428
 3137TIP3   OH2 9353   0.274   0.916   0.657
 3137TIP3    H1 9354   0.280   0.891   0.565
 3137TIP3    H2 9355   0.260   1.010   0.656
 3138TIP3   OH2 9356   7.018   6.140   0.631
 3138TIP3    H1 9357   6.950   6.206   0.620
 3138TIP3    H2 9358   7.031   6.104   0.543
 3139TIP3   OH2 9359   0.286   3.627   5.140
 3139TIP3    H1 9360   0.381   3.616   5.140
 3139TIP3    H2 9361   0.255   3.566   5.206
 3140TIP3   OH2 9362   8.245   3.542   0.599
 3140TIP3    H1 9363   8.259   3.458   0.555
 3140TIP3    H2 9364   8.330   3.564   0.637
 3141TIP3   OH2 9365   3.602   5.564   3.617
 3141TIP3    H1 9366   3.592   5.500   3.545
 3141TIP3    H2 9367   3.692   5.596   3.608
 3142TIP3   OH2 9368   4.036   0.777   0.635
 3142TIP3    H1 9369   3.949   0.754   0.669
 3142TIP3    H2 9370   4.067   0.845   0.694
 3143TIP3   OH2 9371   0.181   5.361   2.386
 3143TIP3    H1 9372   0.238   5.423   2.340
 3143TIP3    H2 9373   0.092   5.389   2.364
 3144TIP3   OH2 9374   6.579   3.008   3.203
 3144TIP3    H1 9375   6.636   2.938   3.171
 3144TIP3    H2 9376   6.501   2.962   3.234
 3145TIP3   OH2 9377   6.135   2.628   3.210
 3145TIP3    H1 9378   6.141   2.536   3.187
 3145TIP3    H2 9379   6.143   2.629   3.306
 3146TIP3   OH2 9380   2.720   6.999   2.745
 3146TIP3    H1 9381   2.710   7.029   2.835
 3146TIP3    H2 9382   2.643   7.034   2.700
 3147TIP3   OH2 9383   8.060   3.169   1.961
 3147TIP3    H1 9384   8.074   3.079   1.930
 3147TIP3    H2 9385   8.117   3.178   2.037
 3148TIP3   OH2 9386   8.097   4.764   0.827
 3148TIP3    H1 9387   8.034   4.817   0.876
 3148TIP3    H2 9388   8.183   4.796   0.857
 3149TIP3   OH2 9389   7.559   2.665   0.937
 3149TIP3    H1 9390   7.479   2.673   0.885
 3149TIP3    H2 9391   7.629   2.687   0.876
 3150TIP3   OH2 9392   2.855   7.006   3.988
 3150TIP3    H1 9393   2.820   7.090   3.959
 3150TIP3    H2 9394   2.782   6.945   3.976
 3151TIP3   OH2 9395   5.493   0.320   5.435
 3151TIP3    H1 9396   5.419   0.263   5.415
 3151TIP3    H2 9397   5.567   0.282   5.388
 3152TIP3   OH2 9398   2.611   2.852   1.996
 3152TIP3    H1 9399   2.553   2.847   2.072
 3152TIP3    H2 9400   2.699   2.837   2.033
 3153TIP3   OH2 9401   3.976   7.527   3.088
 3153TIP3    H1 9402   4.030   7.585   3.034
 3153TIP3    H2 9403   3.939   7.464   3.027
 3154TIP3   OH2 9404   3.005   6.103   1.861
 3154TIP3    H1 9405   3.077   6.060   1.906
 3154TIP3    H2 9406   2.966   6.160   1.927
 3155TIP3   OH2 9407   3.155   4.714   6.495
 3155TIP3    H1 9408   3.199   4.654   6.556
 3155TIP3    H2 9409   3.070   4.673   6.478
 3156TIP3   OH2 9410   6.911   4.272   1.006
 3156TIP3    H1 9411   6.962   4.277   0.925
 3156TIP3    H2 9412   6.851   4.199   0.992
 3157TIP3   OH2 9413   1.947   5.273   5.790
 3157TIP3    H1 9414   1.911   5.242   5.707
 3157TIP3    H2 9415   1.981   5.194   5.833
 3158TIP3   OH2 9416   0.990   3.454   4.669
 3158TIP3    H1 9417   0.973   3.438   4.576
 3158TIP3    H2 9418   0.932   3.527   4.692
 3159TIP3   OH2 9419   6.128   1.782   4.211
 3159TIP3    H1 9420   6.179   1.724   4.155
 3159TIP3    H2 9421   6.049   1.801   4.161
 3160TIP3   OH2 9422   7.690   2.292   6.174
 3160TIP3    H1 9423   7.643   2.314   6.093
 3160TIP3    H2 9424   7.760   2.357   6.180
 3161TIP3   OH2 9425   3.346   6.358   5.771
 3161TIP3    H1 9426   3.421   6.404   5.809
 3161TIP3    H2 9427   3.384   6.284   5.726
 3162TIP3   OH2 9428   0.224   0.162   3.628
 3162TIP3    H1 9429   0.206   0.127   3.541
 3162TIP3    H2 9430   0.209   0.088   3.687
 3163TIP3   OH2 9431   1.375   0.831   5.325
 3163TIP3    H1 9432   1.443   0.883   5.283
 3163TIP3    H2 9433   1.368   0.751   5.271
 3164TIP3   OH2 9434   6.307   1.933   0.584
 3164TIP3    H1 9435   6.238   1.907   0.645
 3164TIP3    H2 9436   6.385   1.887   0.615
 3165TIP3   OH2 9437   3.239   1.127   4.947
 3165TIP3    H1 9438   3.284   1.195   4.897
 3165TIP3    H2 9439   3.274   1.045   4.913
 3166TIP3   OH2 9440   2.283   1.818   5.982
 3166TIP3    H1 9441   2.240   1.876   6.045
 3166TIP3    H2 9442   2.221   1.809   5.910
 3167TIP3   OH2 9443   4.444   4.034   1.247
 3167TIP3    H1 9444   4.374   3.983   1.206
 3167TIP3    H2 9445   4.522   3.978   1.241
 3168TIP3   OH2 9446   4.963   5.745   4.856
 3168TIP3    H1 9447   4.912   5.667   4.834
 3168TIP3    H2 9448   4.922   5.816   4.807
 3169TIP3   OH2 9449   7.192   3.778   4.153
 3169TIP3    H1 9450   7.224   3.868   4.144
 3169TIP3    H2 9451   7.240   3.729   4.086
 3170TIP3   OH2 9452   2.646   5.474   0.888
 3170TIP3    H1 9453   2.701   5.396   0.883
 3170TIP3    H2 9454   2.684   5.526   0.959
 3171TIP3   OH2 9455   8.076   7.402   0.513
 3171TIP3    H1 9456   8.086   7.308   0.497
 3171TIP3    H2 9457   8.074   7.410   0.608
 3172TIP3   OH2 9458   7.162   3.921   1.992
 3172TIP3    H1 9459   7.229   3.973   2.035
 3172TIP3    H2 9460   7.186   3.830   2.012
 3173TIP3   OH2 9461   1.101   5.089   0.362
 3173TIP3    H1 9462   1.126   5.112   0.452
 3173TIP3    H2 9463   1.009   5.115   0.356
 3174TIP3   OH2 9464   5.528   1.323   6.643
 3174TIP3    H1 9465   5.505   1.234   6.616
 3174TIP3    H2 9466   5.568   1.363   6.566
 3175TIP3   OH2 9467   0.571   6.751   1.103
 3175TIP3    H1 9468   0.571   6.707   1.018
 3175TIP3    H2 9469   0.487   6.726   1.143
 3176TIP3   OH2 9470   3.446   0.784   3.661
 3176TIP3    H1 9471   3.473   0.875   3.672
 3176TIP3    H2 9472   3.385   0.768   3.732
 3177TIP3   OH2 9473   1.556   6.835   4.670
 3177TIP3    H1 9474   1.636   6.887   4.666
 3177TIP3    H2 9475   1.510   6.867   4.747
 3178TIP3   OH2 9476   0.348   0.100   5.689
 3178TIP3    H1 9477   0.309   0.024   5.645
 3178TIP3    H2 9478   0.427   0.118   5.638
 3179TIP3   OH2 9479   3.949   5.328   1.908
 3179TIP3    H1 9480   3.995   5.287   1.981
 3179TIP3    H2 9481   3.975   5.420   1.912
 3180TIP3   OH2 9482   5.305   5.569   4.924
 3180TIP3    H1 9483   5.286   5.594   5.014
 3180TIP3    H2 9484   5.294   5.650   4.874
 3181TIP3   OH2 9485   1.303   4.287   1.976
 3181TIP3    H1 9486   1.221   4.290   1.926
 3181TIP3    H2 9487   1.333   4.378   1.980
 3182TIP3   OH2 9488   7.975   2.783   5.304
 3182TIP3    H1 9489   8.020   2.769   5.387
 3182TIP3    H2 9490   7.915   2.856   5.321
 3183TIP3   OH2 9491   6.588   5.864   1.341
 3183TIP3    H1 9492   6.654   5.820   1.395
 3183TIP3    H2 9493   6.516   5.801   1.334
 3184TIP3   OH2 9494   0.713   4.530   6.232
 3184TIP3    H1 9495   0.683   4.455   6.180
 3184TIP3    H2 9496   0.637   4.554   6.284
 3185TIP3   OH2 9497   1.940   1.441   1.043
 3185TIP3    H1 9498   1.990   1.415   0.966
 3185TIP3    H2 9499   1.940   1.363   1.099
 3186TIP3   OH2 9500   6.985   6.600   6.091
 3186TIP3    H1 9501   7.002   6.688   6.126
 3186TIP3    H2 9502   7.050   6.588   6.022
 3187TIP3   OH2 9503   0.963   6.032   1.466
 3187TIP3    H1 9504   1.058   6.020   1.472
 3187TIP3    H2 9505   0.945   6.106   1.524
 3188TIP3   OH2 9506   5.826   1.340   2.998
 3188TIP3    H1 9507   5.868   1.358   3.083
 3188TIP3    H2 9508   5.759   1.407   2.990
 3189TIP3   OH2 9509   6.772   4.807   4.266
 3189TIP3    H1 9510   6.803   4.835   4.352
 3189TIP3    H2 9511   6.713   4.876   4.237
 3190TIP3   OH2 9512   4.241   5.124   2.373
 3190TIP3    H1 9513   4.243   5.212   2.335
 3190TIP3    H2 9514   4.148   5.103   2.379
 3191TIP3   OH2 9515   1.829   3.658   4.167
 3191TIP3    H1 9516   1.838   3.607   4.247
 3191TIP3    H2 9517   1.795   3.597   4.103
 3192TIP3   OH2 9518   7.392   4.986   2.421
 3192TIP3    H1 9519   7.442   5.067   2.405
 3192TIP3    H2 9520   7.396   4.974   2.516
 3193TIP3   OH2 9521   3.030   5.080   5.936
 3193TIP3    H1 9522   3.012   4.986   5.942
 3193TIP3    H2 9523   2.945   5.121   5.952
 3194TIP3   OH2 9524   1.111   4.982   6.742
 3194TIP3    H1 9525   1.195   4.943   6.765
 3194TIP3    H2 9526   1.132   5.056   6.686
 3195TIP3   OH2 9527   4.256   0.915   4.635
 3195TIP3    H1 9528   4.223   0.825   4.633
 3195TIP3    H2 9529   4.220   0.952   4.716
 3196TIP3   OH2 9530   6.644   1.020   3.698
 3196TIP3    H1 9531   6.596   1.098   3.728
 3196TIP3    H2 9532   6.707   1.002   3.768
 3197TIP3   OH2 9533   1.227   1.388   1.550
 3197TIP3    H1 9534   1.256   1.438   1.473
 3197TIP3    H2 9535   1.132   1.402   1.552
 3198TIP3   OH2 9536   3.715   3.436   0.168
 3198TIP3    H1 9537   3.715   3.386   0.249
 3198TIP3    H2 9538   3.779   3.391   0.113
 3199TIP3   OH2 9539   6.347   2.723   4.074
 3199TIP3    H1 9540   6.297   2.648   4.041
 3199TIP3    H2 9541   6.282   2.792   4.086
 3200TIP3   OH2 9542   1.682   7.184   1.162
 3200TIP3    H1 9543   1.729   7.141   1.090
 3200TIP3    H2 9544   1.714   7.139   1.241
 3201TIP3   OH2 9545   5.170   5.308   0.673
 3201TIP3    H1 9546   5.234   5.330   0.605
 3201TIP3    H2 9547   5.093   5.279   0.624
 3202TIP3   OH2 9548   1.576   4.349   4.312
 3202TIP3    H1 9549   1.654   4.390   4.274
 3202TIP3    H2 9550   1.502   4.391   4.268
 3203TIP3   OH2 9551   3.217   5.714   5.018
 3203TIP3    H1 9552   3.231   5.733   4.926
 3203TIP3    H2 9553   3.294   5.665   5.045
 3204TIP3   OH2 9554   5.712   2.508   2.116
 3204TIP3    H1 9555   5.643   2.543   2.059
 3204TIP3    H2 9556   5.766   2.454   2.058
 3205TIP3   OH2 9557   2.274   2.871   4.851
 3205TIP3    H1 9558   2.338   2.804   4.828
 3205TIP3    H2 9559   2.318   2.926   4.916
 3206TIP3   OH2 9560   5.688   4.073   2.262
 3206TIP3    H1 9561   5.631   4.107   2.331
 3206TIP3    H2 9562   5.776   4.081   2.297
 3207TIP3   OH2 9563   0.927   0.726   5.048
 3207TIP3    H1 9564   0.966   0.654   4.999
 3207TIP3    H2 9565   0.946   0.804   4.996
 3208TIP3   OH2 9566   2.445   4.701   4.461
 3208TIP3    H1 9567   2.450   4.731   4.552
 3208TIP3    H2 9568   2.361   4.735   4.429
 3209TIP3   OH2 9569   0.344   3.674   6.529
 3209TIP3    H1 9570   0.368   3.597   6.479
 3209TIP3    H2 9571   0.292   3.641   6.602
 3210TIP3   OH2 9572   8.256   0.076   0.844
 3210TIP3    H1 9573   8.186   0.137   0.822
 3210TIP3    H2 9574   8.242   0.055   0.937
 3211TIP3   OH2 9575   4.345   4.647   4.681
 3211TIP3    H1 9576   4.357   4.566   4.632
 3211TIP3    H2 9577   4.434   4.674   4.705
 3212TIP3   OH2 9578   5.006   2.702   6.093
 3212TIP3    H1 9579   5.027   2.609   6.086
 3212TIP3    H2 9580   4.948   2.708   6.170
 3213TIP3   OH2 9581   1.200   0.102   3.034
 3213TIP3    H1 9582   1.240   0.063   2.956
 3213TIP3    H2 9583   1.253   0.069   3.107
 3214TIP3   OH2 9584   7.244   5.361   2.008
 3214TIP3    H1 9585   7.291   5.307   2.072
 3214TIP3    H2 9586   7.260   5.317   1.924
 3215TIP3   OH2 9587   2.383   6.500   3.161
 3215TIP3    H1 9588   2.433   6.440   3.106
 3215TIP3    H2 9589   2.384   6.583   3.113
 3216TIP3   OH2 9590   1.106   0.986   5.720
 3216TIP3    H1 9591   1.110   1.082   5.723
 3216TIP3    H2 9592   1.121   0.959   5.810
 3217TIP3   OH2 9593   3.441   0.594   6.647
 3217TIP3    H1 9594   3.482   0.574   6.732
 3217TIP3    H2 9595   3.513   0.594   6.585
 3218TIP3   OH2 9596   6.856   4.249   5.054
 3218TIP3    H1 9597   6.831   4.331   5.011
 3218TIP3    H2 9598   6.795   4.241   5.127
 3219TIP3   OH2 9599   1.625   0.012   0.166
 3219TIP3    H1 9600   1.664   0.032   0.251
 3219TIP3    H2 9601   1.548   0.068   0.161
 3220TIP3   OH2 9602   5.536   1.845   1.808
 3220TIP3    H1 9603   5.551   1.914   1.872
 3220TIP3    H2 9604   5.602   1.859   1.741
 3221TIP3   OH2 9605   6.902   4.054   3.089
 3221TIP3    H1 9606   6.817   4.021   3.118
 3221TIP3    H2 9607   6.885   4.092   3.003
 3222TIP3   OH2 9608   6.989   1.843   4.549
 3222TIP3    H1 9609   7.073   1.824   4.509
 3222TIP3    H2 9610   6.962   1.760   4.589
 3223TIP3   OH2 9611   1.150   0.821   2.753
 3223TIP3    H1 9612   1.079   0.885   2.758
 3223TIP3    H2 9613   1.128   0.756   2.820
 3224TIP3   OH2 9614   0.615   2.916   4.246
 3224TIP3    H1 9615   0.634   2.931   4.154
 3224TIP3    H2 9616   0.651   2.829   4.264
 3225TIP3   OH2 9617   7.957   3.928   5.693
 3225TIP3    H1 9618   8.020   3.861   5.666
 3225TIP3    H2 9619   7.879   3.879   5.719
 3226TIP3   OH2 9620   8.164   6.616   1.445
 3226TIP3    H1 9621   8.093   6.551   1.451
 3226TIP3    H2 9622   8.191   6.629   1.536
 3227TIP3   OH2 9623   4.462   1.356   1.512
 3227TIP3    H1 9624   4.370   1.357   1.537
 3227TIP3    H2 9625   4.490   1.266   1.525
 3228TIP3   OH2 9626   1.727   5.981   1.800
 3228TIP3    H1 9627   1.678   6.040   1.857
 3228TIP3    H2 9628   1.791   6.036   1.756
 3229TIP3   OH2 9629   5.639   2.992   6.223
 3229TIP3    H1 9630   5.699   3.065   6.207
 3229TIP3    H2 9631   5.683   2.917   6.182
 3230TIP3   OH2 9632   4.080   3.753   3.109
 3230TIP3    H1 9633   4.170   3.785   3.098
 3230TIP3    H2 9634   4.031   3.792   3.037
 3231TIP3   OH2 9635   0.591   5.379   5.193
 3231TIP3    H1 9636   0.653   5.307   5.182
 3231TIP3    H2 9637   0.643   5.451   5.229
 3232TIP3   OH2 9638   8.051   4.104   0.920
 3232TIP3    H1 9639   8.116   4.124   0.988
 3232TIP3    H2 9640   8.094   4.038   0.865
 3233TIP3   OH2 9641   4.390   5.035   1.443
 3233TIP3    H1 9642   4.310   4.990   1.468
 3233TIP3    H2 9643   4.388   5.117   1.493
 3234TIP3   OH2 9644   1.449   1.598   2.280
 3234TIP3    H1 9645   1.411   1.570   2.364
 3234TIP3    H2 9646   1.483   1.686   2.299
 3235TIP3   OH2 9647   1.180   3.391   3.998
 3235TIP3    H1 9648   1.159   3.300   3.975
 3235TIP3    H2 9649   1.272   3.401   3.974
 3236TIP3   OH2 9650   0.045   4.817   5.298
 3236TIP3    H1 9651  -0.033   4.867   5.275
 3236TIP3    H2 9652   0.067   4.768   5.219
 3237TIP3   OH2 9653   5.329   3.463   4.220
 3237TIP3    H1 9654   5.328   3.367   4.210
 3237TIP3    H2 9655   5.284   3.479   4.303
 3238TIP3   OH2 9656   2.146   4.066   1.866
 3238TIP3    H1 9657   2.088   3.991   1.853
 3238TIP3    H2 9658   2.163   4.067   1.960
 3239TIP3   OH2 9659   1.102   4.955   5.776
 3239TIP3    H1 9660   1.072   4.974   5.865
 3239TIP3    H2 9661   1.056   5.018   5.721
 3240TIP3   OH2 9662   0.383   4.780   4.455
 3240TIP3    H1 9663   0.423   4.724   4.522
 3240TIP3    H2 9664   0.293   4.751   4.449
 3241TIP3   OH2 9665   6.085   6.435   2.018
 3241TIP3    H1 9666   6.058   6.526   2.033
 3241TIP3    H2 9667   6.012   6.397   1.969
 3242TIP3   OH2 9668   1.782   4.646   4.010
 3242TIP3    H1 9669   1.692   4.643   4.041
 3242TIP3    H2 9670   1.775   4.679   3.920
 3243TIP3   OH2 9671   2.045   1.080   3.492
 3243TIP3    H1 9672   2.115   1.143   3.476
 3243TIP3    H2 9673   1.983   1.126   3.549
 3244TIP3   OH2 9674   8.214   6.474   4.399
 3244TIP3    H1 9675   8.225   6.417   4.475
 3244TIP3    H2 9676   8.198   6.414   4.326
 3245TIP3   OH2 9677   4.634   7.602   2.997
 3245TIP3    H1 9678   4.696   7.581   3.067
 3245TIP3    H2 9679   4.633   7.698   2.995
 3246TIP3   OH2 9680   5.680   4.664   3.333
 3246TIP3    H1 9681   5.759   4.710   3.304
 3246TIP3    H2 9682   5.696   4.648   3.426
 3247TIP3   OH2 9683   1.482   1.822   4.323
 3247TIP3    H1 9684   1.424   1.766   4.374
 3247TIP3    H2 9685   1.478   1.786   4.234
 3248TIP3   OH2 9686   6.703   4.751   0.118
 3248TIP3    H1 9687   6.757   4.780   0.192
 3248TIP3    H2 9688   6.767   4.727   0.050
 3249TIP3   OH2 9689   7.540   6.447   2.897
 3249TIP3    H1 9690   7.574   6.382   2.959
 3249TIP3    H2 9691   7.546   6.530   2.944
 3250TIP3   OH2 9692   4.785   1.252   2.134
 3250TIP3    H1 9693   4.742   1.320   2.083
 3250TIP3    H2 9694   4.805   1.293   2.218
 3251TIP3   OH2 9695   2.425   4.462   5.931
 3251TIP3    H1 9696   2.401   4.403   6.002
 3251TIP3    H2 9697   2.458   4.540   5.975
 3252TIP3   OH2 9698   8.107   2.860   5.921
 3252TIP3    H1 9699   8.079   2.927   5.984
 3252TIP3    H2 9700   8.030   2.846   5.865
 3253TIP3   OH2 9701   5.288   1.211   5.585
 3253TIP3    H1 9702   5.291   1.276   5.655
 3253TIP3    H2 9703   5.337   1.252   5.513
 3254TIP3   OH2 9704   1.407   5.156   5.555
 3254TIP3    H1 9705   1.339   5.199   5.605
 3254TIP3    H2 9706   1.487   5.170   5.605
 3255TIP3   OH2 9707   7.499   7.253   2.444
 3255TIP3    H1 9708   7.563   7.194   2.485
 3255TIP3    H2 9709   7.414   7.223   2.476
 3256TIP3   OH2 9710   4.986   3.494   3.155
 3256TIP3    H1 9711   4.995   3.399   3.142
 3256TIP3    H2 9712   4.939   3.524   3.077
 3257TIP3   OH2 9713   5.551   5.348   6.204
 3257TIP3    H1 9714   5.458   5.323   6.207
 3257TIP3    H2 9715   5.560   5.414   6.273
 3258TIP3   OH2 9716   5.006   6.127   3.055
 3258TIP3    H1 9717   4.960   6.054   3.014
 3258TIP3    H2 9718   5.098   6.100   3.056
 3259TIP3   OH2 9719   2.724   5.518   3.644
 3259TIP3    H1 9720   2.691   5.433   3.672
 3259TIP3    H2 9721   2.819   5.513   3.655
 3260TIP3   OH2 9722   4.408   6.761   5.458
 3260TIP3    H1 9723   4.313   6.761   5.458
 3260TIP3    H2 9724   4.432   6.688   5.515
 3261TIP3   OH2 9725   4.614   4.082   5.061
 3261TIP3    H1 9726   4.673   4.149   5.029
 3261TIP3    H2 9727   4.592   4.110   5.150
 3262TIP3   OH2 9728   0.611   2.274   3.926
 3262TIP3    H1 9729   0.634   2.227   4.007
 3262TIP3    H2 9730   0.682   2.336   3.913
 3263TIP3   OH2 9731   5.357   1.837   1.106
 3263TIP3    H1 9732   5.272   1.851   1.149
 3263TIP3    H2 9733   5.416   1.898   1.151
 3264TIP3   OH2 9734   4.703   3.232   5.652
 3264TIP3    H1 9735   4.747   3.305   5.608
 3264TIP3    H2 9736   4.745   3.226   5.737
 3265TIP3   OH2 9737   3.508   4.428   0.378
 3265TIP3    H1 9738   3.465   4.493   0.322
 3265TIP3    H2 9739   3.467   4.439   0.463
 3266TIP3   OH2 9740   3.726   2.711   0.693
 3266TIP3    H1 9741   3.758   2.643   0.753
 3266TIP3    H2 9742   3.650   2.671   0.650
 3267TIP3   OH2 9743   4.357   6.634   3.764
 3267TIP3    H1 9744   4.391   6.697   3.702
 3267TIP3    H2 9745   4.285   6.680   3.808
 3268TIP3   OH2 9746   7.378   6.839   5.876
 3268TIP3    H1 9747   7.431   6.919   5.878
 3268TIP3    H2 9748   7.319   6.848   5.951
 3269TIP3   OH2 9749   1.555   4.351   4.726
 3269TIP3    H1 9750   1.481   4.410   4.720
 3269TIP3    H2 9751   1.608   4.370   4.649
 3270TIP3   OH2 9752   2.005   5.017   5.905
 3270TIP3    H1 9753   2.035   4.972   5.985
 3270TIP3    H2 9754   1.982   4.946   5.845
 3271TIP3   OH2 9755   6.695   2.402   5.972
 3271TIP3    H1 9756   6.693   2.307   5.961
 3271TIP3    H2 9757   6.748   2.417   6.050
 3272TIP3   OH2 9758   1.277   1.560   0.126
 3272TIP3    H1 9759   1.332   1.521   0.194
 3272TIP3    H2 9760   1.187   1.547   0.156
 3273TIP3   OH2 9761   7.080   5.239   1.272
 3273TIP3    H1 9762   7.085   5.314   1.332
 3273TIP3    H2 9763   7.051   5.276   1.189
 3274TIP3   OH2 9764   4.366   3.244   5.495
 3274TIP3    H1 9765   4.285   3.195   5.504
 3274TIP3    H2 9766   4.360   3.285   5.409
 3275TIP3   OH2 9767   1.897   4.487   1.006
 3275TIP3    H1 9768   1.906   4.577   0.976
 3275TIP3    H2 9769   1.933   4.488   1.095
 3276TIP3   OH2 9770   1.527   7.510   1.920
 3276TIP3    H1 9771   1.622   7.498   1.925
 3276TIP3    H2 9772   1.514   7.604   1.929
 3277TIP3   OH2 9773   7.161   7.645   6.615
 3277TIP3    H1 9774   7.091   7.588   6.581
 3277TIP3    H2 9775   7.232   7.585   6.638
 3278TIP3   OH2 9776   0.565   6.738   3.056
 3278TIP3    H1 9777   0.494   6.776   3.005
 3278TIP3    H2 9778   0.610   6.813   3.096
 3279TIP3   OH2 9779   6.544   6.990   4.975
 3279TIP3    H1 9780   6.519   7.002   5.066
 3279TIP3    H2 9781   6.464   7.007   4.925
 3280TIP3   OH2 9782   0.156   1.936   1.374
 3280TIP3    H1 9783   0.068   1.967   1.398
 3280TIP3    H2 9784   0.163   1.849   1.414
 3281TIP3   OH2 9785   0.265   3.438   5.887
 3281TIP3    H1 9786   0.356   3.410   5.882
 3281TIP3    H2 9787   0.214   3.357   5.882
 3282TIP3   OH2 9788   5.517   5.572   5.163
 3282TIP3    H1 9789   5.433   5.533   5.185
 3282TIP3    H2 9790   5.499   5.627   5.087
 3283TIP3   OH2 9791   3.544   7.646   6.284
 3283TIP3    H1 9792   3.577   7.736   6.279
 3283TIP3    H2 9793   3.451   7.654   6.264
 3284TIP3   OH2 9794   0.245   7.375   0.002
 3284TIP3    H1 9795   0.270   7.354   0.092
 3284TIP3    H2 9796   0.185   7.306  -0.024
 3285TIP3   OH2 9797   0.566   1.378   3.807
 3285TIP3    H1 9798   0.659   1.373   3.786
 3285TIP3    H2 9799   0.557   1.330   3.889
 3286TIP3   OH2 9800   2.562   3.165   6.425
 3286TIP3    H1 9801   2.519   3.157   6.510
 3286TIP3    H2 9802   2.494   3.198   6.367
 3287TIP3   OH2 9803   1.983   5.674   1.983
 3287TIP3    H1 9804   2.046   5.602   1.988
 3287TIP3    H2 9805   2.002   5.718   1.900
 3288TIP3   OH2 9806   7.408   3.202   5.060
 3288TIP3    H1 9807   7.417   3.298   5.064
 3288TIP3    H2 9808   7.486   3.173   5.013
 3289TIP3   OH2 9809   5.281   0.566   3.964
 3289TIP3    H1 9810   5.196   0.593   3.929
 3289TIP3    H2 9811   5.276   0.470   3.967
 3290TIP3   OH2 9812   3.464   6.301   4.887
 3290TIP3    H1 9813   3.528   6.373   4.887
 3290TIP3    H2 9814   3.509   6.230   4.933
 3291TIP3   OH2 9815   7.358   4.804   6.678
 3291TIP3    H1 9816   7.291   4.736   6.691
 3291TIP3    H2 9817   7.326   4.879   6.728
 3292TIP3   OH2 9818   2.998   5.522   5.033
 3292TIP3    H1 9819   3.063   5.592   5.033
 3292TIP3    H2 9820   2.914   5.567   5.024
 3293TIP3   OH2 9821   4.443   1.987   0.509
 3293TIP3    H1 9822   4.365   1.993   0.454
 3293TIP3    H2 9823   4.514   2.018   0.452
 3294TIP3   OH2 9824   6.150   1.410   5.880
 3294TIP3    H1 9825   6.147   1.322   5.841
 3294TIP3    H2 9826   6.108   1.400   5.965
 3295TIP3   OH2 9827   7.935   2.139   0.301
 3295TIP3    H1 9828   7.865   2.094   0.252
 3295TIP3    H2 9829   8.011   2.082   0.291
 3296TIP3   OH2 9830   6.776   2.777   3.427
 3296TIP3    H1 9831   6.767   2.682   3.430
 3296TIP3    H2 9832   6.793   2.796   3.335
 3297TIP3   OH2 9833   1.847   0.326   2.024
 3297TIP3    H1 9834   1.764   0.373   2.015
 3297TIP3    H2 9835   1.863   0.289   1.937
 3298TIP3   OH2 9836   3.392   2.174   5.328
 3298TIP3    H1 9837   3.344   2.187   5.410
 3298TIP3    H2 9838   3.355   2.094   5.291
 3299TIP3   OH2 9839   7.720   2.630   3.849
 3299TIP3    H1 9840   7.776   2.604   3.776
 3299TIP3    H2 9841   7.648   2.567   3.848
 3300TIP3   OH2 9842   4.255   4.404   4.951
 3300TIP3    H1 9843   4.258   4.312   4.925
 3300TIP3    H2 9844   4.347   4.427   4.967
 3301TIP3   OH2 9845   6.042   3.580   3.364
 3301TIP3    H1 9846   6.045   3.624   3.279
 3301TIP3    H2 9847   5.993   3.640   3.420
 3302TIP3   OH2 9848   0.740   4.136   1.267
 3302TIP3    H1 9849   0.713   4.104   1.353
 3302TIP3    H2 9850   0.820   4.185   1.283
 3303TIP3   OH2 9851   4.934   7.155   2.765
 3303TIP3    H1 9852   4.857   7.179   2.713
 3303TIP3    H2 9853   4.965   7.074   2.725
 3304TIP3   OH2 9854   2.321   3.729   1.041
 3304TIP3    H1 9855   2.376   3.792   1.088
 3304TIP3    H2 9856   2.232   3.757   1.059
 3305TIP3   OH2 9857   5.067   6.838   5.779
 3305TIP3    H1 9858   5.101   6.927   5.794
 3305TIP3    H2 9859   4.976   6.843   5.807
 3306TIP3   OH2 9860   1.193   5.387   4.237
 3306TIP3    H1 9861   1.217   5.430   4.319
 3306TIP3    H2 9862   1.224   5.446   4.168
 3307TIP3   OH2 9863   2.717   5.405   4.454
 3307TIP3    H1 9864   2.735   5.324   4.502
 3307TIP3    H2 9865   2.640   5.384   4.400
 3308TIP3   OH2 9866   1.666   2.186   1.002
 3308TIP3    H1 9867   1.614   2.135   0.940
 3308TIP3    H2 9868   1.671   2.273   0.963
 3309TIP3   OH2 9869   1.764   7.106   3.839
 3309TIP3    H1 9870   1.683   7.055   3.834
 3309TIP3    H2 9871   1.787   7.124   3.747
 3310TIP3   OH2 9872   1.900   6.160   5.267
 3310TIP3    H1 9873   1.864   6.202   5.346
 3310TIP3    H2 9874   1.835   6.178   5.199
 3311TIP3   OH2 9875   7.084   7.188   5.581
 3311TIP3    H1 9876   7.099   7.196   5.675
 3311TIP3    H2 9877   7.120   7.269   5.544
 3312TIP3   OH2 9878   6.049   4.537   1.395
 3312TIP3    H1 9879   6.137   4.498   1.402
 3312TIP3    H2 9880   6.060   4.626   1.428
 3313TIP3   OH2 9881   1.795   4.671   1.876
 3313TIP3    H1 9882   1.738   4.686   1.800
 3313TIP3    H2 9883   1.878   4.641   1.838
 3314TIP3   OH2 9884   0.541   2.343   0.427
 3314TIP3    H1 9885   0.627   2.366   0.462
 3314TIP3    H2 9886   0.499   2.292   0.496
 3315TIP3   OH2 9887   0.664   2.137   2.554
 3315TIP3    H1 9888   0.574   2.144   2.587
 3315TIP3    H2 9889   0.667   2.053   2.509
 3316TIP3   OH2 9890   4.878   1.866   3.814
 3316TIP3    H1 9891   4.859   1.906   3.899
 3316TIP3    H2 9892   4.803   1.888   3.759
 3317TIP3   OH2 9893   2.459   4.534   3.624
 3317TIP3    H1 9894   2.442   4.450   3.666
 3317TIP3    H2 9895   2.446   4.599   3.694
 3318TIP3   OH2 9896   1.584   3.718   3.090
 3318TIP3    H1 9897   1.597   3.754   3.002
 3318TIP3    H2 9898   1.666   3.671   3.108
 3319TIP3   OH2 9899   6.736   7.307   4.399
 3319TIP3    H1 9900   6.819   7.320   4.444
 3319TIP3    H2 9901   6.718   7.213   4.408
 3320TIP3   OH2 9902   5.417   2.476   4.539
 3320TIP3    H1 9903   5.364   2.421   4.596
 3320TIP3    H2 9904   5.502   2.481   4.581
 3321TIP3   OH2 9905   4.729   3.941   4.629
 3321TIP3    H1 9906   4.755   3.896   4.710
 3321TIP3    H2 9907   4.719   4.033   4.655
 3322TIP3   OH2 9908   7.277   3.147   3.875
 3322TIP3    H1 9909   7.297   3.080   3.809
 3322TIP3    H2 9910   7.359   3.195   3.886
 3323TIP3   OH2 9911   0.385   5.646   2.928
 3323TIP3    H1 9912   0.389   5.717   2.993
 3323TIP3    H2 9913   0.292   5.621   2.927
 3324TIP3   OH2 9914   7.471   6.145   0.647
 3324TIP3    H1 9915   7.501   6.233   0.670
 3324TIP3    H2 9916   7.539   6.086   0.680
 3325TIP3   OH2 9917   2.928   2.409   0.992
 3325TIP3    H1 9918   2.877   2.353   1.051
 3325TIP3    H2 9919   2.994   2.351   0.955
 3326TIP3   OH2 9920   3.160   7.464   6.664
 3326TIP3    H1 9921   3.227   7.426   6.719
 3326TIP3    H2 9922   3.177   7.429   6.577
 3327TIP3   OH2 9923   0.034   4.932   4.422
 3327TIP3    H1 9924  -0.028   4.921   4.494
 3327TIP3    H2 9925   0.120   4.933   4.463
 3328TIP3   OH2 9926   5.216   5.959   2.711
 3328TIP3    H1 9927   5.234   5.867   2.728
 3328TIP3    H2 9928   5.212   5.966   2.615
 3329TIP3   OH2 9929   0.055   2.887   2.723
 3329TIP3    H1 9930  -0.033   2.923   2.731
 3329TIP3    H2 9931   0.046   2.795   2.750
 3330TIP3   OH2 9932   3.432   0.497   3.337
 3330TIP3    H1 9933   3.505   0.448   3.299
 3330TIP3    H2 9934   3.417   0.568   3.276
 3331TIP3   OH2 9935   0.150   5.538   4.563
 3331TIP3    H1 9936   0.175   5.549   4.471
 3331TIP3    H2 9937   0.066   5.583   4.571
 3332TIP3   OH2 9938   3.519   3.913   3.741
 3332TIP3    H1 9939   3.468   3.986   3.708
 3332TIP3    H2 9940   3.529   3.855   3.665
 3333TIP3   OH2 9941   3.225   1.413   6.500
 3333TIP3    H1 9942   3.187   1.340   6.548
 3333TIP3    H2 9943   3.188   1.406   6.412
 3334TIP3   OH2 9944   5.693   0.778   0.776
 3334TIP3    H1 9945   5.665   0.769   0.685
 3334TIP3    H2 9946   5.629   0.727   0.826
 3335TIP3   OH2 9947   0.751   4.231   1.790
 3335TIP3    H1 9948   0.847   4.227   1.782
 3335TIP3    H2 9949   0.725   4.139   1.798
 3336TIP3   OH2 9950   6.916   6.520   6.366
 3336TIP3    H1 9951   6.927   6.425   6.368
 3336TIP3    H2 9952   6.946   6.545   6.278
 3337TIP3   OH2 9953   5.754   1.894   4.462
 3337TIP3    H1 9954   5.672   1.847   4.475
 3337TIP3    H2 9955   5.794   1.853   4.385
 3338TIP3   OH2 9956   4.151   4.847   6.375
 3338TIP3    H1 9957   4.243   4.849   6.349
 3338TIP3    H2 9958   4.111   4.783   6.316
 3339TIP3   OH2 9959   3.435   3.791   3.005
 3339TIP3    H1 9960   3.482   3.872   2.985
 3339TIP3    H2 9961   3.440   3.784   3.100
 3340TIP3   OH2 9962   3.540   3.857   1.935
 3340TIP3    H1 9963   3.568   3.800   2.007
 3340TIP3    H2 9964   3.604   3.928   1.935
 3341TIP3   OH2 9965   0.593   0.490   2.758
 3341TIP3    H1 9966   0.673   0.511   2.806
 3341TIP3    H2 9967   0.539   0.442   2.822
 3342TIP3   OH2 9968   3.850   0.275   5.530
 3342TIP3    H1 9969   3.870   0.182   5.544
 3342TIP3    H2 9970   3.848   0.313   5.618
 3343TIP3   OH2 9971   1.071   5.484   1.492
 3343TIP3    H1 9972   1.153   5.486   1.441
 3343TIP3    H2 9973   1.008   5.530   1.437
 3344TIP3   OH2 9974   2.224   1.559   1.568
 3344TIP3    H1 9975   2.173   1.629   1.608
 3344TIP3    H2 9976   2.199   1.480   1.615
 3345TIP3   OH2 9977   4.827   2.080   4.396
 3345TIP3    H1 9978   4.785   2.047   4.475
 3345TIP3    H2 9979   4.806   2.015   4.328
 3346TIP3   OH2 9980   0.454   1.665   5.049
 3346TIP3    H1 9981   0.476   1.731   5.114
 3346TIP3    H2 9982   0.536   1.648   5.003
 3347TIP3   OH2 9983   0.400   2.829   2.321
 3347TIP3    H1 9984   0.421   2.736   2.335
 3347TIP3    H2 9985   0.352   2.854   2.400
 3348TIP3   OH2 9986   2.457   2.218   5.111
 3348TIP3    H1 9987   2.400   2.212   5.188
 3348TIP3    H2 9988   2.546   2.217   5.147
 3349TIP3   OH2 9989   6.026   1.565   3.491
 3349TIP3    H1 9990   5.933   1.554   3.474
 3349TIP3    H2 9991   6.041   1.659   3.483
 3350TIP3   OH2 9992   6.514   4.087   2.392
 3350TIP3    H1 9993   6.562   4.088   2.309
 3350TIP3    H2 9994   6.521   4.177   2.425
 3351TIP3   OH2 9995   3.417   1.365   2.010
 3351TIP3    H1 9996   3.469   1.315   2.073
 3351TIP3    H2 9997   3.338   1.313   1.998
 3352TIP3   OH2 9998   0.291   2.103   1.170
 3352TIP3    H1 9999   0.237   2.040   1.218
 3352TIP3    H210000   0.279   2.186   1.216
 3353TIP3   OH210001   3.304   3.980   3.423
 3353TIP3    H110002   3.337   3.891   3.416
 3353TIP3    H210003   3.351   4.029   3.355
 3354TIP3   OH210004   7.736   5.256   1.563
 3354TIP3    H110005   7.666   5.313   1.531
 3354TIP3    H210006   7.692   5.197   1.625
 3355TIP3   OH210007   4.974   5.185   2.855
 3355TIP3    H110008   4.886   5.149   2.844
 3355TIP3    H210009   4.982   5.252   2.787
 3356TIP3   OH210010   3.847   2.696   4.280
 3356TIP3    H110011   3.869   2.638   4.353
 3356TIP3    H210012   3.904   2.667   4.209
 3357TIP3   OH210013   4.184   1.620   0.493
 3357TIP3    H110014   4.210   1.623   0.401
 3357TIP3    H210015   4.090   1.602   0.490
 3358TIP3   OH210016   5.538   5.889   0.680
 3358TIP3    H110017   5.616   5.877   0.735
 3358TIP3    H210018   5.574   5.908   0.593
 3359TIP3   OH210019   2.311   4.891   5.179
 3359TIP3    H110020   2.328   4.962   5.241
 3359TIP3    H210021   2.235   4.845   5.216
 3360TIP3   OH210022   0.717   3.535   0.368
 3360TIP3    H110023   0.731   3.547   0.462
 3360TIP3    H210024   0.703   3.623   0.335
 3361TIP3   OH210025   4.418   6.202   1.571
 3361TIP3    H110026   4.484   6.181   1.637
 3361TIP3    H210027   4.436   6.294   1.548
 3362TIP3   OH210028   6.690   2.543   5.595
 3362TIP3    H110029   6.705   2.637   5.599
 3362TIP3    H210030   6.767   2.508   5.550
 3363TIP3   OH210031   2.010   5.766   5.812
 3363TIP3    H110032   2.098   5.796   5.791
 3363TIP3    H210033   2.021   5.706   5.886
 3364TIP3   OH210034   3.224   1.436   3.061
 3364TIP3    H110035   3.133   1.429   3.034
 3364TIP3    H210036   3.222   1.489   3.141
 3365TIP3   OH210037   1.559   0.183   2.575
 3365TIP3    H110038   1.580   0.189   2.668
 3365TIP3    H210039   1.609   0.108   2.543
 3366TIP3   OH210040   0.869   1.134   0.346
 3366TIP3    H110041   0.798   1.079   0.312
 3366TIP3    H210042   0.863   1.125   0.441
 3367TIP3   OH210043   3.948   6.690   2.886
 3367TIP3    H110044   3.994   6.723   2.808
 3367TIP3    H210045   3.892   6.763   2.912
 3368TIP3   OH210046   2.501   4.077   4.296
 3368TIP3    H110047   2.463   4.164   4.303
 3368TIP3    H210048   2.585   4.091   4.252
 3369TIP3   OH210049   1.344   2.007   4.074
 3369TIP3    H110050   1.417   1.958   4.113
 3369TIP3    H210051   1.339   2.088   4.124
 3370TIP3   OH210052   2.374   5.802   3.751
 3370TIP3    H110053   2.279   5.800   3.741
 3370TIP3    H210054   2.396   5.895   3.749
 3371TIP3   OH210055   2.987   0.305   6.380
 3371TIP3    H110056   2.973   0.287   6.287
 3371TIP3    H210057   3.026   0.392   6.382
 3372TIP3   OH210058   3.402   2.960   4.562
 3372TIP3    H110059   3.308   2.964   4.543
 3372TIP3    H210060   3.434   2.891   4.503
 3373TIP3   OH210061   5.883   3.754   3.568
 3373TIP3    H110062   5.872   3.788   3.657
 3373TIP3    H210063   5.815   3.798   3.517
 3374TIP3   OH210064   2.300   1.093   4.383
 3374TIP3    H110065   2.224   1.055   4.340
 3374TIP3    H210066   2.277   1.185   4.395
 3375TIP3   OH210067   1.161   6.847   1.636
 3375TIP3    H110068   1.252   6.818   1.642
 3375TIP3    H210069   1.113   6.783   1.688
 3376TIP3   OH210070   2.881   3.781   2.002
 3376TIP3    H110071   2.939   3.715   2.042
 3376TIP3    H210072   2.940   3.842   1.960
 3377TIP3   OH210073   0.134   1.267   0.309
 3377TIP3    H110074   0.108   1.340   0.252
 3377TIP3    H210075   0.102   1.189   0.263
 3378TIP3   OH210076   8.211   4.136   4.344
 3378TIP3    H110077   8.137   4.149   4.403
 3378TIP3    H210078   8.288   4.161   4.395
 3379TIP3   OH210079   3.389   0.949   0.103
 3379TIP3    H110080   3.447   0.998   0.045
 3379TIP3    H210081   3.438   0.943   0.186
 3380TIP3   OH210082   3.335   7.673   2.133
 3380TIP3    H110083   3.330   7.746   2.194
 3380TIP3    H210084   3.304   7.597   2.183
 3381TIP3   OH210085   8.162   5.504   0.333
 3381TIP3    H110086   8.167   5.469   0.422
 3381TIP3    H210087   8.127   5.432   0.281
 3382TIP3   OH210088   6.149   4.660   0.332
 3382TIP3    H110089   6.138   4.715   0.409
 3382TIP3    H210090   6.149   4.570   0.367
 3383TIP3   OH210091   5.812   1.969   1.729
 3383TIP3    H110092   5.876   2.023   1.683
 3383TIP3    H210093   5.808   1.888   1.679
 3384TIP3   OH210094   6.189   5.231   6.131
 3384TIP3    H110095   6.186   5.143   6.169
 3384TIP3    H210096   6.182   5.217   6.036
 3385TIP3   OH210097   6.589   1.267   2.181
 3385TIP3    H110098   6.562   1.216   2.105
 3385TIP3    H210099   6.508   1.276   2.232
 3386TIP3   OH210100   4.276   1.328   0.225
 3386TIP3    H110101   4.277   1.233   0.210
 3386TIP3    H210102   4.211   1.340   0.294
 3387TIP3   OH210103   6.228   2.416   3.537
 3387TIP3    H110104   6.247   2.380   3.450
 3387TIP3    H210105   6.287   2.368   3.596
 3388TIP3   OH210106   2.066   5.843   6.146
 3388TIP3    H110107   2.132   5.892   6.098
 3388TIP3    H210108   2.116   5.781   6.200
 3389TIP3   OH210109   0.457   0.316   3.664
 3389TIP3    H110110   0.419   0.229   3.654
 3389TIP3    H210111   0.387   0.376   3.638
 3390TIP3   OH210112   4.091   7.664   4.614
 3390TIP3    H110113   4.147   7.633   4.543
 3390TIP3    H210114   4.146   7.727   4.662
 3391TIP3   OH210115   0.608   7.637   5.417
 3391TIP3    H110116   0.701   7.614   5.406
 3391TIP3    H210117   0.588   7.691   5.340
 3392TIP3   OH210118   4.502   2.139   3.513
 3392TIP3    H110119   4.424   2.149   3.566
 3392TIP3    H210120   4.563   2.205   3.546
 3393TIP3   OH210121   0.645   1.698   0.938
 3393TIP3    H110122   0.576   1.724   0.999
 3393TIP3    H210123   0.640   1.762   0.867
 3394TIP3   OH210124   2.850   4.111   0.290
 3394TIP3    H110125   2.894   4.148   0.366
 3394TIP3    H210126   2.766   4.158   0.286
 3395TIP3   OH210127   2.139   4.744   5.356
 3395TIP3    H110128   2.068   4.804   5.375
 3395TIP3    H210129   2.095   4.662   5.331
 3396TIP3   OH210130   7.905   1.833   5.739
 3396TIP3    H110131   7.941   1.808   5.825
 3396TIP3    H210132   7.941   1.768   5.679
 3397TIP3   OH210133   2.969   1.046   1.507
 3397TIP3    H110134   3.012   1.126   1.477
 3397TIP3    H210135   3.025   1.013   1.577
 3398TIP3   OH210136   1.224   5.422   2.180
 3398TIP3    H110137   1.156   5.489   2.172
 3398TIP3    H210138   1.269   5.423   2.095
 3399TIP3   OH210139   7.348   3.594   2.646
 3399TIP3    H110140   7.392   3.595   2.731
 3399TIP3    H210141   7.349   3.502   2.620
 3400TIP3   OH210142   6.028   7.534   0.305
 3400TIP3    H110143   6.055   7.453   0.263
 3400TIP3    H210144   5.948   7.511   0.352
 3401TIP3   OH210145   7.231   2.663   3.876
 3401TIP3    H110146   7.140   2.671   3.906
 3401TIP3    H210147   7.283   2.692   3.951
 3402TIP3   OH210148   7.439   3.187   3.551
 3402TIP3    H110149   7.360   3.142   3.519
 3402TIP3    H210150   7.413   3.227   3.634
 3403TIP3   OH210151   7.447   3.443   6.207
 3403TIP3    H110152   7.465   3.380   6.137
 3403TIP3    H210153   7.418   3.390   6.281
 3404TIP3   OH210154   5.728   2.080   3.561
 3404TIP3    H110155   5.790   2.102   3.631
 3404TIP3    H210156   5.657   2.034   3.607
 3405TIP3   OH210157   2.668   0.751   1.328
 3405TIP3    H110158   2.628   0.720   1.409
 3405TIP3    H210159   2.692   0.842   1.346
 3406TIP3   OH210160   7.806   3.700   3.317
 3406TIP3    H110161   7.733   3.667   3.369
 3406TIP3    H210162   7.764   3.752   3.248
 3407TIP3   OH210163   5.857   3.951   5.365
 3407TIP3    H110164   5.828   3.891   5.297
 3407TIP3    H210165   5.782   4.009   5.379
 3408TIP3   OH210166   5.220   3.884   4.251
 3408TIP3    H110167   5.174   3.823   4.194
 3408TIP3    H210168   5.302   3.839   4.273
 3409TIP3   OH210169   6.746   2.035   4.510
 3409TIP3    H110170   6.652   2.051   4.517
 3409TIP3    H210171   6.772   2.003   4.597
 3410TIP3   OH210172   1.585   0.382   5.536
 3410TIP3    H110173   1.556   0.392   5.445
 3410TIP3    H210174   1.668   0.429   5.540
 3411TIP3   OH210175   7.860   7.191   0.797
 3411TIP3    H110176   7.907   7.152   0.869
 3411TIP3    H210177   7.911   7.269   0.774
 3412TIP3   OH210178   3.057   7.287   2.515
 3412TIP3    H110179   3.012   7.336   2.583
 3412TIP3    H210180   3.150   7.291   2.540
 3413TIP3   OH210181   0.373   0.107   2.508
 3413TIP3    H110182   0.379   0.173   2.439
 3413TIP3    H210183   0.280   0.101   2.528
 3414TIP3   OH210184   5.172   3.361   6.417
 3414TIP3    H110185   5.187   3.388   6.327
 3414TIP3    H210186   5.182   3.266   6.417
 3415TIP3   OH210187   2.288   4.385   0.373
 3415TIP3    H110188   2.314   4.471   0.408
 3415TIP3    H210189   2.264   4.334   0.450
 3416TIP3   OH210190   0.777   6.215   6.593
 3416TIP3    H110191   0.706   6.245   6.650
 3416TIP3    H210192   0.854   6.263   6.624
 3417TIP3   OH210193   0.201   1.612   2.691
 3417TIP3    H110194   0.253   1.678   2.646
 3417TIP3    H210195   0.245   1.600   2.775
 3418TIP3   OH210196   4.248   1.185   2.494
 3418TIP3    H110197   4.340   1.189   2.519
 3418TIP3    H210198   4.202   1.164   2.575
 3419TIP3   OH210199   2.728   4.884   2.044
 3419TIP3    H110200   2.664   4.925   2.102
 3419TIP3    H210201   2.680   4.871   1.962
 3420TIP3   OH210202   7.357   4.772   0.457
 3420TIP3    H110203   7.266   4.780   0.430
 3420TIP3    H210204   7.381   4.682   0.438
 3421TIP3   OH210205   6.865   4.936   4.478
 3421TIP3    H110206   6.959   4.956   4.473
 3421TIP3    H210207   6.829   5.005   4.534
 3422TIP3   OH210208   2.237   2.715   0.783
 3422TIP3    H110209   2.268   2.745   0.698
 3422TIP3    H210210   2.191   2.790   0.820
 3423TIP3   OH210211   5.108   1.414   0.351
 3423TIP3    H110212   5.104   1.509   0.338
 3423TIP3    H210213   5.131   1.403   0.443
 3424TIP3   OH210214   6.931   7.439   2.460
 3424TIP3    H110215   7.022   7.466   2.445
 3424TIP3    H210216   6.905   7.396   2.379
 3425TIP3   OH210217   2.501   7.497   4.857
 3425TIP3    H110218   2.596   7.507   4.852
 3425TIP3    H210219   2.467   7.587   4.851
 3426TIP3   OH210220   5.260   5.770   3.293
 3426TIP3    H110221   5.352   5.748   3.304
 3426TIP3    H210222   5.219   5.748   3.377
 3427TIP3   OH210223   0.328   5.836   5.116
 3427TIP3    H110224   0.349   5.820   5.208
 3427TIP3    H210225   0.413   5.838   5.072
 3428TIP3   OH210226   7.274   2.219   2.917
 3428TIP3    H110227   7.301   2.198   3.006
 3428TIP3    H210228   7.353   2.256   2.876
 3429TIP3   OH210229   0.854   3.437   5.291
 3429TIP3    H110230   0.923   3.371   5.282
 3429TIP3    H210231   0.774   3.391   5.269
 3430TIP3   OH210232   4.927   5.647   1.408
 3430TIP3    H110233   4.895   5.670   1.321
 3430TIP3    H210234   4.906   5.723   1.463
 3431TIP3   OH210235   6.062   2.951   1.010
 3431TIP3    H110236   6.111   2.885   0.962
 3431TIP3    H210237   6.098   2.949   1.099
 3432TIP3   OH210238   7.812   3.433   0.187
 3432TIP3    H110239   7.898   3.474   0.182
 3432TIP3    H210240   7.829   3.339   0.186
 3433TIP3   OH210241   3.383   3.285   2.600
 3433TIP3    H110242   3.352   3.366   2.641
 3433TIP3    H210243   3.314   3.263   2.537
 3434TIP3   OH210244   4.596   3.756   1.986
 3434TIP3    H110245   4.631   3.772   1.899
 3434TIP3    H210246   4.543   3.677   1.977
 3435TIP3   OH210247   6.520   4.321   2.540
 3435TIP3    H110248   6.538   4.413   2.559
 3435TIP3    H210249   6.442   4.301   2.591
 3436TIP3   OH210250   6.107   2.261   5.728
 3436TIP3    H110251   6.174   2.194   5.740
 3436TIP3    H210252   6.157   2.344   5.728
 3437TIP3   OH210253   7.894   4.764   4.596
 3437TIP3    H110254   7.951   4.836   4.625
 3437TIP3    H210255   7.952   4.706   4.546
 3438TIP3   OH210256   8.147   6.222   1.546
 3438TIP3    H110257   8.156   6.214   1.641
 3438TIP3    H210258   8.131   6.133   1.516
 3439TIP3   OH210259   1.504   0.905   4.631
 3439TIP3    H110260   1.566   0.969   4.597
 3439TIP3    H210261   1.456   0.951   4.699
 3440TIP3   OH210262   6.143   0.569   5.760
 3440TIP3    H110263   6.207   0.532   5.700
 3440TIP3    H210264   6.076   0.608   5.703
 3441TIP3   OH210265   1.075   4.994   5.311
 3441TIP3    H110266   1.009   4.983   5.242
 3441TIP3    H210267   1.121   5.074   5.288
 3442TIP3   OH210268   4.050   7.744   4.335
 3442TIP3    H110269   4.128   7.692   4.318
 3442TIP3    H210270   3.999   7.692   4.398
 3443TIP3   OH210271   1.902   5.917   6.363
 3443TIP3    H110272   1.871   6.001   6.328
 3443TIP3    H210273   1.954   5.879   6.292
 3444TIP3   OH210274   1.598   7.719   1.571
 3444TIP3    H110275   1.611   7.748   1.481
 3444TIP3    H210276   1.666   7.765   1.621
 3445TIP3   OH210277   4.688   0.604   0.867
 3445TIP3    H110278   4.666   0.683   0.817
 3445TIP3    H210279   4.622   0.601   0.936
 3446TIP3   OH210280   7.873   2.310   4.320
 3446TIP3    H110281   7.936   2.282   4.254
 3446TIP3    H210282   7.890   2.253   4.395
 3447TIP3   OH210283   6.802   6.501   2.520
 3447TIP3    H110284   6.711   6.495   2.549
 3447TIP3    H210285   6.828   6.590   2.542
 3448TIP3   OH210286   1.585  -0.015   1.083
 3448TIP3    H110287   1.548  -0.085   1.030
 3448TIP3    H210288   1.547   0.065   1.046
 3449TIP3   OH210289   5.667   0.366   3.784
 3449TIP3    H110290   5.618   0.407   3.713
 3449TIP3    H210291   5.668   0.273   3.761
 3450TIP3   OH210292   5.607   4.855   4.351
 3450TIP3    H110293   5.702   4.869   4.342
 3450TIP3    H210294   5.572   4.939   4.378
 3451TIP3   OH210295   7.509   5.947   3.605
 3451TIP3    H110296   7.532   5.902   3.524
 3451TIP3    H210297   7.470   5.880   3.660
 3452TIP3   OH210298   4.647   7.474   1.357
 3452TIP3    H110299   4.609   7.390   1.383
 3452TIP3    H210300   4.678   7.513   1.438
 3453TIP3   OH210301   0.881   7.719   6.694
 3453TIP3    H110302   0.963   7.754   6.657
 3453TIP3    H210303   0.824   7.707   6.618
 3454TIP3   OH210304   6.722   0.368   2.429
 3454TIP3    H110305   6.814   0.391   2.413
 3454TIP3    H210306   6.700   0.307   2.359
 3455TIP3   OH210307   2.512   2.618   5.294
 3455TIP3    H110308   2.432   2.670   5.291
 3455TIP3    H210309   2.574   2.665   5.238
 3456TIP3   OH210310   7.277   0.519   5.682
 3456TIP3    H110311   7.259   0.568   5.762
 3456TIP3    H210312   7.360   0.474   5.699
 3457TIP3   OH210313   3.565   2.798   2.465
 3457TIP3    H110314   3.550   2.792   2.560
 3457TIP3    H210315   3.592   2.710   2.440
 3458TIP3   OH210316   0.819   1.878   5.492
 3458TIP3    H110317   0.866   1.831   5.561
 3458TIP3    H210318   0.728   1.879   5.522
 3459TIP3   OH210319   3.162   0.904   3.221
 3459TIP3    H110320   3.101   0.936   3.287
 3459TIP3    H210321   3.185   0.981   3.169
 3460TIP3   OH210322   3.409   5.054   3.288
 3460TIP3    H110323   3.380   4.968   3.259
 3460TIP3    H210324   3.340   5.084   3.347
 3461TIP3   OH210325   1.116   2.291   4.038
 3461TIP3    H110326   1.131   2.380   4.006
 3461TIP3    H210327   1.196   2.270   4.086
 3462TIP3   OH210328   2.219   0.168   5.315
 3462TIP3    H110329   2.198   0.175   5.222
 3462TIP3    H210330   2.284   0.099   5.320
 3463TIP3   OH210331   3.720   6.184   5.702
 3463TIP3    H110332   3.694   6.097   5.731
 3463TIP3    H210333   3.734   6.233   5.783
 3464TIP3   OH210334   1.500   6.518   3.401
 3464TIP3    H110335   1.476   6.497   3.311
 3464TIP3    H210336   1.525   6.434   3.439
 3465TIP3   OH210337   1.488   5.495   6.135
 3465TIP3    H110338   1.521   5.560   6.197
 3465TIP3    H210339   1.471   5.545   6.055
 3466TIP3   OH210340   8.263   6.543   2.917
 3466TIP3    H110341   8.249   6.637   2.927
 3466TIP3    H210342   8.290   6.513   3.004
 3467TIP3   OH210343   7.759   4.591   2.736
 3467TIP3    H110344   7.813   4.531   2.787
 3467TIP3    H210345   7.821   4.639   2.682
 3468TIP3   OH210346   8.017   3.871   0.438
 3468TIP3    H110347   7.943   3.848   0.382
 3468TIP3    H210348   8.010   3.812   0.513
 3469TIP3   OH210349   5.660   1.420   0.469
 3469TIP3    H110350   5.712   1.343   0.491
 3469TIP3    H210351   5.698   1.491   0.520
 3470TIP3   OH210352   6.039   2.248   6.077
 3470TIP3    H110353   6.066   2.332   6.038
 3470TIP3    H210354   5.971   2.216   6.018
 3471TIP3   OH210355   1.065   2.354   4.534
 3471TIP3    H110356   1.001   2.321   4.470
 3471TIP3    H210357   1.019   2.421   4.583
 3472TIP3   OH210358   0.074   4.889   0.811
 3472TIP3    H110359   0.130   4.896   0.734
 3472TIP3    H210360   0.026   4.971   0.814
 3473TIP3   OH210361   6.342   1.838   0.329
 3473TIP3    H110362   6.274   1.771   0.338
 3473TIP3    H210363   6.354   1.871   0.418
 3474TIP3   OH210364   1.616   2.865   5.472
 3474TIP3    H110365   1.608   2.914   5.390
 3474TIP3    H210366   1.710   2.864   5.490
 3475TIP3   OH210367   3.073   2.466   1.927
 3475TIP3    H110368   3.043   2.450   2.017
 3475TIP3    H210369   3.154   2.516   1.937
 3476TIP3   OH210370   1.931   4.654   3.529
 3476TIP3    H110371   1.904   4.648   3.621
 3476TIP3    H210372   2.004   4.592   3.521
 3477TIP3   OH210373   0.627   2.080   2.932
 3477TIP3    H110374   0.693   2.068   2.999
 3477TIP3    H210375   0.555   2.022   2.958
 3478TIP3   OH210376   5.349   1.290   1.470
 3478TIP3    H110377   5.347   1.199   1.440
 3478TIP3    H210378   5.262   1.325   1.448
 3479TIP3   OH210379   7.928   6.150   2.773
 3479TIP3    H110380   7.884   6.218   2.722
 3479TIP3    H210381   7.891   6.068   2.740
 3480TIP3   OH210382   0.910   3.907   0.417
 3480TIP3    H110383   0.921   3.904   0.512
 3480TIP3    H210384   0.931   3.997   0.394
 3481TIP3   OH210385   0.930   4.380   2.741
 3481TIP3    H110386   0.900   4.404   2.653
 3481TIP3    H210387   0.898   4.451   2.797
 3482TIP3   OH210388   6.863   7.691   6.597
 3482TIP3    H110389   6.869   7.640   6.515
 3482TIP3    H210390   6.877   7.626   6.666
 3483TIP3   OH210391   5.369   7.204   0.049
 3483TIP3    H110392   5.352   7.111   0.029
 3483TIP3    H210393   5.417   7.202   0.132
 3484TIP3   OH210394   7.066   4.998   5.250
 3484TIP3    H110395   7.100   4.950   5.325
 3484TIP3    H210396   6.980   5.028   5.277
 3485TIP3   OH210397   8.149   1.831   2.931
 3485TIP3    H110398   8.233   1.874   2.915
 3485TIP3    H210399   8.139   1.770   2.857
 3486TIP3   OH210400   2.854   7.071   0.343
 3486TIP3    H110401   2.922   7.032   0.397
 3486TIP3    H210402   2.892   7.152   0.310
 3487TIP3   OH210403   2.779   7.552   4.876
 3487TIP3    H110404   2.831   7.584   4.801
 3487TIP3    H210405   2.752   7.632   4.922
 3488TIP3   OH210406   0.120   6.901   1.319
 3488TIP3    H110407   0.034   6.914   1.360
 3488TIP3    H210408   0.174   6.972   1.353
 3489TIP3   OH210409   6.865   6.923   0.568
 3489TIP3    H110410   6.868   6.858   0.498
 3489TIP3    H210411   6.957   6.943   0.586
 3490TIP3   OH210412   6.757   2.751   5.852
 3490TIP3    H110413   6.689   2.797   5.803
 3490TIP3    H210414   6.726   2.752   5.942
 3491TIP3   OH210415   7.107   7.611   4.284
 3491TIP3    H110416   7.022   7.592   4.325
 3491TIP3    H210417   7.111   7.550   4.210
 3492TIP3   OH210418   5.612   6.538   4.733
 3492TIP3    H110419   5.537   6.526   4.791
 3492TIP3    H210420   5.688   6.531   4.790
 3493TIP3   OH210421   5.879   4.895   0.230
 3493TIP3    H110422   5.811   4.963   0.230
 3493TIP3    H210423   5.842   4.824   0.282
 3494TIP3   OH210424   0.816   1.504   2.237
 3494TIP3    H110425   0.788   1.423   2.194
 3494TIP3    H210426   0.785   1.495   2.327
 3495TIP3   OH210427   2.995   4.032   0.037
 3495TIP3    H110428   3.062   4.074  -0.017
 3495TIP3    H210429   3.005   4.072   0.124
 3496TIP3   OH210430   6.210   3.505   2.050
 3496TIP3    H110431   6.263   3.565   1.997
 3496TIP3    H210432   6.199   3.428   1.994
 3497TIP3   OH210433   6.977   5.653   1.821
 3497TIP3    H110434   6.969   5.686   1.731
 3497TIP3    H210435   7.059   5.691   1.853
 3498TIP3   OH210436   2.009   2.504   1.095
 3498TIP3    H110437   1.935   2.547   1.138
 3498TIP3    H210438   1.998   2.525   1.002
 3499TIP3   OH210439   3.145   6.527   0.311
 3499TIP3    H110440   3.160   6.477   0.231
 3499TIP3    H210441   3.139   6.460   0.380
 3500TIP3   OH210442   1.707   3.232   0.975
 3500TIP3    H110443   1.678   3.187   1.055
 3500TIP3    H210444   1.627   3.266   0.936
 3501TIP3   OH210445   5.247   1.608   5.840
 3501TIP3    H110446   5.330   1.589   5.883
 3501TIP3    H210447   5.271   1.652   5.759
 3502TIP3   OH210448   2.396   2.167   0.755
 3502TIP3    H110449   2.343   2.115   0.815
 3502TIP3    H210450   2.345   2.247   0.742
 3503TIP3   OH210451   4.631   2.311   3.688
 3503TIP3    H110452   4.660   2.395   3.651
 3503TIP3    H210453   4.712   2.270   3.718
 3504TIP3   OH210454   1.122   1.166   2.715
 3504TIP3    H110455   1.034   1.165   2.677
 3504TIP3    H210456   1.120   1.097   2.782
 3505TIP3   OH210457   0.230   2.019   6.148
 3505TIP3    H110458   0.151   1.969   6.167
 3505TIP3    H210459   0.301   1.955   6.155
 3506TIP3   OH210460   8.264   6.773   4.432
 3506TIP3    H110461   8.179   6.816   4.425
 3506TIP3    H210462   8.244   6.680   4.421
 3507TIP3   OH210463   7.188   1.388   6.723
 3507TIP3    H110464   7.110   1.404   6.776
 3507TIP3    H210465   7.162   1.318   6.663
 3508TIP3   OH210466   7.721   5.333   5.513
 3508TIP3    H110467   7.798   5.285   5.481
 3508TIP3    H210468   7.730   5.331   5.608
 3509TIP3   OH210469   3.871   1.388   1.659
 3509TIP3    H110470   3.914   1.308   1.689
 3509TIP3    H210471   3.911   1.458   1.710
 3510TIP3   OH210472   1.716   2.747   3.712
 3510TIP3    H110473   1.664   2.712   3.640
 3510TIP3    H210474   1.718   2.675   3.776
 3511TIP3   OH210475   0.332   6.822   2.915
 3511TIP3    H110476   0.237   6.835   2.918
 3511TIP3    H210477   0.358   6.853   2.829
 3512TIP3   OH210478   1.752   3.547   1.477
 3512TIP3    H110479   1.741   3.532   1.383
 3512TIP3    H210480   1.838   3.509   1.498
 3513TIP3   OH210481   7.090   7.753   5.031
 3513TIP3    H110482   7.049   7.833   4.999
 3513TIP3    H210483   7.032   7.682   5.002
 3514TIP3   OH210484   5.012   5.563   2.946
 3514TIP3    H110485   5.083   5.622   2.972
 3514TIP3    H210486   5.037   5.534   2.859
 3515TIP3   OH210487   5.720   3.594   4.959
 3515TIP3    H110488   5.791   3.535   4.935
 3515TIP3    H210489   5.661   3.542   5.014
 3516TIP3   OH210490   1.452   1.191   4.034
 3516TIP3    H110491   1.380   1.219   3.977
 3516TIP3    H210492   1.465   1.098   4.013
 3517TIP3   OH210493   2.144   4.835   2.686
 3517TIP3    H110494   2.049   4.838   2.673
 3517TIP3    H210495   2.155   4.797   2.773
 3518TIP3   OH210496   5.227   4.738   2.185
 3518TIP3    H110497   5.170   4.675   2.230
 3518TIP3    H210498   5.211   4.820   2.231
 3519TIP3   OH210499   6.270   0.701   5.985
 3519TIP3    H110500   6.278   0.631   6.049
 3519TIP3    H210501   6.234   0.659   5.907
 3520TIP3   OH210502   0.445   0.098   0.643
 3520TIP3    H110503   0.468   0.025   0.700
 3520TIP3    H210504   0.487   0.078   0.559
 3521TIP3   OH210505   8.186   4.464   1.381
 3521TIP3    H110506   8.193   4.552   1.343
 3521TIP3    H210507   8.092   4.451   1.395
 3522TIP3   OH210508   5.471   4.429   6.157
 3522TIP3    H110509   5.485   4.488   6.232
 3522TIP3    H210510   5.378   4.440   6.136
 3523TIP3   OH210511   3.355   1.102   3.378
 3523TIP3    H110512   3.286   1.113   3.313
 3523TIP3    H210513   3.436   1.126   3.333
 3524TIP3   OH210514   4.404   2.600   0.654
 3524TIP3    H110515   4.448   2.604   0.738
 3524TIP3    H210516   4.473   2.580   0.591
 3525TIP3   OH210517   2.142   7.336   1.609
 3525TIP3    H110518   2.196   7.352   1.686
 3525TIP3    H210519   2.086   7.262   1.634
 3526TIP3   OH210520   3.838   1.995   1.938
 3526TIP3    H110521   3.782   2.073   1.935
 3526TIP3    H210522   3.787   1.931   1.987
 3527TIP3   OH210523   0.862   0.290   3.809
 3527TIP3    H110524   0.932   0.227   3.797
 3527TIP3    H210525   0.790   0.240   3.847
 3528TIP3   OH210526   8.109   5.989   1.384
 3528TIP3    H110527   8.154   5.925   1.440
 3528TIP3    H210528   8.024   5.949   1.366
 3529TIP3   OH210529   7.353   5.212   1.367
 3529TIP3    H110530   7.328   5.142   1.427
 3529TIP3    H210531   7.274   5.231   1.317
 3530TIP3   OH210532   3.181   2.082   2.424
 3530TIP3    H110533   3.137   2.013   2.374
 3530TIP3    H210534   3.122   2.157   2.418
 3531TIP3   OH210535   6.125   5.440   0.480
 3531TIP3    H110536   6.061   5.381   0.440
 3531TIP3    H210537   6.202   5.435   0.424
 3532TIP3   OH210538   2.065   0.596   6.040
 3532TIP3    H110539   2.022   0.612   5.956
 3532TIP3    H210540   2.146   0.550   6.017
 3533TIP3   OH210541   7.356   4.492   3.153
 3533TIP3    H110542   7.281   4.437   3.174
 3533TIP3    H210543   7.388   4.524   3.237
 3534TIP3   OH210544   5.436   6.468   0.542
 3534TIP3    H110545   5.361   6.460   0.600
 3534TIP3    H210546   5.454   6.379   0.512
 3535TIP3   OH210547   1.374   7.388   5.864
 3535TIP3    H110548   1.465   7.368   5.886
 3535TIP3    H210549   1.324   7.361   5.941
 3536TIP3   OH210550   0.373   4.905   0.400
 3536TIP3    H110551   0.449   4.951   0.363
 3536TIP3    H210552   0.354   4.837   0.335
 3537TIP3   OH210553   5.870   4.178   3.388
 3537TIP3    H110554   5.941   4.220   3.436
 3537TIP3    H210555   5.836   4.247   3.331
 3538TIP3   OH210556   4.339   3.036   3.105
 3538TIP3    H110557   4.321   2.954   3.060
 3538TIP3    H210558   4.432   3.031   3.128
 3539TIP3   OH210559   7.710   1.885   1.366
 3539TIP3    H110560   7.692   1.965   1.316
 3539TIP3    H210561   7.624   1.846   1.380
 3540TIP3   OH210562   5.418   3.719   4.278
 3540TIP3    H110563   5.411   3.634   4.236
 3540TIP3    H210564   5.437   3.700   4.369
 3541TIP3   OH210565   5.453   3.655   1.191
 3541TIP3    H110566   5.484   3.744   1.206
 3541TIP3    H210567   5.372   3.665   1.141
 3542TIP3   OH210568   5.939   3.824   0.210
 3542TIP3    H110569   5.933   3.734   0.241
 3542TIP3    H210570   5.947   3.817   0.115
 3543TIP3   OH210571   1.774   6.713   1.165
 3543TIP3    H110572   1.838   6.770   1.207
 3543TIP3    H210573   1.828   6.648   1.119
 3544TIP3   OH210574   6.818   3.886   5.792
 3544TIP3    H110575   6.775   3.937   5.861
 3544TIP3    H210576   6.785   3.923   5.711
 3545TIP3   OH210577   7.672   3.496   5.900
 3545TIP3    H110578   7.639   3.582   5.925
 3545TIP3    H210579   7.596   3.451   5.863
 3546TIP3   OH210580   2.878   7.012   5.496
 3546TIP3    H110581   2.921   7.095   5.477
 3546TIP3    H210582   2.906   6.953   5.426
 3547TIP3   OH210583   3.558   6.537   5.840
 3547TIP3    H110584   3.577   6.601   5.771
 3547TIP3    H210585   3.553   6.590   5.920
 3548TIP3   OH210586   2.405   0.702   6.083
 3548TIP3    H110587   2.420   0.643   6.010
 3548TIP3    H210588   2.388   0.644   6.158
 3549TIP3   OH210589   5.184   5.672   4.538
 3549TIP3    H110590   5.168   5.755   4.493
 3549TIP3    H210591   5.199   5.609   4.468
 3550TIP3   OH210592   5.047   6.900   6.684
 3550TIP3    H110593   5.062   6.987   6.645
 3550TIP3    H210594   5.049   6.840   6.609
 3551TIP3   OH210595   0.640   6.929   4.543
 3551TIP3    H110596   0.640   7.003   4.604
 3551TIP3    H210597   0.584   6.957   4.471
 3552TIP3   OH210598   3.472   4.225   2.522
 3552TIP3    H110599   3.510   4.298   2.474
 3552TIP3    H210600   3.383   4.216   2.487
 3553TIP3   OH210601   2.962   2.332   2.627
 3553TIP3    H110602   2.949   2.242   2.656
 3553TIP3    H210603   3.028   2.368   2.687
 3554TIP3   OH210604   3.911   3.312  -0.010
 3554TIP3    H110605   3.864   3.295  -0.091
 3554TIP3    H210606   3.994   3.264  -0.019
 3555TIP3   OH210607   2.261   5.826   5.709
 3555TIP3    H110608   2.353   5.798   5.706
 3555TIP3    H210609   2.229   5.809   5.620
 3556TIP3   OH210610   4.391   7.490   6.115
 3556TIP3    H110611   4.343   7.573   6.112
 3556TIP3    H210612   4.450   7.499   6.189
 3557TIP3   OH210613   0.479   3.058   4.439
 3557TIP3    H110614   0.517   3.146   4.430
 3557TIP3    H210615   0.516   3.008   4.367
 3558TIP3   OH210616   6.663   2.806   5.559
 3558TIP3    H110617   6.598   2.870   5.588
 3558TIP3    H210618   6.647   2.797   5.465
 3559TIP3   OH210619   4.392   0.196   6.203
 3559TIP3    H110620   4.474   0.232   6.235
 3559TIP3    H210621   4.349   0.270   6.160
 3560TIP3   OH210622   4.951   3.094   3.767
 3560TIP3    H110623   5.032   3.063   3.726
 3560TIP3    H210624   4.881   3.055   3.716
 3561TIP3   OH210625   2.772   0.558   0.421
 3561TIP3    H110626   2.804   0.475   0.388
 3561TIP3    H210627   2.769   0.615   0.344
 3562TIP3   OH210628   1.389   4.687   3.476
 3562TIP3    H110629   1.320   4.679   3.410
 3562TIP3    H210630   1.346   4.731   3.550
 3563TIP3   OH210631   4.342   0.734   0.904
 3563TIP3    H110632   4.311   0.776   0.984
 3563TIP3    H210633   4.375   0.805   0.850
 3564TIP3   OH210634   0.161   2.489   0.389
 3564TIP3    H110635   0.166   2.577   0.352
 3564TIP3    H210636   0.127   2.502   0.477
 3565TIP3   OH210637   2.952   0.810   0.101
 3565TIP3    H110638   2.944   0.783   0.192
 3565TIP3    H210639   2.868   0.786   0.061
 3566TIP3   OH210640   4.065   1.132   4.757
 3566TIP3    H110641   4.001   1.063   4.775
 3566TIP3    H210642   4.128   1.126   4.829
 3567TIP3   OH210643   2.505   7.459   4.573
 3567TIP3    H110644   2.503   7.387   4.636
 3567TIP3    H210645   2.453   7.528   4.613
 3568TIP3   OH210646   7.992   6.254   4.411
 3568TIP3    H110647   8.015   6.183   4.470
 3568TIP3    H210648   7.965   6.325   4.470
 3569TIP3   OH210649   6.690   1.573   5.082
 3569TIP3    H110650   6.710   1.593   5.173
 3569TIP3    H210651   6.652   1.485   5.084
 3570TIP3   OH210652   7.097   6.749   3.588
 3570TIP3    H110653   7.084   6.832   3.632
 3570TIP3    H210654   7.114   6.773   3.497
 3571TIP3   OH210655   1.699   1.099   4.220
 3571TIP3    H110656   1.707   1.128   4.129
 3571TIP3    H210657   1.606   1.085   4.233
 3572TIP3   OH210658   4.501   5.731   4.994
 3572TIP3    H110659   4.447   5.790   4.941
 3572TIP3    H210660   4.571   5.703   4.935
 3573TIP3   OH210661   1.775   1.004   3.782
 3573TIP3    H110662   1.694   0.990   3.832
 3573TIP3    H210663   1.811   0.917   3.770
 3574TIP3   OH210664   0.910   1.338   5.984
 3574TIP3    H110665   0.873   1.374   6.064
 3574TIP3    H210666   0.958   1.411   5.945
 3575TIP3   OH210667   2.911   0.726   3.297
 3575TIP3    H110668   2.815   0.725   3.298
 3575TIP3    H210669   2.934   0.805   3.347
 3576TIP3   OH210670   7.186   4.371   6.072
 3576TIP3    H110671   7.213   4.323   6.151
 3576TIP3    H210672   7.120   4.433   6.103
 3577TIP3   OH210673   7.270   1.754   2.774
 3577TIP3    H110674   7.297   1.827   2.831
 3577TIP3    H210675   7.200   1.710   2.823
 3578TIP3   OH210676   2.194   5.221   3.512
 3578TIP3    H110677   2.134   5.227   3.437
 3578TIP3    H210678   2.238   5.137   3.500
 3579TIP3   OH210679   4.028   2.862   5.715
 3579TIP3    H110680   4.005   2.901   5.799
 3579TIP3    H210681   4.052   2.772   5.736
 3580TIP3   OH210682   0.364   4.223   2.024
 3580TIP3    H110683   0.345   4.316   2.009
 3580TIP3    H210684   0.306   4.177   1.963
 3581TIP3   OH210685   6.623   3.845   2.452
 3581TIP3    H110686   6.555   3.898   2.409
 3581TIP3    H210687   6.700   3.857   2.397
 3582TIP3   OH210688   0.500   0.876   4.341
 3582TIP3    H110689   0.550   0.890   4.261
 3582TIP3    H210690   0.414   0.846   4.311
 3583TIP3   OH210691   6.706   4.745   3.516
 3583TIP3    H110692   6.725   4.743   3.610
 3583TIP3    H210693   6.788   4.773   3.475
 3584TIP3   OH210694   3.805   1.465   6.424
 3584TIP3    H110695   3.795   1.424   6.510
 3584TIP3    H210696   3.725   1.514   6.411
 3585TIP3   OH210697   0.572   5.440   1.622
 3585TIP3    H110698   0.620   5.517   1.653
 3585TIP3    H210699   0.639   5.374   1.605
 3586TIP3   OH210700   5.507   7.309   4.609
 3586TIP3    H110701   5.515   7.405   4.613
 3586TIP3    H210702   5.597   7.278   4.607
 3587TIP3   OH210703   5.723   6.413   2.283
 3587TIP3    H110704   5.639   6.377   2.254
 3587TIP3    H210705   5.749   6.359   2.357
 3588TIP3   OH210706   4.317   4.442   2.867
 3588TIP3    H110707   4.380   4.395   2.921
 3588TIP3    H210708   4.368   4.510   2.823
 3589TIP3   OH210709   2.213   4.026   3.308
 3589TIP3    H110710   2.284   3.980   3.353
 3589TIP3    H210711   2.240   4.027   3.216
 3590TIP3   OH210712   3.044   1.613   5.455
 3590TIP3    H110713   2.959   1.580   5.426
 3590TIP3    H210714   3.102   1.537   5.453
 3591TIP3   OH210715   7.109   1.926   5.809
 3591TIP3    H110716   7.164   1.848   5.818
 3591TIP3    H210717   7.054   1.908   5.732
 3592TIP3   OH210718   5.439   1.890   0.057
 3592TIP3    H110719   5.388   1.943  -0.004
 3592TIP3    H210720   5.394   1.899   0.140
 3593TIP3   OH210721   2.949   5.922   3.744
 3593TIP3    H110722   2.971   6.010   3.716
 3593TIP3    H210723   3.028   5.889   3.787
 3594TIP3   OH210724   2.574   0.959   6.545
 3594TIP3    H110725   2.487   0.921   6.534
 3594TIP3    H210726   2.565   1.049   6.511
 3595TIP3   OH210727   2.735   5.936   2.603
 3595TIP3    H110728   2.657   5.887   2.629
 3595TIP3    H210729   2.748   5.913   2.511
 3596TIP3   OH210730   4.125   7.722   2.110
 3596TIP3    H110731   4.195   7.688   2.166
 3596TIP3    H210732   4.164   7.797   2.065
 3597TIP3   OH210733   3.263   0.202   6.385
 3597TIP3    H110734   3.243   0.260   6.459
 3597TIP3    H210735   3.178   0.183   6.346
 3598TIP3   OH210736   7.717   4.930   1.409
 3598TIP3    H110737   7.634   4.894   1.376
 3598TIP3    H210738   7.693   4.975   1.490
 3599TIP3   OH210739   7.091   6.273   1.714
 3599TIP3    H110740   7.145   6.249   1.790
 3599TIP3    H210741   7.005   6.293   1.750
 3600TIP3   OH210742   7.274   1.009   0.166
 3600TIP3    H110743   7.342   0.945   0.187
 3600TIP3    H210744   7.213   1.005   0.241
 3601TIP3   OH210745   5.722   5.089   1.914
 3601TIP3    H110746   5.780   5.120   1.845
 3601TIP3    H210747   5.656   5.036   1.869
 3602TIP3   OH210748   5.630   1.660   5.774
 3602TIP3    H110749   5.703   1.600   5.788
 3602TIP3    H210750   5.564   1.634   5.839
 3603TIP3   OH210751   4.487   5.541   3.970
 3603TIP3    H110752   4.467   5.630   4.001
 3603TIP3    H210753   4.458   5.484   4.041
 3604TIP3   OH210754   5.954   0.595   2.249
 3604TIP3    H110755   6.033   0.646   2.263
 3604TIP3    H210756   5.979   0.528   2.186
 3605TIP3   OH210757   5.292   3.182   3.859
 3605TIP3    H110758   5.285   3.087   3.857
 3605TIP3    H210759   5.201   3.212   3.864
 3606TIP3   OH210760   2.405   3.972   1.152
 3606TIP3    H110761   2.428   3.984   1.060
 3606TIP3    H210762   2.309   3.979   1.155
 3607TIP3   OH210763   2.967   1.440   2.988
 3607TIP3    H110764   2.932   1.356   3.017
 3607TIP3    H210765   2.919   1.505   3.040
 3608TIP3   OH210766   0.559   2.397   6.156
 3608TIP3    H110767   0.588   2.357   6.239
 3608TIP3    H210768   0.544   2.489   6.178
 3609TIP3   OH210769   5.634   0.397   1.071
 3609TIP3    H110770   5.628   0.363   1.160
 3609TIP3    H210771   5.595   0.484   1.076
 3610TIP3   OH210772   3.084   5.625   6.119
 3610TIP3    H110773   3.026   5.688   6.075
 3610TIP3    H210774   3.171   5.662   6.107
 3611TIP3   OH210775   3.892   6.283   6.407
 3611TIP3    H110776   3.821   6.278   6.470
 3611TIP3    H210777   3.849   6.272   6.322
 3612TIP3   OH210778   2.271   3.902   6.592
 3612TIP3    H110779   2.280   3.822   6.540
 3612TIP3    H210780   2.264   3.871   6.683
 3613TIP3   OH210781   3.302   2.934   0.251
 3613TIP3    H110782   3.353   2.915   0.172
 3613TIP3    H210783   3.364   2.974   0.311
 3614TIP3   OH210784   4.103   7.457   0.742
 3614TIP3    H110785   4.024   7.407   0.762
 3614TIP3    H210786   4.175   7.398   0.768
 3615TIP3   OH210787   2.052   5.010   1.769
 3615TIP3    H110788   1.975   4.958   1.748
 3615TIP3    H210789   2.042   5.089   1.716
 3616TIP3   OH210790   4.224   5.846   0.056
 3616TIP3    H110791   4.205   5.867   0.147
 3616TIP3    H210792   4.272   5.763   0.060
 3617TIP3   OH210793   4.451   0.707   4.026
 3617TIP3    H110794   4.543   0.685   4.014
 3617TIP3    H210795   4.440   0.716   4.121
 3618TIP3   OH210796   5.652   1.852   6.730
 3618TIP3    H110797   5.638   1.758   6.717
 3618TIP3    H210798   5.622   1.869   6.819
 3619TIP3   OH210799   0.438   6.955   4.340
 3619TIP3    H110800   0.450   6.888   4.273
 3619TIP3    H210801   0.466   7.036   4.298
 3620TIP3   OH210802   7.799   4.131   0.773
 3620TIP3    H110803   7.783   4.037   0.761
 3620TIP3    H210804   7.891   4.137   0.798
 3621TIP3   OH210805   3.882   1.806   3.276
 3621TIP3    H110806   3.970   1.782   3.307
 3621TIP3    H210807   3.824   1.742   3.317
 3622TIP3   OH210808   7.763   1.394   2.334
 3622TIP3    H110809   7.701   1.324   2.354
 3622TIP3    H210810   7.850   1.353   2.343
 3623TIP3   OH210811   6.907   0.235   5.409
 3623TIP3    H110812   6.908   0.310   5.350
 3623TIP3    H210813   6.996   0.231   5.444
 3624TIP3   OH210814   8.200   6.605   3.284
 3624TIP3    H110815   8.251   6.556   3.220
 3624TIP3    H210816   8.153   6.538   3.334
 3625TIP3   OH210817   6.875   7.550   4.959
 3625TIP3    H110818   6.819   7.514   4.890
 3625TIP3    H210819   6.825   7.538   5.040
 3626TIP3   OH210820   5.846   2.753   3.111
 3626TIP3    H110821   5.821   2.661   3.116
 3626TIP3    H210822   5.908   2.757   3.039
 3627TIP3   OH210823   7.546   5.084   2.985
 3627TIP3    H110824   7.492   5.097   3.063
 3627TIP3    H210825   7.486   5.102   2.912
 3628TIP3   OH210826   6.422   6.320   2.300
 3628TIP3    H110827   6.426   6.406   2.258
 3628TIP3    H210828   6.329   6.301   2.308
 3629TIP3   OH210829   7.680   2.702   1.852
 3629TIP3    H110830   7.632   2.784   1.844
 3629TIP3    H210831   7.638   2.643   1.789
 3630TIP3   OH210832   6.841   3.143   3.162
 3630TIP3    H110833   6.872   3.224   3.202
 3630TIP3    H210834   6.790   3.171   3.087
 3631TIP3   OH210835   6.568   5.127   3.614
 3631TIP3    H110836   6.504   5.197   3.601
 3631TIP3    H210837   6.524   5.048   3.583
 3632TIP3   OH210838   4.403   0.743   6.101
 3632TIP3    H110839   4.318   0.724   6.140
 3632TIP3    H210840   4.447   0.799   6.166
 3633TIP3   OH210841   4.555   7.055   3.151
 3633TIP3    H110842   4.586   6.965   3.159
 3633TIP3    H210843   4.473   7.057   3.201
 3634TIP3   OH210844   0.573   5.905   6.427
 3634TIP3    H110845   0.545   5.935   6.513
 3634TIP3    H210846   0.575   5.809   6.434
 3635TIP3   OH210847   0.853   1.027   2.231
 3635TIP3    H110848   0.911   1.092   2.271
 3635TIP3    H210849   0.912   0.968   2.184
 3636TIP3   OH210850   2.267   1.791   2.767
 3636TIP3    H110851   2.227   1.810   2.852
 3636TIP3    H210852   2.360   1.813   2.779
 3637TIP3   OH210853   3.871   7.397   4.550
 3637TIP3    H110854   3.827   7.316   4.526
 3637TIP3    H210855   3.942   7.370   4.608
 3638TIP3   OH210856   6.105   5.541   0.976
 3638TIP3    H110857   6.152   5.463   1.005
 3638TIP3    H210858   6.173   5.609   0.968
 3639TIP3   OH210859   4.837   2.375   0.351
 3639TIP3    H110860   4.786   2.327   0.285
 3639TIP3    H210861   4.886   2.440   0.300
 3640TIP3   OH210862   6.510   1.192   4.054
 3640TIP3    H110863   6.533   1.229   4.139
 3640TIP3    H210864   6.414   1.198   4.051
 3641TIP3   OH210865   1.642   2.676   0.721
 3641TIP3    H110866   1.712   2.665   0.657
 3641TIP3    H210867   1.676   2.739   0.784
 3642TIP3   OH210868   4.145   7.564   3.447
 3642TIP3    H110869   4.060   7.554   3.490
 3642TIP3    H210870   4.188   7.480   3.461
 3643TIP3   OH210871   2.190   0.747   5.321
 3643TIP3    H110872   2.280   0.763   5.294
 3643TIP3    H210873   2.152   0.697   5.249
 3644TIP3   OH210874   6.853   3.725   0.286
 3644TIP3    H110875   6.869   3.632   0.275
 3644TIP3    H210876   6.928   3.757   0.336
 3645TIP3   OH210877   7.732   1.788   4.849
 3645TIP3    H110878   7.745   1.713   4.907
 3645TIP3    H210879   7.691   1.854   4.905
 3646TIP3   OH210880   5.853   5.096   1.675
 3646TIP3    H110881   5.935   5.145   1.685
 3646TIP3    H210882   5.811   5.135   1.599
 3647TIP3   OH210883   4.956   5.326   0.493
 3647TIP3    H110884   4.871   5.296   0.526
 3647TIP3    H210885   4.935   5.400   0.436
 3648TIP3   OH210886   3.280   4.308   5.595
 3648TIP3    H110887   3.317   4.272   5.514
 3648TIP3    H210888   3.354   4.312   5.655
 3649TIP3   OH210889   7.293   5.724   5.166
 3649TIP3    H110890   7.364   5.760   5.114
 3649TIP3    H210891   7.313   5.631   5.174
 3650TIP3   OH210892   7.338   3.891   1.344
 3650TIP3    H110893   7.374   3.871   1.430
 3650TIP3    H210894   7.275   3.962   1.361
 3651TIP3   OH210895   1.148   7.533   6.255
 3651TIP3    H110896   1.084   7.520   6.325
 3651TIP3    H210897   1.220   7.580   6.297
 3652TIP3   OH210898   0.823   2.280   3.704
 3652TIP3    H110899   0.735   2.275   3.666
 3652TIP3    H210900   0.873   2.332   3.641
 3653TIP3   OH210901   7.365   2.238   3.663
 3653TIP3    H110902   7.274   2.255   3.685
 3653TIP3    H210903   7.404   2.207   3.745
 3654TIP3   OH210904   2.402   0.135   4.498
 3654TIP3    H110905   2.376   0.214   4.545
 3654TIP3    H210906   2.425   0.073   4.567
 3655TIP3   OH210907   7.500   6.083   5.871
 3655TIP3    H110908   7.569   6.148   5.884
 3655TIP3    H210909   7.513   6.052   5.782
 3656TIP3   OH210910   7.784   5.524  -0.005
 3656TIP3    H110911   7.867   5.570   0.001
 3656TIP3    H210912   7.777   5.474   0.076
 3657TIP3   OH210913   0.781   6.226   0.657
 3657TIP3    H110914   0.804   6.292   0.723
 3657TIP3    H210915   0.836   6.150   0.678
 3658TIP3   OH210916   0.290   7.045   0.861
 3658TIP3    H110917   0.205   7.009   0.886
 3658TIP3    H210918   0.343   7.039   0.942
 3659TIP3   OH210919   1.825   3.140   1.936
 3659TIP3    H110920   1.888   3.069   1.947
 3659TIP3    H210921   1.744   3.097   1.910
 3660TIP3   OH210922   4.225   2.235   2.829
 3660TIP3    H110923   4.152   2.255   2.769
 3660TIP3    H210924   4.303   2.264   2.782
 3661TIP3   OH210925   1.480   1.161   1.101
 3661TIP3    H110926   1.462   1.215   1.177
 3661TIP3    H210927   1.483   1.223   1.028
 3662TIP3   OH210928   1.693   7.458   1.181
 3662TIP3    H110929   1.604   7.490   1.166
 3662TIP3    H210930   1.683   7.364   1.194
 3663TIP3   OH210931   6.021   7.065   1.060
 3663TIP3    H110932   6.015   6.969   1.054
 3663TIP3    H210933   6.040   7.082   1.152
 3664TIP3   OH210934   2.434   6.836   2.969
 3664TIP3    H110935   2.442   6.883   2.886
 3664TIP3    H210936   2.512   6.781   2.973
 3665TIP3   OH210937   5.116   3.146   3.328
 3665TIP3    H110938   5.121   3.187   3.241
 3665TIP3    H210939   5.086   3.216   3.386
 3666TIP3   OH210940   4.215   0.405   2.342
 3666TIP3    H110941   4.131   0.371   2.310
 3666TIP3    H210942   4.192   0.486   2.388
 3667TIP3   OH210943   4.932   6.130   0.671
 3667TIP3    H110944   4.893   6.148   0.756
 3667TIP3    H210945   4.969   6.214   0.643
 3668TIP3   OH210946   2.114   6.168   6.240
 3668TIP3    H110947   2.207   6.146   6.243
 3668TIP3    H210948   2.104   6.219   6.160
 3669TIP3   OH210949   0.346   6.381   2.473
 3669TIP3    H110950   0.255   6.376   2.503
 3669TIP3    H210951   0.389   6.305   2.512
 3670TIP3   OH210952   7.029   4.285   1.268
 3670TIP3    H110953   7.024   4.268   1.174
 3670TIP3    H210954   7.106   4.341   1.278
 3671TIP3   OH210955   0.377   6.019   1.096
 3671TIP3    H110956   0.420   6.076   1.160
 3671TIP3    H210957   0.446   5.994   1.035
 3672TIP3   OH210958   4.157   1.295   2.026
 3672TIP3    H110959   4.147   1.323   2.117
 3672TIP3    H210960   4.202   1.211   2.031
 3673TIP3   OH210961   5.389   2.060   3.255
 3673TIP3    H110962   5.323   2.004   3.216
 3673TIP3    H210963   5.340   2.117   3.315
 3674TIP3   OH210964   1.949   3.109   3.760
 3674TIP3    H110965   1.863   3.145   3.738
 3674TIP3    H210966   1.950   3.022   3.719
 3675TIP3   OH210967   6.212   4.331   6.745
 3675TIP3    H110968   6.133   4.331   6.690
 3675TIP3    H210969   6.258   4.411   6.719
 3676TIP3   OH210970   6.831   6.182   5.661
 3676TIP3    H110971   6.835   6.111   5.725
 3676TIP3    H210972   6.913   6.174   5.612
 3677TIP3   OH210973   6.576   6.446   4.156
 3677TIP3    H110974   6.660   6.402   4.167
 3677TIP3    H210975   6.514   6.375   4.137
 3678TIP3   OH210976   0.562   3.425   2.095
 3678TIP3    H110977   0.603   3.454   2.177
 3678TIP3    H210978   0.516   3.502   2.063
 3679TIP3   OH210979   0.148   0.562   1.897
 3679TIP3    H110980   0.087   0.634   1.878
 3679TIP3    H210981   0.185   0.584   1.982
 3680TIP3   OH210982   2.283   1.127   3.935
 3680TIP3    H110983   2.360   1.163   3.891
 3680TIP3    H210984   2.314   1.044   3.973
 3681TIP3   OH210985   2.607   0.374   0.266
 3681TIP3    H110986   2.587   0.453   0.316
 3681TIP3    H210987   2.672   0.327   0.320
 3682TIP3   OH210988   1.195   1.170   0.825
 3682TIP3    H110989   1.216   1.123   0.744
 3682TIP3    H210990   1.111   1.134   0.852
 3683TIP3   OH210991   6.210   4.166   0.216
 3683TIP3    H110992   6.252   4.175   0.130
 3683TIP3    H210993   6.127   4.122   0.198
 3684TIP3   OH210994   7.392   4.738   3.729
 3684TIP3    H110995   7.350   4.804   3.675
 3684TIP3    H210996   7.320   4.688   3.767
 3685TIP3   OH210997   1.029   2.596   1.254
 3685TIP3    H110998   0.939   2.620   1.278
 3685TIP3    H210999   1.064   2.556   1.333
 3686TIP3   OH211000   2.752   2.978   6.528
 3686TIP3    H111001   2.748   3.011   6.617
 3686TIP3    H211002   2.679   3.020   6.483
 3687TIP3   OH211003   2.686   3.445   4.236
 3687TIP3    H111004   2.678   3.402   4.321
 3687TIP3    H211005   2.752   3.513   4.249
 3688TIP3   OH211006   2.342   5.442   1.763
 3688TIP3    H111007   2.384   5.357   1.770
 3688TIP3    H211008   2.300   5.455   1.848
 3689TIP3   OH211009   7.501   0.452   3.312
 3689TIP3    H111010   7.457   0.528   3.276
 3689TIP3    H211011   7.591   0.460   3.281
 3690TIP3   OH211012   5.436   5.086   0.425
 3690TIP3    H111013   5.340   5.081   0.420
 3690TIP3    H211014   5.467   5.008   0.378
 3691TIP3   OH211015   7.204   6.698   5.241
 3691TIP3    H111016   7.182   6.779   5.194
 3691TIP3    H211017   7.140   6.695   5.313
 3692TIP3   OH211018   6.155   6.334   6.385
 3692TIP3    H111019   6.159   6.418   6.339
 3692TIP3    H211020   6.063   6.310   6.383
 3693TIP3   OH211021   1.243   2.873   2.446
 3693TIP3    H111022   1.159   2.913   2.423
 3693TIP3    H211023   1.250   2.886   2.541
 3694TIP3   OH211024   4.168  -0.013   1.825
 3694TIP3    H111025   4.211   0.024   1.747
 3694TIP3    H211026   4.138   0.063   1.874
 3695TIP3   OH211027   7.756   5.401   3.500
 3695TIP3    H111028   7.690   5.431   3.438
 3695TIP3    H211029   7.828   5.463   3.491
 3696TIP3   OH211030   2.283   5.818   2.059
 3696TIP3    H111031   2.233   5.737   2.051
 3696TIP3    H211032   2.355   5.808   1.997
 3697TIP3   OH211033   4.573   2.962   3.245
 3697TIP3    H111034   4.563   2.891   3.181
 3697TIP3    H211035   4.523   2.932   3.321
 3698TIP3   OH211036   5.657   7.246   3.318
 3698TIP3    H111037   5.625   7.332   3.291
 3698TIP3    H211038   5.722   7.265   3.386
 3699TIP3   OH211039   0.239   1.191   6.222
 3699TIP3    H111040   0.276   1.103   6.225
 3699TIP3    H211041   0.312   1.248   6.247
 3700TIP3   OH211042   8.046   5.051   4.182
 3700TIP3    H111043   8.129   5.079   4.219
 3700TIP3    H211044   7.980   5.075   4.247
 3701TIP3   OH211045   1.328   6.130   6.380
 3701TIP3    H111046   1.368   6.103   6.297
 3701TIP3    H211047   1.378   6.206   6.407
 3702TIP3   OH211048   2.737   4.285   5.126
 3702TIP3    H111049   2.698   4.211   5.080
 3702TIP3    H211050   2.831   4.276   5.110
 3703TIP3   OH211051   0.247   1.756   5.693
 3703TIP3    H111052   0.214   1.786   5.778
 3703TIP3    H211053   0.274   1.836   5.648
 3704TIP3   OH211054   7.369   1.031   2.056
 3704TIP3    H111055   7.317   0.991   2.126
 3704TIP3    H211056   7.316   1.105   2.026
 3705TIP3   OH211057   5.226   3.715   2.281
 3705TIP3    H111058   5.240   3.727   2.187
 3705TIP3    H211059   5.250   3.798   2.320
 3706TIP3   OH211060   2.480   3.973   3.143
 3706TIP3    H111061   2.448   3.905   3.083
 3706TIP3    H211062   2.415   4.043   3.137
 3707TIP3   OH211063   5.163   3.512   5.442
 3707TIP3    H111064   5.133   3.538   5.355
 3707TIP3    H211065   5.090   3.536   5.500
 3708TIP3   OH211066   7.149   0.422   5.477
 3708TIP3    H111067   7.203   0.467   5.542
 3708TIP3    H211068   7.194   0.437   5.394
 3709TIP3   OH211069   1.046   0.604   2.892
 3709TIP3    H111070   0.988   0.528   2.898
 3709TIP3    H211071   1.090   0.607   2.977
 3710TIP3   OH211072   0.761   0.090   3.512
 3710TIP3    H111073   0.848   0.063   3.484
 3710TIP3    H211074   0.755   0.060   3.603
 3711TIP3   OH211075   7.957   2.290   0.021
 3711TIP3    H111076   7.991   2.377   0.040
 3711TIP3    H211077   7.873   2.285   0.068
 3712TIP3   OH211078   5.078   0.738   1.385
 3712TIP3    H111079   5.158   0.709   1.342
 3712TIP3    H211080   5.028   0.781   1.315
 3713TIP3   OH211081   4.855   7.424   2.093
 3713TIP3    H111082   4.760   7.415   2.107
 3713TIP3    H211083   4.888   7.453   2.178
 3714TIP3   OH211084   2.264   1.464   5.965
 3714TIP3    H111085   2.201   1.532   5.943
 3714TIP3    H211086   2.216   1.382   5.956
 3715TIP3   OH211087   1.981   5.140   0.893
 3715TIP3    H111088   2.051   5.186   0.938
 3715TIP3    H211089   1.927   5.210   0.855
 3716TIP3   OH211090   2.398   6.242   0.253
 3716TIP3    H111091   2.316   6.230   0.206
 3716TIP3    H211092   2.384   6.202   0.338
 3717TIP3   OH211093   6.294   0.164   4.875
 3717TIP3    H111094   6.327   0.098   4.814
 3717TIP3    H211095   6.353   0.238   4.864
 3718TIP3   OH211096   1.458   4.260   6.666
 3718TIP3    H111097   1.403   4.206   6.609
 3718TIP3    H211098   1.445   4.223   6.754
 3719TIP3   OH211099   5.647   1.455   6.425
 3719TIP3    H111100   5.740   1.471   6.442
 3719TIP3    H211101   5.614   1.538   6.392
 3720TIP3   OH211102   7.153   6.609   5.874
 3720TIP3    H111103   7.244   6.623   5.902
 3720TIP3    H211104   7.147   6.656   5.790
 3721TIP3   OH211105   0.329   4.973   1.015
 3721TIP3    H111106   0.382   5.050   1.035
 3721TIP3    H211107   0.239   4.999   1.036
 3722TIP3   OH211108   7.829   7.850   4.820
 3722TIP3    H111109   7.904   7.819   4.770
 3722TIP3    H211110   7.797   7.773   4.867
 3723TIP3   OH211111   3.073   1.404   1.939
 3723TIP3    H111112   3.031   1.419   2.024
 3723TIP3    H211113   3.065   1.488   1.893
 3724TIP3   OH211114   8.253   0.575   4.263
 3724TIP3    H111115   8.221   0.631   4.193
 3724TIP3    H211116   8.301   0.505   4.219
 3725TIP3   OH211117   2.961   5.619   2.595
 3725TIP3    H111118   2.941   5.681   2.525
 3725TIP3    H211119   3.021   5.557   2.554
 3726TIP3   OH211120   0.431   3.287   6.148
 3726TIP3    H111121   0.483   3.351   6.100
 3726TIP3    H211122   0.488   3.211   6.156
 3727TIP3   OH211123   2.407   7.502   5.169
 3727TIP3    H111124   2.457   7.560   5.226
 3727TIP3    H211125   2.316   7.518   5.192
 3728TIP3   OH211126   1.040   5.027   6.416
 3728TIP3    H111127   1.111   5.041   6.478
 3728TIP3    H211128   1.033   4.932   6.409
 3729TIP3   OH211129   2.304   3.584   0.710
 3729TIP3    H111130   2.324   3.639   0.786
 3729TIP3    H211131   2.377   3.522   0.706
 3730TIP3   OH211132   1.885   3.416   4.738
 3730TIP3    H111133   1.939   3.467   4.678
 3730TIP3    H211134   1.809   3.472   4.755
 3731TIP3   OH211135   8.170   0.810   4.431
 3731TIP3    H111136   8.077   0.828   4.417
 3731TIP3    H211137   8.188   0.734   4.376
 3732TIP3   OH211138   1.405   0.071   1.864
 3732TIP3    H111139   1.346   0.141   1.836
 3732TIP3    H211140   1.459   0.052   1.787
 3733TIP3   OH211141   5.281   5.891   4.392
 3733TIP3    H111142   5.339   5.967   4.387
 3733TIP3    H211143   5.317   5.828   4.330
 3734TIP3   OH211144   5.404   0.895   3.187
 3734TIP3    H111145   5.463   0.910   3.261
 3734TIP3    H211146   5.325   0.944   3.208
 3735TIP3   OH211147   0.962   2.464   5.377
 3735TIP3    H111148   0.911   2.384   5.362
 3735TIP3    H211149   1.021   2.442   5.448
 3736TIP3   OH211150   1.334   2.444   6.565
 3736TIP3    H111151   1.267   2.388   6.604
 3736TIP3    H211152   1.300   2.533   6.574
 3737TIP3   OH211153   7.287   2.797   6.096
 3737TIP3    H111154   7.227   2.822   6.025
 3737TIP3    H211155   7.249   2.716   6.131
 3738TIP3   OH211156   2.592   7.082   3.204
 3738TIP3    H111157   2.604   6.993   3.236
 3738TIP3    H211158   2.580   7.134   3.284
 3739TIP3   OH211159   4.303   0.534   2.734
 3739TIP3    H111160   4.316   0.439   2.728
 3739TIP3    H211161   4.217   0.549   2.697
 3740TIP3   OH211162   1.418   0.695   2.109
 3740TIP3    H111163   1.349   0.696   2.175
 3740TIP3    H211164   1.374   0.724   2.029
 3741TIP3   OH211165   2.642   4.896   3.140
 3741TIP3    H111166   2.631   4.801   3.142
 3741TIP3    H211167   2.553   4.931   3.144
 3742TIP3   OH211168   6.668   2.503   2.067
 3742TIP3    H111169   6.658   2.448   1.989
 3742TIP3    H211170   6.745   2.557   2.049
 3743TIP3   OH211171   1.782   4.430   4.929
 3743TIP3    H111172   1.806   4.350   4.976
 3743TIP3    H211173   1.767   4.401   4.839
 3744TIP3   OH211174   3.874   5.992   3.663
 3744TIP3    H111175   3.843   6.073   3.705
 3744TIP3    H211176   3.806   5.928   3.683
 3745TIP3   OH211177   8.055   4.066   1.708
 3745TIP3    H111178   8.039   3.973   1.722
 3745TIP3    H211179   8.150   4.073   1.698
 3746TIP3   OH211180   7.043   6.590   0.603
 3746TIP3    H111181   7.081   6.505   0.583
 3746TIP3    H211182   6.960   6.591   0.555
 3747TIP3   OH211183   7.505   0.361   5.695
 3747TIP3    H111184   7.488   0.270   5.672
 3747TIP3    H211185   7.598   0.374   5.679
 3748TIP3   OH211186   0.823   6.785   2.114
 3748TIP3    H111187   0.905   6.814   2.075
 3748TIP3    H211188   0.828   6.689   2.114
 3749TIP3   OH211189   4.750   0.522   2.029
 3749TIP3    H111190   4.840   0.537   1.998
 3749TIP3    H211191   4.737   0.589   2.096
 3750TIP3   OH211192   2.837   3.287   4.995
 3750TIP3    H111193   2.762   3.344   5.009
 3750TIP3    H211194   2.799   3.204   4.966
 3751TIP3   OH211195   3.732   3.238   0.390
 3751TIP3    H111196   3.785   3.288   0.453
 3751TIP3    H211197   3.774   3.152   0.387
 3752TIP3   OH211198   6.973   5.206   4.873
 3752TIP3    H111199   6.903   5.246   4.924
 3752TIP3    H211200   7.027   5.279   4.843
 3753TIP3   OH211201   3.865   5.458   5.082
 3753TIP3    H111202   3.924   5.383   5.090
 3753TIP3    H211203   3.917   5.526   5.039
 3754TIP3   OH211204   1.448   5.277   2.702
 3754TIP3    H111205   1.479   5.344   2.641
 3754TIP3    H211206   1.527   5.250   2.749
 3755TIP3   OH211207   8.127   4.747   3.684
 3755TIP3    H111208   8.111   4.780   3.772
 3755TIP3    H211209   8.111   4.823   3.627
 3756TIP3   OH211210   0.468   5.420   4.438
 3756TIP3    H111211   0.440   5.346   4.383
 3756TIP3    H211212   0.430   5.497   4.394
 3757TIP3   OH211213   5.332   3.541   3.004
 3757TIP3    H111214   5.323   3.603   2.932
 3757TIP3    H211215   5.371   3.592   3.075
 3758TIP3   OH211216   6.513   6.560   3.406
 3758TIP3    H111217   6.489   6.651   3.424
 3758TIP3    H211218   6.444   6.508   3.448
 3759TIP3   OH211219   6.846   4.163   3.975
 3759TIP3    H111220   6.907   4.090   3.963
 3759TIP3    H211221   6.765   4.133   3.934
 3760TIP3   OH211222   4.694   6.673   6.607
 3760TIP3    H111223   4.653   6.662   6.521
 3760TIP3    H211224   4.686   6.587   6.648
 3761TIP3   OH211225   2.108   1.250   5.979
 3761TIP3    H111226   2.063   1.232   5.897
 3761TIP3    H211227   2.039   1.257   6.044
 3762TIP3   OH211228   0.446   5.507   4.050
 3762TIP3    H111229   0.519   5.540   4.102
 3762TIP3    H211230   0.368   5.544   4.092
 3763TIP3   OH211231   5.379   7.792   6.469
 3763TIP3    H111232   5.411   7.818   6.555
 3763TIP3    H211233   5.367   7.874   6.421
 3764TIP3   OH211234   0.583   6.300   1.837
 3764TIP3    H111235   0.494   6.276   1.812
 3764TIP3    H211236   0.588   6.394   1.821
 3765TIP3   OH211237   7.303   5.323   2.280
 3765TIP3    H111238   7.252   5.248   2.313
 3765TIP3    H211239   7.237   5.389   2.261
 3766TIP3   OH211240   4.146   4.859   5.559
 3766TIP3    H111241   4.225   4.914   5.566
 3766TIP3    H211242   4.180   4.770   5.554
 3767TIP3   OH211243   5.960   0.401   6.713
 3767TIP3    H111244   6.010   0.332   6.757
 3767TIP3    H211245   5.902   0.355   6.653
 3768TIP3   OH211246   0.445   0.156   1.512
 3768TIP3    H111247   0.499   0.214   1.565
 3768TIP3    H211248   0.448   0.072   1.558
 3769TIP3   OH211249   5.284   6.099   0.715
 3769TIP3    H111250   5.348   6.071   0.779
 3769TIP3    H211251   5.222   6.027   0.709
 3770TIP3   OH211252   7.171   1.705   5.502
 3770TIP3    H111253   7.103   1.754   5.456
 3770TIP3    H211254   7.134   1.617   5.513
 3771TIP3   OH211255   3.344   1.879   1.812
 3771TIP3    H111256   3.265   1.931   1.800
 3771TIP3    H211257   3.393   1.890   1.731
 3772TIP3   OH211258   3.534   3.119   4.751
 3772TIP3    H111259   3.472   3.069   4.804
 3772TIP3    H211260   3.511   3.096   4.661
 3773TIP3   OH211261   2.745   0.511   4.079
 3773TIP3    H111262   2.823   0.462   4.103
 3773TIP3    H211263   2.672   0.459   4.113
 3774TIP3   OH211264   2.759   6.367   0.600
 3774TIP3    H111265   2.822   6.386   0.670
 3774TIP3    H211266   2.717   6.285   0.627
 3775TIP3   OH211267   7.241   4.274   4.142
 3775TIP3    H111268   7.217   4.284   4.050
 3775TIP3    H211269   7.289   4.192   4.146
 3776TIP3   OH211270   4.816   0.058   1.285
 3776TIP3    H111271   4.791  -0.026   1.246
 3776TIP3    H211272   4.906   0.071   1.257
 3777TIP3   OH211273   1.682   2.232   1.945
 3777TIP3    H111274   1.684   2.195   2.033
 3777TIP3    H211275   1.697   2.157   1.888
 3778TIP3   OH211276   0.482   5.092   3.681
 3778TIP3    H111277   0.487   5.118   3.773
 3778TIP3    H211278   0.390   5.070   3.668
 3779TIP3   OH211279   6.847   5.174   3.650
 3779TIP3    H111280   6.827   5.221   3.732
 3779TIP3    H211281   6.762   5.158   3.610
 3780TIP3   OH211282   7.282   5.281   3.344
 3780TIP3    H111283   7.359   5.335   3.362
 3780TIP3    H211284   7.207   5.337   3.363
 3781TIP3   OH211285   0.789   3.596   1.362
 3781TIP3    H111286   0.830   3.566   1.281
 3781TIP3    H211287   0.829   3.682   1.379
 3782TIP3   OH211288   1.186   7.654   5.203
 3782TIP3    H111289   1.223   7.619   5.284
 3782TIP3    H211290   1.103   7.694   5.230
 3783TIP3   OH211291   6.280   0.964   1.342
 3783TIP3    H111292   6.343   0.992   1.276
 3783TIP3    H211293   6.283   0.868   1.339
 3784TIP3   OH211294   0.372   0.204   1.192
 3784TIP3    H111295   0.306   0.150   1.236
 3784TIP3    H211296   0.334   0.224   1.107
 3785TIP3   OH211297   5.628   2.718   5.734
 3785TIP3    H111298   5.579   2.656   5.679
 3785TIP3    H211299   5.678   2.663   5.795
 3786TIP3   OH211300   5.595   4.130   0.147
 3786TIP3    H111301   5.646   4.115   0.227
 3786TIP3    H211302   5.606   4.223   0.129
 3787TIP3   OH211303   5.710   5.201   4.045
 3787TIP3    H111304   5.732   5.108   4.043
 3787TIP3    H211305   5.705   5.222   4.138
 3788TIP3   OH211306   7.964   1.016   1.750
 3788TIP3    H111307   7.916   0.946   1.705
 3788TIP3    H211308   8.033   1.041   1.688
 3789TIP3   OH211309   0.602   1.032   3.778
 3789TIP3    H111310   0.593   1.098   3.709
 3789TIP3    H211311   0.633   1.081   3.854
 3790TIP3   OH211312   0.913   4.037   0.082
 3790TIP3    H111313   0.871   4.053   0.167
 3790TIP3    H211314   1.007   4.037   0.102
 3791TIP3   OH211315   7.598   4.532   0.469
 3791TIP3    H111316   7.614   4.461   0.406
 3791TIP3    H211317   7.607   4.612   0.418
 3792TIP3   OH211318   7.856   5.397   4.302
 3792TIP3    H111319   7.914   5.326   4.330
 3792TIP3    H211320   7.788   5.401   4.369
 3793TIP3   OH211321   4.369   0.383   0.182
 3793TIP3    H111322   4.418   0.327   0.121
 3793TIP3    H211323   4.418   0.465   0.184
 3794TIP3   OH211324   3.875   7.486   1.699
 3794TIP3    H111325   3.823   7.545   1.754
 3794TIP3    H211326   3.814   7.457   1.632
 3795TIP3   OH211327   0.255   6.757   5.891
 3795TIP3    H111328   0.323   6.783   5.953
 3795TIP3    H211329   0.175   6.754   5.942
 3796TIP3   OH211330   6.808   4.995   2.303
 3796TIP3    H111331   6.780   4.949   2.224
 3796TIP3    H211332   6.748   5.069   2.310
 3797TIP3   OH211333   0.670   4.696   1.459
 3797TIP3    H111334   0.747   4.703   1.516
 3797TIP3    H211335   0.638   4.786   1.452
 3798TIP3   OH211336   7.189   1.253   6.284
 3798TIP3    H111337   7.244   1.322   6.321
 3798TIP3    H211338   7.149   1.211   6.360
 3799TIP3   OH211339   7.578   3.284   1.504
 3799TIP3    H111340   7.649   3.340   1.534
 3799TIP3    H211341   7.515   3.284   1.576
 3800TIP3   OH211342   7.669   4.466   0.066
 3800TIP3    H111343   7.676   4.431   0.155
 3800TIP3    H211344   7.747   4.520   0.055
 3801TIP3   OH211345   3.629   1.772   5.399
 3801TIP3    H111346   3.713   1.775   5.445
 3801TIP3    H211347   3.568   1.818   5.457
 3802TIP3   OH211348   3.606   4.274   1.072
 3802TIP3    H111349   3.639   4.248   0.986
 3802TIP3    H211350   3.585   4.367   1.062
 3803TIP3   OH211351   7.639   4.802   5.867
 3803TIP3    H111352   7.708   4.868   5.872
 3803TIP3    H211353   7.607   4.794   5.957
 3804TIP3   OH211354   6.149   7.794   4.995
 3804TIP3    H111355   6.237   7.821   4.967
 3804TIP3    H211356   6.091   7.828   4.926
 3805TIP3   OH211357   8.051   0.347   3.704
 3805TIP3    H111358   8.019   0.386   3.786
 3805TIP3    H211359   8.092   0.265   3.731
 3806TIP3   OH211360   5.633   7.036   3.102
 3806TIP3    H111361   5.686   7.020   3.024
 3806TIP3    H211362   5.685   7.099   3.153
 3807TIP3   OH211363   6.211   5.134   3.176
 3807TIP3    H111364   6.209   5.229   3.186
 3807TIP3    H211365   6.278   5.117   3.111
 3808TIP3   OH211366   2.160   7.459   6.532
 3808TIP3    H111367   2.201   7.378   6.560
 3808TIP3    H211368   2.137   7.504   6.614
 3809TIP3   OH211369   6.372   7.299   4.672
 3809TIP3    H111370   6.388   7.353   4.594
 3809TIP3    H211371   6.316   7.353   4.727
 3810TIP3   OH211372   0.086   6.954   1.008
 3810TIP3    H111373   0.046   6.867   1.018
 3810TIP3    H211374   0.116   6.977   1.096
 3811TIP3   OH211375   6.824   2.479   3.487
 3811TIP3    H111376   6.876   2.455   3.563
 3811TIP3    H211377   6.805   2.396   3.443
 3812TIP3   OH211378   8.070   1.940   3.955
 3812TIP3    H111379   8.010   1.881   3.909
 3812TIP3    H211380   8.143   1.884   3.981
 3813TIP3   OH211381   1.916   4.382   0.749
 3813TIP3    H111382   1.907   4.385   0.844
 3813TIP3    H211383   2.008   4.401   0.733
 3814TIP3   OH211384   7.232   7.337   4.674
 3814TIP3    H111385   7.265   7.259   4.629
 3814TIP3    H211386   7.290   7.408   4.645
 3815TIP3   OH211387   7.483   7.491   4.872
 3815TIP3    H111388   7.573   7.481   4.839
 3815TIP3    H211389   7.442   7.553   4.812
 3816TIP3   OH211390   6.513   0.965   1.757
 3816TIP3    H111391   6.569   0.980   1.681
 3816TIP3    H211392   6.493   0.872   1.754
 3817TIP3   OH211393   4.927   3.693   1.720
 3817TIP3    H111394   4.897   3.616   1.769
 3817TIP3    H211395   4.969   3.748   1.786
 3818TIP3   OH211396   6.649   3.895   2.862
 3818TIP3    H111397   6.677   3.908   2.953
 3818TIP3    H211398   6.607   3.978   2.838
 3819TIP3   OH211399   1.582   7.719   3.055
 3819TIP3    H111400   1.639   7.643   3.054
 3819TIP3    H211401   1.638   7.791   3.025
 3820TIP3   OH211402   0.666   6.138   5.609
 3820TIP3    H111403   0.655   6.090   5.528
 3820TIP3    H211404   0.609   6.093   5.672
 3821TIP3   OH211405   5.570   2.197   2.394
 3821TIP3    H111406   5.585   2.288   2.417
 3821TIP3    H211407   5.522   2.161   2.469
 3822TIP3   OH211408   5.686   0.613   3.042
 3822TIP3    H111409   5.743   0.565   2.982
 3822TIP3    H211410   5.603   0.565   3.041
 3823TIP3   OH211411   3.826   3.400   2.780
 3823TIP3    H111412   3.881   3.391   2.857
 3823TIP3    H211413   3.774   3.479   2.797
 3824TIP3   OH211414   3.642   5.110   2.199
 3824TIP3    H111415   3.725   5.112   2.247
 3824TIP3    H211416   3.595   5.187   2.228
 3825TIP3   OH211417   7.753   4.097   5.424
 3825TIP3    H111418   7.839   4.095   5.381
 3825TIP3    H211419   7.733   4.005   5.441
 3826TIP3   OH211420   1.484   2.670   0.423
 3826TIP3    H111421   1.504   2.579   0.445
 3826TIP3    H211422   1.558   2.698   0.368
 3827TIP3   OH211423   4.224   2.517   1.906
 3827TIP3    H111424   4.152   2.570   1.873
 3827TIP3    H211425   4.297   2.537   1.847
 3828TIP3   OH211426   4.259   7.188   3.031
 3828TIP3    H111427   4.194   7.198   2.962
 3828TIP3    H211428   4.283   7.095   3.029
 3829TIP3   OH211429   5.761   0.541   4.756
 3829TIP3    H111430   5.776   0.532   4.662
 3829TIP3    H211431   5.713   0.462   4.780
 3830TIP3   OH211432   3.338   2.604   1.910
 3830TIP3    H111433   3.401   2.535   1.930
 3830TIP3    H211434   3.366   2.678   1.965
 3831TIP3   OH211435   7.094   6.951   5.147
 3831TIP3    H111436   7.130   6.938   5.059
 3831TIP3    H211437   7.008   6.992   5.131
 3832TIP3   OH211438   4.788   5.210   6.280
 3832TIP3    H111439   4.772   5.270   6.207
 3832TIP3    H211440   4.781   5.123   6.241
 3833TIP3   OH211441   0.916   5.548   3.261
 3833TIP3    H111442   1.009   5.551   3.240
 3833TIP3    H211443   0.895   5.455   3.263
 3834TIP3   OH211444   4.646   4.176   6.635
 3834TIP3    H111445   4.563   4.135   6.613
 3834TIP3    H211446   4.623   4.263   6.667
 3835TIP3   OH211447   3.653   6.349   2.961
 3835TIP3    H111448   3.742   6.340   2.927
 3835TIP3    H211449   3.664   6.387   3.048
 3836TIP3   OH211450   6.021   5.251   6.460
 3836TIP3    H111451   6.044   5.331   6.507
 3836TIP3    H211452   5.936   5.270   6.420
 3837TIP3   OH211453   1.439   4.229   6.068
 3837TIP3    H111454   1.363   4.264   6.113
 3837TIP3    H211455   1.464   4.297   6.005
 3838TIP3   OH211456   2.820   3.398   2.163
 3838TIP3    H111457   2.812   3.310   2.199
 3838TIP3    H211458   2.748   3.406   2.102
 3839TIP3   OH211459   2.384   6.238   1.745
 3839TIP3    H111460   2.353   6.327   1.762
 3839TIP3    H211461   2.368   6.224   1.652
 3840TIP3   OH211462   0.259   1.555   6.334
 3840TIP3    H111463   0.335   1.527   6.284
 3840TIP3    H211464   0.185   1.510   6.293
 3841TIP3   OH211465   8.016   4.252   6.692
 3841TIP3    H111466   7.956   4.325   6.709
 3841TIP3    H211467   7.965   4.189   6.641
 3842TIP3   OH211468   5.303   5.999   3.661
 3842TIP3    H111469   5.263   5.935   3.720
 3842TIP3    H211470   5.232   6.025   3.603
 3843TIP3   OH211471   7.259   2.824   2.443
 3843TIP3    H111472   7.272   2.777   2.361
 3843TIP3    H211473   7.236   2.756   2.507
 3844TIP3   OH211474   2.110   6.439   4.488
 3844TIP3    H111475   2.026   6.406   4.456
 3844TIP3    H211476   2.088   6.497   4.560
 3845TIP3   OH211477   6.223   1.214   4.036
 3845TIP3    H111478   6.194   1.286   3.979
 3845TIP3    H211479   6.142   1.183   4.077
 3846TIP3   OH211480   2.296   5.638   3.127
 3846TIP3    H111481   2.357   5.570   3.158
 3846TIP3    H211482   2.350   5.716   3.118
 3847TIP3   OH211483   8.008   7.604   1.099
 3847TIP3    H111484   8.042   7.621   1.187
 3847TIP3    H211485   8.065   7.535   1.065
 3848TIP3   OH211486   5.091   2.821   1.134
 3848TIP3    H111487   5.114   2.735   1.170
 3848TIP3    H211488   5.139   2.883   1.189
 3849TIP3   OH211489   6.622   7.595   5.738
 3849TIP3    H111490   6.532   7.600   5.771
 3849TIP3    H211491   6.616   7.535   5.663
 3850TIP3   OH211492   7.196   0.826   3.292
 3850TIP3    H111493   7.250   0.881   3.348
 3850TIP3    H211494   7.151   0.768   3.353
 3851TIP3   OH211495   2.280   3.624   3.954
 3851TIP3    H111496   2.269   3.698   4.015
 3851TIP3    H211497   2.374   3.605   3.956
 3852TIP3   OH211498   5.815   7.105   6.670
 3852TIP3    H111499   5.781   7.074   6.586
 3852TIP3    H211500   5.897   7.149   6.648
 3853TIP3   OH211501   2.490   2.703   3.309
 3853TIP3    H111502   2.504   2.624   3.258
 3853TIP3    H211503   2.518   2.775   3.251
 3854TIP3   OH211504   0.954   2.826   4.495
 3854TIP3    H111505   0.944   2.736   4.528
 3854TIP3    H211506   0.923   2.881   4.567
 3855TIP3   OH211507   4.753   3.642   3.872
 3855TIP3    H111508   4.847   3.657   3.882
 3855TIP3    H211509   4.726   3.702   3.802
 3856TIP3   OH211510   0.110   7.114   2.240
 3856TIP3    H111511   0.101   7.019   2.245
 3856TIP3    H211512   0.131   7.132   2.148
 3857TIP3   OH211513   4.640   2.559   2.504
 3857TIP3    H111514   4.710   2.495   2.499
 3857TIP3    H211515   4.571   2.525   2.447
 3858TIP3   OH211516   7.931   3.372   1.850
 3858TIP3    H111517   7.997   3.436   1.877
 3858TIP3    H211518   7.972   3.287   1.864
 3859TIP3   OH211519   0.541   3.402   5.910
 3859TIP3    H111520   0.577   3.487   5.932
 3859TIP3    H211521   0.581   3.379   5.826
 3860TIP3   OH211522   5.592   5.762   1.390
 3860TIP3    H111523   5.529   5.691   1.374
 3860TIP3    H211524   5.673   5.716   1.412
 3861TIP3   OH211525   3.787   5.980   6.042
 3861TIP3    H111526   3.830   5.896   6.051
 3861TIP3    H211527   3.718   5.966   5.977
 3862TIP3   OH211528   1.708   3.892   4.784
 3862TIP3    H111529   1.747   3.970   4.745
 3862TIP3    H211530   1.639   3.926   4.841
 3863TIP3   OH211531   4.254   6.161   2.295
 3863TIP3    H111532   4.337   6.175   2.250
 3863TIP3    H211533   4.201   6.238   2.274
 3864TIP3   OH211534   0.665   0.207   1.944
 3864TIP3    H111535   0.660   0.206   1.849
 3864TIP3    H211536   0.704   0.291   1.965
 3865TIP3   OH211537   4.043   5.499   1.424
 3865TIP3    H111538   4.029   5.473   1.333
 3865TIP3    H211539   4.032   5.419   1.474
 3866TIP3   OH211540   6.865   4.419   1.937
 3866TIP3    H111541   6.948   4.461   1.917
 3866TIP3    H211542   6.889   4.340   1.987
 3867TIP3   OH211543   6.981   2.273   2.301
 3867TIP3    H111544   7.007   2.356   2.262
 3867TIP3    H211545   6.924   2.232   2.237
 3868TIP3   OH211546   2.490   7.857   0.618
 3868TIP3    H111547   2.430   7.783   0.625
 3868TIP3    H211548   2.573   7.819   0.589
 3869TIP3   OH211549   7.550   0.173   3.409
 3869TIP3    H111550   7.601   0.135   3.481
 3869TIP3    H211551   7.545   0.266   3.431
 3870TIP3   OH211552   0.993   1.789   1.045
 3870TIP3    H111553   0.970   1.841   0.969
 3870TIP3    H211554   1.071   1.831   1.081
 3871TIP3   OH211555   2.616   3.870   4.720
 3871TIP3    H111556   2.690   3.872   4.658
 3871TIP3    H211557   2.591   3.778   4.723
 3872TIP3   OH211558   2.214   1.440   0.747
 3872TIP3    H111559   2.261   1.416   0.667
 3872TIP3    H211560   2.132   1.480   0.716
 3873TIP3   OH211561   8.047   0.470   3.964
 3873TIP3    H111562   8.124   0.517   3.932
 3873TIP3    H211563   8.004   0.533   4.022
 3874TIP3   OH211564   3.803   0.807   2.833
 3874TIP3    H111565   3.712   0.825   2.860
 3874TIP3    H211566   3.820   0.718   2.862
 3875TIP3   OH211567   0.570   1.967   6.479
 3875TIP3    H111568   0.495   1.931   6.527
 3875TIP3    H211569   0.588   2.050   6.523
 3876TIP3   OH211570   1.143   6.195   3.443
 3876TIP3    H111571   1.052   6.224   3.436
 3876TIP3    H211572   1.140   6.102   3.420
 3877TIP3   OH211573   8.019   2.867   0.687
 3877TIP3    H111574   8.094   2.904   0.642
 3877TIP3    H211575   8.054   2.792   0.735
 3878TIP3   OH211576   6.465   2.549   6.659
 3878TIP3    H111577   6.472   2.473   6.601
 3878TIP3    H211578   6.394   2.526   6.719
 3879TIP3   OH211579   7.559   0.954   5.940
 3879TIP3    H111580   7.635   1.002   5.974
 3879TIP3    H211581   7.505   1.022   5.899
 3880TIP3   OH211582   6.953   7.612   1.884
 3880TIP3    H111583   6.914   7.677   1.826
 3880TIP3    H211584   6.904   7.620   1.966
 3881TIP3   OH211585   1.893   7.530   2.735
 3881TIP3    H111586   1.853   7.454   2.776
 3881TIP3    H211587   1.848   7.540   2.651
 3882TIP3   OH211588   3.472   1.807   4.440
 3882TIP3    H111589   3.477   1.713   4.456
 3882TIP3    H211590   3.479   1.847   4.527
 3883TIP3   OH211591   3.115   0.928   1.029
 3883TIP3    H111592   3.042   0.880   0.989
 3883TIP3    H211593   3.124   0.889   1.116
 3884TIP3   OH211594   5.823   4.655   3.993
 3884TIP3    H111595   5.783   4.574   3.960
 3884TIP3    H211596   5.908   4.627   4.026
 3885TIP3   OH211597   3.627   2.778   3.934
 3885TIP3    H111598   3.641   2.720   3.859
 3885TIP3    H211599   3.601   2.720   4.005
 3886TIP3   OH211600   5.684   7.702   2.815
 3886TIP3    H111601   5.590   7.691   2.800
 3886TIP3    H211602   5.695   7.797   2.825
 3887TIP3   OH211603   7.292   2.887   4.545
 3887TIP3    H111604   7.303   2.908   4.452
 3887TIP3    H211605   7.201   2.858   4.552
 3888TIP3   OH211606   7.333   2.379   2.096
 3888TIP3    H111607   7.320   2.304   2.154
 3888TIP3    H211608   7.250   2.427   2.100
 3889TIP3   OH211609   1.832   4.962   1.482
 3889TIP3    H111610   1.759   4.979   1.541
 3889TIP3    H211611   1.796   4.904   1.415
 3890TIP3   OH211612   3.967   7.781   0.335
 3890TIP3    H111613   3.898   7.846   0.343
 3890TIP3    H211614   3.978   7.769   0.241
 3891TIP3   OH211615   6.925   0.063   5.697
 3891TIP3    H111616   6.834   0.040   5.680
 3891TIP3    H211617   6.928   0.158   5.688
 3892TIP3   OH211618   7.872   1.164   5.655
 3892TIP3    H111619   7.879   1.123   5.569
 3892TIP3    H211620   7.781   1.192   5.661
 3893TIP3   OH211621   6.394   1.507   2.370
 3893TIP3    H111622   6.483   1.528   2.342
 3893TIP3    H211623   6.340   1.578   2.335
 3894TIP3   OH211624   6.142   2.257   1.703
 3894TIP3    H111625   6.190   2.271   1.785
 3894TIP3    H211626   6.068   2.317   1.708
 3895TIP3   OH211627   2.673   7.765   2.032
 3895TIP3    H111628   2.586   7.732   2.009
 3895TIP3    H211629   2.731   7.726   1.967
 3896TIP3   OH211630   3.712   4.247   0.367
 3896TIP3    H111631   3.626   4.290   0.370
 3896TIP3    H211632   3.774   4.320   0.360
 3897TIP3   OH211633  -0.029   1.621   3.649
 3897TIP3    H111634   0.059   1.621   3.611
 3897TIP3    H211635  -0.024   1.556   3.720
 3898TIP3   OH211636   7.173   0.450   3.457
 3898TIP3    H111637   7.267   0.462   3.461
 3898TIP3    H211638   7.155   0.384   3.524
 3899TIP3   OH211639   6.251   0.726   0.657
 3899TIP3    H111640   6.301   0.795   0.613
 3899TIP3    H211641   6.162   0.763   0.665
 3900TIP3   OH211642   6.605   5.597   0.886
 3900TIP3    H111643   6.650   5.590   0.970
 3900TIP3    H211644   6.666   5.557   0.823
 3901TIP3   OH211645   3.981   4.169   6.247
 3901TIP3    H111646   4.032   4.245   6.218
 3901TIP3    H211647   3.893   4.186   6.213
 3902TIP3   OH211648   0.817   0.781   1.203
 3902TIP3    H111649   0.758   0.721   1.247
 3902TIP3    H211650   0.765   0.816   1.130
 3903TIP3   OH211651   1.363   2.034   1.457
 3903TIP3    H111652   1.405   2.119   1.470
 3903TIP3    H211653   1.405   1.998   1.378
 3904TIP3   OH211654   7.070   7.045   1.359
 3904TIP3    H111655   6.992   7.099   1.372
 3904TIP3    H211656   7.042   6.957   1.381
 3905TIP3   OH211657   5.534   6.810   4.864
 3905TIP3    H111658   5.462   6.753   4.834
 3905TIP3    H211659   5.567   6.768   4.943
 3906TIP3   OH211660   2.964   6.549   5.100
 3906TIP3    H111661   2.922   6.633   5.083
 3906TIP3    H211662   3.018   6.533   5.023
 3907TIP3   OH211663   3.116   7.733   1.512
 3907TIP3    H111664   3.146   7.790   1.441
 3907TIP3    H211665   3.194   7.714   1.563
 3908TIP3   OH211666   6.462   2.663   1.893
 3908TIP3    H111667   6.518   2.586   1.881
 3908TIP3    H211668   6.431   2.656   1.983
 3909TIP3   OH211669   4.988   0.630   6.369
 3909TIP3    H111670   4.944   0.607   6.451
 3909TIP3    H211671   4.929   0.597   6.301
 3910TIP3   OH211672   7.671   6.307   2.177
 3910TIP3    H111673   7.613   6.272   2.245
 3910TIP3    H211674   7.723   6.231   2.149
 3911TIP3   OH211675   4.877   0.083   1.565
 3911TIP3    H111676   4.880   0.173   1.599
 3911TIP3    H211677   4.852   0.094   1.473
 3912TIP3   OH211678   4.883   0.665   1.024
 3912TIP3    H111679   4.930   0.640   0.945
 3912TIP3    H211680   4.803   0.707   0.993
 3913TIP3   OH211681   7.671   0.219   0.154
 3913TIP3    H111682   7.637   0.174   0.231
 3913TIP3    H211683   7.706   0.149   0.098
 3914TIP3   OH211684   0.463   1.391   2.044
 3914TIP3    H111685   0.504   1.412   2.128
 3914TIP3    H211686   0.413   1.470   2.022
 3915TIP3   OH211687   4.876   0.438   1.315
 3915TIP3    H111688   4.786   0.432   1.348
 3915TIP3    H211689   4.929   0.393   1.381
 3916TIP3   OH211690   2.965   0.153   1.216
 3916TIP3    H111691   2.902   0.178   1.283
 3916TIP3    H211692   2.983   0.234   1.168
 3917TIP3   OH211693   7.519   0.661   4.684
 3917TIP3    H111694   7.427   0.636   4.691
 3917TIP3    H211695   7.550   0.667   4.774
 3918TIP3   OH211696   3.383   5.003   2.970
 3918TIP3    H111697   3.301   5.028   3.011
 3918TIP3    H211698   3.389   4.908   2.984
 3919TIP3   OH211699   7.386   1.218   3.931
 3919TIP3    H111700   7.468   1.251   3.966
 3919TIP3    H211701   7.366   1.276   3.857
 3920TIP3   OH211702   1.205   3.589   5.154
 3920TIP3    H111703   1.235   3.557   5.239
 3920TIP3    H211704   1.285   3.601   5.103
 3921TIP3   OH211705   0.283   6.947   5.431
 3921TIP3    H111706   0.238   7.028   5.408
 3921TIP3    H211707   0.267   6.937   5.525
 3922TIP3   OH211708   1.739   1.124   1.643
 3922TIP3    H111709   1.702   1.058   1.701
 3922TIP3    H211710   1.777   1.073   1.571
 3923TIP3   OH211711   0.729   3.481   2.939
 3923TIP3    H111712   0.709   3.416   2.872
 3923TIP3    H211713   0.703   3.564   2.901
 3924TIP3   OH211714   2.041   7.124   2.828
 3924TIP3    H111715   2.010   7.168   2.908
 3924TIP3    H211716   1.961   7.092   2.786
 3925TIP3   OH211717   6.933   4.972   0.588
 3925TIP3    H111718   6.876   4.900   0.615
 3925TIP3    H211719   6.976   4.999   0.669
 3926TIP3   OH211720   3.662   7.290   6.685
 3926TIP3    H111721   3.726   7.356   6.714
 3926TIP3    H211722   3.662   7.297   6.590
 3927TIP3   OH211723   5.788   3.455   0.527
 3927TIP3    H111724   5.782   3.537   0.577
 3927TIP3    H211725   5.838   3.478   0.449
 3928TIP3   OH211726   4.548   4.645   4.447
 3928TIP3    H111727   4.474   4.655   4.386
 3928TIP3    H211728   4.567   4.551   4.446
 3929TIP3   OH211729   3.642   1.582   0.985
 3929TIP3    H111730   3.554   1.559   1.016
 3929TIP3    H211731   3.648   1.543   0.898
 3930TIP3   OH211732   5.971   6.924   2.452
 3930TIP3    H111733   6.021   6.957   2.527
 3930TIP3    H211734   5.908   6.863   2.490
 3931TIP3   OH211735   6.031   1.399   1.340
 3931TIP3    H111736   6.088   1.464   1.300
 3931TIP3    H211737   5.948   1.408   1.293
 3932TIP3   OH211738   5.894   7.684   6.715
 3932TIP3    H111739   5.823   7.634   6.674
 3932TIP3    H211740   5.851   7.761   6.751
 3933TIP3   OH211741   2.406   2.550   2.616
 3933TIP3    H111742   2.361   2.533   2.533
 3933TIP3    H211743   2.422   2.464   2.654
 3934TIP3   OH211744   1.091   0.626   5.285
 3934TIP3    H111745   1.094   0.635   5.189
 3934TIP3    H211746   1.161   0.565   5.306
 3935TIP3   OH211747   2.053   5.982   4.020
 3935TIP3    H111748   2.080   6.038   3.947
 3935TIP3    H211749   2.002   5.912   3.979
 3936TIP3   OH211750   3.187   1.517   0.406
 3936TIP3    H111751   3.114   1.458   0.385
 3936TIP3    H211752   3.180   1.532   0.500
 3937TIP3   OH211753   5.795   4.677   3.583
 3937TIP3    H111754   5.877   4.723   3.564
 3937TIP3    H211755   5.729   4.745   3.591
 3938TIP3   OH211756   7.353   6.273   0.966
 3938TIP3    H111757   7.343   6.358   0.925
 3938TIP3    H211758   7.292   6.216   0.919
 3939TIP3   OH211759   5.400   4.025   4.513
 3939TIP3    H111760   5.381   4.075   4.433
 3939TIP3    H211761   5.486   3.987   4.497
 3940TIP3   OH211762   1.045   5.127   5.565
 3940TIP3    H111763   0.954   5.154   5.580
 3940TIP3    H211764   1.045   5.092   5.476
 3941TIP3   OH211765   2.250   1.857   2.228
 3941TIP3    H111766   2.309   1.848   2.303
 3941TIP3    H211767   2.194   1.780   2.233
 3942TIP3   OH211768   6.855   2.467   4.960
 3942TIP3    H111769   6.852   2.418   5.042
 3942TIP3    H211770   6.922   2.534   4.974
 3943TIP3   OH211771   7.695   4.929   2.791
 3943TIP3    H111772   7.641   4.969   2.859
 3943TIP3    H211773   7.711   4.840   2.823
 3944TIP3   OH211774   1.949   4.179   2.490
 3944TIP3    H111775   1.919   4.209   2.575
 3944TIP3    H211776   1.893   4.104   2.469
 3945TIP3   OH211777   5.178   4.087   1.835
 3945TIP3    H111778   5.213   4.169   1.871
 3945TIP3    H211779   5.096   4.074   1.882
 3946TIP3   OH211780   5.445   6.877   3.974
 3946TIP3    H111781   5.382   6.909   3.909
 3946TIP3    H211782   5.422   6.923   4.054
 3947TIP3   OH211783   2.123   0.435   4.844
 3947TIP3    H111784   2.083   0.502   4.901
 3947TIP3    H211785   2.049   0.388   4.807
 3948TIP3   OH211786   5.693   0.603   4.299
 3948TIP3    H111787   5.777   0.634   4.332
 3948TIP3    H211788   5.695   0.625   4.205
 3949TIP3   OH211789   2.049   5.771   4.414
 3949TIP3    H111790   2.012   5.859   4.412
 3949TIP3    H211791   2.133   5.779   4.369
 3950TIP3   OH211792   7.989   4.103   5.291
 3950TIP3    H111793   8.007   4.031   5.230
 3950TIP3    H211794   8.050   4.172   5.265
 3951TIP3   OH211795   0.002   4.527   2.188
 3951TIP3    H111796  -0.085   4.497   2.213
 3951TIP3    H211797   0.053   4.521   2.269
 3952TIP3   OH211798   0.550   2.998   2.748
 3952TIP3    H111799   0.593   2.946   2.679
 3952TIP3    H211800   0.550   2.941   2.825
 3953TIP3   OH211801   2.190   3.338   4.193
 3953TIP3    H111802   2.221   3.424   4.222
 3953TIP3    H211803   2.171   3.350   4.100
 3954TIP3   OH211804   6.720   5.897   5.468
 3954TIP3    H111805   6.788   5.951   5.428
 3954TIP3    H211806   6.758   5.867   5.550
 3955TIP3   OH211807   0.237   5.548   5.161
 3955TIP3    H111808   0.184   5.558   5.082
 3955TIP3    H211809   0.310   5.609   5.148
 3956TIP3   OH211810   6.996   1.932   1.835
 3956TIP3    H111811   6.947   1.975   1.906
 3956TIP3    H211812   7.069   1.890   1.879
 3957TIP3   OH211813   0.420   3.397   5.573
 3957TIP3    H111814   0.458   3.356   5.495
 3957TIP3    H211815   0.346   3.341   5.595
 3958TIP3   OH211816   2.542   0.864   0.527
 3958TIP3    H111817   2.560   0.789   0.584
 3958TIP3    H211818   2.508   0.932   0.585
 3959TIP3   OH211819   8.185   7.220   6.636
 3959TIP3    H111820   8.115   7.191   6.696
 3959TIP3    H211821   8.263   7.172   6.666
 3960TIP3   OH211822   2.363   0.604   4.880
 3960TIP3    H111823   2.294   0.539   4.894
 3960TIP3    H211824   2.341   0.675   4.940
 3961TIP3   OH211825   6.014   2.138   3.458
 3961TIP3    H111826   5.942   2.150   3.520
 3961TIP3    H211827   5.998   2.203   3.390
 3962TIP3   OH211828   4.993   5.581   1.947
 3962TIP3    H111829   5.006   5.503   1.893
 3962TIP3    H211830   5.047   5.648   1.904
 3963TIP3   OH211831   3.997   5.581   6.376
 3963TIP3    H111832   4.080   5.534   6.365
 3963TIP3    H211833   3.992   5.598   6.470
 3964TIP3   OH211834   6.059   4.660   2.710
 3964TIP3    H111835   6.012   4.662   2.627
 3964TIP3    H211836   6.002   4.708   2.771
 3965TIP3   OH211837   5.721   0.295   0.656
 3965TIP3    H111838   5.648   0.354   0.637
 3965TIP3    H211839   5.735   0.305   0.750
 3966TIP3   OH211840   7.207   0.497   4.644
 3966TIP3    H111841   7.126   0.544   4.664
 3966TIP3    H211842   7.222   0.515   4.551
 3967TIP3   OH211843   7.816   3.299   4.040
 3967TIP3    H111844   7.903   3.328   4.012
 3967TIP3    H211845   7.813   3.206   4.019
 3968TIP3   OH211846   7.418   4.132   1.825
 3968TIP3    H111847   7.451   4.101   1.909
 3968TIP3    H211848   7.489   4.115   1.763
 3969TIP3   OH211849   6.914   2.294   5.805
 3969TIP3    H111850   6.983   2.344   5.761
 3969TIP3    H211851   6.848   2.359   5.828
 3970TIP3   OH211852   5.482   6.303   2.224
 3970TIP3    H111853   5.490   6.236   2.157
 3970TIP3    H211854   5.427   6.263   2.292
 3971TIP3   OH211855   6.075   2.686   6.523
 3971TIP3    H111856   6.070   2.765   6.576
 3971TIP3    H211857   6.084   2.615   6.586
 3972TIP3   OH211858   1.316   1.395   1.822
 3972TIP3    H111859   1.246   1.450   1.856
 3972TIP3    H211860   1.286   1.367   1.735
 3973TIP3   OH211861   4.886   3.269   5.345
 3973TIP3    H111862   4.860   3.349   5.389
 3973TIP3    H211863   4.923   3.214   5.414
 3974TIP3   OH211864   2.392   0.160   5.036
 3974TIP3    H111865   2.342   0.120   4.965
 3974TIP3    H211866   2.389   0.095   5.107
 3975TIP3   OH211867   8.301   7.221   1.521
 3975TIP3    H111868   8.237   7.290   1.536
 3975TIP3    H211869   8.265   7.171   1.448
 3976TIP3   OH211870   2.243   0.391   5.881
 3976TIP3    H111871   2.255   0.316   5.823
 3976TIP3    H211872   2.332   0.418   5.904
 3977TIP3   OH211873   2.301   5.895   3.349
 3977TIP3    H111874   2.239   5.822   3.349
 3977TIP3    H211875   2.246   5.973   3.350
 3978TIP3   OH211876   3.166   5.006   4.288
 3978TIP3    H111877   3.253   5.046   4.290
 3978TIP3    H211878   3.148   4.982   4.379
 3979TIP3   OH211879   1.306   2.922   5.907
 3979TIP3    H111880   1.359   2.908   5.828
 3979TIP3    H211881   1.311   3.016   5.923
 3980TIP3   OH211882   7.356   7.037   0.785
 3980TIP3    H111883   7.363   7.015   0.692
 3980TIP3    H211884   7.301   6.968   0.822
 3981TIP3   OH211885   1.203   4.547   2.263
 3981TIP3    H111886   1.154   4.466   2.276
 3981TIP3    H211887   1.244   4.565   2.347
 3982TIP3   OH211888   0.241   4.413   2.378
 3982TIP3    H111889   0.199   4.407   2.463
 3982TIP3    H211890   0.211   4.336   2.330
 3983TIP3   OH211891   7.810   7.787   0.265
 3983TIP3    H111892   7.769   7.700   0.263
 3983TIP3    H211893   7.901   7.769   0.292
 3984TIP3   OH211894   0.542   0.421   6.329
 3984TIP3    H111895   0.533   0.375   6.246
 3984TIP3    H211896   0.586   0.503   6.306
 3985TIP3   OH211897   1.419   1.861   2.403
 3985TIP3    H111898   1.415   1.957   2.409
 3985TIP3    H211899   1.328   1.833   2.413
 3986TIP3   OH211900   4.036   4.730   2.518
 3986TIP3    H111901   3.978   4.658   2.493
 3986TIP3    H211902   4.122   4.704   2.485
 3987TIP3   OH211903   7.713   7.491   0.503
 3987TIP3    H111904   7.640   7.545   0.476
 3987TIP3    H211905   7.769   7.484   0.426
 3988TIP3   OH211906   5.109   7.153   6.566
 3988TIP3    H111907   5.113   7.237   6.520
 3988TIP3    H211908   5.098   7.088   6.497
 3989TIP3   OH211909   8.035   1.202   6.712
 3989TIP3    H111910   8.107   1.209   6.775
 3989TIP3    H211911   8.054   1.123   6.663
 3990TIP3   OH211912   3.617   6.984   2.254
 3990TIP3    H111913   3.709   7.002   2.275
 3990TIP3    H211914   3.578   7.071   2.243
 3991TIP3   OH211915   1.970   1.674   6.394
 3991TIP3    H111916   1.997   1.761   6.365
 3991TIP3    H211917   2.004   1.615   6.327
 3992TIP3   OH211918   5.207   4.355   5.318
 3992TIP3    H111919   5.243   4.369   5.405
 3992TIP3    H211920   5.262   4.407   5.260
 3993TIP3   OH211921   6.255   5.665   5.503
 3993TIP3    H111922   6.183   5.679   5.566
 3993TIP3    H211923   6.212   5.632   5.424
 3994TIP3   OH211924   5.041   3.267   6.108
 3994TIP3    H111925   5.102   3.341   6.109
 3994TIP3    H211926   4.981   3.286   6.035
 3995TIP3   OH211927   1.641   4.693   3.718
 3995TIP3    H111928   1.606   4.779   3.696
 3995TIP3    H211929   1.592   4.632   3.663
 3996TIP3   OH211930   1.624   1.427   2.772
 3996TIP3    H111931   1.580   1.342   2.771
 3996TIP3    H211932   1.705   1.413   2.724
 3997TIP3   OH211933   4.680   7.490   6.012
 3997TIP3    H111934   4.618   7.561   6.032
 3997TIP3    H211935   4.699   7.450   6.097
 3998TIP3   OH211936   4.939   5.529   0.294
 3998TIP3    H111937   4.935   5.600   0.357
 3998TIP3    H211938   5.004   5.557   0.230
 3999TIP3   OH211939   5.642   0.625   6.598
 3999TIP3    H111940   5.588   0.554   6.563
 3999TIP3    H211941   5.674   0.671   6.521
 4000TIP3   OH211942   4.708   3.171   0.708
 4000TIP3    H111943   4.774   3.229   0.745
 4000TIP3    H211944   4.629   3.224   0.703
 4001TIP3   OH211945   0.367   5.660   2.567
 4001TIP3    H111946   0.396   5.584   2.617
 4001TIP3    H211947   0.325   5.624   2.489
 4002TIP3   OH211948   3.235   7.050   0.362
 4002TIP3    H111949   3.263   6.963   0.335
 4002TIP3    H211950   3.312   7.106   0.349
 4003TIP3   OH211951   1.581   1.875   3.684
 4003TIP3    H111952   1.576   1.799   3.626
 4003TIP3    H211953   1.651   1.929   3.646
 4004TIP3   OH211954   1.555   1.005   5.212
 4004TIP3    H111955   1.505   1.084   5.194
 4004TIP3    H211956   1.619   1.000   5.140
 4005TIP3   OH211957   5.076   4.817   4.931
 4005TIP3    H111958   5.018   4.848   4.861
 4005TIP3    H211959   5.065   4.722   4.931
 4006TIP3   OH211960   2.206   6.187   5.518
 4006TIP3    H111961   2.190   6.238   5.439
 4006TIP3    H211962   2.132   6.126   5.524
 4007TIP3   OH211963   3.263   2.618   5.968
 4007TIP3    H111964   3.222   2.549   6.020
 4007TIP3    H211965   3.212   2.696   5.987
 4008TIP3   OH211966   5.032   5.231   4.925
 4008TIP3    H111967   5.119   5.191   4.927
 4008TIP3    H211968   5.005   5.227   4.833
 4009TIP3   OH211969   6.730   6.925   5.303
 4009TIP3    H111970   6.788   6.977   5.359
 4009TIP3    H211971   6.785   6.852   5.274
 4010TIP3   OH211972   7.657   5.662   1.240
 4010TIP3    H111973   7.625   5.572   1.234
 4010TIP3    H211974   7.605   5.710   1.176
 4011TIP3   OH211975   3.343   0.296   0.187
 4011TIP3    H111976   3.422   0.244   0.201
 4011TIP3    H211977   3.362   0.348   0.109
 4012TIP3   OH211978   1.044   2.405   1.013
 4012TIP3    H111979   1.103   2.331   1.021
 4012TIP3    H211980   1.072   2.466   1.081
 4013TIP3   OH211981   2.118   1.238   2.447
 4013TIP3    H111982   2.070   1.160   2.420
 4013TIP3    H211983   2.153   1.218   2.534
 4014TIP3   OH211984   5.069   0.726   0.564
 4014TIP3    H111985   5.011   0.799   0.585
 4014TIP3    H211986   5.041   0.698   0.477
 4015TIP3   OH211987   0.661   5.390   6.690
 4015TIP3    H111988   0.755   5.398   6.676
 4015TIP3    H211989   0.640   5.460   6.751
 4016TIP3   OH211990   0.823   4.804   4.030
 4016TIP3    H111991   0.771   4.834   4.104
 4016TIP3    H211992   0.788   4.717   4.010
 4017TIP3   OH211993   7.174   2.070   4.373
 4017TIP3    H111994   7.246   2.128   4.350
 4017TIP3    H211995   7.163   2.014   4.297
 4018TIP3   OH211996   7.228   6.443   5.556
 4018TIP3    H111997   7.295   6.457   5.489
 4018TIP3    H211998   7.176   6.523   5.555
 4019TIP3   OH211999   5.852   0.988   5.538
 4019TIP3    H112000   5.788   1.059   5.544
 4019TIP3    H212001   5.800   0.912   5.511
 4020TIP3   OH212002   6.819   1.060   3.220
 4020TIP3    H112003   6.764   0.998   3.269
 4020TIP3    H212004   6.879   1.004   3.170
 4021TIP3   OH212005   4.500   6.773   6.088
 4021TIP3    H112006   4.469   6.706   6.027
 4021TIP3    H212007   4.593   6.755   6.099
 4022TIP3   OH212008   7.681   5.945   3.879
 4022TIP3    H112009   7.595   5.940   3.839
 4022TIP3    H212010   7.723   5.862   3.858
 4023TIP3   OH212011   4.629   1.340   1.042
 4023TIP3    H112012   4.546   1.388   1.046
 4023TIP3    H212013   4.658   1.349   0.952
 4024TIP3   OH212014   7.167   4.791   3.138
 4024TIP3    H112015   7.248   4.764   3.096
 4024TIP3    H212016   7.166   4.887   3.129
 4025TIP3   OH212017   2.115   2.435   5.982
 4025TIP3    H112018   2.155   2.398   5.903
 4025TIP3    H212019   2.049   2.495   5.950
 4026TIP3   OH212020   7.662   6.908   6.848
 4026TIP3    H112021   7.625   6.932   6.763
 4026TIP3    H212022   7.705   6.987   6.879
 4027TIP3   OH212023   3.965   5.970   5.681
 4027TIP3    H112024   4.022   5.930   5.616
 4027TIP3    H212025   3.942   6.055   5.644
 4028TIP3   OH212026   7.670   1.833   4.414
 4028TIP3    H112027   7.583   1.800   4.389
 4028TIP3    H212028   7.674   1.921   4.378
 4029TIP3   OH212029   7.971   2.728   3.942
 4029TIP3    H112030   7.961   2.802   4.001
 4029TIP3    H212031   7.883   2.708   3.912
 4030TIP3   OH212032   1.603   4.515   2.052
 4030TIP3    H112033   1.571   4.515   1.962
 4030TIP3    H212034   1.698   4.512   2.044
 4031TIP3   OH212035   0.069   2.314   5.377
 4031TIP3    H112036  -0.025   2.303   5.386
 4031TIP3    H212037   0.089   2.282   5.288
 4032TIP3   OH212038   1.139   1.108   2.215
 4032TIP3    H112039   1.188   1.030   2.238
 4032TIP3    H212040   1.146   1.165   2.292
 4033TIP3   OH212041   0.111   7.709   6.193
 4033TIP3    H112042   0.183   7.750   6.145
 4033TIP3    H212043   0.149   7.688   6.278
 4034TIP3   OH212044   5.526   7.257   1.143
 4034TIP3    H112045   5.466   7.206   1.089
 4034TIP3    H212046   5.612   7.239   1.105
 4035TIP3   OH212047   1.916   2.634   0.408
 4035TIP3    H112048   2.012   2.635   0.403
 4035TIP3    H212049   1.897   2.583   0.487
 4036TIP3   OH212050   5.742   2.218   6.350
 4036TIP3    H112051   5.731   2.283   6.420
 4036TIP3    H212052   5.691   2.253   6.277
 4037TIP3   OH212053   5.445   6.873   2.106
 4037TIP3    H112054   5.444   6.966   2.084
 4037TIP3    H212055   5.364   6.838   2.070
 4038TIP3   OH212056   3.523   7.650   4.413
 4038TIP3    H112057   3.479   7.638   4.329
 4038TIP3    H212058   3.453   7.645   4.478
 4039TIP3   OH212059   5.712   2.298   5.634
 4039TIP3    H112060   5.747   2.215   5.601
 4039TIP3    H212061   5.721   2.292   5.729
 4040TIP3   OH212062   2.090   5.659   1.465
 4040TIP3    H112063   2.012   5.621   1.423
 4040TIP3    H212064   2.074   5.648   1.558
 4041TIP3   OH212065   0.841   6.702   3.942
 4041TIP3    H112066   0.833   6.786   3.988
 4041TIP3    H212067   0.753   6.665   3.945
 4042TIP3   OH212068   1.872   5.033   2.062
 4042TIP3    H112069   1.899   4.945   2.089
 4042TIP3    H212070   1.854   5.079   2.145
 4043TIP3   OH212071   4.383   6.774   1.468
 4043TIP3    H112072   4.454   6.839   1.469
 4043TIP3    H212073   4.311   6.817   1.421
 4044TIP3   OH212074   4.016   3.084   1.262
 4044TIP3    H112075   3.941   3.046   1.308
 4044TIP3    H212076   4.092   3.060   1.316
 4045TIP3   OH212077   7.627   6.975   0.846
 4045TIP3    H112078   7.582   6.950   0.926
 4045TIP3    H212079   7.561   7.024   0.796
 4046TIP3   OH212080   3.627   1.342   2.642
 4046TIP3    H112081   3.556   1.358   2.703
 4046TIP3    H212082   3.699   1.397   2.674
 4047TIP3   OH212083   2.252   2.399   0.767
 4047TIP3    H112084   2.222   2.490   0.761
 4047TIP3    H212085   2.181   2.348   0.728
 4048TIP3   OH212086   4.933   1.263   3.661
 4048TIP3    H112087   4.944   1.357   3.642
 4048TIP3    H212088   4.846   1.241   3.628
 4049TIP3   OH212089   8.267   3.580   2.308
 4049TIP3    H112090   8.295   3.498   2.348
 4049TIP3    H212091   8.334   3.644   2.333
 4050TIP3   OH212092   4.581   0.417   6.582
 4050TIP3    H112093   4.567   0.322   6.578
 4050TIP3    H212094   4.497   0.452   6.613
 4051TIP3   OH212095   4.933   2.876   5.330
 4051TIP3    H112096   4.932   2.781   5.320
 4051TIP3    H212097   5.007   2.893   5.389
 4052TIP3   OH212098   0.675   3.783   0.240
 4052TIP3    H112099   0.696   3.754   0.151
 4052TIP3    H212100   0.753   3.831   0.269
 4053TIP3   OH212101   2.204   5.889   0.823
 4053TIP3    H112102   2.260   5.877   0.900
 4053TIP3    H212103   2.155   5.807   0.817
 4054TIP3   OH212104   2.793   1.549   5.042
 4054TIP3    H112105   2.821   1.610   5.111
 4054TIP3    H212106   2.871   1.500   5.020
 4055TIP3   OH212107   6.413   5.568   2.292
 4055TIP3    H112108   6.461   5.624   2.353
 4055TIP3    H212109   6.481   5.526   2.239
 4056TIP3   OH212110   4.972   7.199   0.387
 4056TIP3    H112111   4.968   7.204   0.482
 4056TIP3    H212112   4.989   7.107   0.368
 4057TIP3   OH212113   2.719   7.195   5.819
 4057TIP3    H112114   2.675   7.255   5.759
 4057TIP3    H212115   2.674   7.112   5.807
 4058TIP3   OH212116   6.961   2.240   1.460
 4058TIP3    H112117   6.947   2.145   1.464
 4058TIP3    H212118   6.900   2.271   1.393
 4059TIP3   OH212119   2.047   4.804   4.380
 4059TIP3    H112120   2.086   4.719   4.400
 4059TIP3    H212121   1.952   4.787   4.378
 4060TIP3   OH212122   6.708   1.733   1.442
 4060TIP3    H112123   6.798   1.762   1.451
 4060TIP3    H212124   6.695   1.671   1.514
 4061TIP3   OH212125   6.728   7.508   1.253
 4061TIP3    H112126   6.782   7.551   1.319
 4061TIP3    H212127   6.639   7.540   1.269
 4062TIP3   OH212128   1.420   5.090   3.446
 4062TIP3    H112129   1.349   5.082   3.382
 4062TIP3    H212130   1.468   5.168   3.418
 4063TIP3   OH212131   6.077   4.070   5.646
 4063TIP3    H112132   6.006   4.111   5.695
 4063TIP3    H212133   6.041   4.057   5.558
 4064TIP3   OH212134   6.326   0.844   0.958
 4064TIP3    H112135   6.326   0.853   0.862
 4064TIP3    H212136   6.237   0.821   0.980
 4065TIP3   OH212137   8.024   2.130   5.663
 4065TIP3    H112138   8.015   2.102   5.754
 4065TIP3    H212139   8.115   2.110   5.641
 4066TIP3   OH212140   6.861   3.923   5.325
 4066TIP3    H112141   6.817   3.843   5.355
 4066TIP3    H212142   6.901   3.898   5.242
 4067TIP3   OH212143   1.500   5.263   6.768
 4067TIP3    H112144   1.545   5.179   6.756
 4067TIP3    H212145   1.524   5.315   6.691
 4068TIP3   OH212146   4.294   7.347   5.719
 4068TIP3    H112147   4.347   7.282   5.765
 4068TIP3    H212148   4.225   7.371   5.781
 4069TIP3   OH212149   5.041   1.673   4.986
 4069TIP3    H112150   5.015   1.603   5.046
 4069TIP3    H212151   4.959   1.711   4.956
 4070TIP3   OH212152   0.495   4.640   4.228
 4070TIP3    H112153   0.442   4.672   4.301
 4070TIP3    H212154   0.431   4.613   4.162
 4071TIP3   OH212155   7.138   2.269   1.114
 4071TIP3    H112156   7.114   2.179   1.134
 4071TIP3    H212157   7.233   2.267   1.103
 4072TIP3   OH212158   1.094   1.263   3.410
 4072TIP3    H112159   1.026   1.257   3.343
 4072TIP3    H212160   1.115   1.356   3.416
 4073TIP3   OH212161   5.614   5.749   5.665
 4073TIP3    H112162   5.668   5.727   5.589
 4073TIP3    H212163   5.640   5.686   5.732
 4074TIP3   OH212164   2.554   6.695   5.310
 4074TIP3    H112165   2.485   6.760   5.329
 4074TIP3    H212166   2.629   6.723   5.362
 4075TIP3   OH212167   2.223   0.226   6.120
 4075TIP3    H112168   2.297   0.169   6.101
 4075TIP3    H212169   2.217   0.285   6.045
 4076TIP3   OH212170   2.487   7.409   4.290
 4076TIP3    H112171   2.399   7.382   4.313
 4076TIP3    H212172   2.531   7.426   4.373
 4077TIP3   OH212173   1.876   6.315   0.505
 4077TIP3    H112174   1.907   6.401   0.479
 4077TIP3    H212175   1.922   6.296   0.587
 4078TIP3   OH212176   2.336   0.821   1.148
 4078TIP3    H112177   2.390   0.842   1.071
 4078TIP3    H212178   2.311   0.906   1.184
 4079TIP3   OH212179   4.097   7.026   4.860
 4079TIP3    H112180   4.113   6.974   4.939
 4079TIP3    H212181   4.027   6.979   4.814
 4080TIP3   OH212182   3.978   2.338   4.096
 4080TIP3    H112183   3.974   2.430   4.070
 4080TIP3    H212184   3.996   2.290   4.015
 4081TIP3   OH212185   7.621   1.854   0.462
 4081TIP3    H112186   7.534   1.871   0.426
 4081TIP3    H212187   7.676   1.842   0.384
 4082TIP3   OH212188   2.100   2.888   5.849
 4082TIP3    H112189   2.039   2.909   5.919
 4082TIP3    H212190   2.142   2.807   5.878
 4083TIP3   OH212191   4.013   2.579   5.309
 4083TIP3    H112192   3.955   2.510   5.340
 4083TIP3    H212193   4.082   2.533   5.261
 4084TIP3   OH212194   3.160   4.905   5.333
 4084TIP3    H112195   3.084   4.958   5.309
 4084TIP3    H212196   3.193   4.944   5.414
 4085TIP3   OH212197   5.134   7.087   2.167
 4085TIP3    H112198   5.203   7.083   2.100
 4085TIP3    H212199   5.058   7.048   2.124
 4086TIP3   OH212200   3.886   3.394   3.077
 4086TIP3    H112201   3.883   3.463   3.144
 4086TIP3    H212202   3.799   3.353   3.082
 4087TIP3   OH212203   1.227   5.679   5.128
 4087TIP3    H112204   1.235   5.688   5.033
 4087TIP3    H212205   1.290   5.610   5.151
 4088TIP3   OH212206   8.190   0.870   3.796
 4088TIP3    H112207   8.136   0.810   3.745
 4088TIP3    H212208   8.278   0.860   3.760
 4089TIP3   OH212209   2.196   0.391   1.057
 4089TIP3    H112210   2.289   0.372   1.070
 4089TIP3    H212211   2.156   0.373   1.142
 4090TIP3   OH212212   0.657   5.310   1.222
 4090TIP3    H112213   0.701   5.250   1.161
 4090TIP3    H212214   0.664   5.396   1.181
 4091TIP3   OH212215   7.628   6.364   5.177
 4091TIP3    H112216   7.703   6.332   5.227
 4091TIP3    H212217   7.600   6.288   5.125
 4092TIP3   OH212218   1.383   6.782   3.711
 4092TIP3    H112219   1.406   6.711   3.650
 4092TIP3    H212220   1.289   6.771   3.725
 4093TIP3   OH212221   0.295   2.935   0.392
 4093TIP3    H112222   0.268   3.016   0.348
 4093TIP3    H212223   0.362   2.962   0.454
 4094TIP3   OH212224   1.567   1.525   2.010
 4094TIP3    H112225   1.543   1.531   1.917
 4094TIP3    H212226   1.488   1.550   2.057
 4095TIP3   OH212227   7.738   6.714   4.758
 4095TIP3    H112228   7.741   6.699   4.852
 4095TIP3    H212229   7.819   6.676   4.725
 4096TIP3   OH212230   4.510   0.787   2.002
 4096TIP3    H112231   4.465   0.705   2.021
 4096TIP3    H212232   4.574   0.796   2.073
 4097TIP3   OH212233   4.741   0.623   6.226
 4097TIP3    H112234   4.740   0.608   6.131
 4097TIP3    H212235   4.726   0.717   6.236
 4098TIP3   OH212236   2.363   2.815   6.437
 4098TIP3    H112237   2.298   2.853   6.377
 4098TIP3    H212238   2.447   2.848   6.405
 4099TIP3   OH212239   6.680   4.682   5.970
 4099TIP3    H112240   6.644   4.640   6.049
 4099TIP3    H212241   6.604   4.723   5.928
 4100TIP3   OH212242   6.394   6.014   1.205
 4100TIP3    H112243   6.406   6.105   1.229
 4100TIP3    H212244   6.452   5.965   1.263
 4101TIP3   OH212245   1.322   0.139   3.278
 4101TIP3    H112246   1.345   0.082   3.352
 4101TIP3    H212247   1.373   0.219   3.293
 4102TIP3   OH212248   6.721   1.041   4.672
 4102TIP3    H112249   6.739   1.049   4.766
 4102TIP3    H212250   6.699   1.129   4.643
 4103TIP3   OH212251   6.554   4.573   1.055
 4103TIP3    H112252   6.568   4.483   1.087
 4103TIP3    H212253   6.628   4.589   0.997
 4104TIP3   OH212254   7.896   7.069   3.708
 4104TIP3    H112255   7.818   7.014   3.716
 4104TIP3    H212256   7.863   7.157   3.691
 4105TIP3   OH212257   0.308   6.246   5.087
 4105TIP3    H112258   0.217   6.222   5.105
 4105TIP3    H212259   0.302   6.308   5.014
 4106TIP3   OH212260   6.298   6.658   5.087
 4106TIP3    H112261   6.215   6.700   5.111
 4106TIP3    H212262   6.307   6.586   5.149
 4107TIP3   OH212263   6.176   6.252   2.519
 4107TIP3    H112264   6.255   6.300   2.543
 4107TIP3    H212265   6.160   6.276   2.428
 4108TIP3   OH212266   5.064   2.798   0.174
 4108TIP3    H112267   4.982   2.843   0.154
 4108TIP3    H212268   5.084   2.747   0.096
 4109TIP3   OH212269   6.177   5.309   1.123
 4109TIP3    H112270   6.264   5.268   1.127
 4109TIP3    H212271   6.117   5.239   1.147
 4110TIP3   OH212272   0.084   6.883   1.731
 4110TIP3    H112273   0.011   6.920   1.682
 4110TIP3    H212274   0.151   6.866   1.665
 4111TIP3   OH212275   7.395   2.344   1.825
 4111TIP3    H112276   7.371   2.355   1.917
 4111TIP3    H212277   7.332   2.398   1.777
 4112TIP3   OH212278   1.252   0.585   6.539
 4112TIP3    H112279   1.213   0.553   6.620
 4112TIP3    H212280   1.204   0.540   6.469
 4113TIP3   OH212281   6.127   6.511   1.146
 4113TIP3    H112282   6.127   6.426   1.192
 4113TIP3    H212283   6.161   6.491   1.059
 4114TIP3   OH212284   1.509   1.368   1.309
 4114TIP3    H112285   1.506   1.462   1.293
 4114TIP3    H212286   1.600   1.350   1.331
 4115TIP3   OH212287   7.120   6.731   1.884
 4115TIP3    H112288   7.050   6.667   1.879
 4115TIP3    H212289   7.083   6.804   1.934
 4116TIP3   OH212290   6.840   4.308   5.629
 4116TIP3    H112291   6.789   4.342   5.555
 4116TIP3    H212292   6.803   4.351   5.706
 4117TIP3   OH212293   7.693   0.200   3.200
 4117TIP3    H112294   7.639   0.178   3.276
 4117TIP3    H212295   7.775   0.152   3.214
 4118TIP3   OH212296   6.658   3.992   5.993
 4118TIP3    H112297   6.574   3.951   5.972
 4118TIP3    H212298   6.691   3.942   6.068
 4119TIP3   OH212299   0.293   6.259   5.980
 4119TIP3    H112300   0.225   6.252   5.913
 4119TIP3    H212301   0.373   6.279   5.931
 4120TIP3   OH212302   3.168   0.723   1.563
 4120TIP3    H112303   3.185   0.663   1.636
 4120TIP3    H212304   3.111   0.790   1.599
 4121TIP3   OH212305   4.165   3.495   3.068
 4121TIP3    H112306   4.151   3.589   3.079
 4121TIP3    H212307   4.078   3.460   3.046
 4122TIP3   OH212308   6.056   5.002   2.370
 4122TIP3    H112309   5.992   4.995   2.441
 4122TIP3    H212310   6.038   5.087   2.329
 4123TIP3   OH212311   0.581   6.394   5.539
 4123TIP3    H112312   0.591   6.299   5.534
 4123TIP3    H212313   0.487   6.408   5.538
 4124TIP3   OH212314   5.491   0.022   1.271
 4124TIP3    H112315   5.418   0.034   1.331
 4124TIP3    H212316   5.529   0.109   1.260
 4125TIP3   OH212317   3.326   6.224   4.141
 4125TIP3    H112318   3.254   6.241   4.080
 4125TIP3    H212319   3.359   6.311   4.163
 4126TIP3   OH212320   7.584   2.604   6.040
 4126TIP3    H112321   7.577   2.600   6.135
 4126TIP3    H212322   7.579   2.513   6.011
 4127TIP3   OH212323   0.498   7.356   1.854
 4127TIP3    H112324   0.448   7.308   1.788
 4127TIP3    H212325   0.482   7.309   1.936
 4128TIP3   OH212326   6.193   0.835   1.580
 4128TIP3    H112327   6.262   0.779   1.615
 4128TIP3    H212328   6.239   0.906   1.536
 4129TIP3   OH212329   5.726   1.798   2.984
 4129TIP3    H112330   5.794   1.759   3.039
 4129TIP3    H212331   5.644   1.772   3.026
 4130TIP3   OH212332   7.109   5.703   4.984
 4130TIP3    H112333   7.035   5.679   5.039
 4130TIP3    H212334   7.174   5.738   5.045
 4131TIP3   OH212335   5.633   2.171   1.794
 4131TIP3    H112336   5.637   2.213   1.708
 4131TIP3    H212337   5.691   2.096   1.786
 4132TIP3   OH212338   4.646   7.485   0.397
 4132TIP3    H112339   4.551   7.475   0.391
 4132TIP3    H212340   4.680   7.403   0.363
 4133TIP3   OH212341   1.678   0.696   1.458
 4133TIP3    H112342   1.716   0.729   1.377
 4133TIP3    H212343   1.620   0.765   1.489
 4134TIP3   OH212344   4.583   7.777   0.983
 4134TIP3    H112345   4.515   7.837   1.013
 4134TIP3    H212346   4.536   7.698   0.957
 4135TIP3   OH212347   7.127   4.613   6.272
 4135TIP3    H112348   7.045   4.579   6.236
 4135TIP3    H212349   7.141   4.564   6.353
 4136TIP3   OH212350   6.311   6.978   5.413
 4136TIP3    H112351   6.361   7.001   5.334
 4136TIP3    H212352   6.373   6.991   5.485
 4137TIP3   OH212353   2.753   2.261   0.124
 4137TIP3    H112354   2.672   2.247   0.075
 4137TIP3    H212355   2.809   2.310   0.063
 4138TIP3   OH212356   8.067   7.467   3.955
 4138TIP3    H112357   8.102   7.416   4.028
 4138TIP3    H212358   8.099   7.556   3.971
 4139TIP3   OH212359   7.644   4.588   2.449
 4139TIP3    H112360   7.699   4.655   2.488
 4139TIP3    H212361   7.702   4.540   2.390
 4140TIP3   OH212362   6.399   3.300   2.429
 4140TIP3    H112363   6.372   3.211   2.406
 4140TIP3    H212364   6.493   3.301   2.410
 4141TIP3   OH212365   4.083   6.096   0.504
 4141TIP3    H112366   3.997   6.120   0.541
 4141TIP3    H212367   4.141   6.093   0.580
 4142TIP3   OH212368   6.661   6.835   0.747
 4142TIP3    H112369   6.727   6.892   0.708
 4142TIP3    H212370   6.661   6.757   0.693
 4143TIP3   OH212371   3.410   1.570   0.639
 4143TIP3    H112372   3.340   1.621   0.598
 4143TIP3    H212373   3.489   1.620   0.623
 4144TIP3   OH212374   2.375   4.306   6.591
 4144TIP3    H112375   2.288   4.302   6.550
 4144TIP3    H212376   2.410   4.217   6.581
 4145TIP3   OH212377   5.395   0.795   5.214
 4145TIP3    H112378   5.475   0.830   5.175
 4145TIP3    H212379   5.418   0.706   5.239
 4146TIP3   OH212380   7.786   6.282   0.818
 4146TIP3    H112381   7.692   6.291   0.802
 4146TIP3    H212382   7.824   6.362   0.781
 4147TIP3   OH212383   6.579   2.197   6.627
 4147TIP3    H112384   6.516   2.134   6.592
 4147TIP3    H212385   6.617   2.152   6.703
 4148TIP3   OH212386   0.542   6.322   5.196
 4148TIP3    H112387   0.455   6.310   5.158
 4148TIP3    H212388   0.526   6.356   5.284
 4149TIP3   OH212389   5.101   7.300   1.662
 4149TIP3    H112390   5.153   7.379   1.650
 4149TIP3    H212391   5.166   7.230   1.672
 4150TIP3   OH212392   0.936   7.417   0.563
 4150TIP3    H112393   1.031   7.403   0.553
 4150TIP3    H212394   0.925   7.511   0.551
 4151TIP3   OH212395   2.139   6.966   0.468
 4151TIP3    H112396   2.205   6.916   0.517
 4151TIP3    H212397   2.190   7.032   0.420
 4152TIP3   OH212398   8.092   5.004   5.271
 4152TIP3    H112399   8.112   5.074   5.333
 4152TIP3    H212400   8.130   5.034   5.188
 4153TIP3   OH212401   8.081   0.799   0.320
 4153TIP3    H112402   8.008   0.860   0.313
 4153TIP3    H212403   8.147   0.847   0.370
 4154TIP3   OH212404   0.973   4.355   3.899
 4154TIP3    H112405   0.895   4.398   3.935
 4154TIP3    H212406   0.985   4.278   3.955
 4155TIP3   OH212407   4.300   1.626   5.539
 4155TIP3    H112408   4.390   1.621   5.572
 4155TIP3    H212409   4.251   1.567   5.596
 4156TIP3   OH212410   2.231   5.560   6.627
 4156TIP3    H112411   2.287   5.495   6.669
 4156TIP3    H212412   2.255   5.556   6.534
 4157TIP3   OH212413   6.797   6.998   3.779
 4157TIP3    H112414   6.835   6.916   3.812
 4157TIP3    H212415   6.774   7.046   3.858
 4158TIP3   OH212416   4.209   0.847   3.208
 4158TIP3    H112417   4.227   0.895   3.127
 4158TIP3    H212418   4.133   0.793   3.188
 4159TIP3   OH212419   3.591   4.849   0.409
 4159TIP3    H112420   3.682   4.863   0.384
 4159TIP3    H212421   3.545   4.836   0.325
 4160TIP3   OH212422   7.597   1.215   1.007
 4160TIP3    H112423   7.556   1.281   0.951
 4160TIP3    H212424   7.658   1.169   0.949
 4161TIP3   OH212425   5.159   5.409   4.730
 4161TIP3    H112426   5.213   5.385   4.805
 4161TIP3    H212427   5.163   5.505   4.727
 4162TIP3   OH212428   3.949   0.497   4.347
 4162TIP3    H112429   3.885   0.560   4.381
 4162TIP3    H212430   3.975   0.446   4.423
 4163TIP3   OH212431   0.861   1.752   2.580
 4163TIP3    H112432   0.875   1.658   2.575
 4163TIP3    H212433   0.949   1.790   2.576
 4164TIP3   OH212434   1.375   3.120   4.081
 4164TIP3    H112435   1.297   3.139   4.133
 4164TIP3    H212436   1.352   3.148   3.992
 4165TIP3   OH212437   7.191   4.073   3.449
 4165TIP3    H112438   7.234   4.112   3.373
 4165TIP3    H212439   7.175   3.982   3.423
 4166TIP3   OH212440   0.064   2.980   6.094
 4166TIP3    H112441   0.072   2.937   6.179
 4166TIP3    H212442   0.000   2.928   6.045
 4167TIP3   OH212443   0.751   3.718   3.631
 4167TIP3    H112444   0.844   3.738   3.642
 4167TIP3    H212445   0.723   3.774   3.558
 4168TIP3   OH212446   0.386   2.693   6.695
 4168TIP3    H112447   0.328   2.747   6.749
 4168TIP3    H212448   0.329   2.624   6.661
 4169TIP3   OH212449   3.315   6.093   6.409
 4169TIP3    H112450   3.396   6.134   6.437
 4169TIP3    H212451   3.250   6.120   6.474
 4170TIP3   OH212452   7.094   3.866   1.023
 4170TIP3    H112453   7.114   3.954   0.991
 4170TIP3    H212454   6.998   3.865   1.031
 4171TIP3   OH212455   0.635   6.485   1.336
 4171TIP3    H112456   0.546   6.496   1.302
 4171TIP3    H212457   0.627   6.417   1.403
 4172TIP3   OH212458   1.631   4.552   2.813
 4172TIP3    H112459   1.627   4.539   2.908
 4172TIP3    H212460   1.574   4.627   2.797
 4173TIP3   OH212461   6.379   7.255   5.562
 4173TIP3    H112462   6.358   7.279   5.653
 4173TIP3    H212463   6.414   7.167   5.568
 4174TIP3   OH212464   4.059   3.087   4.197
 4174TIP3    H112465   3.991   3.025   4.223
 4174TIP3    H212466   4.031   3.170   4.236
 4175TIP3   OH212467   2.174   0.800   2.071
 4175TIP3    H112468   2.087   0.838   2.083
 4175TIP3    H212469   2.201   0.828   1.984
 4176TIP3   OH212470   1.301   6.665   1.396
 4176TIP3    H112471   1.241   6.717   1.342
 4176TIP3    H212472   1.246   6.626   1.463
 4177TIP3   OH212473   1.373   4.659   4.521
 4177TIP3    H112474   1.407   4.626   4.605
 4177TIP3    H212475   1.307   4.724   4.546
 4178TIP3   OH212476   3.182   3.566   2.449
 4178TIP3    H112477   3.167   3.496   2.386
 4178TIP3    H212478   3.275   3.559   2.471
 4179TIP3   OH212479   3.062   3.721   1.418
 4179TIP3    H112480   2.987   3.745   1.363
 4179TIP3    H212481   3.097   3.642   1.376
 4180TIP3   OH212482   7.440   6.258   0.029
 4180TIP3    H112483   7.412   6.249  -0.062
 4180TIP3    H212484   7.461   6.350   0.039
 4181TIP3   OH212485   3.988   0.359   3.274
 4181TIP3    H112486   4.050   0.432   3.271
 4181TIP3    H212487   4.005   0.317   3.358
 4182TIP3   OH212488   5.827   1.028   2.652
 4182TIP3    H112489   5.891   0.969   2.612
 4182TIP3    H212490   5.863   1.048   2.738
 4183TIP3   OH212491   7.270   4.890   4.659
 4183TIP3    H112492   7.331   4.955   4.624
 4183TIP3    H212493   7.327   4.818   4.688
 4184TIP3   OH212494   0.658   3.862   1.243
 4184TIP3    H112495   0.733   3.831   1.294
 4184TIP3    H212496   0.685   3.949   1.212
 4185TIP3   OH212497   3.211   2.951   6.719
 4185TIP3    H112498   3.143   2.907   6.769
 4185TIP3    H212499   3.229   3.031   6.768
 4186TIP3   OH212500   1.623   6.319   4.228
 4186TIP3    H112501   1.572   6.397   4.247
 4186TIP3    H212502   1.633   6.320   4.132
 4187TIP3   OH212503   4.594   4.122   2.164
 4187TIP3    H112504   4.615   4.212   2.187
 4187TIP3    H212505   4.676   4.074   2.171
 4188TIP3   OH212506   7.375   5.474   6.358
 4188TIP3    H112507   7.406   5.393   6.318
 4188TIP3    H212508   7.440   5.540   6.333
 4189TIP3   OH212509   3.084   3.908   3.590
 4189TIP3    H112510   3.076   3.816   3.567
 4189TIP3    H212511   3.167   3.936   3.551
 4190TIP3   OH212512   4.279   6.517   2.881
 4190TIP3    H112513   4.336   6.446   2.911
 4190TIP3    H212514   4.213   6.526   2.951
 4191TIP3   OH212515   5.515   2.826   2.597
 4191TIP3    H112516   5.511   2.741   2.641
 4191TIP3    H212517   5.605   2.832   2.566
 4192TIP3   OH212518   4.002   1.937   2.156
 4192TIP3    H112519   3.919   1.891   2.170
 4192TIP3    H212520   4.006   1.949   2.061
 4193TIP3   OH212521   5.412   7.492   6.675
 4193TIP3    H112522   5.378   7.561   6.732
 4193TIP3    H212523   5.392   7.521   6.587
 4194TIP3   OH212524   2.904   3.443   4.673
 4194TIP3    H112525   2.956   3.516   4.704
 4194TIP3    H212526   2.968   3.375   4.652
 4195TIP3   OH212527   3.825   1.843   2.997
 4195TIP3    H112528   3.817   1.938   3.010
 4195TIP3    H212529   3.822   1.806   3.085
 4196TIP3   OH212530   2.130   5.486   3.512
 4196TIP3    H112531   2.157   5.395   3.496
 4196TIP3    H212532   2.052   5.478   3.566
 4197TIP3   OH212533   4.755   6.840   1.306
 4197TIP3    H112534   4.672   6.852   1.260
 4197TIP3    H212535   4.822   6.847   1.238
 4198TIP3   OH212536   1.385   1.494   3.483
 4198TIP3    H112537   1.447   1.567   3.479
 4198TIP3    H212538   1.440   1.416   3.471
 4199TIP3   OH212539   1.231   3.486   4.793
 4199TIP3    H112540   1.154   3.501   4.738
 4199TIP3    H212541   1.275   3.570   4.796
 4200TIP3   OH212542   2.864   2.146   6.337
 4200TIP3    H112543   2.882   2.184   6.423
 4200TIP3    H212544   2.779   2.103   6.347
 4201TIP3   OH212545   6.693   1.414   3.866
 4201TIP3    H112546   6.725   1.437   3.779
 4201TIP3    H212547   6.701   1.495   3.917
 4202TIP3   OH212548   1.283   7.053   5.968
 4202TIP3    H112549   1.195   7.079   5.996
 4202TIP3    H212550   1.278   6.957   5.962
 4203TIP3   OH212551   2.827   5.669   2.207
 4203TIP3    H112552   2.865   5.707   2.287
 4203TIP3    H212553   2.868   5.717   2.135
 4204TIP3   OH212554   6.430   0.273   4.626
 4204TIP3    H112555   6.492   0.204   4.651
 4204TIP3    H212556   6.370   0.231   4.565
 4205TIP3   OH212557   2.060   1.327   6.611
 4205TIP3    H112558   2.085   1.334   6.703
 4205TIP3    H212559   2.142   1.325   6.563
 4206TIP3   OH212560   6.137   4.004   4.789
 4206TIP3    H112561   6.231   3.991   4.805
 4206TIP3    H212562   6.121   3.963   4.704
 4207TIP3   OH212563   7.302   4.967   1.528
 4207TIP3    H112564   7.279   4.898   1.590
 4207TIP3    H212565   7.277   4.931   1.443
 4208TIP3   OH212566   7.013   7.071   2.575
 4208TIP3    H112567   6.986   6.981   2.594
 4208TIP3    H212568   6.941   7.107   2.523
 4209TIP3   OH212569   5.476   4.821   2.316
 4209TIP3    H112570   5.569   4.821   2.293
 4209TIP3    H212571   5.431   4.831   2.232
 4210TIP3   OH212572   0.250   6.540   1.829
 4210TIP3    H112573   0.254   6.591   1.748
 4210TIP3    H212574   0.197   6.463   1.806
 4211TIP3   OH212575   0.458   2.895   4.972
 4211TIP3    H112576   0.534   2.896   4.914
 4211TIP3    H212577   0.391   2.849   4.922
 4212TIP3   OH212578   4.383   1.088   2.010
 4212TIP3    H112579   4.398   1.098   2.104
 4212TIP3    H212580   4.455   1.033   1.980
 4213TIP3   OH212581   5.585   4.157   0.752
 4213TIP3    H112582   5.526   4.222   0.714
 4213TIP3    H212583   5.669   4.202   0.759
 4214TIP3   OH212584   3.625   3.176   5.289
 4214TIP3    H112585   3.575   3.122   5.227
 4214TIP3    H212586   3.647   3.116   5.361
 4215TIP3   OH212587   4.774   6.367   3.758
 4215TIP3    H112588   4.867   6.364   3.781
 4215TIP3    H212589   4.732   6.307   3.820
 4216TIP3   OH212590   2.185   4.203   1.279
 4216TIP3    H112591   2.228   4.282   1.310
 4216TIP3    H212592   2.229   4.181   1.197
 4217TIP3   OH212593   1.830   5.366   0.890
 4217TIP3    H112594   1.811   5.449   0.846
 4217TIP3    H212595   1.744   5.331   0.913
 4218TIP3   OH212596   4.478   6.168   2.107
 4218TIP3    H112597   4.469   6.078   2.076
 4218TIP3    H212598   4.566   6.195   2.078
 4219TIP3   OH212599   3.079   4.204   5.761
 4219TIP3    H112600   3.071   4.113   5.731
 4219TIP3    H212601   3.165   4.231   5.729
 4220TIP3   OH212602   6.698   2.338   1.600
 4220TIP3    H112603   6.729   2.402   1.664
 4220TIP3    H212604   6.773   2.279   1.587
 4221TIP3   OH212605   5.659   5.948   2.386
 4221TIP3    H112606   5.702   5.901   2.458
 4221TIP3    H212607   5.684   5.899   2.308
 4222TIP3   OH212608   4.053   4.386   0.695
 4222TIP3    H112609   4.053   4.470   0.649
 4222TIP3    H212610   4.071   4.408   0.787
 4223TIP3   OH212611   7.168   1.890   3.057
 4223TIP3    H112612   7.219   1.820   3.098
 4223TIP3    H212613   7.147   1.950   3.129
 4224TIP3   OH212614   6.900   0.979   0.090
 4224TIP3    H112615   6.923   0.938   0.008
 4224TIP3    H212616   6.899   0.908   0.154
 4225TIP3   OH212617   1.572   3.111   1.444
 4225TIP3    H112618   1.510   3.139   1.376
 4225TIP3    H212619   1.566   3.177   1.512
 4226TIP3   OH212620   0.437   7.047   5.200
 4226TIP3    H112621   0.433   7.133   5.241
 4226TIP3    H212622   0.377   6.993   5.252
 4227TIP3   OH212623   5.763   2.476   4.382
 4227TIP3    H112624   5.829   2.434   4.437
 4227TIP3    H212625   5.796   2.565   4.369
 4228TIP3   OH212626   4.831   7.151   1.150
 4228TIP3    H112627   4.837   7.149   1.245
 4228TIP3    H212628   4.737   7.160   1.132
 4229TIP3   OH212629   2.088   4.368   2.354
 4229TIP3    H112630   2.028   4.303   2.389
 4229TIP3    H212631   2.050   4.452   2.380
 4230TIP3   OH212632   6.229   0.780   5.005
 4230TIP3    H112633   6.147   0.748   4.967
 4230TIP3    H212634   6.207   0.866   5.040
 4231TIP3   OH212635   6.714   2.390   3.099
 4231TIP3    H112636   6.788   2.410   3.042
 4231TIP3    H212637   6.735   2.432   3.182
 4232TIP3   OH212638   2.638   0.619   3.316
 4232TIP3    H112639   2.638   0.624   3.221
 4232TIP3    H212640   2.662   0.528   3.335
 4233TIP3   OH212641   5.600   1.580   2.693
 4233TIP3    H112642   5.680   1.576   2.746
 4233TIP3    H212643   5.623   1.536   2.611
 4234TIP3   OH212644   1.244   2.700   6.452
 4234TIP3    H112645   1.331   2.691   6.413
 4234TIP3    H212646   1.195   2.626   6.417
 4235TIP3   OH212647   1.957   3.491   5.363
 4235TIP3    H112648   1.943   3.585   5.375
 4235TIP3    H212649   1.929   3.474   5.273
 4236TIP3   OH212650   5.635   2.963   4.013
 4236TIP3    H112651   5.707   2.984   4.072
 4236TIP3    H212652   5.577   2.907   4.064
 4237TIP3   OH212653   5.741   2.949   5.840
 4237TIP3    H112654   5.716   3.038   5.816
 4237TIP3    H212655   5.674   2.894   5.800
 4238TIP3   OH212656   2.924   5.905   6.499
 4238TIP3    H112657   2.966   5.819   6.505
 4238TIP3    H212658   2.891   5.909   6.409
 4239TIP3   OH212659   2.665   1.939   6.328
 4239TIP3    H112660   2.612   2.002   6.280
 4239TIP3    H212661   2.602   1.880   6.369
 4240TIP3   OH212662   1.523   0.293   6.586
 4240TIP3    H112663   1.557   0.361   6.527
 4240TIP3    H212664   1.528   0.212   6.535
 4241TIP3   OH212665   7.291   6.131   3.697
 4241TIP3    H112666   7.319   6.218   3.668
 4241TIP3    H212667   7.347   6.071   3.648
 4242TIP3   OH212668   5.674   4.013   1.422
 4242TIP3    H112669   5.646   3.976   1.506
 4242TIP3    H212670   5.720   4.094   1.446
 4243TIP3   OH212671   0.778   7.400   1.816
 4243TIP3    H112672   0.683   7.396   1.828
 4243TIP3    H212673   0.808   7.310   1.828
 4244TIP3   OH212674   5.950   5.615   0.578
 4244TIP3    H112675   5.996   5.695   0.602
 4244TIP3    H212676   6.020   5.555   0.550
 4245TIP3   OH212677   4.879   0.290   1.825
 4245TIP3    H112678   4.974   0.298   1.828
 4245TIP3    H212679   4.857   0.235   1.900
 4246TIP3   OH212680   2.073   0.438   2.179
 4246TIP3    H112681   1.991   0.411   2.137
 4246TIP3    H212682   2.049   0.515   2.231
 4247TIP3   OH212683   3.881   6.211   2.003
 4247TIP3    H112684   3.876   6.184   2.095
 4247TIP3    H212685   3.800   6.179   1.963
 4248TIP3   OH212686   5.451   4.000   5.921
 4248TIP3    H112687   5.529   4.020   5.973
 4248TIP3    H212688   5.455   4.061   5.847
 4249TIP3   OH212689   7.619   0.039   0.379
 4249TIP3    H112690   7.679  -0.001   0.443
 4249TIP3    H212691   7.568   0.101   0.431
 4250TIP3   OH212692   1.048   3.739   2.829
 4250TIP3    H112693   1.073   3.647   2.840
 4250TIP3    H212694   1.131   3.786   2.825
 4251TIP3   OH212695   5.105   7.746   1.301
 4251TIP3    H112696   5.036   7.699   1.347
 4251TIP3    H212697   5.158   7.677   1.260
 4252TIP3   OH212698   0.461   7.153   4.911
 4252TIP3    H112699   0.426   7.242   4.910
 4252TIP3    H212700   0.465   7.130   5.004
 4253TIP3   OH212701   5.039   3.271   2.154
 4253TIP3    H112702   5.116   3.280   2.210
 4253TIP3    H212703   5.008   3.360   2.142
 4254TIP3   OH212704   4.618   5.306   5.078
 4254TIP3    H112705   4.640   5.298   4.985
 4254TIP3    H212706   4.550   5.373   5.081
 4255TIP3   OH212707   2.506   7.757   1.472
 4255TIP3    H112708   2.477   7.668   1.455
 4255TIP3    H212709   2.558   7.751   1.553
 4256TIP3   OH212710   0.944   3.276   0.782
 4256TIP3    H112711   0.992   3.323   0.714
 4256TIP3    H212712   0.870   3.333   0.803
 4257TIP3   OH212713   2.695   0.891   2.936
 4257TIP3    H112714   2.640   0.958   2.977
 4257TIP3    H212715   2.778   0.936   2.919
 4258TIP3   OH212716   7.832   6.396   3.796
 4258TIP3    H112717   7.792   6.437   3.873
 4258TIP3    H212718   7.824   6.461   3.727
 4259TIP3   OH212719   2.780   5.427   4.036
 4259TIP3    H112720   2.743   5.502   4.084
 4259TIP3    H212721   2.807   5.366   4.105
 4260TIP3   OH212722   8.168   0.325   1.755
 4260TIP3    H112723   8.160   0.262   1.684
 4260TIP3    H212724   8.134   0.407   1.719
 4261TIP3   OH212725   1.090   2.667   2.678
 4261TIP3    H112726   1.093   2.690   2.771
 4261TIP3    H212727   1.175   2.694   2.644
 4262TIP3   OH212728   1.556   3.044   1.899
 4262TIP3    H112729   1.515   3.017   1.982
 4262TIP3    H212730   1.580   2.961   1.856
 4263TIP3   OH212731   5.023   3.734   6.209
 4263TIP3    H112732   4.935   3.704   6.186
 4263TIP3    H212733   5.023   3.827   6.187
 4264TIP3   OH212734   8.194   6.146   3.940
 4264TIP3    H112735   8.229   6.189   3.862
 4264TIP3    H212736   8.101   6.134   3.920
 4265TIP3   OH212737   6.886   4.205   2.852
 4265TIP3    H112738   6.968   4.245   2.880
 4265TIP3    H212739   6.891   4.202   2.757
 4266TIP3   OH212740   8.316   6.410   6.585
 4266TIP3    H112741   8.392   6.395   6.529
 4266TIP3    H212742   8.296   6.324   6.623
 4267TIP3   OH212743   4.915   6.932   4.074
 4267TIP3    H112744   4.914   7.014   4.123
 4267TIP3    H212745   4.947   6.956   3.988
 4268TIP3   OH212746   3.771   0.071   0.951
 4268TIP3    H112747   3.793   0.032   1.035
 4268TIP3    H212748   3.838   0.138   0.938
 4269TIP3   OH212749   6.304   7.189   4.249
 4269TIP3    H112750   6.342   7.144   4.325
 4269TIP3    H212751   6.376   7.198   4.188
 4270TIP3   OH212752   5.649   5.377   0.645
 4270TIP3    H112753   5.670   5.402   0.555
 4270TIP3    H212754   5.554   5.364   0.644
 4271TIP3   OH212755   7.982   6.890   5.175
 4271TIP3    H112756   7.986   6.825   5.246
 4271TIP3    H212757   7.893   6.883   5.141
 4272TIP3   OH212758   1.233   0.557   5.542
 4272TIP3    H112759   1.308   0.607   5.508
 4272TIP3    H212760   1.184   0.620   5.594
 4273TIP3   OH212761   8.345   6.316   1.966
 4273TIP3    H112762   8.330   6.411   1.969
 4273TIP3    H212763   8.261   6.280   1.938
 4274TIP3   OH212764   4.712   3.887   6.686
 4274TIP3    H112765   4.726   3.869   6.593
 4274TIP3    H212766   4.678   3.977   6.689
 4275TIP3   OH212767   0.855   4.705   2.642
 4275TIP3    H112768   0.838   4.798   2.658
 4275TIP3    H212769   0.940   4.703   2.598
 4276TIP3   OH212770   4.480   4.323   0.047
 4276TIP3    H112771   4.545   4.384   0.011
 4276TIP3    H212772   4.397   4.353   0.011
 4277TIP3   OH212773   4.164   2.707   6.096
 4277TIP3    H112774   4.115   2.627   6.078
 4277TIP3    H212775   4.256   2.682   6.084
 4278TIP3   OH212776   0.263   7.509   1.584
 4278TIP3    H112777   0.220   7.454   1.650
 4278TIP3    H212778   0.287   7.588   1.632
 4279TIP3   OH212779   3.322   7.450   5.760
 4279TIP3    H112780   3.417   7.448   5.755
 4279TIP3    H212781   3.303   7.506   5.836
 4280TIP3   OH212782   1.594   5.328   3.625
 4280TIP3    H112783   1.573   5.297   3.537
 4280TIP3    H212784   1.686   5.352   3.621
 4281TIP3   OH212785   5.575   3.474   4.067
 4281TIP3    H112786   5.487   3.509   4.053
 4281TIP3    H212787   5.569   3.382   4.040
 4282TIP3   OH212788   5.400   7.642   1.444
 4282TIP3    H112789   5.473   7.671   1.499
 4282TIP3    H212790   5.340   7.717   1.442
 4283TIP3   OH212791   6.414   5.755   2.747
 4283TIP3    H112792   6.337   5.812   2.760
 4283TIP3    H212793   6.452   5.785   2.665
 4284TIP3   OH212794   0.898   7.209   2.397
 4284TIP3    H112795   0.849   7.226   2.317
 4284TIP3    H212796   0.990   7.210   2.369
 4285TIP3   OH212797   1.216   3.015   6.299
 4285TIP3    H112798   1.221   2.936   6.245
 4285TIP3    H212799   1.214   2.982   6.389
 4286TIP3   OH212800   7.660   6.951   4.433
 4286TIP3    H112801   7.640   7.023   4.373
 4286TIP3    H212802   7.575   6.914   4.455
 4287TIP3   OH212803   0.223   7.644   6.441
 4287TIP3    H112804   0.318   7.633   6.435
 4287TIP3    H212805   0.187   7.557   6.424
 4288TIP3   OH212806   8.338   3.088   3.256
 4288TIP3    H112807   8.335   3.110   3.163
 4288TIP3    H212808   8.253   3.047   3.274
 4289TIP3   OH212809   1.884   3.943   1.303
 4289TIP3    H112810   1.819   3.931   1.373
 4289TIP3    H212811   1.958   3.888   1.329
 4290TIP3   OH212812   1.370   3.986   0.477
 4290TIP3    H112813   1.301   4.022   0.532
 4290TIP3    H212814   1.443   4.047   0.486
 4291TIP3   OH212815   6.426   4.668   0.186
 4291TIP3    H112816   6.515   4.671   0.151
 4291TIP3    H212817   6.370   4.680   0.110
 4292TIP3   OH212818   4.754   5.946   1.792
 4292TIP3    H112819   4.662   5.932   1.772
 4292TIP3    H212820   4.801   5.910   1.716
 4293TIP3   OH212821   0.527   2.332   5.037
 4293TIP3    H112822   0.544   2.425   5.052
 4293TIP3    H212823   0.436   2.328   5.008
 4294TIP3   OH212824   6.184   3.544   0.494
 4294TIP3    H112825   6.182   3.566   0.587
 4294TIP3    H212826   6.272   3.568   0.465
 4295TIP3   OH212827   4.980   6.749   2.344
 4295TIP3    H112828   4.899   6.728   2.391
 4295TIP3    H212829   5.003   6.837   2.374
 4296TIP3   OH212830   3.565   4.399   0.763
 4296TIP3    H112831   3.648   4.446   0.749
 4296TIP3    H212832   3.573   4.321   0.708
 4297TIP3   OH212833   4.456   6.581   5.650
 4297TIP3    H112834   4.521   6.610   5.714
 4297TIP3    H212835   4.447   6.487   5.666
 4298TIP3   OH212836   3.161   3.956   6.642
 4298TIP3    H112837   3.191   3.895   6.710
 4298TIP3    H212838   3.193   4.042   6.671
 4299TIP3   OH212839   5.381   7.064   2.491
 4299TIP3    H112840   5.372   7.130   2.560
 4299TIP3    H212841   5.448   7.004   2.524
 4300TIP3   OH212842   8.141   7.104   6.374
 4300TIP3    H112843   8.136   7.111   6.469
 4300TIP3    H212844   8.050   7.115   6.345
 4301TIP3   OH212845   0.762   3.784   2.374
 4301TIP3    H112846   0.739   3.832   2.454
 4301TIP3    H212847   0.858   3.783   2.373
 4302TIP3   OH212848   4.339   6.103   0.023
 4302TIP3    H112849   4.305   6.019  -0.009
 4302TIP3    H212850   4.294   6.117   0.106
 4303TIP3   OH212851   2.079   1.497   2.379
 4303TIP3    H112852   2.092   1.538   2.464
 4303TIP3    H212853   2.092   1.403   2.395
 4304TIP3   OH212854   3.733   3.526   6.184
 4304TIP3    H112855   3.693   3.440   6.169
 4304TIP3    H212856   3.792   3.538   6.109
 4305TIP3   OH212857   7.195   0.294   1.357
 4305TIP3    H112858   7.280   0.252   1.342
 4305TIP3    H212859   7.146   0.230   1.409
 4306TIP3   OH212860   4.868   6.569   2.962
 4306TIP3    H112861   4.830   6.496   2.912
 4306TIP3    H212862   4.909   6.528   3.038
 4307TIP3   OH212863   2.704   6.202   1.992
 4307TIP3    H112864   2.719   6.156   1.909
 4307TIP3    H212865   2.678   6.133   2.053
 4308TIP3   OH212866   2.852   1.225   0.659
 4308TIP3    H112867   2.939   1.187   0.651
 4308TIP3    H212868   2.855   1.276   0.740
 4309TIP3   OH212869   3.239   2.594   4.884
 4309TIP3    H112870   3.262   2.632   4.969
 4309TIP3    H212871   3.306   2.629   4.824
 4310TIP3   OH212872   3.551   3.694   1.706
 4310TIP3    H112873   3.532   3.751   1.781
 4310TIP3    H212874   3.544   3.751   1.630
 4311TIP3   OH212875   5.008   6.970   1.554
 4311TIP3    H112876   5.055   6.903   1.605
 4311TIP3    H212877   5.075   7.007   1.496
 4312TIP3   OH212878   1.008   1.650   2.093
 4312TIP3    H112879   0.950   1.595   2.145
 4312TIP3    H212880   0.976   1.640   2.003
 4313TIP3   OH212881   6.974   1.987   2.503
 4313TIP3    H112882   6.907   2.053   2.486
 4313TIP3    H212883   6.936   1.931   2.571
 4314TIP3   OH212884   7.351   4.025   4.157
 4314TIP3    H112885   7.374   4.014   4.064
 4314TIP3    H212886   7.419   4.082   4.192
 4315TIP3   OH212887   4.852   7.244   3.046
 4315TIP3    H112888   4.906   7.209   2.976
 4315TIP3    H212889   4.762   7.237   3.013
 4316TIP3   OH212890   1.433   0.582   3.871
 4316TIP3    H112891   1.429   0.626   3.786
 4316TIP3    H212892   1.501   0.629   3.920
 4317TIP3   OH212893   6.039   6.803   5.157
 4317TIP3    H112894   5.953   6.776   5.125
 4317TIP3    H212895   6.047   6.763   5.243
 4318TIP3   OH212896   7.779   0.843   2.053
 4318TIP3    H112897   7.703   0.831   2.109
 4318TIP3    H212898   7.742   0.865   1.967
 4319TIP3   OH212899   4.401   4.998   2.200
 4319TIP3    H112900   4.360   5.021   2.116
 4319TIP3    H212901   4.355   5.052   2.265
 4320TIP3   OH212902   3.880   7.643   6.279
 4320TIP3    H112903   3.942   7.664   6.348
 4320TIP3    H212904   3.921   7.672   6.198
 4321TIP3   OH212905   8.266   2.373   4.773
 4321TIP3    H112906   8.177   2.381   4.738
 4321TIP3    H212907   8.304   2.460   4.762
 4322TIP3   OH212908   0.774   1.513   6.677
 4322TIP3    H112909   0.866   1.539   6.671
 4322TIP3    H212910   0.767   1.467   6.760
 4323TIP3   OH212911   5.911   1.713   3.149
 4323TIP3    H112912   5.986   1.660   3.123
 4323TIP3    H212913   5.867   1.661   3.216
 4324TIP3   OH212914   2.083   1.664   1.171
 4324TIP3    H112915   2.018   1.612   1.124
 4324TIP3    H212916   2.044   1.678   1.258
 4325TIP3   OH212917   0.151   3.766   3.178
 4325TIP3    H112918   0.245   3.754   3.186
 4325TIP3    H212919   0.128   3.722   3.097
 4326TIP3   OH212920   1.260   5.109   6.550
 4326TIP3    H112921   1.272   5.202   6.529
 4326TIP3    H212922   1.348   5.076   6.567
 4327TIP3   OH212923   0.813   2.818   2.925
 4327TIP3    H112924   0.780   2.821   3.015
 4327TIP3    H212925   0.908   2.812   2.935
 4328TIP3   OH212926   3.859   7.029   0.075
 4328TIP3    H112927   3.848   7.091   0.146
 4328TIP3    H212928   3.953   7.018   0.066
 4329TIP3   OH212929   4.918   4.354   1.049
 4329TIP3    H112930   4.886   4.329   0.962
 4329TIP3    H212931   4.860   4.308   1.110
 4330TIP3   OH212932   3.599   5.957   3.747
 4330TIP3    H112933   3.561   5.972   3.834
 4330TIP3    H212934   3.527   5.921   3.695
 4331TIP3   OH212935   7.287   7.623   0.071
 4331TIP3    H112936   7.254   7.693   0.127
 4331TIP3    H212937   7.347   7.667   0.011
 4332TIP3   OH212938   5.656   0.800   5.470
 4332TIP3    H112939   5.612   0.744   5.406
 4332TIP3    H212940   5.604   0.881   5.471
 4333TIP3   OH212941   0.665   2.811   1.646
 4333TIP3    H112942   0.677   2.729   1.694
 4333TIP3    H212943   0.687   2.789   1.556
 4334TIP3   OH212944   1.304   5.498   4.468
 4334TIP3    H112945   1.341   5.586   4.470
 4334TIP3    H212946   1.376   5.441   4.442
 4335TIP3   OH212947   3.702   0.663   6.537
 4335TIP3    H112948   3.679   0.735   6.596
 4335TIP3    H212949   3.758   0.606   6.589
 4336TIP3   OH212950   2.282   3.778   0.289
 4336TIP3    H112951   2.233   3.858   0.310
 4336TIP3    H212952   2.353   3.776   0.353
 4337TIP3   OH212953   0.608   3.073   6.192
 4337TIP3    H112954   0.570   3.050   6.107
 4337TIP3    H212955   0.701   3.049   6.183
 4338TIP3   OH212956   6.458   0.144   3.692
 4338TIP3    H112957   6.523   0.165   3.760
 4338TIP3    H212958   6.498   0.174   3.610
 4339TIP3   OH212959   7.093   1.566   1.958
 4339TIP3    H112960   7.071   1.656   1.983
 4339TIP3    H212961   7.019   1.514   1.989
 4340TIP3   OH212962   0.845   1.101   0.624
 4340TIP3    H112963   0.887   1.075   0.706
 4340TIP3    H212964   0.768   1.150   0.650
 4341TIP3   OH212965   0.349   6.692   2.027
 4341TIP3    H112966   0.383   6.632   2.094
 4341TIP3    H212967   0.328   6.635   1.953
 4342TIP3   OH212968   1.107   5.614   1.948
 4342TIP3    H112969   1.168   5.564   1.894
 4342TIP3    H212970   1.163   5.668   2.004
 4343TIP3   OH212971   2.536   5.216   3.968
 4343TIP3    H112972   2.453   5.195   3.925
 4343TIP3    H212973   2.548   5.146   4.032
 4344TIP3   OH212974   3.311   0.995   0.835
 4344TIP3    H112975   3.230   0.968   0.878
 4344TIP3    H212976   3.370   0.921   0.847
 4345TIP3   OH212977   5.861   4.315   1.229
 4345TIP3    H112978   5.779   4.266   1.233
 4345TIP3    H212979   5.834   4.405   1.210
 4346TIP3   OH212980   4.295   3.492   6.680
 4346TIP3    H112981   4.296   3.585   6.701
 4346TIP3    H212982   4.346   3.485   6.599
 4347TIP3   OH212983   1.792   0.272   3.999
 4347TIP3    H112984   1.865   0.213   3.980
 4347TIP3    H212985   1.714   0.217   3.986
 4348TIP3   OH212986   2.973   7.336   0.256
 4348TIP3    H112987   2.913   7.331   0.182
 4348TIP3    H212988   2.922   7.376   0.326
 4349TIP3   OH212989   1.383   1.912   0.382
 4349TIP3    H112990   1.308   1.971   0.374
 4349TIP3    H212991   1.394   1.875   0.294
 4350TIP3   OH212992   1.915   7.776   2.309
 4350TIP3    H112993   1.819   7.776   2.302
 4350TIP3    H212994   1.941   7.860   2.271
 4351TIP3   OH212995   5.709   1.837   1.210
 4351TIP3    H112996   5.636   1.820   1.270
 4351TIP3    H212997   5.699   1.930   1.187
 4352TIP3   OH212998   3.571   7.495   3.228
 4352TIP3    H112999   3.646   7.472   3.283
 4352TIP3    H213000   3.512   7.421   3.237
 4353TIP3   OH213001   5.137   5.050   0.436
 4353TIP3    H113002   5.116   5.106   0.362
 4353TIP3    H213003   5.073   5.073   0.503
 4354TIP3   OH213004   6.196   7.530   5.055
 4354TIP3    H113005   6.277   7.517   5.105
 4354TIP3    H213006   6.190   7.625   5.045
 4355TIP3   OH213007   3.156   2.972   1.473
 4355TIP3    H113008   3.130   2.985   1.382
 4355TIP3    H213009   3.239   3.020   1.482
 4356TIP3   OH213010   7.704   3.207   2.715
 4356TIP3    H113011   7.691   3.201   2.621
 4356TIP3    H213012   7.662   3.129   2.750
 4357TIP3   OH213013   4.233   0.454   1.770
 4357TIP3    H113014   4.275   0.477   1.687
 4357TIP3    H213015   4.186   0.373   1.751
 4358TIP3   OH213016   3.141   2.054   1.717
 4358TIP3    H113017   3.141   2.113   1.792
 4358TIP3    H213018   3.053   2.062   1.680
 4359TIP3   OH213019   0.891   5.541   1.272
 4359TIP3    H113020   0.852   5.620   1.233
 4359TIP3    H213021   0.826   5.510   1.335
 4360TIP3   OH213022   5.887   4.068   4.433
 4360TIP3    H113023   5.893   4.037   4.343
 4360TIP3    H213024   5.862   4.160   4.426
 4361TIP3   OH213025   7.821   2.865   2.595
 4361TIP3    H113026   7.901   2.904   2.559
 4361TIP3    H213027   7.751   2.926   2.570
 4362TIP3   OH213028   6.036   5.730   6.117
 4362TIP3    H113029   6.006   5.820   6.131
 4362TIP3    H213030   5.962   5.687   6.074
 4363TIP3   OH213031   0.865   6.674   4.407
 4363TIP3    H113032   0.957   6.684   4.431
 4363TIP3    H213033   0.820   6.655   4.489
 4364TIP3   OH213034   1.017   4.559   0.505
 4364TIP3    H113035   1.109   4.539   0.525
 4364TIP3    H213036   1.009   4.543   0.411
 4365TIP3   OH213037   1.154   5.333   0.179
 4365TIP3    H113038   1.145   5.275   0.254
 4365TIP3    H213039   1.071   5.323   0.131
 4366TIP3   OH213040   2.765   3.969   0.672
 4366TIP3    H113041   2.796   4.039   0.615
 4366TIP3    H213042   2.843   3.937   0.716
 4367TIP3   OH213043   6.789   2.001   6.434
 4367TIP3    H113044   6.719   2.051   6.393
 4367TIP3    H213045   6.743   1.936   6.488
 4368TIP3   OH213046   4.809   5.794   1.177
 4368TIP3    H113047   4.870   5.852   1.131
 4368TIP3    H213048   4.742   5.853   1.211
 4369TIP3   OH213049   7.260   6.232   5.989
 4369TIP3    H113050   7.334   6.171   5.989
 4369TIP3    H213051   7.299   6.318   6.002
 4370TIP3   OH213052   6.180   1.878   4.462
 4370TIP3    H113053   6.181   1.832   4.378
 4370TIP3    H213054   6.121   1.952   4.447
 4371TIP3   OH213055   5.064   3.342   3.954
 4371TIP3    H113056   5.070   3.302   4.041
 4371TIP3    H213057   4.996   3.292   3.909
 4372TIP3   OH213058   3.978   1.684   3.841
 4372TIP3    H113059   3.934   1.629   3.906
 4372TIP3    H213060   3.910   1.744   3.811
 4373TIP3   OH213061   0.509   2.655   1.964
 4373TIP3    H113062   0.570   2.626   1.897
 4373TIP3    H213063   0.498   2.578   2.021
 4374TIP3   OH213064   3.782   4.666   6.210
 4374TIP3    H113065   3.698   4.637   6.246
 4374TIP3    H213066   3.786   4.626   6.123
 4375TIP3   OH213067   5.867   4.215   0.922
 4375TIP3    H113068   5.954   4.242   0.950
 4375TIP3    H213069   5.816   4.208   1.003
 4376TIP3   OH213070   4.859   7.227   4.530
 4376TIP3    H113071   4.949   7.198   4.513
 4376TIP3    H213072   4.811   7.146   4.549
 4377TIP3   OH213073   4.220   1.560   5.288
 4377TIP3    H113074   4.185   1.636   5.240
 4377TIP3    H213075   4.224   1.590   5.379
 4378TIP3   OH213076   6.615   2.836   5.252
 4378TIP3    H113077   6.707   2.852   5.273
 4378TIP3    H213078   6.584   2.920   5.219
 4379TIP3   OH213079   3.980   7.392   4.236
 4379TIP3    H113080   3.885   7.401   4.236
 4379TIP3    H213081   3.998   7.320   4.296
 4380TIP3   OH213082   7.552   6.275   2.647
 4380TIP3    H113083   7.562   6.330   2.725
 4380TIP3    H213084   7.459   6.282   2.625
 4381TIP3   OH213085   4.195   1.684   1.952
 4381TIP3    H113086   4.251   1.735   2.010
 4381TIP3    H213087   4.207   1.724   1.865
 4382TIP3   OH213088   6.776   1.143   4.924
 4382TIP3    H113089   6.748   1.140   5.015
 4382TIP3    H213090   6.865   1.178   4.928
 4383TIP3   OH213091   6.604   1.987   2.706
 4383TIP3    H113092   6.522   2.022   2.742
 4383TIP3    H213093   6.664   2.061   2.709
 4384TIP3   OH213094   3.734   3.431   0.792
 4384TIP3    H113095   3.673   3.358   0.780
 4384TIP3    H213096   3.819   3.395   0.770
 4385TIP3   OH213097   5.602   5.620   4.038
 4385TIP3    H113098   5.622   5.578   4.122
 4385TIP3    H213099   5.610   5.549   3.973
 4386TIP3   OH213100   5.387   4.720   2.561
 4386TIP3    H113101   5.430   4.732   2.476
 4386TIP3    H213102   5.403   4.802   2.607
 4387TIP3   OH213103   4.012   6.139   5.895
 4387TIP3    H113104   3.956   6.089   5.954
 4387TIP3    H213105   3.999   6.098   5.810
 4388TIP3   OH213106   4.296   6.720   3.158
 4388TIP3    H113107   4.362   6.684   3.216
 4388TIP3    H213108   4.238   6.646   3.138
 4389TIP3   OH213109   1.514   2.987   2.507
 4389TIP3    H113110   1.532   2.895   2.527
 4389TIP3    H213111   1.432   2.984   2.456
 4390TIP3   OH213112   0.375   4.395   1.740
 4390TIP3    H113113   0.280   4.392   1.749
 4390TIP3    H213114   0.394   4.336   1.667
 4391TIP3   OH213115   1.502   3.638   6.493
 4391TIP3    H113116   1.487   3.576   6.564
 4391TIP3    H213117   1.450   3.715   6.517
 4392TIP3   OH213118   3.040   7.070   0.567
 4392TIP3    H113119   3.093   7.128   0.622
 4392TIP3    H213120   3.099   7.044   0.496
 4393TIP3   OH213121   7.202   7.658   1.766
 4393TIP3    H113122   7.229   7.748   1.781
 4393TIP3    H213123   7.118   7.650   1.812
 4394TIP3   OH213124   1.936   6.534   4.818
 4394TIP3    H113125   1.994   6.577   4.755
 4394TIP3    H213126   1.970   6.445   4.824
 4395TIP3   OH213127   6.872   5.538   2.679
 4395TIP3    H113128   6.801   5.595   2.651
 4395TIP3    H213129   6.888   5.563   2.770
 4396TIP3   OH213130   4.932   1.866   3.314
 4396TIP3    H113131   4.959   1.882   3.405
 4396TIP3    H213132   4.841   1.895   3.311
 4397TIP3   OH213133   2.970   6.234   0.062
 4397TIP3    H113134   2.953   6.322   0.094
 4397TIP3    H213135   2.917   6.177   0.118
 4398TIP3   OH213136   7.374   4.209   0.177
 4398TIP3    H113137   7.337   4.140   0.233
 4398TIP3    H213138   7.350   4.183   0.088
 4399TIP3   OH213139   2.640   5.688   5.453
 4399TIP3    H113140   2.622   5.781   5.437
 4399TIP3    H213141   2.621   5.645   5.369
 4400TIP3   OH213142   2.974   1.889   4.170
 4400TIP3    H113143   3.066   1.875   4.148
 4400TIP3    H213144   2.970   1.879   4.265
 4401TIP3   OH213145   6.500   0.671   4.207
 4401TIP3    H113146   6.426   0.730   4.195
 4401TIP3    H213147   6.571   0.710   4.157
 4402TIP3   OH213148   2.857   4.854   3.723
 4402TIP3    H113149   2.952   4.840   3.726
 4402TIP3    H213150   2.819   4.768   3.743
 4403TIP3   OH213151   6.733   1.044   3.985
 4403TIP3    H113152   6.655   1.096   4.005
 4403TIP3    H213153   6.801   1.108   3.967
 4404TIP3   OH213154   8.158   4.730   1.309
 4404TIP3    H113155   8.231   4.747   1.249
 4404TIP3    H213156   8.092   4.796   1.286
 4405TIP3   OH213157   1.610   1.643   3.517
 4405TIP3    H113158   1.660   1.562   3.510
 4405TIP3    H213159   1.644   1.698   3.447
 4406TIP3   OH213160   3.872   3.706   0.210
 4406TIP3    H113161   3.962   3.674   0.219
 4406TIP3    H213162   3.822   3.628   0.187
 4407TIP3   OH213163   7.039   5.201   3.968
 4407TIP3    H113164   7.071   5.291   3.960
 4407TIP3    H213165   6.944   5.209   3.974
 4408TIP3   OH213166   3.832   3.913   1.757
 4408TIP3    H113167   3.882   3.994   1.764
 4408TIP3    H213168   3.740   3.941   1.756
 4409TIP3   OH213169   4.779   2.440   2.025
 4409TIP3    H113170   4.843   2.449   1.955
 4409TIP3    H213171   4.700   2.480   1.991
 4410TIP3   OH213172   1.949   4.532   5.263
 4410TIP3    H113173   2.015   4.474   5.301
 4410TIP3    H213174   1.871   4.476   5.253
 4411TIP3   OH213175   5.282   0.929   5.424
 4411TIP3    H113176   5.352   0.916   5.361
 4411TIP3    H213177   5.290   0.855   5.485
 4412TIP3   OH213178   8.045   7.481   3.310
 4412TIP3    H113179   8.005   7.422   3.374
 4412TIP3    H213180   7.971   7.523   3.267
 4413TIP3   OH213181   3.650   6.839   2.823
 4413TIP3    H113182   3.637   6.889   2.904
 4413TIP3    H213183   3.610   6.893   2.755
 4414TIP3   OH213184   2.766   7.303   0.059
 4414TIP3    H113185   2.781   7.210   0.039
 4414TIP3    H213186   2.675   7.318   0.035
 4415TIP3   OH213187   2.629   4.608   4.708
 4415TIP3    H113188   2.670   4.604   4.795
 4415TIP3    H213189   2.678   4.676   4.662
 4416TIP3   OH213190   5.273   1.106   1.872
 4416TIP3    H113191   5.197   1.088   1.816
 4416TIP3    H213192   5.283   1.202   1.867
 4417TIP3   OH213193   2.356   5.674   1.357
 4417TIP3    H113194   2.272   5.692   1.400
 4417TIP3    H213195   2.407   5.627   1.422
 4418TIP3   OH213196   2.015   6.269   2.125
 4418TIP3    H113197   1.977   6.327   2.191
 4418TIP3    H213198   1.964   6.287   2.046
 4419TIP3   OH213199   7.464   7.635   3.932
 4419TIP3    H113200   7.481   7.546   3.902
 4419TIP3    H213201   7.379   7.658   3.894
 4420TIP3   OH213202   0.318   6.151   5.493
 4420TIP3    H113203   0.394   6.111   5.450
 4420TIP3    H213204   0.281   6.081   5.547
 4421TIP3   OH213205   0.807   0.204   4.355
 4421TIP3    H113206   0.735   0.172   4.410
 4421TIP3    H213207   0.788   0.297   4.343
 4422TIP3   OH213208   1.757   2.516   1.736
 4422TIP3    H113209   1.700   2.470   1.797
 4422TIP3    H213210   1.704   2.589   1.704
 4423TIP3   OH213211   0.340   3.901   1.771
 4423TIP3    H113212   0.272   3.847   1.731
 4423TIP3    H213213   0.298   3.984   1.789
 4424TIP3   OH213214   1.712   3.921   5.265
 4424TIP3    H113215   1.667   3.999   5.233
 4424TIP3    H213216   1.785   3.909   5.203
 4425TIP3   OH213217   3.860   2.718   2.373
 4425TIP3    H113218   3.956   2.722   2.363
 4425TIP3    H213219   3.840   2.625   2.375
 4426TIP3   OH213220   2.655   0.776   6.296
 4426TIP3    H113221   2.692   0.688   6.309
 4426TIP3    H213222   2.668   0.820   6.380
 4427TIP3   OH213223   3.097   6.481   5.325
 4427TIP3    H113224   3.044   6.418   5.373
 4427TIP3    H213225   3.038   6.513   5.256
 4428TIP3   OH213226   7.038   6.003   4.847
 4428TIP3    H113227   6.969   6.028   4.909
 4428TIP3    H213228   7.078   5.925   4.886
 4429TIP3   OH213229   2.985   6.362   1.498
 4429TIP3    H113230   2.935   6.410   1.565
 4429TIP3    H213231   2.920   6.305   1.457
 4430TIP3   OH213232   1.738   7.015   2.220
 4430TIP3    H113233   1.700   6.946   2.166
 4430TIP3    H213234   1.682   7.018   2.298
 4431TIP3   OH213235   1.380   1.652   4.524
 4431TIP3    H113236   1.367   1.558   4.534
 4431TIP3    H213237   1.409   1.682   4.610
 4432TIP3   OH213238   4.708   7.687   5.428
 4432TIP3    H113239   4.669   7.663   5.512
 4432TIP3    H213240   4.793   7.645   5.428
 4433TIP3   OH213241   0.091   0.500   1.622
 4433TIP3    H113242   0.159   0.449   1.579
 4433TIP3    H213243   0.109   0.489   1.716
 4434TIP3   OH213244   4.888   3.110   4.029
 4434TIP3    H113245   4.914   3.102   3.938
 4434TIP3    H213246   4.925   3.034   4.072
 4435TIP3   OH213247   2.252   2.032   1.179
 4435TIP3    H113248   2.226   2.113   1.135
 4435TIP3    H213249   2.241   1.964   1.112
 4436TIP3   OH213250   6.295   7.386   6.676
 4436TIP3    H113251   6.229   7.432   6.624
 4436TIP3    H213252   6.284   7.420   6.765
 4437TIP3   OH213253   3.689   5.213   0.986
 4437TIP3    H113254   3.646   5.241   1.067
 4437TIP3    H213255   3.746   5.142   1.013
 4438TIP3   OH213256   2.743   3.241   1.349
 4438TIP3    H113257   2.757   3.148   1.364
 4438TIP3    H213258   2.706   3.273   1.431
 4439TIP3   OH213259   5.360   2.523   5.837
 4439TIP3    H113260   5.288   2.558   5.785
 4439TIP3    H213261   5.392   2.449   5.785
 4440TIP3   OH213262   2.321   6.542   6.523
 4440TIP3    H113263   2.245   6.488   6.501
 4440TIP3    H213264   2.307   6.567   6.615
 4441TIP3   OH213265   3.819   5.747   0.833
 4441TIP3    H113266   3.775   5.670   0.870
 4441TIP3    H213267   3.886   5.768   0.898
 4442TIP3   OH213268   4.556   5.903   2.437
 4442TIP3    H113269   4.580   5.835   2.500
 4442TIP3    H213270   4.546   5.856   2.354
 4443TIP3   OH213271   1.209   5.677   4.859
 4443TIP3    H113272   1.249   5.591   4.846
 4443TIP3    H213273   1.151   5.688   4.783
 4444TIP3   OH213274   0.972   0.935   4.876
 4444TIP3    H113275   1.004   0.927   4.786
 4444TIP3    H213276   0.878   0.918   4.869
 4445TIP3   OH213277   0.547   4.363   3.161
 4445TIP3    H113278   0.554   4.275   3.200
 4445TIP3    H213279   0.613   4.364   3.092
 4446TIP3   OH213280   3.538   2.007   3.890
 4446TIP3    H113281   3.607   2.051   3.939
 4446TIP3    H213282   3.582   1.977   3.810
 4447TIP3   OH213283   1.148   0.028   6.772
 4447TIP3    H113284   1.091  -0.043   6.802
 4447TIP3    H213285   1.212  -0.014   6.715
 4448TIP3   OH213286   3.900   3.859   6.671
 4448TIP3    H113287   3.863   3.775   6.641
 4448TIP3    H213288   3.868   3.923   6.607
 4449TIP3   OH213289   7.109   0.576   6.685
 4449TIP3    H113290   7.175   0.549   6.749
 4449TIP3    H213291   7.159   0.597   6.607
 4450TIP3   OH213292   7.420   1.662   6.331
 4450TIP3    H113293   7.379   1.581   6.362
 4450TIP3    H213294   7.410   1.723   6.404
 4451TIP3   OH213295   2.629   7.470   1.592
 4451TIP3    H113296   2.604   7.549   1.640
 4451TIP3    H213297   2.650   7.406   1.660
 4452TIP3   OH213298   4.507   6.012   5.118
 4452TIP3    H113299   4.413   6.025   5.104
 4452TIP3    H213300   4.523   5.921   5.093
 4453TIP3   OH213301   0.742   1.736   4.295
 4453TIP3    H113302   0.648   1.743   4.277
 4453TIP3    H213303   0.784   1.761   4.213
 4454TIP3   OH213304   1.475   6.378   1.069
 4454TIP3    H113305   1.527   6.372   0.989
 4454TIP3    H213306   1.527   6.433   1.127
 4455TIP3   OH213307   3.993   6.189   6.735
 4455TIP3    H113308   4.009   6.097   6.758
 4455TIP3    H213309   3.936   6.221   6.805
 4456TIP3   OH213310   7.618   1.279   5.427
 4456TIP3    H113311   7.584   1.245   5.510
 4456TIP3    H213312   7.699   1.324   5.452
 4457TIP3   OH213313   4.222   6.411   5.400
 4457TIP3    H113314   4.195   6.478   5.464
 4457TIP3    H213315   4.318   6.421   5.395
 4458TIP3   OH213316   7.574   6.126   4.094
 4458TIP3    H113317   7.598   6.058   4.031
 4458TIP3    H213318   7.652   6.135   4.149
 4459TIP3   OH213319   0.148   1.571   5.094
 4459TIP3    H113320   0.238   1.586   5.124
 4459TIP3    H213321   0.094   1.589   5.171
 4460TIP3   OH213322   0.165   7.481   1.250
 4460TIP3    H113323   0.184   7.548   1.185
 4460TIP3    H213324   0.217   7.506   1.326
 4461TIP3   OH213325   6.484   2.935   4.185
 4461TIP3    H113326   6.465   2.843   4.167
 4461TIP3    H213327   6.483   2.977   4.099
 4462TIP3   OH213328   6.775   2.440   0.713
 4462TIP3    H113329   6.701   2.495   0.742
 4462TIP3    H213330   6.819   2.415   0.794
 4463TIP3   OH213331   6.117   2.585   6.276
 4463TIP3    H113332   6.117   2.621   6.365
 4463TIP3    H213333   6.061   2.507   6.281
 4464TIP3   OH213334   1.086   2.565   0.408
 4464TIP3    H113335   1.105   2.610   0.326
 4464TIP3    H213336   1.135   2.614   0.474
 4465TIP3   OH213337   2.962   5.527   1.255
 4465TIP3    H113338   2.942   5.435   1.238
 4465TIP3    H213339   3.055   5.536   1.232
 4466TIP3   OH213340   7.423   0.544   3.745
 4466TIP3    H113341   7.512   0.576   3.758
 4466TIP3    H213342   7.429   0.449   3.758
 4467TIP3   OH213343   2.228   0.873   6.224
 4467TIP3    H113344   2.143   0.899   6.188
 4467TIP3    H213345   2.269   0.823   6.153
 4468TIP3   OH213346   5.984   0.296   5.565
 4468TIP3    H113347   5.939   0.216   5.593
 4468TIP3    H213348   6.022   0.332   5.645
 4469TIP3   OH213349   3.730   3.046   3.487
 4469TIP3    H113350   3.761   3.035   3.577
 4469TIP3    H213351   3.799   3.006   3.433
 4470TIP3   OH213352   0.377   1.397   0.583
 4470TIP3    H113353   0.289   1.433   0.580
 4470TIP3    H213354   0.390   1.371   0.674
 4471TIP3   OH213355   2.279   5.728   0.573
 4471TIP3    H113356   2.195   5.765   0.547
 4471TIP3    H213357   2.293   5.758   0.663
 4472TIP3   OH213358   4.221   2.570   0.369
 4472TIP3    H113359   4.290   2.516   0.329
 4472TIP3    H213360   4.262   2.605   0.448
 4473TIP3   OH213361   1.781   7.121   1.412
 4473TIP3    H113362   1.859   7.144   1.464
 4473TIP3    H213363   1.710   7.117   1.476
 4474TIP3   OH213364   6.043   4.470   0.639
 4474TIP3    H113365   5.963   4.510   0.607
 4474TIP3    H213366   6.091   4.444   0.561
 4475TIP3   OH213367   2.616   2.763   4.957
 4475TIP3    H113368   2.702   2.754   4.917
 4475TIP3    H213369   2.634   2.781   5.049
 4476TIP3   OH213370   0.482   5.410   4.943
 4476TIP3    H113371   0.450   5.494   4.909
 4476TIP3    H213372   0.489   5.424   5.037
 4477TIP3   OH213373   1.442   6.090   3.948
 4477TIP3    H113374   1.512   6.155   3.944
 4477TIP3    H213375   1.473   6.024   4.010
 4478TIP3   OH213376   7.973   7.138   1.441
 4478TIP3    H113377   7.927   7.062   1.405
 4478TIP3    H213378   8.064   7.126   1.413
 4479TIP3   OH213379   4.861   6.334   0.273
 4479TIP3    H113380   4.820   6.419   0.291
 4479TIP3    H213381   4.788   6.273   0.268
 4480TIP3   OH213382   2.975   1.043   2.164
 4480TIP3    H113383   2.982   1.005   2.252
 4480TIP3    H213384   2.885   1.022   2.137
 4481TIP3   OH213385   0.176   2.424   2.580
 4481TIP3    H113386   0.127   2.384   2.652
 4481TIP3    H213387   0.124   2.407   2.502
 4482TIP3   OH213388   0.891   5.124   2.202
 4482TIP3    H113389   0.897   5.031   2.224
 4482TIP3    H213390   0.797   5.141   2.195
 4483TIP3   OH213391   6.872   3.489   2.206
 4483TIP3    H113392   6.858   3.471   2.299
 4483TIP3    H213393   6.965   3.473   2.191
 4484TIP3   OH213394   3.208   3.331   2.298
 4484TIP3    H113395   3.189   3.296   2.211
 4484TIP3    H213396   3.166   3.270   2.358
 4485TIP3   OH213397   1.679   2.599   1.111
 4485TIP3    H113398   1.704   2.606   1.203
 4485TIP3    H213399   1.597   2.549   1.112
 4486TIP3   OH213400   5.052   0.113   4.718
 4486TIP3    H113401   5.002   0.093   4.797
 4486TIP3    H213402   5.139   0.137   4.750
 4487TIP3   OH213403   4.623   2.926   3.894
 4487TIP3    H113404   4.555   2.973   3.941
 4487TIP3    H213405   4.616   2.836   3.926
 4488TIP3   OH213406   3.863   4.402   1.657
 4488TIP3    H113407   3.828   4.446   1.734
 4488TIP3    H213408   3.840   4.460   1.584
 4489TIP3   OH213409   2.997   7.106   5.034
 4489TIP3    H113410   2.946   7.070   4.962
 4489TIP3    H213411   3.084   7.068   5.023
 4490TIP3   OH213412   0.042   4.019   3.256
 4490TIP3    H113413   0.108   4.075   3.214
 4490TIP3    H213414   0.076   3.930   3.245
 4491TIP3   OH213415   3.803   2.399   6.158
 4491TIP3    H113416   3.759   2.478   6.126
 4491TIP3    H213417   3.809   2.411   6.253
 4492TIP3   OH213418   6.602   7.302   5.045
 4492TIP3    H113419   6.662   7.367   5.081
 4492TIP3    H213420   6.659   7.238   5.002
 4493TIP3   OH213421   0.689   0.142   0.368
 4493TIP3    H113422   0.616   0.088   0.399
 4493TIP3    H213423   0.696   0.212   0.432
 4494TIP3   OH213424   2.014   6.879   3.062
 4494TIP3    H113425   2.001   6.895   3.155
 4494TIP3    H213426   1.941   6.822   3.037
 4495TIP3   OH213427   5.294   0.494   2.350
 4495TIP3    H113428   5.360   0.436   2.389
 4495TIP3    H213429   5.281   0.563   2.416
 4496TIP3   OH213430   1.848   2.096   5.184
 4496TIP3    H113431   1.824   2.188   5.169
 4496TIP3    H213432   1.793   2.069   5.258
 4497TIP3   OH213433   7.245   0.523   0.841
 4497TIP3    H113434   7.252   0.600   0.784
 4497TIP3    H213435   7.188   0.551   0.912
 4498TIP3   OH213436   1.804   7.460   1.909
 4498TIP3    H113437   1.852   7.492   1.985
 4498TIP3    H213438   1.858   7.484   1.834
 4499TIP3   OH213439   6.203   6.997   2.597
 4499TIP3    H113440   6.180   6.954   2.679
 4499TIP3    H213441   6.186   7.090   2.612
 4500TIP3   OH213442   5.685   6.473   5.803
 4500TIP3    H113443   5.756   6.476   5.866
 4500TIP3    H213444   5.631   6.399   5.831
 4501TIP3   OH213445   5.044   2.618   1.487
 4501TIP3    H113446   5.025   2.528   1.511
 4501TIP3    H213447   5.000   2.631   1.403
 4502TIP3   OH213448   5.494   1.878   6.087
 4502TIP3    H113449   5.492   1.930   6.167
 4502TIP3    H213450   5.442   1.928   6.024
 4503TIP3   OH213451   8.287   7.035   2.633
 4503TIP3    H113452   8.233   7.082   2.696
 4503TIP3    H213453   8.226   7.004   2.567
 4504TIP3   OH213454   1.967   5.616   5.522
 4504TIP3    H113455   2.007   5.541   5.566
 4504TIP3    H213456   2.041   5.666   5.489
 4505TIP3   OH213457   1.959   1.935   4.975
 4505TIP3    H113458   1.929   1.963   5.061
 4505TIP3    H213459   2.034   1.991   4.955
 4506TIP3   OH213460   1.651   1.497   4.400
 4506TIP3    H113461   1.597   1.508   4.322
 4506TIP3    H213462   1.649   1.583   4.443
 4507TIP3   OH213463   3.277   6.418   3.586
 4507TIP3    H113464   3.272   6.370   3.668
 4507TIP3    H213465   3.224   6.367   3.525
 4508TIP3   OH213466   5.242   7.510   2.254
 4508TIP3    H113467   5.246   7.490   2.160
 4508TIP3    H213468   5.239   7.425   2.296
 4509TIP3   OH213469   5.168   5.798   2.922
 4509TIP3    H113470   5.199   5.878   2.965
 4509TIP3    H213471   5.078   5.816   2.899
 4510TIP3   OH213472   7.884   1.525   1.513
 4510TIP3    H113473   7.822   1.475   1.566
 4510TIP3    H213474   7.864   1.617   1.533
 4511TIP3   OH213475   8.148   5.545   0.686
 4511TIP3    H113476   8.100   5.575   0.763
 4511TIP3    H213477   8.171   5.625   0.639
 4512TIP3   OH213478   0.411   6.888   2.292
 4512TIP3    H113479   0.456   6.885   2.208
 4512TIP3    H213480   0.319   6.873   2.270
 4513TIP3   OH213481   4.571   6.593   1.159
 4513TIP3    H113482   4.589   6.679   1.122
 4513TIP3    H213483   4.560   6.536   1.083
 4514TIP3   OH213484   8.273   0.285   1.149
 4514TIP3    H113485   8.225   0.364   1.175
 4514TIP3    H213486   8.205   0.228   1.114
 4515TIP3   OH213487   1.959   2.028   1.374
 4515TIP3    H113488   1.941   2.044   1.281
 4515TIP3    H213489   2.031   1.966   1.375
 4516TIP3   OH213490   5.901   6.096   1.677
 4516TIP3    H113491   5.892   6.030   1.608
 4516TIP3    H213492   5.811   6.118   1.702
 4517TIP3   OH213493   2.558   2.061   3.408
 4517TIP3    H113494   2.561   2.109   3.491
 4517TIP3    H213495   2.650   2.048   3.385
 4518TIP3   OH213496   1.501   2.241   5.244
 4518TIP3    H113497   1.577   2.198   5.204
 4518TIP3    H213498   1.463   2.294   5.173
 4519TIP3   OH213499   6.449   7.814   6.213
 4519TIP3    H113500   6.423   7.814   6.121
 4519TIP3    H213501   6.367   7.804   6.262
 4520TIP3   OH213502   4.247   3.773   5.879
 4520TIP3    H113503   4.274   3.770   5.971
 4520TIP3    H213504   4.178   3.706   5.873
 4521TIP3   OH213505   1.060   3.663   6.733
 4521TIP3    H113506   1.008   3.603   6.787
 4521TIP3    H213507   1.019   3.657   6.646
 4522TIP3   OH213508   4.335   1.889   5.755
 4522TIP3    H113509   4.311   1.823   5.820
 4522TIP3    H213510   4.409   1.851   5.708
 4523TIP3   OH213511   6.694   0.403   0.851
 4523TIP3    H113512   6.718   0.495   0.864
 4523TIP3    H213513   6.652   0.378   0.933
 4524TIP3   OH213514   2.791   1.877   3.768
 4524TIP3    H113515   2.824   1.834   3.689
 4524TIP3    H213516   2.835   1.832   3.840
 4525TIP3   OH213517   7.125   5.590   5.714
 4525TIP3    H113518   7.207   5.554   5.749
 4525TIP3    H213519   7.153   5.651   5.645
 4526TIP3   OH213520   1.567   5.568   1.659
 4526TIP3    H113521   1.626   5.610   1.721
 4526TIP3    H213522   1.623   5.535   1.589
 4527TIP3   OH213523   5.783   4.883   0.698
 4527TIP3    H113524   5.811   4.949   0.634
 4527TIP3    H213525   5.784   4.929   0.782
 4528TIP3   OH213526   4.033   7.474   2.339
 4528TIP3    H113527   4.031   7.565   2.370
 4528TIP3    H213528   4.054   7.480   2.246
 4529TIP3   OH213529   3.730   3.291   5.590
 4529TIP3    H113530   3.677   3.212   5.605
 4529TIP3    H213531   3.794   3.264   5.524
 4530TIP3   OH213532   5.035   2.559   5.156
 4530TIP3    H113533   5.098   2.628   5.178
 4530TIP3    H213534   4.977   2.555   5.232
 4531TIP3   OH213535   1.514   3.781   3.601
 4531TIP3    H113536   1.500   3.738   3.516
 4531TIP3    H213537   1.548   3.868   3.579
 4532TIP3   OH213538   1.637   1.485   6.043
 4532TIP3    H113539   1.647   1.482   6.138
 4532TIP3    H213540   1.543   1.483   6.029
 4533TIP3   OH213541   5.613   6.379   6.728
 4533TIP3    H113542   5.611   6.442   6.800
 4533TIP3    H213543   5.645   6.428   6.653
 4534TIP3   OH213544   1.239   0.520   1.806
 4534TIP3    H113545   1.269   0.603   1.844
 4534TIP3    H213546   1.256   0.530   1.712
 4535TIP3   OH213547   1.089   1.284   5.714
 4535TIP3    H113548   0.996   1.266   5.728
 4535TIP3    H213549   1.091   1.345   5.640
 4536TIP3   OH213550   2.576   2.177   0.549
 4536TIP3    H113551   2.504   2.179   0.612
 4536TIP3    H213552   2.617   2.091   0.561
 4537TIP3   OH213553   7.586   0.737   0.987
 4537TIP3    H113554   7.501   0.724   1.028
 4537TIP3    H213555   7.582   0.827   0.953
 4538TIP3   OH213556   6.327   3.079   0.630
 4538TIP3    H113557   6.281   3.129   0.563
 4538TIP3    H213558   6.282   2.995   0.633
 4539TIP3   OH213559   2.323   2.090   5.325
 4539TIP3    H113560   2.250   2.136   5.283
 4539TIP3    H213561   2.334   2.134   5.409
 4540TIP3   OH213562   1.404   4.454   6.501
 4540TIP3    H113563   1.476   4.469   6.440
 4540TIP3    H213564   1.442   4.398   6.569
 4541TIP3   OH213565   4.787   3.865   0.319
 4541TIP3    H113566   4.793   3.770   0.305
 4541TIP3    H213567   4.846   3.903   0.254
 4542TIP3   OH213568   1.162   0.459   0.730
 4542TIP3    H113569   1.123   0.406   0.660
 4542TIP3    H213570   1.088   0.479   0.787
 4543TIP3   OH213571   3.711   5.156   3.923
 4543TIP3    H113572   3.722   5.250   3.909
 4543TIP3    H213573   3.773   5.115   3.863
 4544TIP3   OH213574   7.515   2.441   3.893
 4544TIP3    H113575   7.448   2.501   3.860
 4544TIP3    H213576   7.517   2.457   3.987
 4545TIP3   OH213577   0.111   3.185   5.869
 4545TIP3    H113578   0.107   3.132   5.948
 4545TIP3    H213579   0.019   3.206   5.849
 4546TIP3   OH213580   2.933   0.759   5.778
 4546TIP3    H113581   2.906   0.846   5.749
 4546TIP3    H213582   3.006   0.774   5.837
 4547TIP3   OH213583   1.074   7.063   2.679
 4547TIP3    H113584   1.040   7.023   2.599
 4547TIP3    H213585   1.101   6.988   2.733
 4548TIP3   OH213586   3.198   7.664   5.158
 4548TIP3    H113587   3.166   7.673   5.068
 4548TIP3    H213588   3.281   7.711   5.159
 4549TIP3   OH213589   1.174   1.817   0.707
 4549TIP3    H113590   1.193   1.748   0.644
 4549TIP3    H213591   1.078   1.821   0.710
 4550TIP3   OH213592   8.066   3.315   5.464
 4550TIP3    H113593   8.039   3.258   5.536
 4550TIP3    H213594   8.161   3.318   5.469
 4551TIP3   OH213595   3.080   6.591   0.970
 4551TIP3    H113596   3.039   6.636   1.044
 4551TIP3    H213597   3.132   6.658   0.926
 4552TIP3   OH213598   4.788   2.917   4.842
 4552TIP3    H113599   4.829   2.878   4.919
 4552TIP3    H213600   4.845   2.991   4.819
 4553TIP3   OH213601   4.554   0.755   4.680
 4553TIP3    H113602   4.577   0.818   4.612
 4553TIP3    H213603   4.462   0.771   4.698
 4554TIP3   OH213604   8.207   6.438   4.981
 4554TIP3    H113605   8.234   6.350   5.008
 4554TIP3    H213606   8.210   6.436   4.886
 4555TIP3   OH213607   5.561   4.690   0.911
 4555TIP3    H113608   5.503   4.765   0.926
 4555TIP3    H213609   5.626   4.721   0.848
 4556TIP3   OH213610   7.750   7.050   1.623
 4556TIP3    H113611   7.682   7.100   1.668
 4556TIP3    H213612   7.796   7.114   1.569
 4557TIP3   OH213613   0.904   6.642   3.151
 4557TIP3    H113614   0.942   6.590   3.222
 4557TIP3    H213615   0.820   6.673   3.186
 4558TIP3   OH213616   7.386   1.842   5.630
 4558TIP3    H113617   7.316   1.819   5.570
 4558TIP3    H213618   7.379   1.937   5.641
 4559TIP3   OH213619   3.074   7.463   1.429
 4559TIP3    H113620   3.084   7.446   1.335
 4559TIP3    H213621   3.075   7.559   1.436
 4560TIP3   OH213622   1.264   1.902   6.122
 4560TIP3    H113623   1.225   1.933   6.040
 4560TIP3    H213624   1.349   1.867   6.096
 4561TIP3   OH213625   1.524   1.808   6.068
 4561TIP3    H113626   1.573   1.773   5.994
 4561TIP3    H213627   1.590   1.852   6.122
 4562TIP3   OH213628   3.320   6.818   2.113
 4562TIP3    H113629   3.309   6.860   2.028
 4562TIP3    H213630   3.383   6.747   2.096
 4563TIP3   OH213631   6.340   7.109   0.947
 4563TIP3    H113632   6.279   7.053   0.898
 4563TIP3    H213633   6.327   7.196   0.911
 4564TIP3   OH213634   3.420   0.725   0.895
 4564TIP3    H113635   3.459   0.725   0.982
 4564TIP3    H213636   3.488   0.691   0.837
 4565TIP3   OH213637   5.551   5.238   3.247
 4565TIP3    H113638   5.596   5.175   3.303
 4565TIP3    H213639   5.618   5.304   3.227
 4566TIP3   OH213640   2.853   0.762   6.767
 4566TIP3    H113641   2.901   0.839   6.736
 4566TIP3    H213642   2.800   0.735   6.692
 4567TIP3   OH213643   3.486   6.618   3.615
 4567TIP3    H113644   3.508   6.623   3.708
 4567TIP3    H213645   3.401   6.572   3.613
 4568TIP3   OH213646   3.713   0.524   1.798
 4568TIP3    H113647   3.692   0.554   1.710
 4568TIP3    H213648   3.661   0.580   1.856
 4569TIP3   OH213649   5.280   2.451   1.437
 4569TIP3    H113650   5.209   2.510   1.462
 4569TIP3    H213651   5.320   2.425   1.520
 4570TIP3   OH213652   4.438   3.262   2.471
 4570TIP3    H113653   4.391   3.217   2.542
 4570TIP3    H213654   4.454   3.350   2.504
 4571TIP3   OH213655   6.311   1.797   2.852
 4571TIP3    H113656   6.327   1.712   2.892
 4571TIP3    H213657   6.216   1.800   2.839
 4572TIP3   OH213658   5.192   3.507   6.175
 4572TIP3    H113659   5.280   3.543   6.187
 4572TIP3    H213660   5.133   3.580   6.195
 4573TIP3   OH213661   0.389   6.496   3.141
 4573TIP3    H113662   0.383   6.500   3.046
 4573TIP3    H213663   0.298   6.492   3.171
 4574TIP3   OH213664   4.930   1.163   6.653
 4574TIP3    H113665   4.896   1.251   6.638
 4574TIP3    H213666   4.858   1.117   6.697
 4575TIP3   OH213667   3.168   7.760   2.461
 4575TIP3    H113668   3.171   7.842   2.510
 4575TIP3    H213669   3.183   7.785   2.370
 4576TIP3   OH213670   5.667   3.468   1.102
 4576TIP3    H113671   5.580   3.496   1.128
 4576TIP3    H213672   5.702   3.541   1.051
 4577TIP3   OH213673   6.148   2.923   4.081
 4577TIP3    H113674   6.101   2.858   4.029
 4577TIP3    H213675   6.152   3.000   4.026
 4578TIP3   OH213676   6.456   6.023   6.678
 4578TIP3    H113677   6.521   5.956   6.698
 4578TIP3    H213678   6.487   6.062   6.595
 4579TIP3   OH213679   7.170   1.839   3.693
 4579TIP3    H113680   7.185   1.746   3.710
 4579TIP3    H213681   7.075   1.845   3.678
 4580TIP3   OH213682   2.996   6.835   3.332
 4580TIP3    H113683   3.018   6.753   3.377
 4580TIP3    H213684   3.036   6.903   3.386
 4581TIP3   OH213685   6.667   4.084   6.423
 4581TIP3    H113686   6.604   4.154   6.441
 4581TIP3    H213687   6.751   4.119   6.451
 4582TIP3   OH213688   8.102   7.107   0.168
 4582TIP3    H113689   8.125   7.159   0.091
 4582TIP3    H213690   8.059   7.029   0.132
 4583TIP3   OH213691   3.218   2.111   6.419
 4583TIP3    H113692   3.141   2.159   6.449
 4583TIP3    H213693   3.247   2.157   6.341
 4584TIP3   OH213694   2.777   2.243   1.143
 4584TIP3    H113695   2.702   2.286   1.185
 4584TIP3    H213696   2.821   2.197   1.215
 4585TIP3   OH213697   7.253   0.769   0.714
 4585TIP3    H113698   7.232   0.801   0.627
 4585TIP3    H213699   7.185   0.807   0.770
 4586TIP3   OH213700   2.436   2.883   2.181
 4586TIP3    H113701   2.382   2.851   2.254
 4586TIP3    H213702   2.373   2.915   2.117
 4587TIP3   OH213703   3.674   6.090   2.825
 4587TIP3    H113704   3.594   6.072   2.776
 4587TIP3    H213705   3.678   6.185   2.831
 4588TIP3   OH213706   6.606   1.546   1.666
 4588TIP3    H113707   6.517   1.559   1.699
 4588TIP3    H213708   6.662   1.576   1.738
 4589TIP3   OH213709   2.241   2.721   5.196
 4589TIP3    H113710   2.150   2.695   5.201
 4589TIP3    H213711   2.245   2.779   5.120
 4590TIP3   OH213712   7.225   6.931   5.414
 4590TIP3    H113713   7.219   6.940   5.319
 4590TIP3    H213714   7.227   7.021   5.446
 4591TIP3   OH213715   2.839   3.820   1.299
 4591TIP3    H113716   2.766   3.778   1.343
 4591TIP3    H213717   2.809   3.835   1.210
 4592TIP3   OH213718   2.116   1.323   4.335
 4592TIP3    H113719   2.145   1.406   4.297
 4592TIP3    H213720   2.023   1.337   4.355
 4593TIP3   OH213721   2.915   2.524   1.385
 4593TIP3    H113722   2.861   2.460   1.431
 4593TIP3    H213723   2.944   2.584   1.454
 4594TIP3   OH213724   1.452   5.710   3.493
 4594TIP3    H113725   1.513   5.757   3.550
 4594TIP3    H213726   1.372   5.762   3.496
 4595TIP3   OH213727   7.833   4.379   5.157
 4595TIP3    H113728   7.849   4.392   5.251
 4595TIP3    H213729   7.761   4.316   5.154
 4596TIP3   OH213730   4.417   4.087   6.395
 4596TIP3    H113731   4.362   4.107   6.471
 4596TIP3    H213732   4.360   4.037   6.337
 4597TIP3   OH213733   0.883   6.059   1.202
 4597TIP3    H113734   0.886   6.072   1.297
 4597TIP3    H213735   0.969   6.087   1.172
 4598TIP3   OH213736   0.189   3.406   4.923
 4598TIP3    H113737   0.156   3.469   4.859
 4598TIP3    H213738   0.204   3.458   5.002
 4599TIP3   OH213739   1.242   2.346   2.295
 4599TIP3    H113740   1.181   2.417   2.312
 4599TIP3    H213741   1.226   2.321   2.204
 4600TIP3   OH213742   5.706   6.247   0.453
 4600TIP3    H113743   5.704   6.278   0.543
 4600TIP3    H213744   5.615   6.231   0.430
 4601TIP3   OH213745   7.216   3.017   2.616
 4601TIP3    H113746   7.203   3.077   2.543
 4601TIP3    H213747   7.235   2.932   2.575
 4602TIP3   OH213748   3.187   7.211   4.690
 4602TIP3    H113749   3.160   7.269   4.618
 4602TIP3    H213750   3.185   7.124   4.651
 4603TIP3   OH213751   5.861   1.331   3.651
 4603TIP3    H113752   5.871   1.257   3.592
 4603TIP3    H213753   5.855   1.407   3.594
 4604TIP3   OH213754   7.535   2.741   2.721
 4604TIP3    H113755   7.566   2.710   2.636
 4604TIP3    H213756   7.450   2.697   2.732
 4605TIP3   OH213757   3.011   6.378   4.734
 4605TIP3    H113758   2.997   6.466   4.700
 4605TIP3    H213759   3.087   6.387   4.791
 4606TIP3   OH213760   5.073   6.552   4.496
 4606TIP3    H113761   5.156   6.599   4.498
 4606TIP3    H213762   5.074   6.505   4.413
 4607TIP3   OH213763   6.003   5.513   5.047
 4607TIP3    H113764   5.976   5.425   5.072
 4607TIP3    H213765   6.096   5.504   5.025
 4608TIP3   OH213766   6.877   7.323   4.023
 4608TIP3    H113767   6.782   7.310   4.018
 4608TIP3    H213768   6.913   7.234   4.018
 4609TIP3   OH213769   6.146   3.367   6.775
 4609TIP3    H113770   6.206   3.333   6.841
 4609TIP3    H213771   6.077   3.300   6.768
 4610TIP3   OH213772   5.032   2.442   6.007
 4610TIP3    H113773   5.096   2.371   6.001
 4610TIP3    H213774   4.952   2.406   5.969
 4611TIP3   OH213775   0.465   4.228   2.837
 4611TIP3    H113776   0.423   4.286   2.774
 4611TIP3    H213777   0.547   4.272   2.859
 4612TIP3   OH213778   3.778   6.299   4.580
 4612TIP3    H113779   3.692   6.322   4.615
 4612TIP3    H213780   3.825   6.263   4.656
 4613TIP3   OH213781   7.677   7.030   5.232
 4613TIP3    H113782   7.688   7.022   5.137
 4613TIP3    H213783   7.672   6.940   5.263
 4614TIP3   OH213784   6.423   6.903   1.096
 4614TIP3    H113785   6.333   6.895   1.127
 4614TIP3    H213786   6.426   6.989   1.055
 4615TIP3   OH213787   1.242   4.108   3.410
 4615TIP3    H113788   1.268   4.118   3.502
 4615TIP3    H213789   1.315   4.146   3.361
 4616TIP3   OH213790   6.815   2.691   4.801
 4616TIP3    H113791   6.782   2.652   4.882
 4616TIP3    H213792   6.758   2.766   4.786
 4617TIP3   OH213793   2.339   2.414   3.142
 4617TIP3    H113794   2.388   2.451   3.069
 4617TIP3    H213795   2.305   2.331   3.108
 4618TIP3   OH213796   5.143   3.428   4.427
 4618TIP3    H113797   5.054   3.398   4.444
 4618TIP3    H213798   5.199   3.365   4.473
 4619TIP3   OH213799   6.536   4.631   4.504
 4619TIP3    H113800   6.627   4.603   4.514
 4619TIP3    H213801   6.524   4.697   4.572
 4620TIP3   OH213802   4.718   6.283   6.132
 4620TIP3    H113803   4.797   6.319   6.092
 4620TIP3    H213804   4.741   6.272   6.224
 4621TIP3   OH213805   7.891   2.869   5.768
 4621TIP3    H113806   7.856   2.819   5.694
 4621TIP3    H213807   7.813   2.909   5.808
 4622TIP3   OH213808   8.237   3.374   1.723
 4622TIP3    H113809   8.203   3.289   1.694
 4622TIP3    H213810   8.226   3.373   1.818
 4623TIP3   OH213811   0.142   3.806   2.385
 4623TIP3    H113812   0.091   3.834   2.461
 4623TIP3    H213813   0.184   3.886   2.353
 4624TIP3   OH213814   1.700   6.634   4.391
 4624TIP3    H113815   1.663   6.649   4.479
 4624TIP3    H213816   1.627   6.598   4.341
 4625TIP3   OH213817   5.959   3.559   0.342
 4625TIP3    H113818   6.004   3.501   0.280
 4625TIP3    H213819   6.027   3.587   0.402
 4626TIP3   OH213820   4.815   0.402   0.628
 4626TIP3    H113821   4.827   0.486   0.671
 4626TIP3    H213822   4.891   0.350   0.656
 4627TIP3   OH213823   3.583   0.128   1.725
 4627TIP3    H113824   3.576   0.060   1.792
 4627TIP3    H213825   3.635   0.088   1.655
 4628TIP3   OH213826   6.928   6.802   1.420
 4628TIP3    H113827   6.867   6.767   1.355
 4628TIP3    H213828   6.971   6.725   1.457
 4629TIP3   OH213829   1.716   4.105   6.106
 4629TIP3    H113830   1.697   4.017   6.137
 4629TIP3    H213831   1.631   4.141   6.082
 4630TIP3   OH213832   7.991   6.142   0.127
 4630TIP3    H113833   7.976   6.104   0.213
 4630TIP3    H213834   7.914   6.197   0.112
 4631TIP3   OH213835   0.379   3.745   6.175
 4631TIP3    H113836   0.319   3.808   6.215
 4631TIP3    H213837   0.404   3.687   6.246
 4632TIP3   OH213838   3.340   6.966   1.833
 4632TIP3    H113839   3.363   6.884   1.790
 4632TIP3    H213840   3.412   7.025   1.813
 4633TIP3   OH213841   4.854   1.337   4.837
 4633TIP3    H113842   4.835   1.393   4.912
 4633TIP3    H213843   4.834   1.248   4.867
 4634TIP3   OH213844   3.256   0.400   6.610
 4634TIP3    H113845   3.306   0.480   6.626
 4634TIP3    H213846   3.203   0.390   6.689
 4635TIP3   OH213847   4.030   4.861   3.726
 4635TIP3    H113848   3.935   4.860   3.714
 4635TIP3    H213849   4.055   4.952   3.710
 4636TIP3   OH213850   7.138   4.605   3.481
 4636TIP3    H113851   7.165   4.520   3.517
 4636TIP3    H213852   7.113   4.586   3.391
 4637TIP3   OH213853   7.283   1.448   0.673
 4637TIP3    H113854   7.188   1.447   0.681
 4637TIP3    H213855   7.300   1.502   0.596
 4638TIP3   OH213856   1.332   6.939   2.268
 4638TIP3    H113857   1.411   6.970   2.313
 4638TIP3    H213858   1.365   6.894   2.191
 4639TIP3   OH213859   3.366   6.122   4.407
 4639TIP3    H113860   3.291   6.161   4.452
 4639TIP3    H213861   3.358   6.152   4.316
 4640TIP3   OH213862   7.087   3.094   5.354
 4640TIP3    H113863   7.156   3.061   5.296
 4640TIP3    H213864   7.134   3.143   5.421
 4641TIP3   OH213865   0.277   2.750   4.400
 4641TIP3    H113866   0.280   2.699   4.319
 4641TIP3    H213867   0.279   2.685   4.469
 4642TIP3   OH213868   7.801   7.788   0.809
 4642TIP3    H113869   7.882   7.774   0.759
 4642TIP3    H213870   7.751   7.850   0.756
 4643TIP3   OH213871   8.101   2.367   5.427
 4643TIP3    H113872   8.024   2.421   5.412
 4643TIP3    H213873   8.075   2.308   5.498
 4644TIP3   OH213874   5.911   1.061   3.886
 4644TIP3    H113875   5.822   1.071   3.853
 4644TIP3    H213876   5.904   1.084   3.979
 4645TIP3   OH213877   7.521   1.600   1.077
 4645TIP3    H113878   7.543   1.540   1.006
 4645TIP3    H213879   7.601   1.652   1.090
 4646TIP3   OH213880   6.899   0.188   0.412
 4646TIP3    H113881   6.926   0.221   0.497
 4646TIP3    H213882   6.833   0.121   0.431
 4647TIP3   OH213883   4.483   2.224   0.736
 4647TIP3    H113884   4.441   2.212   0.821
 4647TIP3    H213885   4.556   2.162   0.736
 4648TIP3   OH213886   0.595   3.242   4.222
 4648TIP3    H113887   0.691   3.252   4.225
 4648TIP3    H213888   0.575   3.237   4.128
 4649TIP3   OH213889   6.691   4.029   2.175
 4649TIP3    H113890   6.781   3.995   2.175
 4649TIP3    H213891   6.678   4.062   2.087
 4650TIP3   OH213892   7.923   3.006   4.042
 4650TIP3    H113893   8.018   2.998   4.058
 4650TIP3    H213894   7.884   2.943   4.103
 4651TIP3   OH213895   4.414   0.326   0.450
 4651TIP3    H113896   4.459   0.409   0.464
 4651TIP3    H213897   4.372   0.336   0.365
 4652TIP3   OH213898   4.316   1.521   0.698
 4652TIP3    H113899   4.378   1.591   0.716
 4652TIP3    H213900   4.264   1.553   0.624
 4653TIP3   OH213901   8.227   7.369   1.826
 4653TIP3    H113902   8.166   7.303   1.793
 4653TIP3    H213903   8.233   7.434   1.756
 4654TIP3   OH213904   7.479   6.482   4.567
 4654TIP3    H113905   7.508   6.420   4.633
 4654TIP3    H213906   7.427   6.430   4.505
 4655TIP3   OH213907   3.540   0.050   0.199
 4655TIP3    H113908   3.595  -0.015   0.243
 4655TIP3    H213909   3.591   0.076   0.122
 4656TIP3   OH213910   5.832   3.603   6.546
 4656TIP3    H113911   5.825   3.562   6.632
 4656TIP3    H213912   5.879   3.540   6.493
 4657TIP3   OH213913   6.990   3.578   3.740
 4657TIP3    H113914   7.071   3.623   3.764
 4657TIP3    H213915   6.920   3.637   3.768
 4658TIP3   OH213916   4.520   4.723   0.285
 4658TIP3    H113917   4.462   4.734   0.360
 4658TIP3    H213918   4.460   4.717   0.210
 4659TIP3   OH213919   1.652   2.961   6.279
 4659TIP3    H113920   1.639   2.870   6.253
 4659TIP3    H213921   1.594   3.011   6.221
 4660TIP3   OH213922   3.614   2.910   0.394
 4660TIP3    H113923   3.653   2.955   0.319
 4660TIP3    H213924   3.598   2.821   0.363
 4661TIP3   OH213925   8.191   2.391   5.055
 4661TIP3    H113926   8.216   2.373   4.965
 4661TIP3    H213927   8.125   2.460   5.048
 4662TIP3   OH213928   2.548   5.720   0.794
 4662TIP3    H113929   2.483   5.748   0.859
 4662TIP3    H213930   2.581   5.637   0.827
 4663TIP3   OH213931   6.792   5.132   2.628
 4663TIP3    H113932   6.702   5.164   2.639
 4663TIP3    H213933   6.823   5.175   2.548
 4664TIP3   OH213934   3.376   3.443   3.277
 4664TIP3    H113935   3.402   3.355   3.248
 4664TIP3    H213936   3.371   3.494   3.196
 4665TIP3   OH213937   3.628   5.923   0.780
 4665TIP3    H113938   3.684   5.847   0.792
 4665TIP3    H213939   3.682   5.997   0.808
 4666TIP3   OH213940   1.392   7.200   6.363
 4666TIP3    H113941   1.454   7.126   6.363
 4666TIP3    H213942   1.320   7.171   6.419
 4667TIP3   OH213943   6.427   7.806   2.639
 4667TIP3    H113944   6.360   7.819   2.705
 4667TIP3    H213945   6.399   7.860   2.565
 4668TIP3   OH213946   4.825   4.902   5.227
 4668TIP3    H113947   4.821   4.997   5.235
 4668TIP3    H213948   4.810   4.869   5.315
 4669TIP3   OH213949   0.998   6.371   2.694
 4669TIP3    H113950   0.918   6.421   2.681
 4669TIP3    H213951   1.060   6.434   2.730
 4670TIP3   OH213952   2.240   5.216   0.543
 4670TIP3    H113953   2.188   5.187   0.468
 4670TIP3    H213954   2.271   5.303   0.519
 4671TIP3   OH213955   3.472   3.324   6.680
 4671TIP3    H113956   3.401   3.301   6.620
 4671TIP3    H213957   3.521   3.392   6.634
 4672TIP3   OH213958   1.522   0.028   6.471
 4672TIP3    H113959   1.444  -0.023   6.492
 4672TIP3    H213960   1.595  -0.031   6.491
 4673TIP3   OH213961   0.174   1.977   4.952
 4673TIP3    H113962   0.148   1.885   4.951
 4673TIP3    H213963   0.268   1.976   4.935
 4674TIP3   OH213964   6.624   2.006   3.770
 4674TIP3    H113965   6.671   2.006   3.854
 4674TIP3    H213966   6.642   1.920   3.732
 4675TIP3   OH213967   5.188   1.216   3.828
 4675TIP3    H113968   5.114   1.247   3.880
 4675TIP3    H213969   5.264   1.227   3.885
 4676TIP3   OH213970   5.972   7.231   2.274
 4676TIP3    H113971   5.980   7.139   2.298
 4676TIP3    H213972   5.898   7.233   2.213
 4677TIP3   OH213973   2.770   2.432   5.548
 4677TIP3    H113974   2.776   2.524   5.522
 4677TIP3    H213975   2.691   2.429   5.602
 4678TIP3   OH213976   7.395   2.161   1.072
 4678TIP3    H113977   7.459   2.221   1.033
 4678TIP3    H213978   7.372   2.101   1.002
 4679TIP3   OH213979   6.240   2.949   0.239
 4679TIP3    H113980   6.335   2.961   0.239
 4679TIP3    H213981   6.225   2.879   0.304
 4680TIP3   OH213982   6.136   3.824   5.253
 4680TIP3    H113983   6.150   3.917   5.265
 4680TIP3    H213984   6.043   3.816   5.231
 4681TIP3   OH213985   5.760   2.046   5.545
 4681TIP3    H113986   5.821   1.999   5.488
 4681TIP3    H213987   5.756   1.994   5.625
 4682TIP3   OH213988   0.152   1.779   6.437
 4682TIP3    H113989   0.197   1.722   6.375
 4682TIP3    H213990   0.217   1.797   6.505
 4683TIP3   OH213991   4.505   5.189   1.124
 4683TIP3    H113992   4.589   5.213   1.164
 4683TIP3    H213993   4.506   5.093   1.124
 4684TIP3   OH213994   6.808   7.153   2.414
 4684TIP3    H113995   6.740   7.090   2.392
 4684TIP3    H213996   6.840   7.185   2.330
 4685TIP3   OH213997   3.512   0.394   4.092
 4685TIP3    H113998   3.574   0.344   4.039
 4685TIP3    H213999   3.498   0.475   4.043
 4686TIP3   OH214000   3.741   6.620   2.429
 4686TIP3    H114001   3.660   6.670   2.427
 4686TIP3    H214002   3.769   6.623   2.521
 4687TIP3   OH214003   5.869   3.426   4.559
 4687TIP3    H114004   5.932   3.490   4.526
 4687TIP3    H214005   5.785   3.472   4.556
 4688TIP3   OH214006   2.822   4.532   0.153
 4688TIP3    H114007   2.727   4.526   0.166
 4688TIP3    H214008   2.859   4.477   0.221
 4689TIP3   OH214009   1.869   1.540   1.663
 4689TIP3    H114010   1.810   1.469   1.636
 4689TIP3    H214011   1.839   1.616   1.613
 4690TIP3   OH214012   1.188   5.997   6.604
 4690TIP3    H114013   1.261   6.026   6.659
 4690TIP3    H214014   1.194   6.051   6.525
 4691TIP3   OH214015   3.682   1.218   1.850
 4691TIP3    H114016   3.666   1.131   1.887
 4691TIP3    H214017   3.777   1.228   1.852
 4692TIP3   OH214018   4.720   0.244   0.180
 4692TIP3    H114019   4.651   0.231   0.115
 4692TIP3    H214020   4.684   0.207   0.261
 4693TIP3   OH214021   3.607   0.164   6.446
 4693TIP3    H114022   3.578   0.222   6.377
 4693TIP3    H214023   3.702   0.158   6.435
 4694TIP3   OH214024   1.425   7.632   6.037
 4694TIP3    H114025   1.393   7.705   5.985
 4694TIP3    H214026   1.404   7.554   5.985
 4695TIP3   OH214027   4.406   6.065   5.626
 4695TIP3    H114028   4.322   6.102   5.599
 4695TIP3    H214029   4.450   6.042   5.545
 4696TIP3   OH214030   6.455   5.714   1.606
 4696TIP3    H114031   6.466   5.656   1.681
 4696TIP3    H214032   6.378   5.766   1.627
 4697TIP3   OH214033   8.134   3.968   0.097
 4697TIP3    H114034   8.101   4.046   0.052
 4697TIP3    H214035   8.069   3.900   0.079
 4698TIP3   OH214036   5.550   4.934   4.667
 4698TIP3    H114037   5.582   4.844   4.671
 4698TIP3    H214038   5.456   4.927   4.678
 4699TIP3   OH214039   3.432   7.235   0.302
 4699TIP3    H114040   3.386   7.297   0.246
 4699TIP3    H214041   3.523   7.265   0.301
 4700TIP3   OH214042   0.057   5.156   2.143
 4700TIP3    H114043   0.066   5.158   2.048
 4700TIP3    H214044   0.036   5.247   2.167
 4701TIP3   OH214045   3.295   7.786   5.450
 4701TIP3    H114046   3.236   7.726   5.495
 4701TIP3    H214047   3.253   7.802   5.365
 4702TIP3   OH214048   6.378   7.499   2.509
 4702TIP3    H114049   6.322   7.550   2.568
 4702TIP3    H214050   6.465   7.535   2.523
 4703TIP3   OH214051   5.911   5.718   3.134
 4703TIP3    H114052   5.871   5.658   3.071
 4703TIP3    H214053   5.857   5.710   3.213
 4704TIP3   OH214054   4.637   4.930   2.027
 4704TIP3    H114055   4.719   4.882   2.038
 4704TIP3    H214056   4.626   4.978   2.109
 4705TIP3   OH214057   6.357   3.769   3.592
 4705TIP3    H114058   6.374   3.707   3.521
 4705TIP3    H214059   6.341   3.713   3.668
 4706TIP3   OH214060   3.254   7.041   3.845
 4706TIP3    H114061   3.220   7.121   3.806
 4706TIP3    H214062   3.209   6.970   3.798
 4707TIP3   OH214063   5.107   2.299   5.263
 4707TIP3    H114064   5.127   2.376   5.210
 4707TIP3    H214065   5.028   2.262   5.222
 4708TIP3   OH214066   0.907   6.163   5.767
 4708TIP3    H114067   0.851   6.139   5.841
 4708TIP3    H214068   0.845   6.188   5.698
 4709TIP3   OH214069   6.296   5.436   6.281
 4709TIP3    H114070   6.254   5.368   6.229
 4709TIP3    H214071   6.230   5.463   6.344
 4710TIP3   OH214072   4.833   6.519   4.247
 4710TIP3    H114073   4.798   6.465   4.318
 4710TIP3    H214074   4.928   6.512   4.257
 4711TIP3   OH214075   5.196   1.116   2.154
 4711TIP3    H114076   5.249   1.094   2.078
 4711TIP3    H214077   5.110   1.140   2.117
 4712TIP3   OH214078   5.477   6.460   3.184
 4712TIP3    H114079   5.472   6.480   3.278
 4712TIP3    H214080   5.391   6.485   3.150
 4713TIP3   OH214081   5.729   0.055   1.732
 4713TIP3    H114082   5.784   0.052   1.654
 4713TIP3    H214083   5.677  -0.025   1.728
 4714TIP3   OH214084   4.456   7.406   3.454
 4714TIP3    H114085   4.438   7.477   3.392
 4714TIP3    H214086   4.417   7.328   3.413
 4715TIP3   OH214087   5.026   1.258   5.670
 4715TIP3    H114088   5.105   1.223   5.629
 4715TIP3    H214089   4.987   1.184   5.716
 4716TIP3   OH214090   5.238   1.676   4.500
 4716TIP3    H114091   5.159   1.707   4.544
 4716TIP3    H214092   5.209   1.599   4.450
 4717TIP3   OH214093   6.298   6.048   2.067
 4717TIP3    H114094   6.307   6.103   2.145
 4717TIP3    H214095   6.361   6.083   2.005
 4718TIP3   OH214096   8.244   1.889   2.550
 4718TIP3    H114097   8.160   1.934   2.535
 4718TIP3    H214098   8.302   1.956   2.585
 4719TIP3   OH214099   3.660   6.467   0.994
 4719TIP3    H114100   3.638   6.406   0.923
 4719TIP3    H214101   3.584   6.525   1.000
 4720TIP3   OH214102   1.264   0.343   2.842
 4720TIP3    H114103   1.218   0.426   2.854
 4720TIP3    H214104   1.245   0.317   2.752
 4721TIP3   OH214105   7.262   2.743   6.505
 4721TIP3    H114106   7.205   2.817   6.484
 4721TIP3    H214107   7.262   2.690   6.425
 4722TIP3   OH214108   4.101   5.678   4.614
 4722TIP3    H114109   4.042   5.736   4.663
 4722TIP3    H214110   4.057   5.593   4.614
 4723TIP3   OH214111   4.929   5.847   5.258
 4723TIP3    H114112   4.996   5.835   5.191
 4723TIP3    H214113   4.869   5.774   5.245
 4724TIP3   OH214114   4.828   5.994   4.780
 4724TIP3    H114115   4.878   6.028   4.855
 4724TIP3    H214116   4.863   6.043   4.705
 4725TIP3   OH214117   1.585   4.574   3.078
 4725TIP3    H114118   1.635   4.655   3.085
 4725TIP3    H214119   1.496   4.599   3.099
 4726TIP3   OH214120   1.557   2.597   6.685
 4726TIP3    H114121   1.537   2.543   6.609
 4726TIP3    H214122   1.629   2.654   6.656
 4727TIP3   OH214123   1.481   2.393   3.013
 4727TIP3    H114124   1.389   2.365   3.008
 4727TIP3    H214125   1.523   2.326   3.065
 4728TIP3   OH214126   2.994   5.927   1.405
 4728TIP3    H114127   3.063   5.862   1.411
 4728TIP3    H214128   3.014   5.990   1.475
 4729TIP3   OH214129   3.463   5.674   0.041
 4729TIP3    H114130   3.489   5.752  -0.008
 4729TIP3    H214131   3.499   5.601  -0.011
 4730TIP3   OH214132   2.599   6.452   2.120
 4730TIP3    H114133   2.649   6.375   2.093
 4730TIP3    H214134   2.508   6.426   2.110
 4731TIP3   OH214135   5.961   1.138   2.865
 4731TIP3    H114136   5.918   1.210   2.912
 4731TIP3    H214137   6.052   1.166   2.856
 4732TIP3   OH214138   8.114   7.566   5.167
 4732TIP3    H114139   8.199   7.609   5.175
 4732TIP3    H214140   8.120   7.514   5.087
 4733TIP3   OH214141   7.034   1.042   0.325
 4733TIP3    H114142   6.963   1.071   0.267
 4733TIP3    H214143   7.027   1.099   0.402
 4734TIP3   OH214144   6.305   6.332   6.599
 4734TIP3    H114145   6.260   6.333   6.514
 4734TIP3    H214146   6.284   6.246   6.636
 4735TIP3   OH214147   0.963   5.090   0.008
 4735TIP3    H114148   1.042   5.039   0.026
 4735TIP3    H214149   0.978   5.128  -0.079
 4736TIP3   OH214150   7.744   7.615   4.091
 4736TIP3    H114151   7.839   7.618   4.098
 4736TIP3    H214152   7.726   7.618   3.997
 4737TIP3   OH214153   7.707   1.538   0.380
 4737TIP3    H114154   7.732   1.461   0.329
 4737TIP3    H214155   7.619   1.559   0.350
 4738TIP3   OH214156   0.432   2.095   0.939
 4738TIP3    H114157   0.382   2.083   1.020
 4738TIP3    H214158   0.522   2.077   0.963
 4739TIP3   OH214159   2.769   3.785   4.027
 4739TIP3    H114160   2.851   3.803   4.073
 4739TIP3    H214161   2.714   3.862   4.045
 4740TIP3   OH214162   6.748   5.368   6.491
 4740TIP3    H114163   6.705   5.454   6.486
 4740TIP3    H214164   6.801   5.373   6.571
 4741TIP3   OH214165   6.795   7.232   3.130
 4741TIP3    H114166   6.821   7.141   3.145
 4741TIP3    H214167   6.734   7.252   3.200
 4742TIP3   OH214168   5.264   5.975   6.424
 4742TIP3    H114169   5.276   6.065   6.393
 4742TIP3    H214170   5.200   5.982   6.494
 4743TIP3   OH214171   3.974   0.842   6.344
 4743TIP3    H114172   3.981   0.926   6.298
 4743TIP3    H214173   3.900   0.798   6.303
 4744TIP3   OH214174   3.403   6.263   0.280
 4744TIP3    H114175   3.498   6.271   0.268
 4744TIP3    H214176   3.366   6.292   0.197
 4745TIP3   OH214177   4.660   6.651   5.831
 4745TIP3    H114178   4.708   6.624   5.753
 4745TIP3    H214179   4.664   6.746   5.830
 4746TIP3   OH214180   7.905   7.511   0.329
 4746TIP3    H114181   7.959   7.464   0.393
 4746TIP3    H214182   7.906   7.455   0.251
 4747TIP3   OH214183   3.358   2.464   1.124
 4747TIP3    H114184   3.383   2.523   1.052
 4747TIP3    H214185   3.366   2.518   1.203
 4748TIP3   OH214186   4.652   3.433   2.029
 4748TIP3    H114187   4.630   3.342   2.048
 4748TIP3    H214188   4.579   3.483   2.066
 4749TIP3   OH214189   8.147   7.360   6.081
 4749TIP3    H114190   8.064   7.313   6.073
 4749TIP3    H214191   8.200   7.327   6.009
 4750TIP3   OH214192   7.767   6.155   3.632
 4750TIP3    H114193   7.672   6.161   3.637
 4750TIP3    H214194   7.794   6.124   3.718
 4751TIP3   OH214195   5.370   7.669   0.964
 4751TIP3    H114196   5.410   7.587   0.934
 4751TIP3    H214197   5.337   7.649   1.051
 4752TIP3   OH214198   1.467   5.589   2.213
 4752TIP3    H114199   1.377   5.613   2.234
 4752TIP3    H214200   1.493   5.527   2.281
 4753TIP3   OH214201   3.260   2.480   2.317
 4753TIP3    H114202   3.327   2.539   2.283
 4753TIP3    H214203   3.297   2.445   2.398
 4754TIP3   OH214204   6.064   3.083   3.726
 4754TIP3    H114205   5.995   3.137   3.688
 4754TIP3    H214206   6.095   3.133   3.802
 4755TIP3   OH214207   4.572   7.864   1.605
 4755TIP3    H114208   4.561   7.825   1.692
 4755TIP3    H214209   4.491   7.845   1.559
 4756TIP3   OH214210   0.096   5.953   2.164
 4756TIP3    H114211   0.055   5.891   2.103
 4756TIP3    H214212   0.095   5.907   2.248
 4757TIP3   OH214213   3.782   2.919   3.749
 4757TIP3    H114214   3.806   2.856   3.682
 4757TIP3    H214215   3.726   2.869   3.809
 4758TIP3   OH214216   5.076   6.491   0.151
 4758TIP3    H114217   5.001   6.435   0.173
 4758TIP3    H214218   5.092   6.474   0.059
 4759TIP3   OH214219   1.585   2.826   3.140
 4759TIP3    H114220   1.593   2.917   3.110
 4759TIP3    H214221   1.547   2.833   3.227
 4760TIP3   OH214222   8.189   6.056   2.665
 4760TIP3    H114223   8.118   6.113   2.695
 4760TIP3    H214224   8.244   6.045   2.742
 4761TIP3   OH214225   6.588   6.595   4.838
 4761TIP3    H114226   6.616   6.588   4.930
 4761TIP3    H214227   6.593   6.506   4.805
 4762TIP3   OH214228   0.160   5.245   6.576
 4762TIP3    H114229   0.128   5.320   6.526
 4762TIP3    H214230   0.229   5.207   6.521
 4763TIP3   OH214231   6.155   6.284   2.243
 4763TIP3    H114232   6.080   6.224   2.243
 4763TIP3    H214233   6.149   6.330   2.159
 4764TIP3   OH214234   2.625   7.314   1.830
 4764TIP3    H114235   2.576   7.232   1.835
 4764TIP3    H214236   2.693   7.306   1.896
 4765TIP3   OH214237   7.044   3.609   4.684
 4765TIP3    H114238   7.070   3.687   4.733
 4765TIP3    H214239   6.989   3.560   4.745
 4766TIP3   OH214240   3.371   2.092   3.511
 4766TIP3    H114241   3.360   2.171   3.459
 4766TIP3    H214242   3.461   2.096   3.542
 4767TIP3   OH214243   4.559   3.057   5.524
 4767TIP3    H114244   4.484   3.115   5.512
 4767TIP3    H214245   4.617   3.106   5.583
 4768TIP3   OH214246   5.605   6.030   2.784
 4768TIP3    H114247   5.597   5.983   2.701
 4768TIP3    H214248   5.645   5.967   2.844
 4769TIP3   OH214249   0.904   5.996   2.124
 4769TIP3    H114250   0.895   5.921   2.067
 4769TIP3    H214251   0.837   6.058   2.095
 4770TIP3   OH214252   3.003   2.207   5.895
 4770TIP3    H114253   3.096   2.182   5.892
 4770TIP3    H214254   2.968   2.157   5.968
 4771TIP3   OH214255   5.635   4.066   5.522
 4771TIP3    H114256   5.580   3.993   5.549
 4771TIP3    H214257   5.578   4.121   5.468
 4772TIP3   OH214258   1.152   1.653   6.143
 4772TIP3    H114259   1.173   1.746   6.129
 4772TIP3    H214260   1.103   1.628   6.065
 4773TIP3   OH214261   2.424   4.787   1.291
 4773TIP3    H114262   2.423   4.709   1.346
 4773TIP3    H214263   2.382   4.855   1.344
 4774TIP3   OH214264   2.700   3.151   3.259
 4774TIP3    H114265   2.769   3.201   3.217
 4774TIP3    H214266   2.621   3.204   3.247
 4775TIP3   OH214267   2.212   3.640   2.167
 4775TIP3    H114268   2.245   3.575   2.229
 4775TIP3    H214269   2.284   3.653   2.105
 4776TIP3   OH214270   1.836   1.507   4.632
 4776TIP3    H114271   1.763   1.472   4.581
 4776TIP3    H214272   1.842   1.449   4.708
 4777TIP3   OH214273   6.071   7.074   0.073
 4777TIP3    H114274   6.138   7.128   0.030
 4777TIP3    H214275   6.000   7.135   0.091
 4778TIP3   OH214276   2.824   7.763   1.518
 4778TIP3    H114277   2.910   7.726   1.496
 4778TIP3    H214278   2.781   7.775   1.433
 4779TIP3   OH214279   6.155   1.651   4.709
 4779TIP3    H114280   6.216   1.641   4.636
 4779TIP3    H214281   6.108   1.732   4.689
 4780TIP3   OH214282   7.344   3.386   4.563
 4780TIP3    H114283   7.395   3.462   4.591
 4780TIP3    H214284   7.409   3.319   4.542
 4781TIP3   OH214285   4.073   6.556   4.635
 4781TIP3    H114286   4.022   6.538   4.714
 4781TIP3    H214287   4.160   6.580   4.668
 4782TIP3   OH214288   5.359   7.514   3.001
 4782TIP3    H114289   5.265   7.528   3.009
 4782TIP3    H214290   5.386   7.570   2.929
 4783TIP3   OH214291   7.561   0.842   2.220
 4783TIP3    H114292   7.499   0.895   2.269
 4783TIP3    H214293   7.580   0.767   2.278
 4784TIP3   OH214294   3.748   6.769   4.054
 4784TIP3    H114295   3.718   6.815   3.976
 4784TIP3    H214296   3.817   6.711   4.023
 4785TIP3   OH214297   8.216   2.903   0.946
 4785TIP3    H114298   8.306   2.936   0.952
 4785TIP3    H214299   8.161   2.981   0.953
 4786TIP3   OH214300   7.626   6.484   0.453
 4786TIP3    H114301   7.606   6.577   0.449
 4786TIP3    H214302   7.721   6.479   0.440
 4787TIP3   OH214303   0.983   2.386   5.902
 4787TIP3    H114304   0.966   2.324   5.831
 4787TIP3    H214305   1.074   2.369   5.927
 4788TIP3   OH214306   3.292  -0.024   0.286
 4788TIP3    H114307   3.375   0.015   0.261
 4788TIP3    H214308   3.256  -0.058   0.204
 4789TIP3   OH214309   4.131   5.753   2.774
 4789TIP3    H114310   4.147   5.674   2.723
 4789TIP3    H214311   4.094   5.815   2.711
 4790TIP3   OH214312   0.335   5.772   6.550
 4790TIP3    H114313   0.403   5.801   6.611
 4790TIP3    H214314   0.291   5.701   6.597
 4791TIP3   OH214315   3.396   5.816   3.613
 4791TIP3    H114316   3.351   5.858   3.540
 4791TIP3    H214317   3.443   5.743   3.574
 4792TIP3   OH214318   2.350   4.787   0.116
 4792TIP3    H114319   2.329   4.869   0.159
 4792TIP3    H214320   2.310   4.794   0.029
 4793TIP3   OH214321   0.242   2.517   4.262
 4793TIP3    H114322   0.259   2.485   4.174
 4793TIP3    H214323   0.158   2.478   4.286
 4794TIP3   OH214324   5.828   3.163   4.665
 4794TIP3    H114325   5.804   3.227   4.598
 4794TIP3    H214326   5.749   3.109   4.676
 4795TIP3   OH214327   3.498   2.186   0.078
 4795TIP3    H114328   3.563   2.156   0.015
 4795TIP3    H214329   3.488   2.113   0.139
 4796TIP3   OH214330   0.065   4.102   5.309
 4796TIP3    H114331  -0.001   4.171   5.301
 4796TIP3    H214332   0.069   4.062   5.222
 4797TIP3   OH214333   7.773   3.682   4.079
 4797TIP3    H114334   7.741   3.641   4.159
 4797TIP3    H214335   7.695   3.698   4.027
 4798TIP3   OH214336   4.961   6.747   1.100
 4798TIP3    H114337   4.939   6.780   1.013
 4798TIP3    H214338   5.045   6.787   1.121
 4799TIP3   OH214339   8.125   0.869   6.281
 4799TIP3    H114340   8.097   0.928   6.351
 4799TIP3    H214341   8.086   0.784   6.304
 4800TIP3   OH214342   0.697   3.903   6.315
 4800TIP3    H114343   0.731   3.991   6.331
 4800TIP3    H214344   0.641   3.885   6.390
 4801TIP3   OH214345   3.828   5.052   2.750
 4801TIP3    H114346   3.808   5.009   2.833
 4801TIP3    H214347   3.772   5.129   2.749
 4802TIP3   OH214348   7.965   6.827   0.514
 4802TIP3    H114349   7.970   6.798   0.605
 4802TIP3    H214350   7.899   6.896   0.514
 4803TIP3   OH214351   1.478   3.409   1.265
 4803TIP3    H114352   1.453   3.331   1.216
 4803TIP3    H214353   1.574   3.411   1.260
 4804TIP3   OH214354   7.099   7.045   4.405
 4804TIP3    H114355   7.171   7.056   4.467
 4804TIP3    H214356   7.020   7.054   4.458
 4805TIP3   OH214357   2.948   7.771   6.714
 4805TIP3    H114358   3.031   7.724   6.713
 4805TIP3    H214359   2.889   7.717   6.661
 4806TIP3   OH214360   1.873   4.083   5.825
 4806TIP3    H114361   1.798   4.031   5.853
 4806TIP3    H214362   1.921   4.102   5.906
 4807TIP3   OH214363   3.617   5.169   4.674
 4807TIP3    H114364   3.680   5.196   4.607
 4807TIP3    H214365   3.543   5.229   4.663
 4808TIP3   OH214366   7.131   2.302   3.705
 4808TIP3    H114367   7.070   2.374   3.725
 4808TIP3    H214368   7.079   2.241   3.653
 4809TIP3   OH214369   8.252   0.942   0.451
 4809TIP3    H114370   8.346   0.942   0.434
 4809TIP3    H214371   8.245   0.953   0.546
 4810TIP3   OH214372   0.356   4.825   5.269
 4810TIP3    H114373   0.290   4.811   5.337
 4810TIP3    H214374   0.321   4.779   5.192
 4811TIP3   OH214375   2.480   4.916   3.699
 4811TIP3    H114376   2.412   4.849   3.707
 4811TIP3    H214377   2.521   4.919   3.785
 4812TIP3   OH214378   7.491   7.514   2.579
 4812TIP3    H114379   7.507   7.422   2.561
 4812TIP3    H214380   7.494   7.520   2.675
 4813TIP3   OH214381   2.845   5.159   3.401
 4813TIP3    H114382   2.803   5.080   3.435
 4813TIP3    H214383   2.938   5.146   3.421
 4814TIP3   OH214384   2.576   0.566   2.642
 4814TIP3    H114385   2.573   0.537   2.550
 4814TIP3    H214386   2.562   0.485   2.692
 4815TIP3   OH214387   2.175   2.711   0.365
 4815TIP3    H114388   2.207   2.793   0.402
 4815TIP3    H214389   2.201   2.713   0.273
 4816TIP3   OH214390   1.125   6.736   3.797
 4816TIP3    H114391   1.138   6.812   3.853
 4816TIP3    H214392   1.054   6.762   3.737
 4817TIP3   OH214393   6.146   5.392   3.185
 4817TIP3    H114394   6.196   5.473   3.173
 4817TIP3    H214395   6.108   5.400   3.272
 4818TIP3   OH214396   5.920   5.090   4.516
 4818TIP3    H114397   5.935   5.006   4.559
 4818TIP3    H214398   6.001   5.139   4.528
 4819TIP3   OH214399   7.094   4.755   5.811
 4819TIP3    H114400   7.173   4.808   5.822
 4819TIP3    H214401   7.070   4.766   5.719
 4820TIP3   OH214402   1.528   5.632   4.668
 4820TIP3    H114403   1.609   5.657   4.714
 4820TIP3    H214404   1.518   5.539   4.687
 4821TIP3   OH214405   2.055   5.050   5.602
 4821TIP3    H114406   2.022   4.966   5.634
 4821TIP3    H214407   1.998   5.072   5.528
 4822TIP3   OH214408   0.566   1.440   0.859
 4822TIP3    H114409   0.579   1.526   0.900
 4822TIP3    H214410   0.523   1.388   0.926
 4823TIP3   OH214411   6.743   6.878   2.605
 4823TIP3    H114412   6.762   6.898   2.696
 4823TIP3    H214413   6.657   6.918   2.589
 4824TIP3   OH214414   1.138   7.524   5.745
 4824TIP3    H114415   1.203   7.455   5.761
 4824TIP3    H214416   1.145   7.581   5.821
 4825TIP3   OH214417   7.198   4.913   0.037
 4825TIP3    H114418   7.273   4.938   0.091
 4825TIP3    H214419   7.174   4.826   0.069
 4826TIP3   OH214420   7.977   0.260   6.439
 4826TIP3    H114421   7.961   0.267   6.345
 4826TIP3    H214422   7.905   0.206   6.472
 4827TIP3   OH214423   5.574   0.230   4.010
 4827TIP3    H114424   5.611   0.295   3.950
 4827TIP3    H214425   5.638   0.224   4.080
 4828TIP3   OH214426   2.126   0.581   5.113
 4828TIP3    H114427   2.046   0.535   5.140
 4828TIP3    H214428   2.197   0.522   5.137
 4829TIP3   OH214429   4.104   6.699   2.446
 4829TIP3    H114430   4.035   6.667   2.389
 4829TIP3    H214431   4.165   6.626   2.455
 4830TIP3   OH214432   0.073   0.511   3.237
 4830TIP3    H114433   0.017   0.486   3.163
 4830TIP3    H214434   0.160   0.522   3.198
 4831TIP3   OH214435   1.350   0.193   6.255
 4831TIP3    H114436   1.373   0.282   6.228
 4831TIP3    H214437   1.423   0.164   6.309
 4832TIP3   OH214438   6.801   4.934   3.969
 4832TIP3    H114439   6.874   4.938   4.030
 4832TIP3    H214440   6.725   4.963   4.020
 4833TIP3   OH214441   6.534   2.341   1.041
 4833TIP3    H114442   6.455   2.369   1.087
 4833TIP3    H214443   6.503   2.279   0.975
 4834TIP3   OH214444   2.457   1.111   5.005
 4834TIP3    H114445   2.492   1.197   4.981
 4834TIP3    H214446   2.370   1.130   5.041
 4835TIP3   OH214447   1.679   7.580   4.652
 4835TIP3    H114448   1.679   7.528   4.732
 4835TIP3    H214449   1.609   7.543   4.599
 4836TIP3   OH214450   5.958   4.820   6.210
 4836TIP3    H114451   5.912   4.750   6.256
 4836TIP3    H214452   5.978   4.884   6.278
 4837TIP3   OH214453   3.014   5.463   3.929
 4837TIP3    H114454   2.940   5.429   3.980
 4837TIP3    H214455   2.974   5.497   3.849
 4838TIP3   OH214456   2.408   6.634   1.015
 4838TIP3    H114457   2.486   6.671   1.056
 4838TIP3    H214458   2.336   6.689   1.045
 4839TIP3   OH214459   5.584   7.004   0.639
 4839TIP3    H114460   5.561   6.945   0.710
 4839TIP3    H214461   5.509   7.002   0.580
 4840TIP3   OH214462   5.146   6.512   3.381
 4840TIP3    H114463   5.211   6.447   3.409
 4840TIP3    H214464   5.196   6.573   3.327
 4841TIP3   OH214465   8.257   3.267   4.941
 4841TIP3    H114466   8.344   3.303   4.958
 4841TIP3    H214467   8.267   3.215   4.861
 4842TIP3   OH214468   5.821   7.676   5.558
 4842TIP3    H114469   5.813   7.676   5.463
 4842TIP3    H214470   5.865   7.593   5.578
 4843TIP3   OH214471   3.887   7.578   1.037
 4843TIP3    H114472   3.794   7.591   1.022
 4843TIP3    H214473   3.895   7.569   1.132
 4844TIP3   OH214474   5.574   1.857   3.259
 4844TIP3    H114475   5.537   1.946   3.260
 4844TIP3    H214476   5.506   1.804   3.217
 4845TIP3   OH214477   1.876   5.473   2.935
 4845TIP3    H114478   1.963   5.476   2.976
 4845TIP3    H214479   1.815   5.480   3.009
 4846TIP3   OH214480   2.021   3.516   3.278
 4846TIP3    H114481   2.111   3.485   3.287
 4846TIP3    H214482   1.979   3.495   3.361
 4847TIP3   OH214483   6.038   1.004   1.808
 4847TIP3    H114484   6.066   1.029   1.896
 4847TIP3    H214485   6.116   1.015   1.754
 4848TIP3   OH214486   2.367   6.733   2.687
 4848TIP3    H114487   2.441   6.733   2.626
 4848TIP3    H214488   2.333   6.823   2.682
 4849TIP3   OH214489   0.969   3.191   2.658
 4849TIP3    H114490   0.907   3.259   2.631
 4849TIP3    H214491   0.932   3.155   2.738
 4850TIP3   OH214492   7.571   6.946   4.745
 4850TIP3    H114493   7.522   6.907   4.817
 4850TIP3    H214494   7.632   6.877   4.718
 4851TIP3   OH214495   5.109   4.791   0.085
 4851TIP3    H114496   5.177   4.856   0.067
 4851TIP3    H214497   5.102   4.790   0.180
 4852TIP3   OH214498   4.248   2.595   3.538
 4852TIP3    H114499   4.332   2.577   3.580
 4852TIP3    H214500   4.237   2.522   3.476
 4853TIP3   OH214501   5.833   7.573   4.106
 4853TIP3    H114502   5.784   7.499   4.070
 4853TIP3    H214503   5.781   7.650   4.081
 4854TIP3   OH214504   7.438   4.686   5.220
 4854TIP3    H114505   7.479   4.747   5.159
 4854TIP3    H214506   7.436   4.603   5.172
 4855TIP3   OH214507   6.388   7.327   0.747
 4855TIP3    H114508   6.454   7.343   0.679
 4855TIP3    H214509   6.343   7.412   0.756
 4856TIP3   OH214510   1.583   2.337   5.597
 4856TIP3    H114511   1.599   2.380   5.513
 4856TIP3    H214512   1.503   2.286   5.582
 4857TIP3   OH214513   5.617   4.246   4.458
 4857TIP3    H114514   5.674   4.270   4.385
 4857TIP3    H214515   5.530   4.237   4.419
 4858TIP3   OH214516   7.497   2.072   1.603
 4858TIP3    H114517   7.567   2.125   1.565
 4858TIP3    H214518   7.458   2.129   1.671
 4859TIP3   OH214519   3.237   4.917   0.041
 4859TIP3    H114520   3.220   4.824   0.023
 4859TIP3    H214521   3.164   4.963   0.000
 4860TIP3   OH214522   2.060   5.272   4.662
 4860TIP3    H114523   2.027   5.188   4.629
 4860TIP3    H214524   2.155   5.267   4.650
 4861TIP3   OH214525   6.590   4.912   1.181
 4861TIP3    H114526   6.625   4.872   1.260
 4861TIP3    H214527   6.531   4.846   1.144
 4862TIP3   OH214528   2.262   5.162   3.948
 4862TIP3    H114529   2.214   5.083   3.921
 4862TIP3    H214530   2.218   5.189   4.029
 4863TIP3   OH214531   6.153   6.556   6.223
 4863TIP3    H114532   6.079   6.609   6.251
 4863TIP3    H214533   6.127   6.520   6.138
 4864TIP3   OH214534   7.146   0.730   4.035
 4864TIP3    H114535   7.149   0.707   3.942
 4864TIP3    H214536   7.152   0.645   4.080
 4865TIP3   OH214537   3.566   4.890   0.672
 4865TIP3    H114538   3.564   4.981   0.700
 4865TIP3    H214539   3.576   4.894   0.577
 4866TIP3   OH214540   1.426   1.058   4.923
 4866TIP3    H114541   1.377   1.129   4.880
 4866TIP3    H214542   1.358   1.007   4.968
 4867TIP3   OH214543   2.539   5.545   5.259
 4867TIP3    H114544   2.534   5.494   5.179
 4867TIP3    H214545   2.463   5.517   5.310
 4868TIP3   OH214546   5.920   0.860   2.303
 4868TIP3    H114547   5.892   0.780   2.260
 4868TIP3    H214548   5.936   0.834   2.394
 4869TIP3   OH214549   0.624   1.239   3.115
 4869TIP3    H114550   0.584   1.323   3.094
 4869TIP3    H214551   0.718   1.255   3.112
 4870TIP3   OH214552   2.119   2.477   3.644
 4870TIP3    H114553   2.123   2.493   3.550
 4870TIP3    H214554   2.034   2.434   3.657
 4871TIP3   OH214555   5.103   4.641   3.767
 4871TIP3    H114556   5.065   4.687   3.693
 4871TIP3    H214557   5.054   4.673   3.843
 4872TIP3   OH214558   6.480   4.232   6.528
 4872TIP3    H114559   6.397   4.187   6.511
 4872TIP3    H214560   6.475   4.258   6.620
 4873TIP3   OH214561   4.838   5.860   6.332
 4873TIP3    H114562   4.821   5.878   6.240
 4873TIP3    H214563   4.762   5.810   6.361
 4874TIP3   OH214564   8.277   2.050   5.678
 4874TIP3    H114565   8.370   2.029   5.690
 4874TIP3    H214566   8.245   2.069   5.766
 4875TIP3   OH214567   7.774   3.831   6.553
 4875TIP3    H114568   7.758   3.744   6.516
 4875TIP3    H214569   7.827   3.814   6.631
 4876TIP3   OH214570   3.949   4.604   0.186
 4876TIP3    H114571   3.959   4.524   0.238
 4876TIP3    H214572   3.966   4.576   0.096
 4877TIP3   OH214573   0.214   1.186   5.918
 4877TIP3    H114574   0.244   1.207   6.006
 4877TIP3    H214575   0.273   1.234   5.860
 4878TIP3   OH214576   6.348   5.731   3.828
 4878TIP3    H114577   6.320   5.817   3.860
 4878TIP3    H214578   6.443   5.733   3.836
 4879TIP3   OH214579   6.583   5.105   3.281
 4879TIP3    H114580   6.543   5.018   3.290
 4879TIP3    H214581   6.675   5.092   3.303
 4880TIP3   OH214582   6.396   1.448   4.805
 4880TIP3    H114583   6.354   1.504   4.740
 4880TIP3    H214584   6.465   1.403   4.755
 4881TIP3   OH214585   4.204   2.272   4.230
 4881TIP3    H114586   4.182   2.182   4.253
 4881TIP3    H214587   4.124   2.307   4.191
 4882TIP3   OH214588   6.924   2.790   1.443
 4882TIP3    H114589   6.897   2.831   1.361
 4882TIP3    H214590   6.929   2.697   1.423
 4883TIP3   OH214591   5.922   1.802   6.306
 4883TIP3    H114592   5.997   1.769   6.356
 4883TIP3    H214593   5.897   1.883   6.351
 4884TIP3   OH214594   6.054   3.859   0.981
 4884TIP3    H114595   6.019   3.781   0.937
 4884TIP3    H214596   5.989   3.880   1.048
 4885TIP3   OH214597   3.220   2.610   4.327
 4885TIP3    H114598   3.272   2.618   4.407
 4885TIP3    H214599   3.144   2.666   4.342
 4886TIP3   OH214600   0.160   3.505   1.078
 4886TIP3    H114601   0.145   3.426   1.025
 4886TIP3    H214602   0.236   3.547   1.038
 4887TIP3   OH214603   3.464   6.295   3.271
 4887TIP3    H114604   3.531   6.349   3.229
 4887TIP3    H214605   3.503   6.208   3.275
 4888TIP3   OH214606   3.416   0.467   2.237
 4888TIP3    H114607   3.362   0.433   2.166
 4888TIP3    H214608   3.366   0.448   2.317
 4889TIP3   OH214609   1.896   3.746   5.462
 4889TIP3    H114610   1.976   3.770   5.508
 4889TIP3    H214611   1.826   3.759   5.526
 4890TIP3   OH214612   5.635   4.850   5.516
 4890TIP3    H114613   5.628   4.905   5.439
 4890TIP3    H214614   5.728   4.849   5.538
 4891TIP3   OH214615   6.983   4.677   1.214
 4891TIP3    H114616   6.973   4.613   1.144
 4891TIP3    H214617   6.939   4.637   1.289
 4892TIP3   OH214618   5.399   4.088   3.784
 4892TIP3    H114619   5.439   4.002   3.780
 4892TIP3    H214620   5.348   4.088   3.865
 4893TIP3   OH214621   4.896   7.790   4.722
 4893TIP3    H114622   4.944   7.777   4.804
 4893TIP3    H214623   4.866   7.703   4.697
 4894TIP3   OH214624   0.515   0.532   0.240
 4894TIP3    H114625   0.531   0.625   0.258
 4894TIP3    H214626   0.458   0.503   0.311
 4895TIP3   OH214627   0.615   6.020   4.188
 4895TIP3    H114628   0.571   5.937   4.207
 4895TIP3    H214629   0.553   6.067   4.132
 4896TIP3   OH214630   3.322   7.209   2.184
 4896TIP3    H114631   3.409   7.216   2.144
 4896TIP3    H214632   3.313   7.289   2.235
 4897TIP3   OH214633   2.839   3.740   5.368
 4897TIP3    H114634   2.903   3.806   5.394
 4897TIP3    H214635   2.795   3.778   5.291
 4898TIP3   OH214636   6.014   1.864   3.469
 4898TIP3    H114637   6.081   1.860   3.537
 4898TIP3    H214638   6.011   1.956   3.443
 4899TIP3   OH214639   4.596   1.917   6.776
 4899TIP3    H114640   4.548   1.981   6.828
 4899TIP3    H214641   4.530   1.878   6.719
 4900TIP3   OH214642   0.584   6.517   0.927
 4900TIP3    H114643   0.506   6.490   0.976
 4900TIP3    H214644   0.657   6.484   0.979
 4901TIP3   OH214645   7.624   4.858   6.183
 4901TIP3    H114646   7.545   4.813   6.212
 4901TIP3    H214647   7.693   4.824   6.240
 4902TIP3   OH214648   5.364   4.502   2.915
 4902TIP3    H114649   5.346   4.456   2.833
 4902TIP3    H214650   5.420   4.442   2.964
 4903TIP3   OH214651   7.671   5.943   0.743
 4903TIP3    H114652   7.630   5.923   0.827
 4903TIP3    H214653   7.762   5.961   0.764
 4904TIP3   OH214654   7.583   7.354   5.985
 4904TIP3    H114655   7.621   7.373   5.899
 4904TIP3    H214656   7.582   7.439   6.030
 4905TIP3   OH214657   5.725   6.591   3.313
 4905TIP3    H114658   5.641   6.546   3.321
 4905TIP3    H214659   5.760   6.592   3.402
 4906TIP3   OH214660   3.770   7.754   4.424
 4906TIP3    H114661   3.812   7.738   4.340
 4906TIP3    H214662   3.689   7.703   4.420
 4907TIP3   OH214663   1.779   1.271   0.429
 4907TIP3    H114664   1.868   1.295   0.452
 4907TIP3    H214665   1.757   1.327   0.355
 4908TIP3   OH214666   8.017   5.361   6.067
 4908TIP3    H114667   7.998   5.421   6.139
 4908TIP3    H214668   7.933   5.320   6.046
 4909TIP3   OH214669   2.104   0.960   5.916
 4909TIP3    H114670   2.023   0.951   5.966
 4909TIP3    H214671   2.114   1.054   5.902
 4910TIP3   OH214672   5.387   3.211   3.553
 4910TIP3    H114673   5.419   3.242   3.638
 4910TIP3    H214674   5.464   3.175   3.510
 4911TIP3   OH214675   1.642   6.559   3.104
 4911TIP3    H114676   1.704   6.499   3.061
 4911TIP3    H214677   1.698   6.618   3.155
 4912TIP3   OH214678   2.443   4.963   1.710
 4912TIP3    H114679   2.489   5.046   1.719
 4912TIP3    H214680   2.502   4.898   1.748
 4913TIP3   OH214681   1.513   0.604   6.637
 4913TIP3    H114682   1.419   0.613   6.621
 4913TIP3    H214683   1.552   0.592   6.550
 4914TIP3   OH214684   0.335   3.922   6.424
 4914TIP3    H114685   0.335   3.866   6.502
 4914TIP3    H214686   0.403   3.987   6.442
 4915TIP3   OH214687   6.125   0.082   2.280
 4915TIP3    H114688   6.108   0.175   2.268
 4915TIP3    H214689   6.198   0.079   2.343
 4916TIP3   OH214690   8.007   4.711   2.256
 4916TIP3    H114691   8.086   4.682   2.302
 4916TIP3    H214692   8.000   4.804   2.276
 4917TIP3   OH214693   4.418   4.422   0.726
 4917TIP3    H114694   4.438   4.516   0.726
 4917TIP3    H214695   4.390   4.404   0.636
 4918TIP3   OH214696   1.318   4.481   4.267
 4918TIP3    H114697   1.249   4.451   4.326
 4918TIP3    H214698   1.273   4.498   4.184
 4919TIP3   OH214699   4.326   2.129   3.923
 4919TIP3    H114700   4.260   2.063   3.943
 4919TIP3    H214701   4.338   2.178   4.004
 4920TIP3   OH214702   3.815   1.472   5.291
 4920TIP3    H114703   3.831   1.390   5.338
 4920TIP3    H214704   3.837   1.541   5.353
 4921TIP3   OH214705   4.072   4.587   5.313
 4921TIP3    H114706   4.026   4.530   5.252
 4921TIP3    H214707   4.019   4.666   5.317
 4922TIP3   OH214708   6.818   3.139   6.650
 4922TIP3    H114709   6.804   3.122   6.557
 4922TIP3    H214710   6.871   3.065   6.681
 4923TIP3   OH214711   1.970   5.887   1.289
 4923TIP3    H114712   1.942   5.813   1.343
 4923TIP3    H214713   2.033   5.850   1.227
 4924TIP3   OH214714   3.249   1.624   3.828
 4924TIP3    H114715   3.188   1.610   3.900
 4924TIP3    H214716   3.328   1.575   3.853
 4925TIP3   OH214717   7.220   1.467   4.665
 4925TIP3    H114718   7.270   1.471   4.583
 4925TIP3    H214719   7.230   1.376   4.694
 4926TIP3   OH214720   5.692   7.664   4.446
 4926TIP3    H114721   5.650   7.726   4.386
 4926TIP3    H214722   5.619   7.619   4.489
 4927TIP3   OH214723   2.606   1.644   6.800
 4927TIP3    H114724   2.693   1.651   6.840
 4927TIP3    H214725   2.616   1.576   6.733
 4928TIP3   OH214726   5.146   4.754   1.217
 4928TIP3    H114727   5.181   4.696   1.149
 4928TIP3    H214728   5.072   4.706   1.254
 4929TIP3   OH214729   3.899   2.027   3.421
 4929TIP3    H114730   3.861   1.948   3.385
 4929TIP3    H214731   3.903   2.088   3.347
 4930TIP3   OH214732   7.400   0.186   4.932
 4930TIP3    H114733   7.453   0.200   4.854
 4930TIP3    H214734   7.401   0.092   4.946
 4931TIP3   OH214735   4.470   6.611   3.332
 4931TIP3    H114736   4.454   6.533   3.386
 4931TIP3    H214737   4.528   6.666   3.385
 4932TIP3   OH214738   7.373   5.951   2.538
 4932TIP3    H114739   7.290   5.944   2.586
 4932TIP3    H214740   7.356   6.018   2.472
 4933TIP3   OH214741   0.095   2.941   4.924
 4933TIP3    H114742   0.002   2.960   4.915
 4933TIP3    H214743   0.103   2.895   5.008
 4934TIP3   OH214744   0.814   1.233   1.011
 4934TIP3    H114745   0.720   1.252   1.012
 4934TIP3    H214746   0.856   1.320   1.013
 4935TIP3   OH214747   3.588   5.170   0.748
 4935TIP3    H114748   3.619   5.215   0.826
 4935TIP3    H214749   3.617   5.224   0.675
 4936TIP3   OH214750   7.004   1.095   3.717
 4936TIP3    H114751   6.970   1.143   3.793
 4936TIP3    H214752   7.093   1.072   3.740
 4937TIP3   OH214753   5.079   3.830   5.503
 4937TIP3    H114754   5.055   3.922   5.515
 4937TIP3    H214755   5.158   3.833   5.448
 4938TIP3   OH214756   5.493   1.769   1.370
 4938TIP3    H114757   5.416   1.812   1.407
 4938TIP3    H214758   5.458   1.687   1.332
 4939TIP3   OH214759   7.564   5.109   4.240
 4939TIP3    H114760   7.573   5.106   4.144
 4939TIP3    H214761   7.651   5.085   4.272
 4940TIP3   OH214762   7.836   1.602   2.513
 4940TIP3    H114763   7.799   1.519   2.482
 4940TIP3    H214764   7.776   1.669   2.479
 4941TIP3   OH214765   8.032   4.521   0.721
 4941TIP3    H114766   8.108   4.484   0.677
 4941TIP3    H214767   8.067   4.596   0.770
 4942TIP3   OH214768   2.733   5.252   0.349
 4942TIP3    H114769   2.769   5.183   0.293
 4942TIP3    H214770   2.681   5.206   0.415
 4943TIP3   OH214771   5.238   5.005   1.317
 4943TIP3    H114772   5.213   4.920   1.283
 4943TIP3    H214773   5.156   5.055   1.319
 4944TIP3   OH214774   1.347   3.157   1.684
 4944TIP3    H114775   1.325   3.065   1.695
 4944TIP3    H214776   1.395   3.180   1.763
 4945TIP3   OH214777   5.653   1.674   6.241
 4945TIP3    H114778   5.634   1.723   6.161
 4945TIP3    H214779   5.743   1.698   6.263
 4946TIP3   OH214780   1.088   1.452   5.504
 4946TIP3    H114781   1.038   1.419   5.430
 4946TIP3    H214782   1.163   1.497   5.465
 4947TIP3   OH214783   0.115   5.725   3.724
 4947TIP3    H114784   0.131   5.819   3.718
 4947TIP3    H214785   0.104   5.708   3.817
 4948TIP3   OH214786   3.556   1.936   0.211
 4948TIP3    H114787   3.501   1.857   0.210
 4948TIP3    H214788   3.625   1.918   0.147
 4949TIP3   OH214789   1.723   4.985   1.767
 4949TIP3    H114790   1.689   4.897   1.757
 4949TIP3    H214791   1.773   4.983   1.849
 4950TIP3   OH214792   3.207   7.318   4.182
 4950TIP3    H114793   3.251   7.239   4.212
 4950TIP3    H214794   3.132   7.328   4.240
 4951TIP3   OH214795   4.190   1.417   5.753
 4951TIP3    H114796   4.113   1.384   5.800
 4951TIP3    H214797   4.264   1.397   5.811
 4952TIP3   OH214798   4.461   3.249   2.910
 4952TIP3    H114799   4.533   3.186   2.910
 4952TIP3    H214800   4.391   3.205   2.862
 4953TIP3   OH214801   7.312   2.679   2.222
 4953TIP3    H114802   7.394   2.642   2.189
 4953TIP3    H214803   7.276   2.728   2.148
 4954TIP3   OH214804   6.248   5.034   5.318
 4954TIP3    H114805   6.324   5.024   5.376
 4954TIP3    H214806   6.257   5.122   5.282
 4955TIP3   OH214807   0.707   0.934   4.839
 4955TIP3    H114808   0.690   0.954   4.747
 4955TIP3    H214809   0.667   1.005   4.888
 4956TIP3   OH214810   2.183   0.545   4.522
 4956TIP3    H114811   2.116   0.506   4.466
 4956TIP3    H214812   2.231   0.470   4.557
 4957TIP3   OH214813   4.582   5.428   0.755
 4957TIP3    H114814   4.572   5.522   0.743
 4957TIP3    H214815   4.553   5.389   0.673
 4958TIP3   OH214816   8.184   6.823   5.004
 4958TIP3    H114817   8.249   6.774   5.055
 4958TIP3    H214818   8.113   6.840   5.066
 4959TIP3   OH214819   3.888   2.147   2.934
 4959TIP3    H114820   3.937   2.221   2.970
 4959TIP3    H214821   3.911   2.146   2.841
 4960TIP3   OH214822   6.652   7.830   5.890
 4960TIP3    H114823   6.636   7.746   5.849
 4960TIP3    H214824   6.746   7.831   5.908
 4961TIP3   OH214825   3.392   6.713   1.751
 4961TIP3    H114826   3.353   6.668   1.827
 4961TIP3    H214827   3.387   6.649   1.680
 4962TIP3   OH214828   3.525   7.048   1.033
 4962TIP3    H114829   3.451   7.013   1.083
 4962TIP3    H214830   3.517   7.006   0.947
 4963TIP3   OH214831   4.744   4.162   3.456
 4963TIP3    H114832   4.821   4.173   3.401
 4963TIP3    H214833   4.672   4.201   3.405
 4964TIP3   OH214834   7.233   1.392   4.043
 4964TIP3    H114835   7.173   1.352   4.106
 4964TIP3    H214836   7.276   1.318   4.001
 4965TIP3   OH214837   6.262   2.124   4.203
 4965TIP3    H114838   6.202   2.101   4.274
 4965TIP3    H214839   6.221   2.200   4.162
 4966TIP3   OH214840   5.417   1.868   0.343
 4966TIP3    H114841   5.338   1.820   0.369
 4966TIP3    H214842   5.477   1.800   0.313
 4967TIP3   OH214843   3.055   0.145   1.824
 4967TIP3    H114844   2.990   0.209   1.851
 4967TIP3    H214845   3.046   0.140   1.729
 4968TIP3   OH214846   0.746   3.126   5.892
 4968TIP3    H114847   0.780   3.098   5.977
 4968TIP3    H214848   0.653   3.105   5.896
 4969TIP3   OH214849   1.232   3.834   1.408
 4969TIP3    H114850   1.238   3.882   1.491
 4969TIP3    H214851   1.252   3.744   1.430
 4970TIP3   OH214852   0.690   4.651   0.475
 4970TIP3    H114853   0.687   4.645   0.379
 4970TIP3    H214854   0.725   4.738   0.492
 4971TIP3   OH214855   6.372   4.484   4.862
 4971TIP3    H114856   6.442   4.517   4.918
 4971TIP3    H214857   6.416   4.426   4.800
 4972TIP3   OH214858   3.633   0.492   1.458
 4972TIP3    H114859   3.699   0.461   1.396
 4972TIP3    H214860   3.613   0.415   1.511
 4973TIP3   OH214861   3.291   3.505   5.615
 4973TIP3    H114862   3.279   3.412   5.635
 4973TIP3    H214863   3.248   3.517   5.531
 4974TIP3   OH214864   7.798   2.726   0.778
 4974TIP3    H114865   7.845   2.686   0.852
 4974TIP3    H214866   7.857   2.795   0.748
 4975TIP3   OH214867   4.348   2.711   6.715
 4975TIP3    H114868   4.331   2.621   6.689
 4975TIP3    H214869   4.284   2.763   6.668
 4976TIP3   OH214870   0.728   1.392   0.375
 4976TIP3    H114871   0.727   1.376   0.470
 4976TIP3    H214872   0.752   1.308   0.337
 4977TIP3   OH214873   4.897   4.564   2.823
 4977TIP3    H114874   4.936   4.491   2.776
 4977TIP3    H214875   4.820   4.587   2.772
 4978TIP3   OH214876   2.586   0.734   3.568
 4978TIP3    H114877   2.523   0.676   3.609
 4978TIP3    H214878   2.594   0.702   3.478
 4979TIP3   OH214879   2.404   7.121   0.501
 4979TIP3    H114880   2.379   7.076   0.582
 4979TIP3    H214881   2.431   7.208   0.530
 4980TIP3   OH214882   0.552   6.415   4.562
 4980TIP3    H114883   0.588   6.333   4.594
 4980TIP3    H214884   0.596   6.483   4.613
 4981TIP3   OH214885   1.603   7.061   4.970
 4981TIP3    H114886   1.643   7.103   4.894
 4981TIP3    H214887   1.547   7.128   5.008
 4982TIP3   OH214888   5.772   6.037   5.131
 4982TIP3    H114889   5.792   5.952   5.171
 4982TIP3    H214890   5.689   6.023   5.085
 4983TIP3   OH214891   2.322   3.031   4.426
 4983TIP3    H114892   2.346   3.103   4.368
 4983TIP3    H214893   2.254   3.067   4.483
 4984TIP3   OH214894   1.748   7.494   6.523
 4984TIP3    H114895   1.676   7.472   6.583
 4984TIP3    H214896   1.710   7.485   6.436
 4985TIP3   OH214897   6.154   2.702   4.928
 4985TIP3    H114898   6.116   2.673   5.011
 4985TIP3    H214899   6.091   2.766   4.894
 4986TIP3   OH214900   2.157   5.551   0.101
 4986TIP3    H114901   2.143   5.631   0.150
 4986TIP3    H214902   2.252   5.538   0.102
 4987TIP3   OH214903   4.796   3.251   0.206
 4987TIP3    H114904   4.706   3.254   0.237
 4987TIP3    H214905   4.846   3.218   0.281
 4988TIP3   OH214906   1.107   5.733   0.131
 4988TIP3    H114907   1.062   5.815   0.111
 4988TIP3    H214908   1.182   5.759   0.183
 4989TIP3   OH214909   4.752   4.988   3.513
 4989TIP3    H114910   4.748   5.048   3.438
 4989TIP3    H214911   4.747   4.901   3.474
 4990TIP3   OH214912   2.114   3.129   3.486
 4990TIP3    H114913   2.062   3.135   3.405
 4990TIP3    H214914   2.050   3.109   3.554
 4991TIP3   OH214915   3.132   5.350   1.903
 4991TIP3    H114916   3.102   5.279   1.846
 4991TIP3    H214917   3.063   5.416   1.895
 4992TIP3   OH214918   6.656   6.701   4.015
 4992TIP3    H114919   6.728   6.748   4.057
 4992TIP3    H214920   6.662   6.612   4.048
 4993TIP3   OH214921   2.521   2.589   0.134
 4993TIP3    H114922   2.492   2.498   0.140
 4993TIP3    H214923   2.440   2.640   0.140
 4994TIP3   OH214924   0.824   7.544   3.754
 4994TIP3    H114925   0.828   7.515   3.845
 4994TIP3    H214926   0.808   7.638   3.760
 4995TIP3   OH214927   3.693   4.252   6.284
 4995TIP3    H114928   3.655   4.340   6.284
 4995TIP3    H214929   3.627   4.198   6.327
 4996TIP3   OH214930   2.891   1.929   5.570
 4996TIP3    H114931   2.869   2.011   5.614
 4996TIP3    H214932   2.841   1.862   5.617
 4997TIP3   OH214933   1.374   2.131   6.325
 4997TIP3    H114934   1.339   2.065   6.265
 4997TIP3    H214935   1.351   2.098   6.412
 4998TIP3   OH214936   7.472   4.058   3.206
 4998TIP3    H114937   7.497   3.991   3.270
 4998TIP3    H214938   7.489   4.018   3.121
 4999TIP3   OH214939   5.720   4.933   2.370
 4999TIP3    H114940   5.673   5.016   2.362
 4999TIP3    H214941   5.694   4.899   2.456
 5000TIP3   OH214942   4.074   4.187   3.701
 5000TIP3    H114943   4.024   4.107   3.681
 5000TIP3    H214944   4.081   4.232   3.617
 5001TIP3   OH214945   3.480   3.904   1.115
 5001TIP3    H114946   3.573   3.899   1.096
 5001TIP3    H214947   3.443   3.955   1.042
 5002TIP3   OH214948   1.630   6.780   2.148
 5002TIP3    H114949   1.622   6.756   2.241
 5002TIP3    H214950   1.707   6.733   2.118
 5003TIP3   OH214951   5.959   7.360   5.926
 5003TIP3    H114952   5.937   7.267   5.927
 5003TIP3    H214953   5.877   7.404   5.949
 5004TIP3   OH214954   7.392   1.376   4.452
 5004TIP3    H114955   7.471   1.328   4.477
 5004TIP3    H214956   7.418   1.425   4.374
 5005TIP3   OH214957   1.102   6.958   0.911
 5005TIP3    H114958   1.151   7.035   0.881
 5005TIP3    H214959   1.024   6.956   0.856
 5006TIP3   OH214960   5.794   6.099   6.078
 5006TIP3    H114961   5.747   6.051   6.010
 5006TIP3    H214962   5.886   6.089   6.055
 5007TIP3   OH214963   8.186   5.682   1.734
 5007TIP3    H114964   8.160   5.716   1.819
 5007TIP3    H214965   8.223   5.595   1.754
 5008TIP3   OH214966   0.030   1.026   6.125
 5008TIP3    H114967  -0.024   1.012   6.203
 5008TIP3    H214968   0.099   1.086   6.154
 5009TIP3   OH214969   6.198   6.310   3.276
 5009TIP3    H114970   6.106   6.334   3.274
 5009TIP3    H214971   6.243   6.382   3.231
 5010TIP3   OH214972   5.157   6.750   3.238
 5010TIP3    H114973   5.221   6.818   3.260
 5010TIP3    H214974   5.097   6.791   3.176
 5011TIP3   OH214975   4.021   5.183   2.119
 5011TIP3    H114976   4.047   5.093   2.140
 5011TIP3    H214977   3.965   5.210   2.192
 5012TIP3   OH214978   2.726   5.190   5.442
 5012TIP3    H114979   2.751   5.271   5.487
 5012TIP3    H214980   2.634   5.178   5.465
 5013TIP3   OH214981   1.996   6.896   4.897
 5013TIP3    H114982   2.081   6.853   4.890
 5013TIP3    H214983   1.937   6.827   4.929
 5014TIP3   OH214984   0.289   0.820   5.697
 5014TIP3    H114985   0.256   0.894   5.645
 5014TIP3    H214986   0.268   0.843   5.787
 5015TIP3   OH214987   4.789   2.666   3.978
 5015TIP3    H114988   4.829   2.752   3.988
 5015TIP3    H214989   4.844   2.621   3.915
 5016TIP3   OH214990   3.815   1.061   0.015
 5016TIP3    H114991   3.808   1.139   0.070
 5016TIP3    H214992   3.832   1.096  -0.073
 5017TIP3   OH214993   0.915   7.138   3.964
 5017TIP3    H114994   0.821   7.159   3.962
 5017TIP3    H214995   0.958   7.223   3.978
 5018TIP3   OH214996   4.325   3.148   0.425
 5018TIP3    H114997   4.404   3.198   0.449
 5018TIP3    H214998   4.357   3.079   0.367
 5019TIP3   OH214999   7.397   3.860   5.585
 5019TIP3    H115000   7.345   3.914   5.525
 5019TIP3    H215001   7.487   3.884   5.567
 5020TIP3   OH215002   2.101   6.442   3.509
 5020TIP3    H115003   2.125   6.532   3.486
 5020TIP3    H215004   2.016   6.451   3.552
 5021TIP3   OH215005   1.548   7.848   4.781
 5021TIP3    H115006   1.543   7.912   4.709
 5021TIP3    H215007   1.567   7.765   4.737
 5022TIP3   OH215008   1.482   6.186   1.562
 5022TIP3    H115009   1.572   6.217   1.568
 5022TIP3    H215010   1.429   6.266   1.567
 5023TIP3   OH215011   6.074   1.382   3.819
 5023TIP3    H115012   6.018   1.314   3.782
 5023TIP3    H215013   6.103   1.433   3.743
 5024TIP3   OH215014   6.669   0.523   0.320
 5024TIP3    H115015   6.761   0.538   0.339
 5024TIP3    H215016   6.665   0.517   0.225
 5025TIP3   OH215017   6.523   3.352   4.924
 5025TIP3    H115018   6.527   3.264   4.884
 5025TIP3    H215019   6.535   3.412   4.850
 5026TIP3   OH215020   1.080   6.584   2.934
 5026TIP3    H115021   1.093   6.671   2.897
 5026TIP3    H215022   1.039   6.601   3.019
 5027TIP3   OH215023   0.175   4.116   6.318
 5027TIP3    H115024   0.160   4.093   6.227
 5027TIP3    H215025   0.213   4.037   6.357
 5028TIP3   OH215026   7.480   7.139   4.341
 5028TIP3    H115027   7.523   7.223   4.330
 5028TIP3    H215028   7.396   7.149   4.296
 5029TIP3   OH215029   6.273   2.544   2.833
 5029TIP3    H115030   6.290   2.504   2.748
 5029TIP3    H215031   6.355   2.535   2.881
 5030TIP3   OH215032   0.096   5.252   4.897
 5030TIP3    H115033   0.184   5.247   4.862
 5030TIP3    H215034   0.089   5.340   4.934
 5031TIP3   OH215035   3.641   2.145   3.511
 5031TIP3    H115036   3.709   2.133   3.576
 5031TIP3    H215037   3.687   2.142   3.427
 5032TIP3   OH215038   4.163   0.498   3.013
 5032TIP3    H115039   4.258   0.504   3.010
 5032TIP3    H215040   4.144   0.406   2.995
 5033TIP3   OH215041   6.167   2.568   5.333
 5033TIP3    H115042   6.259   2.576   5.306
 5033TIP3    H215043   6.139   2.658   5.352
 5034TIP3   OH215044   0.871   6.956   4.332
 5034TIP3    H115045   0.862   6.864   4.358
 5034TIP3    H215046   0.813   7.003   4.391
 5035TIP3   OH215047   0.187   6.971   3.791
 5035TIP3    H115048   0.117   7.034   3.776
 5035TIP3    H215049   0.249   6.986   3.720
 5036TIP3   OH215050   0.651   5.249   4.092
 5036TIP3    H115051   0.716   5.274   4.026
 5036TIP3    H215052   0.699   5.196   4.155
 5037TIP3   OH215053   5.851   3.194   3.635
 5037TIP3    H115054   5.839   3.204   3.540
 5037TIP3    H215055   5.776   3.240   3.673
 5038TIP3   OH215056   2.417   3.761   3.725
 5038TIP3    H115057   2.378   3.682   3.689
 5038TIP3    H215058   2.462   3.732   3.805
 5039TIP3   OH215059   7.945   3.511   5.829
 5039TIP3    H115060   7.858   3.498   5.865
 5039TIP3    H215061   7.931   3.528   5.736
 5040TIP3   OH215062   4.227   6.146   2.571
 5040TIP3    H115063   4.239   6.130   2.477
 5040TIP3    H215064   4.214   6.241   2.577
 5041TIP3   OH215065   1.913   2.897   3.618
 5041TIP3    H115066   1.846   2.835   3.647
 5041TIP3    H215067   1.896   2.910   3.525
 5042TIP3   OH215068   2.536   6.866   4.080
 5042TIP3    H115069   2.476   6.883   4.008
 5042TIP3    H215070   2.525   6.941   4.139
 5043TIP3   OH215071   7.939   1.440   4.717
 5043TIP3    H115072   7.875   1.484   4.661
 5043TIP3    H215073   7.888   1.412   4.793
 5044TIP3   OH215074   3.260   3.929   4.526
 5044TIP3    H115075   3.319   3.938   4.601
 5044TIP3    H215076   3.310   3.877   4.463
 5045TIP3   OH215077   6.932   5.019   5.651
 5045TIP3    H115078   7.021   5.021   5.617
 5045TIP3    H215079   6.940   5.047   5.742
 5046TIP3   OH215080   2.169   4.498   5.838
 5046TIP3    H115081   2.197   4.566   5.777
 5046TIP3    H215082   2.249   4.473   5.884
 5047TIP3   OH215083   3.135   5.031   4.980
 5047TIP3    H115084   3.156   5.064   5.067
 5047TIP3    H215085   3.211   5.053   4.926
 5048TIP3   OH215086   4.387   5.593   2.681
 5048TIP3    H115087   4.297   5.564   2.663
 5048TIP3    H215088   4.442   5.521   2.651
 5049TIP3   OH215089   4.400   5.588   0.088
 5049TIP3    H115090   4.487   5.600   0.050
 5049TIP3    H215091   4.349   5.548   0.018
 5050TIP3   OH215092   4.462   5.854   2.149
 5050TIP3    H115093   4.447   5.885   2.060
 5050TIP3    H215094   4.516   5.775   2.137
 5051TIP3   OH215095   5.610   3.279   3.015
 5051TIP3    H115096   5.600   3.369   3.047
 5051TIP3    H215097   5.521   3.244   3.014
 5052TIP3   OH215098   1.356   5.030   1.467
 5052TIP3    H115099   1.262   5.045   1.470
 5052TIP3    H215100   1.394   5.101   1.518
 5053TIP3   OH215101   7.063   2.709   0.912
 5053TIP3    H115102   6.983   2.670   0.948
 5053TIP3    H215103   7.032   2.772   0.847
 5054TIP3   OH215104   7.078   5.659   0.993
 5054TIP3    H115105   7.019   5.617   1.055
 5054TIP3    H215106   7.072   5.752   1.015
 5055TIP3   OH215107   2.874   6.324   2.430
 5055TIP3    H115108   2.937   6.395   2.443
 5055TIP3    H215109   2.790   6.362   2.454
 5056TIP3   OH215110   3.378   1.630   5.567
 5056TIP3    H115111   3.434   1.706   5.587
 5056TIP3    H215112   3.364   1.634   5.473
 5057TIP3   OH215113   4.294   3.980   5.513
 5057TIP3    H115114   4.232   4.029   5.567
 5057TIP3    H215115   4.379   4.000   5.552
 5058TIP3   OH215116   0.360   7.694   1.766
 5058TIP3    H115117   0.370   7.779   1.809
 5058TIP3    H215118   0.381   7.630   1.834
 5059TIP3   OH215119   1.659   6.500   0.740
 5059TIP3    H115120   1.637   6.564   0.808
 5059TIP3    H215121   1.675   6.552   0.662
 5060TIP3   OH215122   2.486   3.692   1.320
 5060TIP3    H115123   2.561   3.670   1.265
 5060TIP3    H215124   2.478   3.787   1.314
 5061TIP3   OH215125   3.281   3.220   5.611
 5061TIP3    H115126   3.301   3.147   5.553
 5061TIP3    H215127   3.288   3.183   5.699
 5062TIP3   OH215128   6.737   7.091   4.021
 5062TIP3    H115129   6.789   7.033   4.077
 5062TIP3    H215130   6.646   7.071   4.044
 5063TIP3   OH215131   6.275   3.177   4.800
 5063TIP3    H115132   6.201   3.173   4.740
 5063TIP3    H215133   6.317   3.261   4.782
 5064TIP3   OH215134   2.198   7.378   3.551
 5064TIP3    H115135   2.108   7.391   3.522
 5064TIP3    H215136   2.240   7.329   3.481
 5065TIP3   OH215137   5.449   7.371   2.680
 5065TIP3    H115138   5.390   7.347   2.752
 5065TIP3    H215139   5.529   7.322   2.697
 5066TIP3   OH215140   7.821   0.630   2.448
 5066TIP3    H115141   7.896   0.662   2.398
 5066TIP3    H215142   7.845   0.643   2.539
 5067TIP3   OH215143   0.875   3.892   3.107
 5067TIP3    H115144   0.921   3.891   3.023
 5067TIP3    H215145   0.944   3.874   3.171
 5068TIP3   OH215146   2.330   2.419   5.009
 5068TIP3    H115147   2.319   2.457   5.096
 5068TIP3    H215148   2.366   2.331   5.025
 5069TIP3   OH215149   0.416   0.647   1.603
 5069TIP3    H115150   0.477   0.720   1.591
 5069TIP3    H215151   0.357   0.677   1.673
 5070TIP3   OH215152   5.489   6.430   3.825
 5070TIP3    H115153   5.489   6.337   3.846
 5070TIP3    H215154   5.572   6.444   3.779
 5071TIP3   OH215155   3.669   3.613   2.825
 5071TIP3    H115156   3.698   3.678   2.889
 5071TIP3    H215157   3.593   3.653   2.783
 5072TIP3   OH215158   3.381   7.545   1.499
 5072TIP3    H115159   3.435   7.614   1.538
 5072TIP3    H215160   3.306   7.537   1.559
 5073TIP3   OH215161   6.553   5.670   5.874
 5073TIP3    H115162   6.510   5.592   5.838
 5073TIP3    H215163   6.494   5.742   5.852
 5074TIP3   OH215164   5.220   4.352   0.735
 5074TIP3    H115165   5.297   4.392   0.776
 5074TIP3    H215166   5.147   4.403   0.770
 5075TIP3   OH215167   8.075   1.046   5.166
 5075TIP3    H115168   8.126   0.994   5.228
 5075TIP3    H215169   8.026   0.981   5.115
 5076TIP3   OH215170   2.692   2.232   4.487
 5076TIP3    H115171   2.780   2.270   4.494
 5076TIP3    H215172   2.707   2.140   4.466
 5077TIP3   OH215173   2.699   2.653   1.624
 5077TIP3    H115174   2.669   2.744   1.616
 5077TIP3    H215175   2.751   2.652   1.704
 5078TIP3   OH215176   7.515   0.474   1.758
 5078TIP3    H115177   7.482   0.542   1.817
 5078TIP3    H215178   7.443   0.457   1.698
 5079TIP3   OH215179   2.076   6.506   3.186
 5079TIP3    H115180   2.148   6.466   3.236
 5079TIP3    H215181   2.110   6.512   3.097
 5080TIP3   OH215182   0.750   1.236   2.803
 5080TIP3    H115183   0.780   1.262   2.716
 5080TIP3    H215184   0.655   1.245   2.799
 5081TIP3   OH215185   4.065   4.897   0.601
 5081TIP3    H115186   3.997   4.964   0.592
 5081TIP3    H215187   4.135   4.926   0.543
 5082TIP3   OH215188   3.274   2.081   1.433
 5082TIP3    H115189   3.250   2.162   1.387
 5082TIP3    H215190   3.233   2.088   1.519
 5083TIP3   OH215191   0.917   3.868   0.683
 5083TIP3    H115192   0.874   3.933   0.739
 5083TIP3    H215193   0.956   3.806   0.744
 5084TIP3   OH215194   6.451   1.329   0.015
 5084TIP3    H115195   6.460   1.412  -0.032
 5084TIP3    H215196   6.541   1.306   0.040
 5085TIP3   OH215197   8.218   5.105   0.863
 5085TIP3    H115198   8.159   5.148   0.801
 5085TIP3    H215199   8.232   5.170   0.932
 5086TIP3   OH215200   2.142   0.033   5.550
 5086TIP3    H115201   2.066   0.063   5.600
 5086TIP3    H215202   2.126   0.066   5.461
 5087TIP3   OH215203   2.109   6.667   3.726
 5087TIP3    H115204   2.108   6.722   3.648
 5087TIP3    H215205   2.058   6.715   3.790
 5088TIP3   OH215206   5.727   2.069   1.065
 5088TIP3    H115207   5.670   2.140   1.036
 5088TIP3    H215208   5.722   2.004   0.994
 5089TIP3   OH215209   6.741   2.168   2.452
 5089TIP3    H115210   6.810   2.202   2.395
 5089TIP3    H215211   6.748   2.220   2.532
 5090TIP3   OH215212   2.026   5.050   4.445
 5090TIP3    H115213   2.020   4.955   4.447
 5090TIP3    H215214   1.956   5.078   4.386
 5091TIP3   OH215215   1.840   0.061   6.494
 5091TIP3    H115216   1.843   0.156   6.502
 5091TIP3    H215217   1.869   0.029   6.580
 5092TIP3   OH215218   5.446   6.194   0.514
 5092TIP3    H115219   5.416   6.134   0.446
 5092TIP3    H215220   5.377   6.190   0.580
 5093TIP3   OH215221   5.119   5.482   6.402
 5093TIP3    H115222   5.183   5.501   6.333
 5093TIP3    H215223   5.099   5.390   6.392
 5094TIP3   OH215224   0.995   1.360   4.227
 5094TIP3    H115225   1.004   1.270   4.258
 5094TIP3    H215226   0.998   1.414   4.306
 5095TIP3   OH215227   7.342   2.029   6.737
 5095TIP3    H115228   7.383   2.112   6.762
 5095TIP3    H215229   7.368   2.016   6.646
 5096TIP3   OH215230   0.982   5.126   2.863
 5096TIP3    H115231   1.061   5.155   2.817
 5096TIP3    H215232   0.957   5.201   2.917
 5097TIP3   OH215233   1.568   5.573   0.869
 5097TIP3    H115234   1.491   5.624   0.841
 5097TIP3    H215235   1.609   5.546   0.787
 5098TIP3   OH215236   4.702   0.198   0.882
 5098TIP3    H115237   4.770   0.261   0.905
 5098TIP3    H215238   4.631   0.251   0.844
 5099TIP3   OH215239   0.766   6.124   4.409
 5099TIP3    H115240   0.800   6.213   4.400
 5099TIP3    H215241   0.729   6.104   4.323
 5100TIP3   OH215242   6.225   0.557   1.486
 5100TIP3    H115243   6.208   0.534   1.578
 5100TIP3    H215244   6.147   0.604   1.458
 5101TIP3   OH215245   2.880   7.735   1.034
 5101TIP3    H115246   2.957   7.691   1.070
 5101TIP3    H215247   2.851   7.794   1.104
 5102TIP3   OH215248   3.963   1.292   5.883
 5102TIP3    H115249   3.909   1.318   5.808
 5102TIP3    H215250   3.902   1.285   5.956
 5103TIP3   OH215251   0.989   4.158   1.614
 5103TIP3    H115252   0.907   4.125   1.576
 5103TIP3    H215253   1.028   4.211   1.545
 5104TIP3   OH215254   0.124   5.573   4.917
 5104TIP3    H115255   0.203   5.569   4.863
 5104TIP3    H215256   0.089   5.660   4.901
 5105TIP3   OH215257   3.803   7.037   0.986
 5105TIP3    H115258   3.716   6.998   0.984
 5105TIP3    H215259   3.810   7.086   0.904
 5106TIP3   OH215260   1.000   5.177   1.817
 5106TIP3    H115261   0.926   5.120   1.834
 5106TIP3    H215262   1.053   5.172   1.897
 5107TIP3   OH215263   1.012   3.102   1.511
 5107TIP3    H115264   1.104   3.111   1.538
 5107TIP3    H215265   0.969   3.178   1.550
 5108TIP3   OH215266   0.515   1.062   5.629
 5108TIP3    H115267   0.546   0.972   5.620
 5108TIP3    H215268   0.494   1.071   5.722
 5109TIP3   OH215269   5.012   4.310   6.757
 5109TIP3    H115270   5.019   4.278   6.846
 5109TIP3    H215271   5.001   4.231   6.704
 5110TIP3   OH215272   4.948   4.556   3.087
 5110TIP3    H115273   4.927   4.555   2.993
 5110TIP3    H215274   5.043   4.561   3.090
 5111TIP3   OH215275   7.410   5.649   2.196
 5111TIP3    H115276   7.476   5.583   2.217
 5111TIP3    H215277   7.331   5.621   2.241
 5112TIP3   OH215278   3.650   3.239   3.058
 5112TIP3    H115279   3.658   3.185   2.980
 5112TIP3    H215280   3.574   3.203   3.104
 5113TIP3   OH215281   7.472   4.781   1.369
 5113TIP3    H115282   7.461   4.738   1.284
 5113TIP3    H215283   7.426   4.725   1.431
 5114TIP3   OH215284   5.403   4.389   2.466
 5114TIP3    H115285   5.318   4.426   2.488
 5114TIP3    H215286   5.431   4.438   2.388
 5115TIP3   OH215287   3.839   7.207   0.726
 5115TIP3    H115288   3.890   7.235   0.801
 5115TIP3    H215289   3.785   7.283   0.703
 5116TIP3   OH215290   6.801   0.851   2.000
 5116TIP3    H115291   6.787   0.779   2.062
 5116TIP3    H215292   6.768   0.928   2.046
 5117TIP3   OH215293   6.294   2.439   2.569
 5117TIP3    H115294   6.215   2.446   2.516
 5117TIP3    H215295   6.322   2.348   2.559
 5118TIP3   OH215296   5.613   6.179   5.302
 5118TIP3    H115297   5.536   6.123   5.302
 5118TIP3    H215298   5.681   6.125   5.261
 5119TIP3   OH215299   7.576   0.562   2.251
 5119TIP3    H115300   7.619   0.531   2.331
 5119TIP3    H215301   7.643   0.553   2.183
 5120TIP3   OH215302   0.651   0.106   2.339
 5120TIP3    H115303   0.571   0.059   2.316
 5120TIP3    H215304   0.715   0.038   2.360
 5121TIP3   OH215305   7.931   2.809   5.031
 5121TIP3    H115306   7.836   2.812   5.025
 5121TIP3    H215307   7.950   2.821   5.124
 5122TIP3   OH215308   5.581   6.530   0.089
 5122TIP3    H115309   5.627   6.593   0.033
 5122TIP3    H215310   5.648   6.469   0.118
 5123TIP3   OH215311   5.972   2.488   1.715
 5123TIP3    H115312   5.905   2.444   1.767
 5123TIP3    H215313   5.937   2.576   1.701
 5124TIP3   OH215314   3.885   4.506   4.000
 5124TIP3    H115315   3.815   4.524   4.063
 5124TIP3    H215316   3.910   4.416   4.018
 5125TIP3   OH215317   8.159   0.404   0.819
 5125TIP3    H115318   8.225   0.386   0.752
 5125TIP3    H215319   8.078   0.418   0.770
 5126TIP3   OH215320   7.956   5.815   1.047
 5126TIP3    H115321   7.939   5.894   0.997
 5126TIP3    H215322   7.929   5.744   0.989
 5127TIP3   OH215323   1.466   3.960   1.628
 5127TIP3    H115324   1.505   4.009   1.701
 5127TIP3    H215325   1.372   3.961   1.646
 5128TIP3   OH215326   8.078   0.793   1.393
 5128TIP3    H115327   7.990   0.772   1.362
 5128TIP3    H215328   8.080   0.889   1.397
 5129TIP3   OH215329   1.829   2.616   2.501
 5129TIP3    H115330   1.866   2.699   2.530
 5129TIP3    H215331   1.757   2.640   2.443
 5130TIP3   OH215332   0.234   0.434   3.580
 5130TIP3    H115333   0.154   0.475   3.547
 5130TIP3    H215334   0.208   0.344   3.600
 5131TIP3   OH215335   6.656   4.565   2.036
 5131TIP3    H115336   6.735   4.514   2.015
 5131TIP3    H215337   6.628   4.532   2.121
 5132TIP3   OH215338   5.946   5.280   5.146
 5132TIP3    H115339   5.951   5.187   5.124
 5132TIP3    H215340   5.905   5.282   5.232
 5133TIP3   OH215341   2.423   0.626   1.843
 5133TIP3    H115342   2.361   0.658   1.908
 5133TIP3    H215343   2.375   0.558   1.796
 5134TIP3   OH215344   2.345   1.110   1.224
 5134TIP3    H115345   2.317   1.108   1.316
 5134TIP3    H215346   2.431   1.152   1.226
 5135TIP3   OH215347   2.526   0.215   3.984
 5135TIP3    H115348   2.456   0.197   4.047
 5135TIP3    H215349   2.509   0.304   3.954
 5136TIP3   OH215350   2.222   1.822   0.991
 5136TIP3    H115351   2.195   1.789   0.905
 5136TIP3    H215352   2.184   1.760   1.053
 5137TIP3   OH215353   6.965   5.653   5.200
 5137TIP3    H115354   6.894   5.616   5.254
 5137TIP3    H215355   7.045   5.614   5.237
 5138TIP3   OH215356   7.392   0.064   5.707
 5138TIP3    H115357   7.323   0.128   5.725
 5138TIP3    H215358   7.346  -0.019   5.697
 5139TIP3   OH215359   2.838   2.668   2.165
 5139TIP3    H115360   2.882   2.584   2.179
 5139TIP3    H215361   2.791   2.685   2.247
 5140TIP3   OH215362   0.994   6.471   3.710
 5140TIP3    H115363   1.056   6.537   3.678
 5140TIP3    H215364   0.916   6.521   3.733
 5141TIP3   OH215365   4.959   0.930   0.684
 5141TIP3    H115366   4.901   0.988   0.635
 5141TIP3    H215367   4.938   0.946   0.776
 5142TIP3   OH215368   2.775   3.104   5.381
 5142TIP3    H115369   2.709   3.036   5.392
 5142TIP3    H215370   2.832   3.094   5.457
 5143TIP3   OH215371   1.451   4.856   5.401
 5143TIP3    H115372   1.438   4.777   5.454
 5143TIP3    H215373   1.511   4.829   5.332
 5144TIP3   OH215374   3.474   2.567   4.208
 5144TIP3    H115375   3.389   2.569   4.252
 5144TIP3    H215376   3.455   2.590   4.117
 5145TIP3   OH215377   6.778   3.613   5.727
 5145TIP3    H115378   6.832   3.560   5.786
 5145TIP3    H215379   6.785   3.702   5.760
 5146TIP3   OH215380   5.878   3.465   5.320
 5146TIP3    H115381   5.944   3.396   5.312
 5146TIP3    H215382   5.820   3.436   5.390
 5147TIP3   OH215383   3.267   2.135   4.997
 5147TIP3    H115384   3.261   2.083   5.077
 5147TIP3    H215385   3.177   2.141   4.966
 5148TIP3   OH215386   1.336   1.001   5.551
 5148TIP3    H115387   1.333   0.939   5.477
 5148TIP3    H215388   1.245   1.009   5.580
 5149TIP3   OH215389   2.180   6.719   0.272
 5149TIP3    H115390   2.265   6.733   0.232
 5149TIP3    H215391   2.170   6.791   0.334
 5150TIP3   OH215392   2.531   4.698   6.034
 5150TIP3    H115393   2.595   4.762   6.001
 5150TIP3    H215394   2.576   4.656   6.108
 5151TIP3   OH215395   3.668   5.973   0.000
 5151TIP3    H115396   3.714   6.052  -0.027
 5151TIP3    H215397   3.728   5.929   0.060
 5152TIP3   OH215398   2.677   7.443   6.346
 5152TIP3    H115399   2.697   7.367   6.292
 5152TIP3    H215400   2.582   7.440   6.356
 5153TIP3   OH215401   4.698   7.028   4.521
 5153TIP3    H115402   4.612   6.989   4.500
 5153TIP3    H215403   4.751   6.953   4.550
 5154TIP3   OH215404   0.330   6.587   5.118
 5154TIP3    H115405   0.386   6.654   5.077
 5154TIP3    H215406   0.241   6.616   5.099
 5155TIP3   OH215407   2.963   4.685   1.765
 5155TIP3    H115408   3.031   4.673   1.832
 5155TIP3    H215409   3.001   4.647   1.685
 5156TIP3   OH215410   3.620   2.874   1.733
 5156TIP3    H115411   3.573   2.953   1.706
 5156TIP3    H215412   3.603   2.810   1.664
 5157TIP3   OH215413   8.096   6.924   1.625
 5157TIP3    H115414   8.069   6.876   1.703
 5157TIP3    H215415   8.021   6.916   1.565
 5158TIP3   OH215416   6.122   7.206   5.337
 5158TIP3    H115417   6.186   7.150   5.380
 5158TIP3    H215418   6.107   7.164   5.252
 5159TIP3   OH215419   6.105   0.732   4.333
 5159TIP3    H115420   6.109   0.698   4.243
 5159TIP3    H215421   6.172   0.682   4.380
 5160TIP3   OH215422   2.656   5.439   0.143
 5160TIP3    H115423   2.693   5.390   0.069
 5160TIP3    H215424   2.670   5.380   0.218
 5161TIP3   OH215425   6.446   7.185   0.456
 5161TIP3    H115426   6.498   7.257   0.490
 5161TIP3    H215427   6.508   7.113   0.446
 5162TIP3   OH215428   3.332   0.336   6.015
 5162TIP3    H115429   3.300   0.421   5.986
 5162TIP3    H215430   3.418   0.327   5.975
 5163TIP3   OH215431   4.114   0.870   5.643
 5163TIP3    H115432   4.028   0.899   5.675
 5163TIP3    H215433   4.164   0.853   5.723
 5164TIP3   OH215434   0.581   3.577   3.980
 5164TIP3    H115435   0.544   3.546   3.897
 5164TIP3    H215436   0.664   3.531   3.988
 5165TIP3   OH215437   5.770   7.770   3.129
 5165TIP3    H115438   5.742   7.680   3.143
 5165TIP3    H215439   5.813   7.794   3.211
 5166TIP3   OH215440   0.151   5.051   5.543
 5166TIP3    H115441   0.232   5.009   5.512
 5166TIP3    H215442   0.089   5.039   5.471
 5167TIP3   OH215443   2.773   2.677   0.939
 5167TIP3    H115444   2.710   2.651   0.872
 5167TIP3    H215445   2.843   2.613   0.933
 5168TIP3   OH215446   1.271   1.507   2.093
 5168TIP3    H115447   1.315   1.529   2.175
 5168TIP3    H215448   1.202   1.573   2.083
 5169TIP3   OH215449   1.969   2.809   0.635
 5169TIP3    H115450   1.984   2.821   0.542
 5169TIP3    H215451   1.944   2.896   0.667
 5170TIP3   OH215452   6.373   4.292   2.131
 5170TIP3    H115453   6.320   4.369   2.151
 5170TIP3    H215454   6.317   4.217   2.150
 5171TIP3   OH215455   1.421   0.658   2.472
 5171TIP3    H115456   1.341   0.682   2.426
 5171TIP3    H215457   1.442   0.570   2.440
 5172TIP3   OH215458   5.180   4.534   0.071
 5172TIP3    H115459   5.148   4.623   0.057
 5172TIP3    H215460   5.234   4.516  -0.006
 5173TIP3   OH215461   5.771   5.353   2.799
 5173TIP3    H115462   5.814   5.338   2.715
 5173TIP3    H215463   5.698   5.291   2.799
 5174TIP3   OH215464   1.548   3.692   4.287
 5174TIP3    H115465   1.526   3.714   4.197
 5174TIP3    H215466   1.504   3.759   4.340
 5175TIP3   OH215467   0.315   3.885   0.790
 5175TIP3    H115468   0.332   3.947   0.719
 5175TIP3    H215469   0.339   3.933   0.869
 5176TIP3   OH215470   7.500   5.674   5.558
 5176TIP3    H115471   7.547   5.669   5.475
 5176TIP3    H215472   7.566   5.654   5.625
 5177TIP3   OH215473   5.844   7.195   4.024
 5177TIP3    H115474   5.891   7.253   4.084
 5177TIP3    H215475   5.820   7.120   4.078
 5178TIP3   OH215476   8.254   4.665   1.596
 5178TIP3    H115477   8.204   4.710   1.528
 5178TIP3    H215478   8.337   4.642   1.553
 5179TIP3   OH215479   5.547   4.522   2.690
 5179TIP3    H115480   5.506   4.596   2.645
 5179TIP3    H215481   5.498   4.445   2.661
 5180TIP3   OH215482   3.709   1.147   4.624
 5180TIP3    H115483   3.652   1.078   4.660
 5180TIP3    H215484   3.790   1.101   4.602
 5181TIP3   OH215485   5.684   4.063   6.056
 5181TIP3    H115486   5.734   4.008   5.996
 5181TIP3    H215487   5.705   4.029   6.143
 5182TIP3   OH215488   2.266   6.078   3.824
 5182TIP3    H115489   2.315   6.141   3.770
 5182TIP3    H215490   2.185   6.063   3.775
 5183TIP3   OH215491   4.925   3.706   6.705
 5183TIP3    H115492   4.931   3.656   6.624
 5183TIP3    H215493   4.845   3.758   6.696
 5184TIP3   OH215494   0.135   6.363   5.445
 5184TIP3    H115495   0.140   6.398   5.534
 5184TIP3    H215496   0.179   6.279   5.449
 5185TIP3   OH215497   5.673   3.818   6.219
 5185TIP3    H115498   5.763   3.824   6.253
 5185TIP3    H215499   5.618   3.835   6.295
 5186TIP3   OH215500   2.602   3.568   2.331
 5186TIP3    H115501   2.696   3.570   2.349
 5186TIP3    H215502   2.595   3.544   2.238
 5187TIP3   OH215503   3.406   3.075   0.845
 5187TIP3    H115504   3.395   3.005   0.781
 5187TIP3    H215505   3.419   3.029   0.928
 5188TIP3   OH215506   1.007   1.490   2.601
 5188TIP3    H115507   0.983   1.403   2.571
 5188TIP3    H215508   0.965   1.500   2.686
 5189TIP3   OH215509   0.405   4.751   0.162
 5189TIP3    H115510   0.384   4.794   0.079
 5189TIP3    H215511   0.355   4.670   0.161
 5190TIP3   OH215512   7.535   6.723   3.003
 5190TIP3    H115513   7.449   6.730   3.044
 5190TIP3    H215514   7.555   6.812   2.975
 5191TIP3   OH215515   7.734   7.593   6.520
 5191TIP3    H115516   7.791   7.531   6.475
 5191TIP3    H215517   7.768   7.679   6.497
 5192TIP3   OH215518   3.304   3.645   3.907
 5192TIP3    H115519   3.242   3.706   3.867
 5192TIP3    H215520   3.250   3.587   3.961
 5193TIP3   OH215521   4.178   3.954   2.497
 5193TIP3    H115522   4.103   4.013   2.494
 5193TIP3    H215523   4.249   4.003   2.455
 5194TIP3   OH215524   0.018   0.792   1.832
 5194TIP3    H115525   0.004   0.815   1.740
 5194TIP3    H215526  -0.026   0.862   1.881
 5195TIP3   OH215527   7.348   1.238   2.795
 5195TIP3    H115528   7.284   1.258   2.726
 5195TIP3    H215529   7.296   1.237   2.875
 5196TIP3   OH215530   6.557   3.187   0.738
 5196TIP3    H115531   6.563   3.280   0.716
 5196TIP3    H215532   6.474   3.158   0.700
 5197TIP3   OH215533   3.510   0.143   0.613
 5197TIP3    H115534   3.455   0.172   0.686
 5197TIP3    H215535   3.587   0.105   0.654
 5198TIP3   OH215536   3.870   6.117   0.856
 5198TIP3    H115537   3.860   6.209   0.835
 5198TIP3    H215538   3.932   6.084   0.790
 5199TIP3   OH215539   3.786   1.826   0.973
 5199TIP3    H115540   3.752   1.882   1.043
 5199TIP3    H215541   3.741   1.743   0.984
 5200TIP3   OH215542   2.651   6.573   3.945
 5200TIP3    H115543   2.607   6.566   4.029
 5200TIP3    H215544   2.580   6.571   3.880
 5201TIP3   OH215545   7.573   3.371  -0.012
 5201TIP3    H115546   7.642   3.380   0.053
 5201TIP3    H215547   7.507   3.436   0.012
 5202TIP3   OH215548   5.498   6.828   2.528
 5202TIP3    H115549   5.492   6.764   2.458
 5202TIP3    H215550   5.476   6.779   2.608
 5203TIP3   OH215551   3.109   1.898   3.800
 5203TIP3    H115552   3.063   1.851   3.869
 5203TIP3    H215553   3.174   1.951   3.847
 5204TIP3   OH215554   1.201   0.143   1.532
 5204TIP3    H115555   1.110   0.141   1.503
 5204TIP3    H215556   1.253   0.150   1.452
 5205TIP3   OH215557   2.939   7.030   4.447
 5205TIP3    H115558   2.973   7.013   4.359
 5205TIP3    H215559   3.007   6.997   4.505
 5206TIP3   OH215560   4.826   2.616   5.336
 5206TIP3    H115561   4.744   2.624   5.287
 5206TIP3    H215562   4.808   2.547   5.400
 5207TIP3   OH215563   0.007   6.604   0.382
 5207TIP3    H115564  -0.061   6.658   0.342
 5207TIP3    H215565   0.044   6.553   0.309
 5208TIP3   OH215566   1.942   5.064   5.314
 5208TIP3    H115567   1.870   5.125   5.300
 5208TIP3    H215568   1.901   4.978   5.309
 5209TIP3   OH215569   6.439   2.804   2.294
 5209TIP3    H115570   6.402   2.761   2.371
 5209TIP3    H215571   6.421   2.743   2.222
 5210TIP3   OH215572   2.586   5.878   0.572
 5210TIP3    H115573   2.552   5.826   0.644
 5210TIP3    H215574   2.658   5.825   0.537
 5211TIP3   OH215575   1.214   3.946   5.029
 5211TIP3    H115576   1.229   4.041   5.028
 5211TIP3    H215577   1.148   3.933   5.097
 5212TIP3   OH215578   7.235   5.738   5.488
 5212TIP3    H115579   7.328   5.741   5.510
 5212TIP3    H215580   7.227   5.663   5.430
 5213TIP3   OH215581   2.558   1.689   3.052
 5213TIP3    H115582   2.516   1.638   3.121
 5213TIP3    H215583   2.548   1.637   2.973
 5214TIP3   OH215584   0.730   2.519   3.535
 5214TIP3    H115585   0.648   2.528   3.485
 5214TIP3    H215586   0.736   2.601   3.584
 5215TIP3   OH215587   6.647   2.935   4.770
 5215TIP3    H115588   6.687   3.005   4.718
 5215TIP3    H215589   6.584   2.979   4.827
 5216TIP3   OH215590   5.375   1.110   6.192
 5216TIP3    H115591   5.298   1.107   6.248
 5216TIP3    H215592   5.354   1.177   6.126
 5217TIP3   OH215593   1.692   2.503   5.414
 5217TIP3    H115594   1.618   2.560   5.436
 5217TIP3    H215595   1.749   2.507   5.491
 5218TIP3   OH215596   3.098   5.268   1.608
 5218TIP3    H115597   3.191   5.257   1.592
 5218TIP3    H215598   3.072   5.344   1.557
 5219TIP3   OH215599   8.182   5.917   4.737
 5219TIP3    H115600   8.225   6.003   4.738
 5219TIP3    H215601   8.102   5.932   4.686
 5220TIP3   OH215602   6.071   0.653   3.688
 5220TIP3    H115603   6.092   0.562   3.666
 5220TIP3    H215604   6.042   0.649   3.780
 5221TIP3   OH215605   6.443   1.992   6.507
 5221TIP3    H115606   6.523   1.941   6.518
 5221TIP3    H215607   6.421   1.984   6.415
 5222TIP3   OH215608   8.088   4.723   3.038
 5222TIP3    H115609   8.126   4.680   3.115
 5222TIP3    H215610   8.037   4.656   2.995
 5223TIP3   OH215611   6.655   6.132   1.274
 5223TIP3    H115612   6.639   6.049   1.318
 5223TIP3    H215613   6.696   6.108   1.191
 5224TIP3   OH215614   3.664   2.120   0.801
 5224TIP3    H115615   3.719   2.187   0.843
 5224TIP3    H215616   3.694   2.118   0.710
 5225TIP3   OH215617   6.483   0.029   5.929
 5225TIP3    H115618   6.403   0.054   5.976
 5225TIP3    H215619   6.486  -0.067   5.937
 5226TIP3   OH215620   7.354   1.440   2.201
 5226TIP3    H115621   7.350   1.495   2.122
 5226TIP3    H215622   7.275   1.385   2.195
 5227TIP3   OH215623   0.740   6.896   2.797
 5227TIP3    H115624   0.731   6.940   2.882
 5227TIP3    H215625   0.671   6.829   2.797
 5228TIP3   OH215626   7.243   5.023   6.834
 5228TIP3    H115627   7.294   5.100   6.809
 5228TIP3    H215628   7.205   5.045   6.919
 5229TIP3   OH215629   0.029   4.894   4.136
 5229TIP3    H115630   0.024   4.893   4.232
 5229TIP3    H215631   0.114   4.934   4.117
 5230TIP3   OH215632   5.208   4.478   4.845
 5230TIP3    H115633   5.209   4.382   4.846
 5230TIP3    H215634   5.267   4.502   4.773
 5231TIP3   OH215635   7.730   3.789   6.018
 5231TIP3    H115636   7.799   3.798   6.083
 5231TIP3    H215637   7.650   3.775   6.069
 5232TIP3   OH215638   4.124   3.668   4.239
 5232TIP3    H115639   4.104   3.576   4.222
 5232TIP3    H215640   4.167   3.699   4.159
 5233TIP3   OH215641   0.501   1.017   4.090
 5233TIP3    H115642   0.545   1.101   4.075
 5233TIP3    H215643   0.558   0.952   4.047
 5234TIP3   OH215644   6.610   3.759   1.263
 5234TIP3    H115645   6.638   3.765   1.171
 5234TIP3    H215646   6.515   3.754   1.259
 5235TIP3   OH215647   1.051   0.466   5.915
 5235TIP3    H115648   1.005   0.389   5.881
 5235TIP3    H215649   1.140   0.435   5.932
 5236TIP3   OH215650   3.753   5.722   4.693
 5236TIP3    H115651   3.712   5.682   4.616
 5236TIP3    H215652   3.786   5.648   4.744
 5237TIP3   OH215653   1.361   5.780   3.915
 5237TIP3    H115654   1.369   5.804   3.822
 5237TIP3    H215655   1.290   5.835   3.948
 5238TIP3   OH215656   2.686   0.018   4.573
 5238TIP3    H115657   2.758  -0.044   4.584
 5238TIP3    H215658   2.721   0.102   4.602
 5239TIP3   OH215659   4.279   5.067   2.906
 5239TIP3    H115660   4.195   5.087   2.866
 5239TIP3    H215661   4.313   5.151   2.936
 5240TIP3   OH215662   0.124   4.820   5.727
 5240TIP3    H115663   0.107   4.789   5.816
 5240TIP3    H215664   0.178   4.898   5.739
 5241TIP3   OH215665   3.859   1.372   6.695
 5241TIP3    H115666   3.841   1.408   6.781
 5241TIP3    H215667   3.951   1.394   6.678
 5242TIP3   OH215668   7.879   0.935   5.794
 5242TIP3    H115669   7.962   0.929   5.840
 5242TIP3    H215670   7.887   1.015   5.741
 5243TIP3   OH215671   2.748   0.211   2.214
 5243TIP3    H115672   2.816   0.177   2.155
 5243TIP3    H215673   2.738   0.142   2.280
 5244TIP3   OH215674   1.264   2.009   4.894
 5244TIP3    H115675   1.339   1.982   4.947
 5244TIP3    H215676   1.300   2.023   4.807
 5245TIP3   OH215677   3.651   3.623   0.971
 5245TIP3    H115678   3.687   3.561   0.907
 5245TIP3    H215679   3.726   3.648   1.025
 5246TIP3   OH215680   2.135   5.250   6.850
 5246TIP3    H115681   2.128   5.212   6.762
 5246TIP3    H215682   2.227   5.276   6.857
 5247TIP3   OH215683   2.345   3.844   5.437
 5247TIP3    H115684   2.424   3.886   5.401
 5247TIP3    H215685   2.310   3.909   5.498
 5248TIP3   OH215686   5.705   4.149   3.052
 5248TIP3    H115687   5.665   4.224   3.095
 5248TIP3    H215688   5.651   4.074   3.077
 5249TIP3   OH215689   0.701   1.486   2.511
 5249TIP3    H115690   0.623   1.455   2.465
 5249TIP3    H215691   0.748   1.407   2.535
 5250TIP3   OH215692   5.831   2.980   1.606
 5250TIP3    H115693   5.870   3.003   1.690
 5250TIP3    H215694   5.772   3.053   1.586
 5251TIP3   OH215695   7.407   6.507   5.362
 5251TIP3    H115696   7.461   6.488   5.286
 5251TIP3    H215697   7.400   6.603   5.364
 5252TIP3   OH215698   2.894   2.921   5.914
 5252TIP3    H115699   2.905   3.010   5.946
 5252TIP3    H215700   2.897   2.928   5.819
 5253TIP3   OH215701   3.469   4.374   3.359
 5253TIP3    H115702   3.496   4.411   3.443
 5253TIP3    H215703   3.514   4.427   3.294
 5254TIP3   OH215704   5.171   3.574   1.859
 5254TIP3    H115705   5.226   3.542   1.931
 5254TIP3    H215706   5.165   3.500   1.799
 5255TIP3   OH215707   8.110   5.740   2.381
 5255TIP3    H115708   8.150   5.656   2.402
 5255TIP3    H215709   8.175   5.805   2.407
 5256TIP3   OH215710   8.243   7.281   4.811
 5256TIP3    H115711   8.263   7.193   4.777
 5256TIP3    H215712   8.321   7.332   4.793
 5257TIP3   OH215713   6.958   4.098   6.762
 5257TIP3    H115714   6.994   4.092   6.674
 5257TIP3    H215715   6.974   4.188   6.789
 5258TIP3   OH215716   4.233   1.210   2.793
 5258TIP3    H115717   4.173   1.268   2.841
 5258TIP3    H215718   4.320   1.237   2.822
 5259TIP3   OH215719   1.098   2.220   4.954
 5259TIP3    H115720   1.164   2.158   4.925
 5259TIP3    H215721   1.139   2.306   4.942
 5260TIP3   OH215722   7.452   3.114   0.244
 5260TIP3    H115723   7.510   3.191   0.248
 5260TIP3    H215724   7.412   3.111   0.331
 5261TIP3   OH215725   5.189   0.230   0.203
 5261TIP3    H115726   5.266   0.236   0.259
 5261TIP3    H215727   5.213   0.277   0.123
 5262TIP3   OH215728   6.695   2.848   2.318
 5262TIP3    H115729   6.626   2.833   2.254
 5262TIP3    H215730   6.700   2.766   2.367
 5263TIP3   OH215731   5.837   2.965   4.212
 5263TIP3    H115732   5.870   2.882   4.245
 5263TIP3    H215733   5.908   3.027   4.228
 5264TIP3   OH215734   7.663   2.288   2.360
 5264TIP3    H115735   7.640   2.237   2.438
 5264TIP3    H215736   7.739   2.242   2.323
 5265TIP3   OH215737   6.661   6.407   6.297
 5265TIP3    H115738   6.689   6.359   6.219
 5265TIP3    H215739   6.730   6.472   6.311
 5266TIP3   OH215740   2.940   0.818   4.382
 5266TIP3    H115741   2.896   0.746   4.337
 5266TIP3    H215742   2.986   0.776   4.455
 5267TIP3   OH215743   2.181   0.719   1.610
 5267TIP3    H115744   2.191   0.706   1.515
 5267TIP3    H215745   2.095   0.681   1.630
 5268TIP3   OH215746   1.678   0.517   5.877
 5268TIP3    H115747   1.719   0.535   5.792
 5268TIP3    H215748   1.651   0.425   5.872
 5269TIP3   OH215749   0.339   1.917   5.461
 5269TIP3    H115750   0.325   2.006   5.494
 5269TIP3    H215751   0.283   1.911   5.384
 5270TIP3   OH215752   6.930   1.407   0.425
 5270TIP3    H115753   6.963   1.437   0.340
 5270TIP3    H215754   6.863   1.342   0.402
 5271TIP3   OH215755   3.108   1.691   3.359
 5271TIP3    H115756   3.134   1.767   3.411
 5271TIP3    H215757   3.044   1.646   3.414
 5272TIP3   OH215758   0.500   7.407   2.736
 5272TIP3    H115759   0.565   7.363   2.682
 5272TIP3    H215760   0.527   7.498   2.738
 5273TIP3   OH215761   4.650   1.916   5.382
 5273TIP3    H115762   4.632   1.921   5.476
 5273TIP3    H215763   4.592   1.848   5.349
 5274TIP3   OH215764   1.018   3.811   1.092
 5274TIP3    H115765   0.950   3.846   1.035
 5274TIP3    H215766   1.001   3.717   1.094
 5275TIP3   OH215767   0.114   0.056   3.392
 5275TIP3    H115768   0.091  -0.035   3.372
 5275TIP3    H215769   0.056   0.108   3.337
 5276TIP3   OH215770   7.286   5.243   0.284
 5276TIP3    H115771   7.284   5.331   0.322
 5276TIP3    H215772   7.325   5.188   0.353
 5277TIP3   OH215773   3.026   2.329   4.081
 5277TIP3    H115774   2.959   2.263   4.067
 5277TIP3    H215775   3.039   2.369   3.995
 5278TIP3   OH215776   5.086   3.941   3.028
 5278TIP3    H115777   5.079   3.936   3.123
 5278TIP3    H215778   5.009   3.894   2.996
 5279TIP3   OH215779   5.562   3.366   0.423
 5279TIP3    H115780   5.636   3.396   0.476
 5279TIP3    H215781   5.590   3.283   0.386
 5280TIP3   OH215782   6.258   5.659   4.475
 5280TIP3    H115783   6.287   5.745   4.505
 5280TIP3    H215784   6.171   5.648   4.512
 5281TIP3   OH215785   6.551   0.192   4.970
 5281TIP3    H115786   6.513   0.201   5.057
 5281TIP3    H215787   6.533   0.102   4.945
 5282TIP3   OH215788   5.253   6.825   1.125
 5282TIP3    H115789   5.307   6.762   1.078
 5282TIP3    H215790   5.288   6.825   1.214
 5283TIP3   OH215791   4.253   0.990   1.424
 5283TIP3    H115792   4.177   0.967   1.477
 5283TIP3    H215793   4.324   1.001   1.488
 5284TIP3   OH215794   6.479   5.243   0.741
 5284TIP3    H115795   6.448   5.283   0.822
 5284TIP3    H215796   6.573   5.264   0.738
 5285TIP3   OH215797   1.728   3.466   2.846
 5285TIP3    H115798   1.727   3.430   2.757
 5285TIP3    H215799   1.710   3.559   2.835
 5286TIP3   OH215800   1.614   6.480   5.050
 5286TIP3    H115801   1.605   6.514   4.961
 5286TIP3    H215802   1.700   6.439   5.052
 5287TIP3   OH215803   4.559   1.838   2.366
 5287TIP3    H115804   4.614   1.868   2.294
 5287TIP3    H215805   4.569   1.904   2.434
 5288TIP3   OH215806   0.022   7.496   3.262
 5288TIP3    H115807  -0.071   7.475   3.268
 5288TIP3    H215808   0.033   7.534   3.175
 5289TIP3   OH215809   0.740   3.543   6.505
 5289TIP3    H115810   0.746   3.454   6.472
 5289TIP3    H215811   0.646   3.564   6.501
 5290TIP3   OH215812   7.530   2.911   3.254
 5290TIP3    H115813   7.532   2.904   3.349
 5290TIP3    H215814   7.592   2.846   3.223
 5291TIP3   OH215815   2.602   3.083   4.121
 5291TIP3    H115816   2.581   3.137   4.198
 5291TIP3    H215817   2.574   3.136   4.046
 5292TIP3   OH215818   5.564   0.505   5.976
 5292TIP3    H115819   5.613   0.486   5.896
 5292TIP3    H215820   5.623   0.561   6.027
 5293TIP3   OH215821   3.035   5.776   5.217
 5293TIP3    H115822   2.991   5.692   5.205
 5293TIP3    H215823   3.112   5.770   5.160
 5294TIP3   OH215824   4.816   1.807   5.184
 5294TIP3    H115825   4.868   1.780   5.260
 5294TIP3    H215826   4.758   1.876   5.218
 5295TIP3   OH215827   6.636   6.690   6.610
 5295TIP3    H115828   6.719   6.676   6.564
 5295TIP3    H215829   6.587   6.609   6.598
 5296TIP3   OH215830   2.366   5.946   0.371
 5296TIP3    H115831   2.421   5.909   0.439
 5296TIP3    H215832   2.301   5.998   0.418
 5297TIP3   OH215833   1.124   1.883   0.217
 5297TIP3    H115834   1.108   1.924   0.302
 5297TIP3    H215835   1.050   1.824   0.204
 5298TIP3   OH215836   7.664   6.283   5.651
 5298TIP3    H115837   7.615   6.230   5.588
 5298TIP3    H215838   7.597   6.335   5.695
 5299TIP3   OH215839   1.650   5.675   4.227
 5299TIP3    H115840   1.723   5.736   4.225
 5299TIP3    H215841   1.688   5.591   4.201
 5300TIP3   OH215842   1.679   6.448   5.717
 5300TIP3    H115843   1.649   6.366   5.755
 5300TIP3    H215844   1.739   6.422   5.647
 5301TIP3   OH215845   3.363   5.457   6.592
 5301TIP3    H115846   3.338   5.375   6.634
 5301TIP3    H215847   3.312   5.524   6.638
 5302TIP3   OH215848   6.473   3.321   1.865
 5302TIP3    H115849   6.502   3.379   1.936
 5302TIP3    H215850   6.539   3.252   1.863
 5303TIP3   OH215851   4.031   7.690   2.840
 5303TIP3    H115852   3.975   7.721   2.768
 5303TIP3    H215853   4.081   7.768   2.866
 5304TIP3   OH215854   3.049   3.795   4.138
 5304TIP3    H115855   3.131   3.804   4.188
 5304TIP3    H215856   3.076   3.802   4.047
 5305TIP3   OH215857   2.681   7.067   4.411
 5305TIP3    H115858   2.762   7.041   4.454
 5305TIP3    H215859   2.682   7.163   4.413
 5306TIP3   OH215860   5.290   6.447   5.742
 5306TIP3    H115861   5.378   6.476   5.719
 5306TIP3    H215862   5.302   6.358   5.776
 5307TIP3   OH215863   3.503   5.844   4.743
 5307TIP3    H115864   3.484   5.904   4.816
 5307TIP3    H215865   3.587   5.805   4.765
 5308TIP3   OH215866   4.877   7.532   1.209
 5308TIP3    H115867   4.925   7.547   1.291
 5308TIP3    H215868   4.796   7.489   1.237
 5309TIP3   OH215869   4.473   0.154   6.608
 5309TIP3    H115870   4.412   0.091   6.569
 5309TIP3    H215871   4.542   0.101   6.646
 5310TIP3   OH215872   5.523   2.351   3.886
 5310TIP3    H115873   5.563   2.374   3.970
 5310TIP3    H215874   5.583   2.387   3.820
 5311TIP3   OH215875   4.801   5.955   2.639
 5311TIP3    H115876   4.716   5.946   2.682
 5311TIP3    H215877   4.799   6.042   2.599
 5312TIP3   OH215878   3.374   4.143   3.723
 5312TIP3    H115879   3.283   4.167   3.736
 5312TIP3    H215880   3.383   4.131   3.629
 5313TIP3   OH215881   3.874   6.977   3.558
 5313TIP3    H115882   3.913   6.903   3.512
 5313TIP3    H215883   3.820   7.020   3.492
 5314TIP3   OH215884   0.832   2.612   6.493
 5314TIP3    H115885   0.898   2.670   6.532
 5314TIP3    H215886   0.859   2.604   6.401
 5315TIP3   OH215887   3.945   3.854   2.905
 5315TIP3    H115888   3.980   3.802   2.833
 5315TIP3    H215889   3.851   3.859   2.888
 5316TIP3   OH215890   5.413   6.445   3.455
 5316TIP3    H115891   5.365   6.459   3.537
 5316TIP3    H215892   5.491   6.397   3.481
 5317TIP3   OH215893   3.849   5.356   2.543
 5317TIP3    H115894   3.873   5.373   2.634
 5317TIP3    H215895   3.791   5.428   2.520
 5318TIP3   OH215896   2.966   0.743   0.886
 5318TIP3    H115897   3.037   0.710   0.831
 5318TIP3    H215898   2.941   0.668   0.940
 5319TIP3   OH215899   3.215   3.637   5.882
 5319TIP3    H115900   3.143   3.579   5.905
 5319TIP3    H215901   3.238   3.612   5.792
 5320TIP3   OH215902   7.475   2.478   1.418
 5320TIP3    H115903   7.386   2.454   1.392
 5320TIP3    H215904   7.531   2.436   1.353
 5321TIP3   OH215905   2.040   5.128   0.341
 5321TIP3    H115906   1.971   5.173   0.290
 5321TIP3    H215907   2.105   5.103   0.275
 5322TIP3   OH215908   2.077   1.602   3.354
 5322TIP3    H115909   2.161   1.590   3.399
 5322TIP3    H215910   2.013   1.559   3.410
 5323TIP3   OH215911   1.581   0.915   0.677
 5323TIP3    H115912   1.529   0.898   0.756
 5323TIP3    H215913   1.546   0.997   0.643
 5324TIP3   OH215914   1.238   6.316   6.592
 5324TIP3    H115915   1.189   6.314   6.510
 5324TIP3    H215916   1.330   6.322   6.565
 5325TIP3   OH215917   3.777   0.643   4.551
 5325TIP3    H115918   3.870   0.657   4.567
 5325TIP3    H215919   3.748   0.722   4.505
 5326TIP3   OH215920   3.748   7.461   3.855
 5326TIP3    H115921   3.804   7.490   3.783
 5326TIP3    H215922   3.663   7.502   3.839
 5327TIP3   OH215923   4.524   0.558   2.866
 5327TIP3    H115924   4.443   0.550   2.815
 5327TIP3    H215925   4.591   0.519   2.811
 5328TIP3   OH215926   0.131   3.531   0.222
 5328TIP3    H115927   0.144   3.517   0.129
 5328TIP3    H215928   0.062   3.598   0.227
 5329TIP3   OH215929   1.839   5.484   4.191
 5329TIP3    H115930   1.905   5.471   4.259
 5329TIP3    H215931   1.866   5.425   4.121
 5330TIP3   OH215932   6.306   4.445   1.427
 5330TIP3    H115933   6.369   4.507   1.391
 5330TIP3    H215934   6.351   4.361   1.424
 5331TIP3   OH215935   4.674   3.203   5.125
 5331TIP3    H115936   4.639   3.122   5.162
 5331TIP3    H215937   4.737   3.234   5.190
 5332TIP3   OH215938   0.910   6.251   5.448
 5332TIP3    H115939   0.845   6.315   5.479
 5332TIP3    H215940   0.991   6.276   5.492
 5333TIP3   OH215941   2.721   4.504   4.954
 5333TIP3    H115942   2.681   4.574   5.007
 5333TIP3    H215943   2.734   4.432   5.016
 5334TIP3   OH215944   3.420   3.409   4.491
 5334TIP3    H115945   3.410   3.395   4.585
 5334TIP3    H215946   3.458   3.497   4.484
 5335TIP3   OH215947   7.835   5.463   6.516
 5335TIP3    H115948   7.820   5.526   6.586
 5335TIP3    H215949   7.763   5.401   6.524
 5336TIP3   OH215950   6.631   4.296   4.494
 5336TIP3    H115951   6.684   4.217   4.489
 5336TIP3    H215952   6.690   4.366   4.465
 5337TIP3   OH215953   1.756   6.248   1.651
 5337TIP3    H115954   1.822   6.299   1.698
 5337TIP3    H215955   1.807   6.194   1.590
 5338TIP3   OH215956   2.112   7.375   3.244
 5338TIP3    H115957   2.148   7.464   3.237
 5338TIP3    H215958   2.187   7.318   3.225
 5339TIP3   OH215959   7.548   2.386   0.975
 5339TIP3    H115960   7.579   2.364   0.888
 5339TIP3    H215961   7.571   2.479   0.986
 5340TIP3   OH215962   6.775   4.132   1.231
 5340TIP3    H115963   6.852   4.184   1.255
 5340TIP3    H215964   6.747   4.092   1.313
 5341TIP3   OH215965   0.904   0.890   3.774
 5341TIP3    H115966   0.946   0.954   3.830
 5341TIP3    H215967   0.846   0.941   3.718
 5342TIP3   OH215968   5.873   4.280   5.813
 5342TIP3    H115969   5.940   4.310   5.874
 5342TIP3    H215970   5.790   4.292   5.859
 5343TIP3   OH215971   1.043   6.064   4.217
 5343TIP3    H115972   0.973   6.114   4.175
 5343TIP3    H215973   1.123   6.113   4.196
 5344TIP3   OH215974   2.023   1.419   0.457
 5344TIP3    H115975   2.000   1.461   0.375
 5344TIP3    H215976   2.119   1.415   0.456
 5345TIP3   OH215977   3.860   7.437   5.893
 5345TIP3    H115978   3.881   7.349   5.923
 5345TIP3    H215979   3.940   7.487   5.908
 5346TIP3   OH215980   4.651   6.548   4.844
 5346TIP3    H115981   4.639   6.509   4.758
 5346TIP3    H215982   4.634   6.641   4.832
 5347TIP3   OH215983   6.624   2.548   2.334
 5347TIP3    H115984   6.631   2.542   2.238
 5347TIP3    H215985   6.713   2.566   2.363
 5348TIP3   OH215986   7.321   6.393   0.304
 5348TIP3    H115987   7.280   6.396   0.390
 5348TIP3    H215988   7.363   6.307   0.300
 5349TIP3   OH215989   4.381   0.810   2.278
 5349TIP3    H115990   4.289   0.812   2.306
 5349TIP3    H215991   4.390   0.884   2.219
 5350TIP3   OH215992   7.784   4.197   1.940
 5350TIP3    H115993   7.751   4.177   1.853
 5350TIP3    H215994   7.790   4.293   1.942
 5351TIP3   OH215995   1.372   3.744   0.640
 5351TIP3    H115996   1.400   3.684   0.570
 5351TIP3    H215997   1.387   3.831   0.604
 5352TIP3   OH215998   5.043   6.294   3.775
 5352TIP3    H115999   5.042   6.214   3.722
 5352TIP3    H216000   5.120   6.342   3.744
 5353TIP3   OH216001   2.876   2.891   3.277
 5353TIP3    H116002   2.835   2.932   3.354
 5353TIP3    H216003   2.803   2.849   3.232
 5354TIP3   OH216004   5.059   7.295   4.084
 5354TIP3    H116005   5.130   7.318   4.023
 5354TIP3    H216006   4.980   7.330   4.043
 5355TIP3   OH216007   6.569   6.655   0.247
 5355TIP3    H116008   6.568   6.565   0.216
 5355TIP3    H216009   6.532   6.706   0.174
 5356TIP3   OH216010   4.252   2.447   6.640
 5356TIP3    H116011   4.272   2.358   6.611
 5356TIP3    H216012   4.199   2.484   6.568
 5357TIP3   OH216013   7.920   1.099   4.773
 5357TIP3    H116014   7.906   1.188   4.803
 5357TIP3    H216015   8.015   1.091   4.763
 5358TIP3   OH216016   2.117   4.461   1.537
 5358TIP3    H116017   2.088   4.389   1.593
 5358TIP3    H216018   2.097   4.540   1.589
 5359TIP3   OH216019   6.177   2.686   4.660
 5359TIP3    H116020   6.214   2.762   4.616
 5359TIP3    H216021   6.183   2.708   4.753
 5360TIP3   OH216022   7.745   6.838   3.278
 5360TIP3    H116023   7.819   6.856   3.334
 5360TIP3    H216024   7.748   6.743   3.264
 5361TIP3   OH216025   6.014   3.280   0.647
 5361TIP3    H116026   5.939   3.339   0.647
 5361TIP3    H216027   5.984   3.203   0.598
 5362TIP3   OH216028   0.811   6.665   1.528
 5362TIP3    H116029   0.837   6.575   1.506
 5362TIP3    H216030   0.800   6.708   1.443
 5363TIP3   OH216031   6.565   0.549   4.441
 5363TIP3    H116032   6.627   0.617   4.468
 5363TIP3    H216033   6.538   0.574   4.353
 5364TIP3   OH216034   6.858   0.697   6.005
 5364TIP3    H116035   6.815   0.667   5.925
 5364TIP3    H216036   6.787   0.712   6.066
 5365TIP3   OH216037   7.806   0.169   6.168
 5365TIP3    H116038   7.870   0.203   6.106
 5365TIP3    H216039   7.736   0.134   6.113
 5366TIP3   OH216040   2.921   1.950   6.641
 5366TIP3    H116041   2.899   1.914   6.556
 5366TIP3    H216042   2.931   2.044   6.626
 5367TIP3   OH216043   2.990   7.054   1.564
 5367TIP3    H116044   2.964   7.144   1.585
 5367TIP3    H216045   3.017   7.058   1.472
 5368TIP3   OH216046   1.225   0.433   4.593
 5368TIP3    H116047   1.240   0.349   4.636
 5368TIP3    H216048   1.140   0.423   4.550
 5369TIP3   OH216049   5.854   2.651   0.276
 5369TIP3    H116050   5.933   2.620   0.230
 5369TIP3    H216051   5.826   2.576   0.328
 5370TIP3   OH216052   2.497   1.912   1.474
 5370TIP3    H116053   2.556   1.924   1.399
 5370TIP3    H216054   2.460   1.999   1.489
 5371TIP3   OH216055   4.260   5.298   3.614
 5371TIP3    H116056   4.252   5.370   3.552
 5371TIP3    H216057   4.328   5.241   3.576
 5372TIP3   OH216058   3.889   0.963   5.779
 5372TIP3    H116059   3.807   0.997   5.815
 5372TIP3    H216060   3.955   1.027   5.805
 5373TIP3   OH216061   3.733   4.751   4.852
 5373TIP3    H116062   3.682   4.745   4.933
 5373TIP3    H216063   3.702   4.678   4.799
 5374TIP3   OH216064   1.978   3.383   1.451
 5374TIP3    H116065   1.983   3.416   1.361
 5374TIP3    H216066   1.943   3.295   1.442
 5375TIP3   OH216067   1.290   4.994   2.634
 5375TIP3    H116068   1.379   4.992   2.599
 5375TIP3    H216069   1.294   5.054   2.709
 5376TIP3   OH216070   3.512   3.665   4.146
 5376TIP3    H116071   3.485   3.730   4.080
 5376TIP3    H216072   3.531   3.586   4.095
 5377TIP3   OH216073   0.073   5.475   5.369
 5377TIP3    H116074   0.117   5.488   5.285
 5377TIP3    H216075   0.141   5.440   5.427
 5378TIP3   OH216076   5.261   3.257   2.302
 5378TIP3    H116077   5.323   3.192   2.332
 5378TIP3    H216078   5.297   3.341   2.332
 5379TIP3   OH216079   4.174   4.874   1.496
 5379TIP3    H116080   4.210   4.790   1.466
 5379TIP3    H216081   4.081   4.856   1.509
 5380TIP3   OH216082   6.108   4.603   5.828
 5380TIP3    H116083   6.141   4.623   5.741
 5380TIP3    H216084   6.138   4.515   5.847
 5381TIP3   OH216085   2.956   3.845   0.285
 5381TIP3    H116086   2.897   3.901   0.234
 5381TIP3    H216087   2.950   3.879   0.374
 5382TIP3   OH216088   6.939   5.795   1.282
 5382TIP3    H116089   6.979   5.881   1.264
 5382TIP3    H216090   6.921   5.759   1.195
 5383TIP3   OH216091   4.072   6.844   1.610
 5383TIP3    H116092   4.063   6.753   1.584
 5383TIP3    H216093   4.085   6.892   1.529
 5384TIP3   OH216094   3.514   0.682   1.644
 5384TIP3    H116095   3.571   0.751   1.610
 5384TIP3    H216096   3.445   0.728   1.692
 5385TIP3   OH216097   5.018   0.948   5.363
 5385TIP3    H116098   5.111   0.958   5.384
 5385TIP3    H216099   4.973   0.961   5.446
 5386TIP3   OH216100   2.560   2.735   3.580
 5386TIP3    H116101   2.552   2.641   3.598
 5386TIP3    H216102   2.546   2.742   3.486
 5387TIP3   OH216103   1.844   6.691   2.887
 5387TIP3    H116104   1.831   6.598   2.908
 5387TIP3    H216105   1.898   6.690   2.808
 5388TIP3   OH216106   0.023   2.864   5.236
 5388TIP3    H116107   0.050   2.772   5.240
 5388TIP3    H216108  -0.034   2.875   5.311
 5389TIP3   OH216109   0.192   3.886   2.779
 5389TIP3    H116110   0.193   3.793   2.800
 5389TIP3    H216111   0.268   3.898   2.721
 5390TIP3   OH216112   6.972   1.403   6.004
 5390TIP3    H116113   7.031   1.437   6.071
 5390TIP3    H216114   6.895   1.374   6.053
 5391TIP3   OH216115   7.841   6.844   2.545
 5391TIP3    H116116   7.937   6.845   2.548
 5391TIP3    H216117   7.817   6.752   2.551
 5392TIP3   OH216118   4.137   6.466   2.171
 5392TIP3    H116119   4.083   6.532   2.215
 5392TIP3    H216120   4.190   6.517   2.109
 5393TIP3   OH216121   1.498   7.114   1.707
 5393TIP3    H116122   1.437   7.121   1.634
 5393TIP3    H216123   1.572   7.169   1.683
 5394TIP3   OH216124   4.596   5.150   4.540
 5394TIP3    H116125   4.610   5.062   4.573
 5394TIP3    H216126   4.505   5.150   4.507
 5395TIP3   OH216127   1.391   4.668   0.007
 5395TIP3    H116128   1.445   4.592  -0.016
 5395TIP3    H216129   1.402   4.677   0.102
 5396TIP3   OH216130   1.853   5.565   3.658
 5396TIP3    H116131   1.790   5.545   3.728
 5396TIP3    H216132   1.864   5.660   3.663
 5397TIP3   OH216133   7.568   0.368   3.989
 5397TIP3    H116134   7.616   0.320   3.921
 5397TIP3    H216135   7.500   0.308   4.017
 5398TIP3   OH216136   2.910   2.018   5.259
 5398TIP3    H116137   2.919   1.979   5.346
 5398TIP3    H216138   2.960   2.099   5.264
 5399TIP3   OH216139   7.423   4.149   5.842
 5399TIP3    H116140   7.337   4.111   5.827
 5399TIP3    H216141   7.461   4.158   5.754
 5400TIP3   OH216142   5.217   7.256   2.845
 5400TIP3    H116143   5.143   7.211   2.804
 5400TIP3    H216144   5.289   7.194   2.837
 5401TIP3   OH216145   4.942   6.293   1.203
 5401TIP3    H116146   4.912   6.250   1.283
 5401TIP3    H216147   4.899   6.379   1.204
 5402TIP3   OH216148   2.294   6.376   4.264
 5402TIP3    H116149   2.229   6.374   4.335
 5402TIP3    H216150   2.286   6.291   4.223
 5403TIP3   OH216151   7.082   4.177   3.663
 5403TIP3    H116152   7.095   4.107   3.600
 5403TIP3    H216153   6.990   4.172   3.687
 5404TIP3   OH216154   6.088   4.541   4.045
 5404TIP3    H116155   6.115   4.488   4.120
 5404TIP3    H216156   6.164   4.542   3.987
 5405TIP3   OH216157   1.387   1.188   1.493
 5405TIP3    H116158   1.344   1.272   1.511
 5405TIP3    H216159   1.447   1.206   1.422
 5406TIP3   OH216160   3.164   4.811   1.333
 5406TIP3    H116161   3.091   4.843   1.279
 5406TIP3    H216162   3.183   4.883   1.393
 5407TIP3   OH216163   4.784   1.395   1.863
 5407TIP3    H116164   4.793   1.432   1.776
 5407TIP3    H216165   4.778   1.301   1.849
 5408TIP3   OH216166   1.612   7.253   0.652
 5408TIP3    H116167   1.653   7.172   0.680
 5408TIP3    H216168   1.582   7.235   0.563
 5409TIP3   OH216169   1.586   4.400   6.303
 5409TIP3    H116170   1.533   4.419   6.226
 5409TIP3    H216171   1.636   4.322   6.279
 5410TIP3   OH216172   4.099   5.424   2.986
 5410TIP3    H116173   4.102   5.421   2.890
 5410TIP3    H216174   4.187   5.397   3.013
 5411TIP3   OH216175   7.631   3.348   3.405
 5411TIP3    H116176   7.559   3.310   3.455
 5411TIP3    H216177   7.602   3.343   3.314
 5412TIP3   OH216178   5.689   7.716   0.719
 5412TIP3    H116179   5.649   7.787   0.770
 5412TIP3    H216180   5.658   7.732   0.630
 5413TIP3   OH216181   4.103   4.142   5.888
 5413TIP3    H116182   4.161   4.136   5.813
 5413TIP3    H216183   4.159   4.124   5.964
 5414TIP3   OH216184   5.296   5.132   4.905
 5414TIP3    H116185   5.376   5.162   4.862
 5414TIP3    H216186   5.326   5.077   4.977
 5415TIP3   OH216187   5.869   6.637   0.623
 5415TIP3    H116188   5.950   6.668   0.663
 5415TIP3    H216189   5.804   6.702   0.649
 5416TIP3   OH216190   4.941   7.514   0.917
 5416TIP3    H116191   4.935   7.505   1.012
 5416TIP3    H216192   4.897   7.597   0.897
 5417TIP3   OH216193   7.401   2.205   3.170
 5417TIP3    H116194   7.448   2.280   3.206
 5417TIP3    H216195   7.452   2.129   3.197
 5418TIP3   OH216196   4.956   0.173   0.051
 5418TIP3    H116197   5.011   0.195   0.126
 5418TIP3    H216198   4.871   0.211   0.072
 5419TIP3   OH216199   4.284   2.867   0.613
 5419TIP3    H116200   4.209   2.871   0.673
 5419TIP3    H216201   4.307   2.774   0.610
 5420TIP3   OH216202   0.232   3.315   0.521
 5420TIP3    H116203   0.202   3.296   0.432
 5420TIP3    H216204   0.152   3.324   0.572
 5421TIP3   OH216205   6.328   1.496   0.630
 5421TIP3    H116206   6.413   1.463   0.600
 5421TIP3    H216207   6.288   1.533   0.552
 5422TIP3   OH216208   6.378   0.811   2.127
 5422TIP3    H116209   6.432   0.867   2.183
 5422TIP3    H216210   6.429   0.800   2.047
 5423TIP3   OH216211   0.204   6.521   3.422
 5423TIP3    H116212   0.196   6.450   3.486
 5423TIP3    H216213   0.158   6.488   3.345
 5424TIP3   OH216214   2.635   7.742   6.353
 5424TIP3    H116215   2.715   7.706   6.391
 5424TIP3    H216216   2.566   7.719   6.416
 5425TIP3   OH216217   1.155   4.341   5.860
 5425TIP3    H116218   1.143   4.389   5.778
 5425TIP3    H216219   1.246   4.357   5.884
 5426TIP3   OH216220   6.767   0.847   0.471
 5426TIP3    H116221   6.686   0.814   0.433
 5426TIP3    H216222   6.836   0.805   0.419
 5427TIP3   OH216223   5.719   4.665   0.260
 5427TIP3    H116224   5.710   4.698   0.171
 5427TIP3    H216225   5.675   4.580   0.259
 5428TIP3   OH216226   6.005   4.228   1.467
 5428TIP3    H116227   5.983   4.288   1.395
 5428TIP3    H216228   5.938   4.244   1.533
 5429TIP3   OH216229   2.475   7.300  -0.033
 5429TIP3    H116230   2.422   7.220  -0.029
 5429TIP3    H216231   2.420   7.366   0.009
 5430TIP3   OH216232   2.317   7.278   6.682
 5430TIP3    H116233   2.291   7.335   6.754
 5430TIP3    H216234   2.401   7.243   6.709
 5431TIP3   OH216235   2.280   5.691   4.653
 5431TIP3    H116236   2.300   5.693   4.559
 5431TIP3    H216237   2.194   5.731   4.661
 5432TIP3   OH216238   7.505   6.537   0.175
 5432TIP3    H116239   7.430   6.501   0.222
 5432TIP3    H216240   7.567   6.561   0.244
 5433TIP3   OH216241   3.782   1.760   2.168
 5433TIP3    H116242   3.721   1.736   2.097
 5433TIP3    H216243   3.727   1.766   2.246
 5434TIP3   OH216244   4.047   6.359   4.430
 5434TIP3    H116245   3.978   6.297   4.453
 5434TIP3    H216246   4.049   6.421   4.502
 5435TIP3   OH216247   5.713   1.982   0.193
 5435TIP3    H116248   5.706   1.979   0.289
 5435TIP3    H216249   5.637   1.931   0.162
 5436TIP3   OH216250   2.990   2.260   3.457
 5436TIP3    H116251   2.922   2.232   3.519
 5436TIP3    H216252   2.979   2.204   3.381
 5437TIP3   OH216253   5.911   0.449   3.858
 5437TIP3    H116254   5.877   0.491   3.937
 5437TIP3    H216255   5.833   0.429   3.807
 5438TIP3   OH216256   2.589   2.030   2.058
 5438TIP3    H116257   2.583   1.961   2.124
 5438TIP3    H216258   2.653   1.997   1.995
 5439TIP3   OH216259   4.736   7.345   6.252
 5439TIP3    H116260   4.730   7.284   6.325
 5439TIP3    H216261   4.806   7.406   6.277
 5440TIP3   OH216262   0.869   6.427   4.618
 5440TIP3    H116263   0.931   6.467   4.679
 5440TIP3    H216264   0.838   6.349   4.663
 5441TIP3   OH216265   5.996   5.905   6.759
 5441TIP3    H116266   5.921   5.895   6.818
 5441TIP3    H216267   5.986   5.992   6.722
 5442TIP3   OH216268   4.221   1.078   5.363
 5442TIP3    H116269   4.197   1.137   5.291
 5442TIP3    H216270   4.272   1.133   5.422
 5443TIP3   OH216271   3.611   4.488   3.159
 5443TIP3    H116272   3.650   4.413   3.113
 5443TIP3    H216273   3.554   4.528   3.094
 5444TIP3   OH216274   0.300   4.480   0.124
 5444TIP3    H116275   0.222   4.425   0.125
 5444TIP3    H216276   0.366   4.429   0.078
 5445TIP3   OH216277   7.817   6.686   4.220
 5445TIP3    H116278   7.805   6.613   4.160
 5445TIP3    H216279   7.787   6.654   4.305
 5446TIP3   OH216280   1.646   7.225   6.638
 5446TIP3    H116281   1.555   7.251   6.651
 5446TIP3    H216282   1.685   7.229   6.725
 5447TIP3   OH216283   3.840   3.069   2.067
 5447TIP3    H116284   3.839   3.164   2.053
 5447TIP3    H216285   3.859   3.032   1.980
 5448TIP3   OH216286   0.979   2.384   0.739
 5448TIP3    H116287   1.004   2.293   0.757
 5448TIP3    H216288   0.987   2.429   0.823
 5449TIP3   OH216289   3.289   1.856   2.084
 5449TIP3    H116290   3.329   1.772   2.109
 5449TIP3    H216291   3.308   1.865   1.991
 5450TIP3   OH216292   1.429   3.146   0.311
 5450TIP3    H116293   1.411   3.074   0.372
 5450TIP3    H216294   1.456   3.219   0.367
 5451TIP3   OH216295   2.321   0.946   2.874
 5451TIP3    H116296   2.361   0.859   2.876
 5451TIP3    H216297   2.381   1.001   2.924
 5452TIP3   OH216298   0.018   0.858   1.560
 5452TIP3    H116299   0.107   0.885   1.533
 5452TIP3    H216300  -0.036   0.934   1.538
 5453TIP3   OH216301   5.835   0.826   3.278
 5453TIP3    H116302   5.848   0.784   3.364
 5453TIP3    H216303   5.743   0.853   3.279
 5454TIP3   OH216304   2.981   6.542   3.366
 5454TIP3    H116305   2.990   6.531   3.461
 5454TIP3    H216306   3.038   6.475   3.329
 5455TIP3   OH216307   0.120   4.984   6.465
 5455TIP3    H116308   0.125   5.075   6.495
 5455TIP3    H216309   0.092   4.935   6.542
 5456TIP3   OH216310   1.039   6.325   3.139
 5456TIP3    H116311   1.039   6.339   3.234
 5456TIP3    H216312   1.058   6.411   3.102
 5457TIP3   OH216313   7.773   2.502   3.611
 5457TIP3    H116314   7.719   2.423   3.610
 5457TIP3    H216315   7.734   2.559   3.545
 5458TIP3   OH216316   3.763   5.209   6.452
 5458TIP3    H116317   3.769   5.305   6.449
 5458TIP3    H216318   3.669   5.190   6.447
 5459TIP3   OH216319   1.914   7.346   4.950
 5459TIP3    H116320   1.899   7.263   4.996
 5459TIP3    H216321   1.842   7.402   4.979
 5460TIP3   OH216322   4.940   0.489   5.809
 5460TIP3    H116323   4.878   0.473   5.738
 5460TIP3    H216324   4.980   0.403   5.825
 5461TIP3   OH216325   2.052   4.543   4.973
 5461TIP3    H116326   1.960   4.519   4.963
 5461TIP3    H216327   2.060   4.577   5.062
 5462TIP3   OH216328   0.701   4.878   5.669
 5462TIP3    H116329   0.748   4.944   5.617
 5462TIP3    H216330   0.762   4.805   5.676
 5463TIP3   OH216331   3.919   4.760   4.164
 5463TIP3    H116332   3.858   4.754   4.237
 5463TIP3    H216333   3.879   4.708   4.095
 5464TIP3   OH216334   4.873   5.517   5.855
 5464TIP3    H116335   4.919   5.475   5.928
 5464TIP3    H216336   4.880   5.454   5.783
 5465TIP3   OH216337   0.328   4.191   0.281
 5465TIP3    H116338   0.397   4.153   0.226
 5465TIP3    H216339   0.247   4.152   0.247
 5466TIP3   OH216340   4.147   0.154   4.976
 5466TIP3    H116341   4.080   0.114   4.920
 5466TIP3    H216342   4.230   0.120   4.942
 5467TIP3   OH216343   1.687   3.165   2.234
 5467TIP3    H116344   1.715   3.213   2.157
 5467TIP3    H216345   1.592   3.155   2.223
 5468TIP3   OH216346   5.485   6.245   5.752
 5468TIP3    H116347   5.472   6.151   5.744
 5468TIP3    H216348   5.566   6.263   5.704
 5469TIP3   OH216349   7.659   6.827   0.376
 5469TIP3    H116350   7.673   6.918   0.348
 5469TIP3    H216351   7.565   6.813   0.365
 5470TIP3   OH216352   0.432   7.343   1.034
 5470TIP3    H116353   0.407   7.430   1.067
 5470TIP3    H216354   0.453   7.293   1.113
 5471TIP3   OH216355   3.301   5.626   0.537
 5471TIP3    H116356   3.233   5.690   0.560
 5471TIP3    H216357   3.347   5.610   0.619
 5472TIP3   OH216358   0.716   4.186   2.335
 5472TIP3    H116359   0.643   4.244   2.316
 5472TIP3    H216360   0.736   4.145   2.250
 5473TIP3   OH216361   1.849  -0.077   2.738
 5473TIP3    H116362   1.827  -0.083   2.645
 5473TIP3    H216363   1.845   0.017   2.757
 5474TIP3   OH216364   4.471   0.333   1.719
 5474TIP3    H116365   4.379   0.359   1.731
 5474TIP3    H216366   4.510   0.342   1.806
 5475TIP3   OH216367   5.388   2.453   0.710
 5475TIP3    H116368   5.301   2.442   0.748
 5475TIP3    H216369   5.449   2.423   0.777
 5476TIP3   OH216370   0.057   0.242   3.860
 5476TIP3    H116371  -0.025   0.193   3.866
 5476TIP3    H216372   0.108   0.195   3.794
 5477TIP3   OH216373   6.560   7.627   3.672
 5477TIP3    H116374   6.556   7.700   3.734
 5477TIP3    H216375   6.617   7.563   3.715
 5478TIP3   OH216376   0.929   2.882   3.395
 5478TIP3    H116377   0.955   2.914   3.482
 5478TIP3    H216378   0.916   2.961   3.343
 5479TIP3   OH216379   6.273   7.474   6.233
 5479TIP3    H116380   6.236   7.402   6.284
 5479TIP3    H216381   6.249   7.553   6.281
 5480TIP3   OH216382   0.670   0.465   3.760
 5480TIP3    H116383   0.605   0.419   3.706
 5480TIP3    H216384   0.743   0.404   3.767
 5481TIP3   OH216385   7.250   5.902   3.248
 5481TIP3    H116386   7.291   5.820   3.219
 5481TIP3    H216387   7.166   5.905   3.203
 5482TIP3   OH216388   1.599   2.122   0.343
 5482TIP3    H116389   1.560   2.114   0.430
 5482TIP3    H216390   1.663   2.193   0.352
 5483TIP3   OH216391   1.133   4.380   6.442
 5483TIP3    H116392   1.129   4.289   6.472
 5483TIP3    H216393   1.215   4.413   6.478
 5484TIP3   OH216394   4.382   5.858   2.845
 5484TIP3    H116395   4.457   5.812   2.883
 5484TIP3    H216396   4.332   5.790   2.800
 5485TIP3   OH216397   2.332   2.292   6.102
 5485TIP3    H116398   2.277   2.219   6.130
 5485TIP3    H216399   2.271   2.357   6.067
 5486TIP3   OH216400   4.643   4.989   2.958
 5486TIP3    H116401   4.612   5.076   2.983
 5486TIP3    H216402   4.589   4.965   2.883
 5487TIP3   OH216403   0.837   1.119   6.244
 5487TIP3    H116404   0.897   1.186   6.276
 5487TIP3    H216405   0.881   1.083   6.167
 5488TIP3   OH216406   4.758   1.917   5.923
 5488TIP3    H116407   4.730   2.001   5.960
 5488TIP3    H216408   4.851   1.911   5.948
 5489TIP3   OH216409   0.627   4.414   4.589
 5489TIP3    H116410   0.597   4.397   4.500
 5489TIP3    H216411   0.561   4.471   4.627
 5490TIP3   OH216412   6.007   4.093   3.780
 5490TIP3    H116413   6.053   4.085   3.864
 5490TIP3    H216414   6.076   4.098   3.715
 5491TIP3   OH216415   0.057   5.872   5.084
 5491TIP3    H116416   0.151   5.859   5.081
 5491TIP3    H216417   0.023   5.795   5.130
 5492TIP3   OH216418   2.010   0.777   4.061
 5492TIP3    H116419   2.076   0.782   3.992
 5492TIP3    H216420   1.982   0.685   4.060
 5493TIP3   OH216421   3.338   5.248   1.445
 5493TIP3    H116422   3.380   5.163   1.433
 5493TIP3    H216423   3.402   5.300   1.492
 5494TIP3   OH216424   0.920   1.592   1.786
 5494TIP3    H116425   0.829   1.610   1.762
 5494TIP3    H216426   0.944   1.515   1.735
 5495TIP3   OH216427   5.041   6.105   4.935
 5495TIP3    H116428   5.045   6.198   4.914
 5495TIP3    H216429   5.060   6.100   5.028
 5496TIP3   OH216430   0.052   3.374   6.519
 5496TIP3    H116431   0.092   3.386   6.605
 5496TIP3    H216432  -0.017   3.309   6.534
 5497TIP3   OH216433   3.401   3.335   0.915
 5497TIP3    H116434   3.391   3.248   0.876
 5497TIP3    H216435   3.470   3.324   0.980
 5498TIP3   OH216436   0.320   6.291   6.647
 5498TIP3    H116437   0.306   6.244   6.729
 5498TIP3    H216438   0.244   6.268   6.594
 5499TIP3   OH216439   8.037   4.192   5.620
 5499TIP3    H116440   8.001   4.185   5.532
 5499TIP3    H216441   8.011   4.110   5.663
 5500TIP3   OH216442   5.379   7.683   5.702
 5500TIP3    H116443   5.449   7.735   5.744
 5500TIP3    H216444   5.298   7.722   5.735
 5501TIP3   OH216445   6.781   3.550   0.594
 5501TIP3    H116446   6.822   3.486   0.652
 5501TIP3    H216447   6.823   3.633   0.616
 5502TIP3   OH216448   7.728   0.931   3.619
 5502TIP3    H116449   7.711   0.905   3.528
 5502TIP3    H216450   7.721   1.026   3.619
 5503TIP3   OH216451   2.528   1.909   4.701
 5503TIP3    H116452   2.534   1.942   4.791
 5503TIP3    H216453   2.436   1.924   4.676
 5504TIP3   OH216454   1.050   2.035   1.303
 5504TIP3    H116455   1.101   1.988   1.237
 5504TIP3    H216456   1.050   1.977   1.379
 5505TIP3   OH216457   6.206   0.175   0.505
 5505TIP3    H116458   6.119   0.145   0.532
 5505TIP3    H216459   6.263   0.154   0.579
 5506TIP3   OH216460   4.928   1.774   1.828
 5506TIP3    H116461   4.863   1.833   1.791
 5506TIP3    H216462   4.919   1.693   1.778
 5507TIP3   OH216463   5.005   5.933   4.081
 5507TIP3    H116464   4.919   5.891   4.078
 5507TIP3    H216465   5.055   5.891   4.011
 5508TIP3   OH216466   2.912   5.569   1.816
 5508TIP3    H116467   2.960   5.595   1.737
 5508TIP3    H216468   2.876   5.651   1.850
 5509TIP3   OH216469   7.936   3.042   6.358
 5509TIP3    H116470   8.014   3.074   6.403
 5509TIP3    H216471   7.863   3.078   6.407
 5510TIP3   OH216472   7.405   1.813   0.909
 5510TIP3    H116473   7.476   1.819   0.844
 5510TIP3    H216474   7.437   1.748   0.972
 5511TIP3   OH216475   0.908   4.723   6.193
 5511TIP3    H116476   0.967   4.719   6.269
 5511TIP3    H216477   0.836   4.665   6.215
 5512TIP3   OH216478   1.471   0.160   2.859
 5512TIP3    H116479   1.392   0.210   2.881
 5512TIP3    H216480   1.441   0.070   2.851
 5513TIP3   OH216481   2.679   4.551   6.242
 5513TIP3    H116482   2.638   4.538   6.328
 5513TIP3    H216483   2.694   4.463   6.209
 5514TIP3   OH216484   7.139   6.709   5.562
 5514TIP3    H116485   7.049   6.726   5.533
 5514TIP3    H216486   7.188   6.786   5.535
 5515TIP3   OH216487   4.774   6.748   4.478
 5515TIP3    H116488   4.744   6.660   4.498
 5515TIP3    H216489   4.868   6.739   4.464
 5516TIP3   OH216490   7.797   1.815   0.260
 5516TIP3    H116491   7.848   1.845   0.184
 5516TIP3    H216492   7.740   1.748   0.225
 5517TIP3   OH216493   2.439   5.043   2.935
 5517TIP3    H116494   2.391   5.039   3.017
 5517TIP3    H216495   2.468   4.953   2.919
 5518TIP3   OH216496   0.782   5.779   4.756
 5518TIP3    H116497   0.843   5.721   4.804
 5518TIP3    H216498   0.834   5.857   4.737
 5519TIP3   OH216499   5.965   2.150   6.681
 5519TIP3    H116500   6.049   2.123   6.644
 5519TIP3    H216501   5.901   2.091   6.641
 5520TIP3   OH216502   2.823   2.904   4.141
 5520TIP3    H116503   2.737   2.945   4.139
 5520TIP3    H216504   2.885   2.977   4.143
 5521TIP3   OH216505   6.101   7.104   4.579
 5521TIP3    H116506   6.110   7.196   4.554
 5521TIP3    H216507   6.040   7.067   4.515
 5522TIP3   OH216508   5.361   6.014   0.317
 5522TIP3    H116509   5.376   5.931   0.361
 5522TIP3    H216510   5.354   5.991   0.224
 5523TIP3   OH216511   5.050   3.006   1.438
 5523TIP3    H116512   5.130   3.024   1.389
 5523TIP3    H216513   4.983   3.058   1.395
 5524TIP3   OH216514   2.219   1.074   5.200
 5524TIP3    H116515   2.277   1.060   5.275
 5524TIP3    H216516   2.137   1.031   5.225
 5525TIP3   OH216517   7.853   5.813   2.381
 5525TIP3    H116518   7.930   5.759   2.367
 5525TIP3    H216519   7.787   5.777   2.321
 5526TIP3   OH216520   4.028   1.957   3.651
 5526TIP3    H116521   3.962   1.947   3.720
 5526TIP3    H216522   3.980   1.999   3.579
 5527TIP3   OH216523   3.626   4.946   5.721
 5527TIP3    H116524   3.673   4.902   5.649
 5527TIP3    H216525   3.546   4.978   5.681
 5528TIP3   OH216526   4.575   2.094   6.431
 5528TIP3    H116527   4.487   2.082   6.468
 5528TIP3    H216528   4.562   2.089   6.336
 5529TIP3   OH216529   0.389   6.867   6.105
 5529TIP3    H116530   0.467   6.855   6.050
 5529TIP3    H216531   0.422   6.860   6.194
 5530TIP3   OH216532   1.811   1.370   0.096
 5530TIP3    H116533   1.729   1.381   0.048
 5530TIP3    H216534   1.835   1.278   0.082
 5531TIP3   OH216535   1.102   5.839   5.635
 5531TIP3    H116536   1.178   5.896   5.646
 5531TIP3    H216537   1.035   5.897   5.599
 5532TIP3   OH216538   7.995   3.339   4.285
 5532TIP3    H116539   7.913   3.341   4.236
 5532TIP3    H216540   8.062   3.367   4.222
 5533TIP3   OH216541   5.639   1.696   0.311
 5533TIP3    H116542   5.718   1.642   0.300
 5533TIP3    H216543   5.656   1.747   0.390
 5534TIP3   OH216544   8.022   1.066   1.339
 5534TIP3    H116545   8.054   1.119   1.267
 5534TIP3    H216546   7.927   1.078   1.337
 5535TIP3   OH216547   6.929   6.850   0.099
 5535TIP3    H116548   6.851   6.806   0.065
 5535TIP3    H216549   6.967   6.894   0.023
 5536TIP3   OH216550   5.867   4.645   0.530
 5536TIP3    H116551   5.805   4.623   0.461
 5536TIP3    H216552   5.832   4.724   0.571
 5537TIP3   OH216553   7.055   2.915   2.004
 5537TIP3    H116554   7.027   2.990   1.952
 5537TIP3    H216555   7.119   2.870   1.948
 5538TIP3   OH216556   2.699   3.519   5.823
 5538TIP3    H116557   2.605   3.525   5.840
 5538TIP3    H216558   2.708   3.540   5.730
 5539TIP3   OH216559   7.816   3.884   3.088
 5539TIP3    H116560   7.905   3.901   3.120
 5539TIP3    H216561   7.821   3.797   3.048
 5540TIP3   OH216562   7.956   5.274   0.463
 5540TIP3    H116563   8.003   5.194   0.441
 5540TIP3    H216564   7.963   5.281   0.558
 5541TIP3   OH216565   4.190   5.029   5.950
 5541TIP3    H116566   4.115   5.043   6.009
 5541TIP3    H216567   4.155   5.048   5.863
 5542TIP3   OH216568   2.629   2.938   1.695
 5542TIP3    H116569   2.704   2.997   1.698
 5542TIP3    H216570   2.608   2.922   1.787
 5543TIP3   OH216571   5.581   0.411   5.076
 5543TIP3    H116572   5.677   0.412   5.074
 5543TIP3    H216573   5.556   0.354   5.004
 5544TIP3   OH216574   6.620   3.685   0.983
 5544TIP3    H116575   6.644   3.593   0.982
 5544TIP3    H216576   6.539   3.690   0.932
 5545TIP3   OH216577  -0.014   3.319   2.056
 5545TIP3    H116578   0.074   3.329   2.091
 5545TIP3    H216579  -0.051   3.408   2.058
 5546TIP3   OH216580   5.804   2.870   2.586
 5546TIP3    H116581   5.878   2.819   2.619
 5546TIP3    H216582   5.803   2.852   2.492
 5547TIP3   OH216583   7.031   3.971   3.946
 5547TIP3    H116584   7.040   3.965   4.042
 5547TIP3    H216585   7.110   3.927   3.913
 5548TIP3   OH216586   6.064   1.495   2.367
 5548TIP3    H116587   6.106   1.500   2.453
 5548TIP3    H216588   6.129   1.529   2.306
 5549TIP3   OH216589   7.986   1.338   2.121
 5549TIP3    H116590   8.023   1.395   2.053
 5549TIP3    H216591   7.895   1.326   2.093
 5550TIP3   OH216592   4.363   7.512   0.456
 5550TIP3    H116593   4.292   7.557   0.501
 5550TIP3    H216594   4.400   7.454   0.523
 5551TIP3   OH216595   7.170   2.355   0.030
 5551TIP3    H116596   7.107   2.285   0.008
 5551TIP3    H216597   7.148   2.379   0.120
 5552TIP3   OH216598   1.963   1.835   6.011
 5552TIP3    H116599   2.004   1.884   6.083
 5552TIP3    H216600   1.958   1.899   5.939
 5553TIP3   OH216601   6.311   6.783   4.227
 5553TIP3    H116602   6.307   6.758   4.134
 5553TIP3    H216603   6.397   6.755   4.256
 5554TIP3   OH216604   1.030   7.795   4.456
 5554TIP3    H116605   1.005   7.840   4.375
 5554TIP3    H216606   1.067   7.712   4.426
 5555TIP3   OH216607   5.371   4.947   5.105
 5555TIP3    H116608   5.286   4.992   5.112
 5555TIP3    H216609   5.348   4.855   5.094
 5556TIP3   OH216610   6.049   2.211   0.109
 5556TIP3    H116611   6.082   2.293   0.073
 5556TIP3    H216612   6.123   2.174   0.157
 5557TIP3   OH216613   7.072   0.115   2.825
 5557TIP3    H116614   7.074   0.046   2.892
 5557TIP3    H216615   6.979   0.132   2.812
 5558TIP3   OH216616   0.604   6.485   4.300
 5558TIP3    H116617   0.554   6.455   4.376
 5558TIP3    H216618   0.696   6.466   4.323
 5559TIP3   OH216619   7.408   1.166   3.635
 5559TIP3    H116620   7.383   1.254   3.661
 5559TIP3    H216621   7.504   1.168   3.633
 5560TIP3   OH216622   6.681   6.649   4.595
 5560TIP3    H116623   6.763   6.689   4.621
 5560TIP3    H216624   6.637   6.627   4.677
 5561TIP3   OH216625   6.310   1.904   3.266
 5561TIP3    H116626   6.262   1.821   3.272
 5561TIP3    H216627   6.307   1.940   3.355
 5562TIP3   OH216628   3.376   7.346   3.661
 5562TIP3    H116629   3.353   7.258   3.631
 5562TIP3    H216630   3.445   7.374   3.601
 5563TIP3   OH216631   2.566   3.018   6.779
 5563TIP3    H116632   2.591   2.925   6.779
 5563TIP3    H216633   2.489   3.022   6.722
 5564TIP3   OH216634   4.138   5.531   2.016
 5564TIP3    H116635   4.203   5.473   1.978
 5564TIP3    H216636   4.140   5.513   2.110
 5565TIP3   OH216637   0.284   1.029   0.056
 5565TIP3    H116638   0.319   1.094   0.116
 5565TIP3    H216639   0.278   1.075  -0.028
 5566TIP3   OH216640   2.253   4.113   3.047
 5566TIP3    H116641   2.262   4.202   3.081
 5566TIP3    H216642   2.159   4.105   3.026
 5567TIP3   OH216643   5.768   0.526   3.305
 5567TIP3    H116644   5.780   0.590   3.374
 5567TIP3    H216645   5.762   0.578   3.225
 5568TIP3   OH216646   4.997   1.867   2.816
 5568TIP3    H116647   5.000   1.772   2.828
 5568TIP3    H216648   5.067   1.885   2.753
 5569TIP3   OH216649   2.864   3.629   3.815
 5569TIP3    H116650   2.805   3.688   3.863
 5569TIP3    H216651   2.852   3.544   3.857
 5570TIP3   OH216652   0.329   5.225   6.366
 5570TIP3    H116653   0.393   5.153   6.364
 5570TIP3    H216654   0.382   5.304   6.358
 5571TIP3   OH216655   2.562   5.773   4.427
 5571TIP3    H116656   2.511   5.836   4.376
 5571TIP3    H216657   2.624   5.736   4.364
 5572TIP3   OH216658   6.962   1.636   4.186
 5572TIP3    H116659   6.915   1.708   4.228
 5572TIP3    H216660   7.026   1.679   4.129
 5573TIP3   OH216661   2.134   2.236   0.465
 5573TIP3    H116662   2.149   2.209   0.374
 5573TIP3    H216663   2.207   2.293   0.486
 5574TIP3   OH216664   2.671   7.615   3.135
 5574TIP3    H116665   2.728   7.539   3.126
 5574TIP3    H216666   2.718   7.685   3.090
 5575TIP3   OH216667   4.739   7.351   5.371
 5575TIP3    H116668   4.756   7.294   5.296
 5575TIP3    H216669   4.701   7.293   5.437
 5576TIP3   OH216670   5.119   6.163   0.247
 5576TIP3    H116671   5.056   6.200   0.309
 5576TIP3    H216672   5.200   6.213   0.262
 5577TIP3   OH216673   3.353   4.544   2.150
 5577TIP3    H116674   3.300   4.475   2.189
 5577TIP3    H216675   3.443   4.523   2.175
 5578TIP3   OH216676   3.597   3.502   1.885
 5578TIP3    H116677   3.573   3.548   1.804
 5578TIP3    H216678   3.574   3.564   1.954
 5579TIP3   OH216679   2.292   6.084   1.158
 5579TIP3    H116680   2.291   6.148   1.087
 5579TIP3    H216681   2.230   6.119   1.223
 5580TIP3   OH216682   0.886   1.969   2.159
 5580TIP3    H116683   0.832   1.982   2.082
 5580TIP3    H216684   0.956   1.910   2.130
 5581TIP3   OH216685   7.414   3.008   4.774
 5581TIP3    H116686   7.416   2.988   4.681
 5581TIP3    H216687   7.354   2.943   4.811
 5582TIP3   OH216688   7.485   2.137   2.005
 5582TIP3    H116689   7.469   2.214   1.950
 5582TIP3    H216690   7.543   2.170   2.074
 5583TIP3   OH216691   0.635   6.111   3.896
 5583TIP3    H116692   0.594   6.151   3.818
 5583TIP3    H216693   0.570   6.121   3.965
 5584TIP3   OH216694   1.608   0.311   4.737
 5584TIP3    H116695   1.560   0.233   4.766
 5584TIP3    H216696   1.583   0.321   4.645
 5585TIP3   OH216697   8.128   5.485   4.828
 5585TIP3    H116698   8.044   5.507   4.868
 5585TIP3    H216699   8.193   5.518   4.890
 5586TIP3   OH216700   7.316   5.405   5.126
 5586TIP3    H116701   7.284   5.317   5.109
 5586TIP3    H216702   7.405   5.393   5.159
 5587TIP3   OH216703   5.167   4.372   3.703
 5587TIP3    H116704   5.131   4.314   3.770
 5587TIP3    H216705   5.115   4.452   3.710
 5588TIP3   OH216706   4.287   2.936   3.704
 5588TIP3    H116707   4.247   2.942   3.790
 5588TIP3    H216708   4.214   2.926   3.643
 5589TIP3   OH216709   3.467   1.886   2.768
 5589TIP3    H116710   3.526   1.956   2.794
 5589TIP3    H216711   3.393   1.893   2.829
 5590TIP3   OH216712   5.492   2.322   1.327
 5590TIP3    H116713   5.509   2.382   1.255
 5590TIP3    H216714   5.415   2.358   1.371
 5591TIP3   OH216715   8.243   1.562   1.331
 5591TIP3    H116716   8.285   1.600   1.408
 5591TIP3    H216717   8.268   1.470   1.332
 5592TIP3   OH216718   0.555   7.686   2.647
 5592TIP3    H116719   0.482   7.694   2.585
 5592TIP3    H216720   0.584   7.775   2.662
 5593TIP3   OH216721   8.241   0.413   5.397
 5593TIP3    H116722   8.299   0.421   5.321
 5593TIP3    H216723   8.170   0.475   5.380
 5594TIP3   OH216724   3.980   4.722   5.765
 5594TIP3    H116725   4.011   4.778   5.693
 5594TIP3    H216726   4.059   4.701   5.814
 5595TIP3   OH216727   0.428   2.798   3.628
 5595TIP3    H116728   0.395   2.713   3.598
 5595TIP3    H216729   0.503   2.815   3.571
 5596TIP3   OH216730   6.502   7.057   5.228
 5596TIP3    H116731   6.580   7.010   5.256
 5596TIP3    H216732   6.535   7.142   5.199
 5597TIP3   OH216733   2.709   7.475   2.335
 5597TIP3    H116734   2.727   7.546   2.273
 5597TIP3    H216735   2.742   7.396   2.292
 5598TIP3   OH216736   1.380   3.773   2.462
 5598TIP3    H116737   1.305   3.713   2.469
 5598TIP3    H216738   1.350   3.854   2.502
 5599TIP3   OH216739   7.397   1.050   1.089
 5599TIP3    H116740   7.333   1.057   1.019
 5599TIP3    H216741   7.469   1.107   1.063
 5600TIP3   OH216742   3.906   0.944   5.383
 5600TIP3    H116743   3.935   0.937   5.292
 5600TIP3    H216744   3.961   0.882   5.430
 5601TIP3   OH216745   1.630   4.167   0.767
 5601TIP3    H116746   1.660   4.179   0.857
 5601TIP3    H216747   1.678   4.233   0.717
 5602TIP3   OH216748   7.617   3.349   4.264
 5602TIP3    H116749   7.619   3.438   4.299
 5602TIP3    H216750   7.677   3.351   4.190
 5603TIP3   OH216751   2.629   7.409   5.990
 5603TIP3    H116752   2.675   7.327   6.002
 5603TIP3    H216753   2.536   7.386   5.992
 5604TIP3   OH216754   5.876   7.041   1.724
 5604TIP3    H116755   5.912   7.112   1.777
 5604TIP3    H216756   5.864   7.079   1.637
 5605TIP3   OH216757   2.870   4.588   4.293
 5605TIP3    H116758   2.819   4.619   4.368
 5605TIP3    H216759   2.958   4.575   4.327
 5606TIP3   OH216760   8.099   2.374   5.954
 5606TIP3    H116761   8.126   2.438   6.020
 5606TIP3    H216762   8.137   2.292   5.984
 5607TIP3   OH216763   2.963   5.393   2.225
 5607TIP3    H116764   2.989   5.423   2.312
 5607TIP3    H216765   2.888   5.447   2.202
 5608TIP3   OH216766   1.023   5.149   6.172
 5608TIP3    H116767   1.028   5.133   6.266
 5608TIP3    H216768   1.112   5.131   6.140
 5609TIP3   OH216769   8.083   4.846   3.416
 5609TIP3    H116770   8.150   4.903   3.455
 5609TIP3    H216771   8.052   4.894   3.340
 5610TIP3   OH216772   4.477   4.144   3.914
 5610TIP3    H116773   4.512   4.093   3.840
 5610TIP3    H216774   4.554   4.178   3.959
 5611TIP3   OH216775   1.326   0.188   0.852
 5611TIP3    H116776   1.354   0.098   0.831
 5611TIP3    H216777   1.329   0.234   0.768
 5612TIP3   OH216778   7.449   5.245   2.635
 5612TIP3    H116779   7.400   5.173   2.676
 5612TIP3    H216780   7.507   5.202   2.573
 5613TIP3   OH216781   5.527   0.051   5.949
 5613TIP3    H116782   5.485  -0.010   6.010
 5613TIP3    H216783   5.464   0.122   5.939
 5614TIP3   OH216784   6.620   1.247   5.153
 5614TIP3    H116785   6.542   1.300   5.140
 5614TIP3    H216786   6.669   1.292   5.221
 5615TIP3   OH216787   5.530   2.783   3.297
 5615TIP3    H116788   5.499   2.866   3.262
 5615TIP3    H216789   5.585   2.806   3.371
 5616TIP3   OH216790   8.023   4.975   3.178
 5616TIP3    H116791   8.109   4.971   3.136
 5616TIP3    H216792   7.962   4.951   3.108
 5617TIP3   OH216793   6.306   1.955   6.224
 5617TIP3    H116794   6.324   1.917   6.137
 5617TIP3    H216795   6.259   1.886   6.270
 5618TIP3   OH216796   4.868   5.193   5.150
 5618TIP3    H116797   4.781   5.207   5.112
 5618TIP3    H216798   4.926   5.186   5.074
 5619TIP3   OH216799   0.429   6.815   5.018
 5619TIP3    H116800   0.462   6.894   5.060
 5619TIP3    H216801   0.362   6.847   4.956
 5620TIP3   OH216802   4.806   0.743   1.587
 5620TIP3    H116803   4.748   0.745   1.663
 5620TIP3    H216804   4.769   0.675   1.530
 5621TIP3   OH216805   2.297   1.596   1.954
 5621TIP3    H116806   2.212   1.626   1.923
 5621TIP3    H216807   2.356   1.669   1.935
 5622TIP3   OH216808   0.894   6.105   4.671
 5622TIP3    H116809   0.893   6.099   4.575
 5622TIP3    H216810   0.804   6.130   4.694
 5623TIP3   OH216811   6.244   4.171   2.848
 5623TIP3    H116812   6.245   4.211   2.760
 5623TIP3    H216813   6.171   4.110   2.846
 5624TIP3   OH216814   5.631   6.344   4.095
 5624TIP3    H116815   5.667   6.408   4.156
 5624TIP3    H216816   5.627   6.263   4.146
 5625TIP3   OH216817   3.122   7.272   1.781
 5625TIP3    H116818   3.034   7.258   1.746
 5625TIP3    H216819   3.115   7.243   1.873
 5626TIP3   OH216820   6.323   7.409   3.448
 5626TIP3    H116821   6.308   7.314   3.446
 5626TIP3    H216822   6.363   7.425   3.533
 5627TIP3   OH216823   7.101   5.699   2.611
 5627TIP3    H116824   7.105   5.665   2.700
 5627TIP3    H216825   7.104   5.794   2.621
 5628TIP3   OH216826   1.496   1.580   1.744
 5628TIP3    H116827   1.551   1.524   1.690
 5628TIP3    H216828   1.411   1.535   1.748
 5629TIP3   OH216829   5.324   2.943   0.795
 5629TIP3    H116830   5.414   2.977   0.798
 5629TIP3    H216831   5.323   2.884   0.719
 5630TIP3   OH216832   7.633   2.090   4.322
 5630TIP3    H116833   7.701   2.087   4.254
 5630TIP3    H216834   7.551   2.102   4.274
 5631TIP3   OH216835   3.045   7.817   6.258
 5631TIP3    H116836   3.005   7.731   6.243
 5631TIP3    H216837   2.970   7.877   6.264
 5632TIP3   OH216838   0.670   7.683   2.250
 5632TIP3    H116839   0.705   7.669   2.337
 5632TIP3    H216840   0.700   7.771   2.226
 5633TIP3   OH216841   2.239   7.363   0.759
 5633TIP3    H116842   2.251   7.344   0.852
 5633TIP3    H216843   2.164   7.422   0.755
 5634TIP3   OH216844   3.648   2.263   2.632
 5634TIP3    H116845   3.641   2.235   2.541
 5634TIP3    H216846   3.739   2.245   2.656
 5635TIP3   OH216847   7.309   7.275   6.030
 5635TIP3    H116848   7.403   7.292   6.032
 5635TIP3    H216849   7.279   7.294   6.118
 5636TIP3   OH216850   3.652   7.117   4.138
 5636TIP3    H116851   3.675   7.208   4.158
 5636TIP3    H216852   3.644   7.115   4.043
 5637TIP3   OH216853   2.280   7.011   6.392
 5637TIP3    H116854   2.365   7.034   6.356
 5637TIP3    H216855   2.218   7.065   6.343
 5638TIP3   OH216856   3.873   0.056   1.207
 5638TIP3    H116857   3.947   0.041   1.266
 5638TIP3    H216858   3.815  -0.019   1.221
 5639TIP3   OH216859   0.858   0.756   1.851
 5639TIP3    H116860   0.882   0.664   1.841
 5639TIP3    H216861   0.923   0.804   1.800
 5640TIP3   OH216862   7.544   5.121   3.636
 5640TIP3    H116863   7.562   5.213   3.613
 5640TIP3    H216864   7.626   5.076   3.619
 5641TIP3   OH216865   2.420   6.993   1.010
 5641TIP3    H116866   2.325   6.998   1.014
 5641TIP3    H216867   2.450   7.028   1.094
 5642TIP3   OH216868   8.240   7.617   3.694
 5642TIP3    H116869   8.209   7.527   3.708
 5642TIP3    H216870   8.270   7.618   3.603
 5643TIP3   OH216871   3.091   0.625   2.490
 5643TIP3    H116872   3.154   0.660   2.426
 5643TIP3    H216873   3.033   0.699   2.508
 5644TIP3   OH216874   3.469   6.460   1.224
 5644TIP3    H116875   3.486   6.549   1.195
 5644TIP3    H216876   3.389   6.434   1.178
 5645TIP3   OH216877   5.069   5.553   0.782
 5645TIP3    H116878   5.110   5.473   0.750
 5645TIP3    H216879   4.978   5.528   0.800
 5646TIP3   OH216880   6.796   1.801   4.946
 5646TIP3    H116881   6.750   1.780   4.864
 5646TIP3    H216882   6.756   1.743   5.011
 5647TIP3   OH216883   0.835   0.429   2.899
 5647TIP3    H116884   0.778   0.424   2.976
 5647TIP3    H216885   0.859   0.338   2.881
 5648TIP3   OH216886   6.259   4.212   2.586
 5648TIP3    H116887   6.190   4.264   2.545
 5648TIP3    H216888   6.265   4.134   2.531
 5649TIP3   OH216889   4.402   4.493   2.073
 5649TIP3    H116890   4.485   4.476   2.119
 5649TIP3    H216891   4.404   4.587   2.055
 5650TIP3   OH216892   3.383   5.118   6.743
 5650TIP3    H116893   3.332   5.100   6.665
 5650TIP3    H216894   3.474   5.119   6.713
 5651TIP3   OH216895   4.334   4.332   6.593
 5651TIP3    H116896   4.425   4.358   6.609
 5651TIP3    H216897   4.298   4.315   6.680
 5652TIP3   OH216898   1.268   2.677   3.323
 5652TIP3    H116899   1.274   2.703   3.415
 5652TIP3    H216900   1.339   2.724   3.279
 5653TIP3   OH216901   7.799   6.705   5.654
 5653TIP3    H116902   7.813   6.610   5.650
 5653TIP3    H216903   7.704   6.715   5.657
 5654TIP3   OH216904   5.299   6.029   1.128
 5654TIP3    H116905   5.339   5.992   1.206
 5654TIP3    H216906   5.369   6.031   1.063
 5655TIP3   OH216907   3.834   4.125   0.621
 5655TIP3    H116908   3.894   4.058   0.586
 5655TIP3    H216909   3.808   4.175   0.544
 5656TIP3   OH216910   7.082   1.298   2.195
 5656TIP3    H116911   7.113   1.229   2.137
 5656TIP3    H216912   7.026   1.353   2.139
 5657TIP3   OH216913   0.064   4.222   4.098
 5657TIP3    H116914   0.018   4.300   4.067
 5657TIP3    H216915   0.016   4.197   4.177
 5658TIP3   OH216916   3.339   3.384   5.936
 5658TIP3    H116917   3.412   3.349   5.884
 5658TIP3    H216918   3.367   3.472   5.959
 5659TIP3   OH216919   7.876   7.404   6.376
 5659TIP3    H116920   7.911   7.317   6.394
 5659TIP3    H216921   7.884   7.415   6.282
 5660TIP3   OH216922   6.737   0.659   2.173
 5660TIP3    H116923   6.806   0.631   2.233
 5660TIP3    H216924   6.657   0.621   2.209
 5661TIP3   OH216925   4.457   1.351   3.375
 5661TIP3    H116926   4.369   1.313   3.385
 5661TIP3    H216927   4.476   1.390   3.460
 5662TIP3   OH216928   4.936   7.566   2.770
 5662TIP3    H116929   4.888   7.647   2.789
 5662TIP3    H216930   4.868   7.498   2.769
 5663TIP3   OH216931   5.276   0.509   1.087
 5663TIP3    H116932   5.340   0.491   1.018
 5663TIP3    H216933   5.262   0.425   1.130
 5664TIP3   OH216934   0.005   2.242   1.087
 5664TIP3    H116935   0.095   2.263   1.111
 5664TIP3    H216936  -0.048   2.277   1.159
 5665TIP3   OH216937   6.012   0.613   4.892
 5665TIP3    H116938   6.052   0.532   4.859
 5665TIP3    H216939   5.928   0.618   4.848
 5666TIP3   OH216940   2.857   7.468   5.166
 5666TIP3    H116941   2.944   7.435   5.188
 5666TIP3    H216942   2.839   7.434   5.079
 5667TIP3   OH216943   6.177   0.314   5.892
 5667TIP3    H116944   6.178   0.287   5.800
 5667TIP3    H216945   6.161   0.408   5.889
 5668TIP3   OH216946   6.426   0.911   5.491
 5668TIP3    H116947   6.401   0.998   5.522
 5668TIP3    H216948   6.446   0.924   5.398
 5669TIP3   OH216949   6.586   5.945   2.197
 5669TIP3    H116950   6.559   5.970   2.286
 5669TIP3    H216951   6.541   6.007   2.140
 5670TIP3   OH216952   4.008   7.237   6.509
 5670TIP3    H116953   4.059   7.205   6.583
 5670TIP3    H216954   4.073   7.273   6.449
 5671TIP3   OH216955   0.673   4.039   5.896
 5671TIP3    H116956   0.765   4.064   5.904
 5671TIP3    H216957   0.641   4.037   5.986
 5672TIP3   OH216958   1.012   0.268   6.815
 5672TIP3    H116959   1.070   0.196   6.792
 5672TIP3    H216960   0.925   0.229   6.818
 5673TIP3   OH216961   7.333   1.214   0.422
 5673TIP3    H116962   7.295   1.201   0.335
 5673TIP3    H216963   7.258   1.234   0.478
 5674TIP3   OH216964   7.865   2.216   0.576
 5674TIP3    H116965   7.896   2.166   0.501
 5674TIP3    H216966   7.921   2.188   0.648
 5675TIP3   OH216967   7.286   3.628   1.224
 5675TIP3    H116968   7.349   3.585   1.282
 5675TIP3    H216969   7.313   3.720   1.223
 5676TIP3   OH216970   0.564   4.197   1.050
 5676TIP3    H116971   0.576   4.269   0.988
 5676TIP3    H216972   0.649   4.189   1.095
 5677TIP3   OH216973   2.816   4.238   1.976
 5677TIP3    H116974   2.899   4.205   1.941
 5677TIP3    H216975   2.815   4.330   1.951
 5678TIP3   OH216976   7.667   6.542   1.885
 5678TIP3    H116977   7.749   6.526   1.932
 5678TIP3    H216978   7.672   6.633   1.857
 5679TIP3   OH216979   6.709   2.776   4.130
 5679TIP3    H116980   6.654   2.846   4.164
 5679TIP3    H216981   6.775   2.821   4.076
 5680TIP3   OH216982   6.809   5.688   3.308
 5680TIP3    H116983   6.792   5.594   3.320
 5680TIP3    H216984   6.903   5.693   3.291
 5681TIP3   OH216985   2.600   2.805   6.289
 5681TIP3    H116986   2.572   2.714   6.301
 5681TIP3    H216987   2.690   2.798   6.258
 5682TIP3   OH216988   6.106   1.140   1.248
 5682TIP3    H116989   6.097   1.219   1.301
 5682TIP3    H216990   6.168   1.086   1.296
 5683TIP3   OH216991   7.729   7.578   1.070
 5683TIP3    H116992   7.719   7.520   1.146
 5683TIP3    H216993   7.817   7.615   1.079
 5684TIP3   OH216994   7.439   5.048   5.379
 5684TIP3    H116995   7.424   4.973   5.438
 5684TIP3    H216996   7.533   5.048   5.364
 5685TIP3   OH216997   6.329   7.014   4.805
 5685TIP3    H116998   6.244   6.994   4.844
 5685TIP3    H216999   6.315   7.096   4.757
 5686TIP3   OH217000   1.927  -0.006   6.731
 5686TIP3    H117001   2.003   0.002   6.789
 5686TIP3    H217002   1.855   0.036   6.779
 5687TIP3   OH217003   2.946   4.210   2.485
 5687TIP3    H117004   2.928   4.117   2.470
 5687TIP3    H217005   3.040   4.220   2.471
 5688TIP3   OH217006   0.180   7.457   2.926
 5688TIP3    H117007   0.092   7.490   2.945
 5688TIP3    H217008   0.179   7.439   2.832
 5689TIP3   OH217009   6.492   0.249   5.773
 5689TIP3    H117010   6.576   0.262   5.728
 5689TIP3    H217011   6.501   0.164   5.816
 5690TIP3   OH217012   0.177   0.935   3.917
 5690TIP3    H117013   0.194   0.986   3.838
 5690TIP3    H217014   0.165   0.845   3.885
 5691TIP3   OH217015   6.986   1.644   2.536
 5691TIP3    H117016   6.898   1.614   2.510
 5691TIP3    H217017   6.971   1.697   2.614
 5692TIP3   OH217018   6.509   0.540   3.804
 5692TIP3    H117019   6.556   0.484   3.866
 5692TIP3    H217020   6.509   0.626   3.845
 5693TIP3   OH217021   0.528   2.343   0.778
 5693TIP3    H117022   0.475   2.423   0.774
 5693TIP3    H217023   0.466   2.274   0.804
 5694TIP3   OH217024   7.727   6.256   6.000
 5694TIP3    H117025   7.804   6.298   5.961
 5694TIP3    H217026   7.708   6.307   6.078
 5695TIP3   OH217027   5.564   6.873   6.270
 5695TIP3    H117028   5.596   6.790   6.305
 5695TIP3    H217029   5.591   6.873   6.179
 5696TIP3   OH217030   4.317   5.143   4.522
 5696TIP3    H117031   4.275   5.132   4.607
 5696TIP3    H217032   4.297   5.063   4.474
 5697TIP3   OH217033   6.944   0.484   0.360
 5697TIP3    H117034   6.984   0.397   0.355
 5697TIP3    H217035   6.973   0.520   0.444
 5698TIP3   OH217036   8.112   1.348   1.643
 5698TIP3    H117037   8.078   1.353   1.732
 5698TIP3    H217038   8.048   1.395   1.590
 5699TIP3   OH217039   3.681   7.049   3.360
 5699TIP3    H117040   3.609   7.107   3.385
 5699TIP3    H217041   3.643   6.961   3.365
 5700TIP3   OH217042   5.511   1.858   2.364
 5700TIP3    H117043   5.557   1.799   2.303
 5700TIP3    H217044   5.514   1.943   2.321
 5701TIP3   OH217045   5.775   1.168   0.530
 5701TIP3    H117046   5.784   1.113   0.452
 5701TIP3    H217047   5.754   1.107   0.600
 5702TIP3   OH217048   7.969   5.534   6.271
 5702TIP3    H117049   8.054   5.556   6.309
 5702TIP3    H217050   7.916   5.506   6.345
 5703TIP3   OH217051   2.522   2.404   1.596
 5703TIP3    H117052   2.468   2.411   1.517
 5703TIP3    H217053   2.555   2.493   1.610
 5704TIP3   OH217054   7.299   3.816   2.975
 5704TIP3    H117055   7.237   3.866   3.027
 5704TIP3    H217056   7.385   3.848   3.002
 5705TIP3   OH217057   7.315   6.096   0.392
 5705TIP3    H117058   7.346   6.107   0.482
 5705TIP3    H217059   7.230   6.053   0.400
 5706TIP3   OH217060   1.250   5.609   4.105
 5706TIP3    H117061   1.219   5.681   4.161
 5706TIP3    H217062   1.308   5.652   4.042
 5707TIP3   OH217063   8.078   4.436   1.674
 5707TIP3    H117064   8.089   4.440   1.769
 5707TIP3    H217065   8.152   4.486   1.640
 5708TIP3   OH217066   1.697   6.779   0.836
 5708TIP3    H117067   1.781   6.771   0.882
 5708TIP3    H217068   1.716   6.833   0.760
 5709TIP3   OH217069   1.689   3.866   3.886
 5709TIP3    H117070   1.629   3.923   3.837
 5709TIP3    H217071   1.632   3.812   3.940
 5710TIP3   OH217072   5.181   2.461   3.727
 5710TIP3    H117073   5.235   2.383   3.718
 5710TIP3    H217074   5.243   2.530   3.752
 5711TIP3   OH217075   5.396   6.535   6.530
 5711TIP3    H117076   5.475   6.574   6.569
 5711TIP3    H217077   5.407   6.548   6.436
 5712TIP3   OH217078   4.126   5.413   3.824
 5712TIP3    H117079   4.175   5.389   3.745
 5712TIP3    H217080   4.160   5.356   3.892
 5713TIP3   OH217081   7.378   1.697   3.559
 5713TIP3    H117082   7.387   1.777   3.612
 5713TIP3    H217083   7.305   1.717   3.500
 5714TIP3   OH217084   3.993   0.714   1.236
 5714TIP3    H117085   3.989   0.800   1.277
 5714TIP3    H217086   3.949   0.725   1.151
 5715TIP3   OH217087   2.608   2.238   6.497
 5715TIP3    H117088   2.634   2.267   6.409
 5715TIP3    H217089   2.520   2.202   6.485
 5716TIP3   OH217090   8.185   3.133   4.340
 5716TIP3    H117091   8.106   3.186   4.347
 5716TIP3    H217092   8.181   3.094   4.252
 5717TIP3   OH217093   2.793   7.805   4.397
 5717TIP3    H117094   2.732   7.853   4.341
 5717TIP3    H217095   2.801   7.719   4.355
 5718TIP3   OH217096   5.170   4.978   1.765
 5718TIP3    H117097   5.150   5.038   1.837
 5718TIP3    H217098   5.087   4.965   1.720
 5719TIP3   OH217099   6.851   6.288   4.248
 5719TIP3    H117100   6.915   6.359   4.240
 5719TIP3    H217101   6.844   6.250   4.161
 5720TIP3   OH217102   1.438   4.197   2.801
 5720TIP3    H117103   1.487   4.271   2.767
 5720TIP3    H217104   1.347   4.226   2.801
 5721TIP3   OH217105   6.821   0.016   3.825
 5721TIP3    H117106   6.760   0.027   3.898
 5721TIP3    H217107   6.900  -0.021   3.865
 5722TIP3   OH217108   2.138   6.414   6.377
 5722TIP3    H117109   2.136   6.321   6.354
 5722TIP3    H217110   2.051   6.446   6.356
 5723TIP3   OH217111   2.663   0.150   1.644
 5723TIP3    H117112   2.644   0.096   1.721
 5723TIP3    H217113   2.636   0.238   1.669
 5724TIP3   OH217114   2.442   1.554   6.154
 5724TIP3    H117115   2.392   1.533   6.075
 5724TIP3    H217116   2.377   1.593   6.213
 5725TIP3   OH217117   6.506   0.123   5.252
 5725TIP3    H117118   6.461   0.075   5.321
 5725TIP3    H217119   6.575   0.172   5.297
 5726TIP3   OH217120   1.322   4.917   0.709
 5726TIP3    H117121   1.233   4.938   0.740
 5726TIP3    H217122   1.371   4.998   0.721
 5727TIP3   OH217123   6.379   1.695   3.476
 5727TIP3    H117124   6.390   1.601   3.485
 5727TIP3    H217125   6.456   1.724   3.426
 5728TIP3   OH217126   6.242   4.980   3.401
 5728TIP3    H117127   6.252   5.023   3.317
 5728TIP3    H217128   6.305   4.908   3.399
 5729TIP3   OH217129   1.731   7.708   3.734
 5729TIP3    H117130   1.702   7.728   3.824
 5729TIP3    H217131   1.700   7.782   3.682
 5730TIP3   OH217132   4.679   2.592   0.468
 5730TIP3    H117133   4.731   2.657   0.419
 5730TIP3    H217134   4.708   2.507   0.433
 5731TIP3   OH217135   7.129   7.737   6.145
 5731TIP3    H117136   7.200   7.682   6.112
 5731TIP3    H217137   7.168   7.786   6.218
 5732TIP3   OH217138   2.998   4.892   5.656
 5732TIP3    H117139   3.088   4.924   5.657
 5732TIP3    H217140   3.005   4.800   5.633
 5733TIP3   OH217141   0.964   2.989   5.663
 5733TIP3    H117142   0.900   2.999   5.733
 5733TIP3    H217143   0.915   3.007   5.583
 5734TIP3   OH217144   6.928   2.133   3.559
 5734TIP3    H117145   6.912   2.039   3.551
 5734TIP3    H217146   6.901   2.154   3.648
 5735TIP3   OH217147   1.158   1.471   0.890
 5735TIP3    H117148   1.088   1.491   0.828
 5735TIP3    H217149   1.169   1.376   0.884
 5736TIP3   OH217150   4.582   7.337   2.407
 5736TIP3    H117151   4.493   7.356   2.437
 5736TIP3    H217152   4.570   7.283   2.329
 5737TIP3   OH217153   3.542   0.276   4.679
 5737TIP3    H117154   3.515   0.187   4.657
 5737TIP3    H217155   3.547   0.277   4.775
 5738TIP3   OH217156  -0.002   4.501   5.925
 5738TIP3    H117157   0.015   4.595   5.913
 5738TIP3    H217158  -0.086   4.497   5.970
 5739TIP3   OH217159   7.930   1.684   3.413
 5739TIP3    H117160   7.887   1.609   3.372
 5739TIP3    H217161   7.933   1.751   3.344
 5740TIP3   OH217162   3.305   0.771   3.900
 5740TIP3    H117163   3.220   0.726   3.909
 5740TIP3    H217164   3.369   0.706   3.927
 5741TIP3   OH217165   7.881   4.707   0.457
 5741TIP3    H117166   7.971   4.734   0.443
 5741TIP3    H217167   7.829   4.769   0.405
 5742TIP3   OH217168   8.071   7.135   0.439
 5742TIP3    H117169   7.995   7.092   0.478
 5742TIP3    H217170   8.073   7.104   0.349
 5743TIP3   OH217171   8.006   1.263   0.459
 5743TIP3    H117172   8.009   1.327   0.388
 5743TIP3    H217173   8.092   1.270   0.501
 5744TIP3   OH217174   1.629   3.097   0.118
 5744TIP3    H117175   1.623   3.009   0.080
 5744TIP3    H217176   1.552   3.103   0.175
 5745TIP3   OH217177   0.613   5.194   2.163
 5745TIP3    H117178   0.603   5.276   2.115
 5745TIP3    H217179   0.573   5.128   2.106
 5746TIP3   OH217180   2.601   5.188   5.168
 5746TIP3    H117181   2.635   5.128   5.102
 5746TIP3    H217182   2.671   5.252   5.182
 5747TIP3   OH217183   5.067   5.447   5.118
 5747TIP3    H117184   5.021   5.381   5.170
 5747TIP3    H217185   5.035   5.432   5.029
 5748TIP3   OH217186   2.129   7.790   6.082
 5748TIP3    H117187   2.183   7.769   6.006
 5748TIP3    H217188   2.051   7.735   6.073
 5749TIP3   OH217189   5.547   1.182   2.074
 5749TIP3    H117190   5.455   1.201   2.052
 5749TIP3    H217191   5.549   1.179   2.169
 5750TIP3   OH217192   4.740   0.215   5.905
 5750TIP3    H117193   4.695   0.236   5.824
 5750TIP3    H217194   4.746   0.120   5.906
 5751TIP3   OH217195   7.364   4.165   6.552
 5751TIP3    H117196   7.400   4.245   6.591
 5751TIP3    H217197   7.423   4.096   6.580
 5752TIP3   OH217198   4.313   4.713   0.108
 5752TIP3    H117199   4.274   4.669   0.184
 5752TIP3    H217200   4.265   4.679   0.033
 5753TIP3   OH217201   4.583   6.346   0.112
 5753TIP3    H117202   4.525   6.400   0.165
 5753TIP3    H217203   4.541   6.260   0.108
 5754TIP3   OH217204   0.539   2.838   0.968
 5754TIP3    H117205   0.540   2.890   0.887
 5754TIP3    H217206   0.481   2.765   0.949
 5755TIP3   OH217207   6.754   0.988   2.591
 5755TIP3    H117208   6.736   0.975   2.684
 5755TIP3    H217209   6.725   0.907   2.550
 5756TIP3   OH217210   1.483   0.212   2.067
 5756TIP3    H117211   1.451   0.152   1.999
 5756TIP3    H217212   1.520   0.285   2.018
 5757TIP3   OH217213   0.073   5.731   2.875
 5757TIP3    H117214   0.110   5.696   2.956
 5757TIP3    H217215  -0.002   5.674   2.856
 5758TIP3   OH217216   4.951   4.555   5.407
 5758TIP3    H117217   5.030   4.510   5.376
 5758TIP3    H217218   4.983   4.618   5.472
 5759TIP3   OH217219   7.932   3.251   4.545
 5759TIP3    H117220   7.945   3.268   4.451
 5759TIP3    H217221   7.874   3.321   4.574
 5760TIP3   OH217222   1.544   6.851   1.042
 5760TIP3    H117223   1.609   6.819   1.104
 5760TIP3    H217224   1.584   6.838   0.956
 5761TIP3   OH217225   5.195   3.573   3.313
 5761TIP3    H117226   5.253   3.604   3.244
 5761TIP3    H217227   5.118   3.541   3.267
 5762TIP3   OH217228   4.314   3.938   3.649
 5762TIP3    H117229   4.342   4.016   3.602
 5762TIP3    H217230   4.312   3.869   3.582
 5763TIP3   OH217231   2.582   4.971   4.737
 5763TIP3    H117232   2.531   4.933   4.809
 5763TIP3    H217233   2.517   4.991   4.671
 5764TIP3   OH217234   4.862   2.379   4.074
 5764TIP3    H117235   4.894   2.456   4.121
 5764TIP3    H217236   4.844   2.410   3.985
 5765TIP3   OH217237   2.991   5.122   2.177
 5765TIP3    H117238   2.976   5.216   2.180
 5765TIP3    H217239   2.929   5.085   2.240
 5766TIP3   OH217240   7.623   2.898   4.547
 5766TIP3    H117241   7.692   2.939   4.495
 5766TIP3    H217242   7.544   2.948   4.524
 5767TIP3   OH217243   7.930   5.919   5.414
 5767TIP3    H117244   7.943   6.007   5.448
 5767TIP3    H217245   7.965   5.922   5.325
 5768TIP3   OH217246   1.400   3.813   6.250
 5768TIP3    H117247   1.413   3.721   6.272
 5768TIP3    H217248   1.361   3.852   6.328
 5769TIP3   OH217249   1.075   3.357   1.877
 5769TIP3    H117250   1.126   3.382   1.800
 5769TIP3    H217251   1.128   3.291   1.921
 5770TIP3   OH217252   6.463   3.041   4.945
 5770TIP3    H117253   6.399   3.079   4.885
 5770TIP3    H217254   6.417   2.967   4.985
 5771TIP3   OH217255   7.772   2.276   2.764
 5771TIP3    H117256   7.858   2.303   2.732
 5771TIP3    H217257   7.789   2.232   2.847
 5772TIP3   OH217258   0.328   4.120   5.284
 5772TIP3    H117259   0.234   4.118   5.300
 5772TIP3    H217260   0.360   4.193   5.338
 5773TIP3   OH217261   5.969   2.130   0.945
 5773TIP3    H117262   5.890   2.112   0.996
 5773TIP3    H217263   6.038   2.082   0.991
 5774TIP3   OH217264   5.528   1.465   2.358
 5774TIP3    H117265   5.493   1.381   2.389
 5774TIP3    H217266   5.619   1.465   2.385
 5775TIP3   OH217267   1.685   3.245   0.417
 5775TIP3    H117268   1.736   3.235   0.497
 5775TIP3    H217269   1.608   3.294   0.443
 5776TIP3   OH217270   7.293   5.278   4.562
 5776TIP3    H117271   7.270   5.254   4.652
 5776TIP3    H217272   7.345   5.205   4.530
 5777TIP3   OH217273   3.716   7.455   1.475
 5777TIP3    H117274   3.781   7.411   1.421
 5777TIP3    H217275   3.698   7.537   1.429
 5778TIP3   OH217276   8.181   2.074   5.945
 5778TIP3    H117277   8.148   1.985   5.943
 5778TIP3    H217278   8.186   2.096   6.038
 5779TIP3   OH217279   6.872   1.618   0.953
 5779TIP3    H117280   6.800   1.663   0.998
 5779TIP3    H217281   6.945   1.680   0.958
 5780TIP3   OH217282   3.392   2.933   4.903
 5780TIP3    H117283   3.318   2.901   4.954
 5780TIP3    H217284   3.423   2.856   4.854
 5781TIP3   OH217285   7.247   4.351   3.512
 5781TIP3    H117286   7.215   4.284   3.572
 5781TIP3    H217287   7.330   4.315   3.478
 5782TIP3   OH217288   1.823   2.088   3.805
 5782TIP3    H117289   1.845   2.044   3.723
 5782TIP3    H217290   1.727   2.097   3.803
 5783TIP3   OH217291   2.828   2.078   6.067
 5783TIP3    H117292   2.853   2.095   6.158
 5783TIP3    H217293   2.741   2.039   6.074
 5784TIP3   OH217294   1.195   7.715   0.287
 5784TIP3    H117295   1.107   7.679   0.287
 5784TIP3    H217296   1.184   7.807   0.265
 5785TIP3   OH217297   2.416   5.799   6.803
 5785TIP3    H117298   2.511   5.786   6.795
 5785TIP3    H217299   2.391   5.839   6.720
 5786TIP3   OH217300   7.976   5.136   3.909
 5786TIP3    H117301   8.006   5.134   4.000
 5786TIP3    H217302   7.903   5.075   3.906
 5787TIP3   OH217303   0.956   3.681   2.201
 5787TIP3    H117304   0.934   3.608   2.142
 5787TIP3    H217305   1.050   3.695   2.186
 5788TIP3   OH217306   8.096   2.464   5.671
 5788TIP3    H117307   8.180   2.465   5.626
 5788TIP3    H217308   8.117   2.448   5.763
 5789TIP3   OH217309   0.113   0.139   5.280
 5789TIP3    H117310   0.096   0.150   5.373
 5789TIP3    H217311   0.114   0.229   5.245
 5790TIP3   OH217312   6.185   4.997   2.846
 5790TIP3    H117313   6.154   5.065   2.787
 5790TIP3    H217314   6.273   4.975   2.813
 5791TIP3   OH217315   0.968   5.537   5.661
 5791TIP3    H117316   0.926   5.553   5.577
 5791TIP3    H217317   1.002   5.623   5.688
 5792TIP3   OH217318   7.203   3.620   4.985
 5792TIP3    H117319   7.221   3.666   4.903
 5792TIP3    H217320   7.258   3.541   4.981
 5793TIP3   OH217321   4.130   0.893   2.413
 5793TIP3    H117322   4.106   0.861   2.500
 5793TIP3    H217323   4.056   0.947   2.387
 5794TIP3   OH217324   1.773   2.485   2.239
 5794TIP3    H117325   1.797   2.398   2.270
 5794TIP3    H217326   1.683   2.497   2.269
 5795TIP3   OH217327   4.104   2.539   1.022
 5795TIP3    H117328   4.054   2.587   1.089
 5795TIP3    H217329   4.087   2.447   1.041
 5796TIP3   OH217330   6.701   7.806   2.554
 5796TIP3    H117331   6.726   7.861   2.480
 5796TIP3    H217332   6.608   7.824   2.566
 5797TIP3   OH217333   1.525   5.364   4.072
 5797TIP3    H117334   1.606   5.340   4.027
 5797TIP3    H217335   1.465   5.291   4.055
 5798TIP3   OH217336   0.744   6.245   6.333
 5798TIP3    H117337   0.760   6.223   6.424
 5798TIP3    H217338   0.804   6.189   6.283
 5799TIP3   OH217339   6.471   5.454   6.490
 5799TIP3    H117340   6.415   5.464   6.414
 5799TIP3    H217341   6.417   5.481   6.564
 5800TIP3   OH217342   6.028   0.162   2.583
 5800TIP3    H117343   5.989   0.243   2.550
 5800TIP3    H217344   6.108   0.151   2.531
 5801TIP3   OH217345   2.352   0.923   2.535
 5801TIP3    H117346   2.319   0.843   2.576
 5801TIP3    H217347   2.441   0.932   2.570
 5802TIP3   OH217348   2.788   5.784   1.932
 5802TIP3    H117349   2.790   5.832   1.849
 5802TIP3    H217350   2.811   5.850   1.998
 5803TIP3   OH217351   7.005   5.999   6.673
 5803TIP3    H117352   6.994   5.910   6.641
 5803TIP3    H217353   7.087   6.029   6.632
 5804TIP3   OH217354   4.701   4.232   4.038
 5804TIP3    H117355   4.742   4.319   4.041
 5804TIP3    H217356   4.726   4.191   4.121
 5805TIP3   OH217357   1.284   1.045   1.822
 5805TIP3    H117358   1.308   1.120   1.877
 5805TIP3    H217359   1.213   1.077   1.767
 5806TIP3   OH217360   2.166   7.687   2.889
 5806TIP3    H117361   2.216   7.606   2.902
 5806TIP3    H217362   2.079   7.667   2.925
 5807TIP3   OH217363   2.269   6.696   0.779
 5807TIP3    H117364   2.309   6.644   0.848
 5807TIP3    H217365   2.191   6.647   0.754
 5808TIP3   OH217366   7.263   5.835   1.234
 5808TIP3    H117367   7.287   5.915   1.281
 5808TIP3    H217368   7.202   5.865   1.166
 5809TIP3   OH217369   4.023   0.908   0.144
 5809TIP3    H117370   3.986   0.946   0.063
 5809TIP3    H217371   3.997   0.816   0.141
 5810TIP3   OH217372   2.326   6.321   3.339
 5810TIP3    H117373   2.340   6.397   3.281
 5810TIP3    H217374   2.409   6.311   3.385
 5811TIP3   OH217375   6.769   4.437   5.876
 5811TIP3    H117376   6.719   4.390   5.942
 5811TIP3    H217377   6.758   4.530   5.900
 5812TIP3   OH217378   0.956   1.067   4.300
 5812TIP3    H117379   0.863   1.051   4.319
 5812TIP3    H217380   0.991   0.980   4.278
 5813TIP3   OH217381   4.197   2.913   2.040
 5813TIP3    H117382   4.132   2.864   1.989
 5813TIP3    H217383   4.280   2.895   1.996
 5814TIP3   OH217384   6.732   6.411   3.404
 5814TIP3    H117385   6.656   6.470   3.394
 5814TIP3    H217386   6.745   6.405   3.498
 5815TIP3   OH217387   4.034   2.394   0.235
 5815TIP3    H117388   4.097   2.460   0.265
 5815TIP3    H217389   3.949   2.424   0.268
 5816TIP3   OH217390   3.606   0.124   5.771
 5816TIP3    H117391   3.683   0.075   5.741
 5816TIP3    H217392   3.539   0.058   5.785
 5817TIP3   OH217393   4.986   3.030   6.252
 5817TIP3    H117394   5.026   3.106   6.209
 5817TIP3    H217395   5.029   2.954   6.212
 5818TIP3   OH217396   4.174   2.028   6.072
 5818TIP3    H117397   4.146   2.087   6.142
 5818TIP3    H217398   4.175   1.942   6.114
 5819TIP3   OH217399   4.821   5.161   3.263
 5819TIP3    H117400   4.912   5.187   3.275
 5819TIP3    H217401   4.820   5.112   3.181
 5820TIP3   OH217402   6.725   6.013   5.903
 5820TIP3    H117403   6.716   5.926   5.864
 5820TIP3    H217404   6.812   6.012   5.944
 5821TIP3   OH217405   7.880   1.740   6.188
 5821TIP3    H117406   7.863   1.709   6.277
 5821TIP3    H217407   7.794   1.767   6.155
 5822TIP3   OH217408   1.590   3.957   4.394
 5822TIP3    H117409   1.620   4.025   4.334
 5822TIP3    H217410   1.530   4.002   4.454
 5823TIP3   OH217411   4.085   5.797   0.521
 5823TIP3    H117412   4.000   5.838   0.533
 5823TIP3    H217413   4.139   5.832   0.593
 5824TIP3   OH217414   0.207   3.202   5.588
 5824TIP3    H117415   0.189   3.168   5.676
 5824TIP3    H217416   0.219   3.124   5.534
 5825TIP3   OH217417   5.424   2.635   3.791
 5825TIP3    H117418   5.475   2.662   3.867
 5825TIP3    H217419   5.394   2.717   3.751
 5826TIP3   OH217420   1.301   0.787   1.846
 5826TIP3    H117421   1.332   0.876   1.832
 5826TIP3    H217422   1.220   0.780   1.796
 5827TIP3   OH217423   6.507   1.806   1.847
 5827TIP3    H117424   6.483   1.717   1.824
 5827TIP3    H217425   6.602   1.804   1.856
 5828TIP3   OH217426   4.500   2.341   0.501
 5828TIP3    H117427   4.478   2.324   0.592
 5828TIP3    H217428   4.539   2.260   0.469
 5829TIP3   OH217429   1.636   3.384   2.606
 5829TIP3    H117430   1.566   3.336   2.563
 5829TIP3    H217431   1.712   3.372   2.549
 5830TIP3   OH217432   5.254   6.430   3.700
 5830TIP3    H117433   5.206   6.505   3.736
 5830TIP3    H217434   5.342   6.438   3.735
 5831TIP3   OH217435   7.871   6.479   4.663
 5831TIP3    H117436   7.781   6.471   4.696
 5831TIP3    H217437   7.919   6.409   4.707
 5832TIP3   OH217438   1.405   7.528   0.433
 5832TIP3    H117439   1.364   7.592   0.375
 5832TIP3    H217440   1.455   7.579   0.496
 5833TIP3   OH217441   5.485   5.464   4.570
 5833TIP3    H117442   5.526   5.547   4.596
 5833TIP3    H217443   5.553   5.399   4.585
 5834TIP3   OH217444   4.522   4.233   5.986
 5834TIP3    H117445   4.483   4.300   6.042
 5834TIP3    H217446   4.605   4.211   6.029
 5835TIP3   OH217447   6.068   4.134   5.322
 5835TIP3    H117448   5.996   4.072   5.332
 5835TIP3    H217449   6.027   4.220   5.324
 5836TIP3   OH217450   6.817   5.977   4.116
 5836TIP3    H117451   6.794   6.043   4.051
 5836TIP3    H217452   6.900   5.941   4.085
 5837TIP3   OH217453   2.104   1.394   4.673
 5837TIP3    H117454   2.032   1.456   4.666
 5837TIP3    H217455   2.122   1.367   4.583
 5838TIP3   OH217456   3.710   0.843   2.500
 5838TIP3    H117457   3.769   0.910   2.535
 5838TIP3    H217458   3.769   0.777   2.463
 5839TIP3   OH217459   4.041   4.864   1.847
 5839TIP3    H117460   3.996   4.793   1.802
 5839TIP3    H217461   3.975   4.933   1.856
 5840TIP3   OH217462   6.485   5.586   4.751
 5840TIP3    H117463   6.488   5.639   4.672
 5840TIP3    H217464   6.561   5.528   4.744
 5841TIP3   OH217465   6.526   7.592   4.081
 5841TIP3    H117466   6.555   7.658   4.018
 5841TIP3    H217467   6.513   7.641   4.162
 5842TIP3   OH217468   3.996   0.646   0.051
 5842TIP3    H117469   3.908   0.614   0.033
 5842TIP3    H217470   4.041   0.571   0.091
 5843TIP3   OH217471   7.881   2.588   6.683
 5843TIP3    H117472   7.937   2.560   6.755
 5843TIP3    H217473   7.938   2.582   6.606
 5844TIP3   OH217474   7.255   6.060   0.125
 5844TIP3    H117475   7.280   6.066   0.218
 5844TIP3    H217476   7.272   6.148   0.091
 5845TIP3   OH217477   1.891   0.735   6.456
 5845TIP3    H117478   1.957   0.730   6.525
 5845TIP3    H217479   1.819   0.681   6.489
 5846TIP3   OH217480   7.293   4.662   4.157
 5846TIP3    H117481   7.324   4.749   4.132
 5846TIP3    H217482   7.228   4.679   4.226
 5847TIP3   OH217483   4.537   1.299   4.612
 5847TIP3    H117484   4.620   1.269   4.574
 5847TIP3    H217485   4.471   1.239   4.576
 5848TIP3   OH217486   1.225   6.874   4.757
 5848TIP3    H117487   1.290   6.933   4.719
 5848TIP3    H217488   1.141   6.918   4.741
 5849TIP3   OH217489   2.972   3.553   1.105
 5849TIP3    H117490   3.045   3.610   1.083
 5849TIP3    H217491   2.968   3.489   1.033
 5850TIP3   OH217492   4.835   7.747   0.975
 5850TIP3    H117493   4.747   7.771   1.005
 5850TIP3    H217494   4.874   7.701   1.049
 5851TIP3   OH217495   2.058   7.248   5.864
 5851TIP3    H117496   2.042   7.158   5.835
 5851TIP3    H217497   2.044   7.301   5.786
 5852TIP3   OH217498   3.987   5.956   3.232
 5852TIP3    H117499   3.913   5.912   3.273
 5852TIP3    H217500   3.971   5.945   3.138
 5853TIP3   OH217501   2.227   0.180   2.509
 5853TIP3    H117502   2.239   0.192   2.415
 5853TIP3    H217503   2.134   0.200   2.524
 5854TIP3   OH217504   5.918   0.192   0.516
 5854TIP3    H117505   5.894   0.222   0.428
 5854TIP3    H217506   5.846   0.222   0.572
 5855TIP3   OH217507   4.402   1.095   2.265
 5855TIP3    H117508   4.410   1.189   2.280
 5855TIP3    H217509   4.364   1.060   2.346
 5856TIP3   OH217510   5.412   0.212   1.013
 5856TIP3    H117511   5.492   0.261   1.032
 5856TIP3    H217512   5.357   0.223   1.090
 5857TIP3   OH217513   7.071   1.496   5.755
 5857TIP3    H117514   7.134   1.568   5.761
 5857TIP3    H217515   7.043   1.480   5.845
 5858TIP3   OH217516   4.537   5.719   3.625
 5858TIP3    H117517   4.463   5.676   3.668
 5858TIP3    H217518   4.608   5.714   3.689
 5859TIP3   OH217519   4.679   2.973   1.198
 5859TIP3    H117520   4.698   2.879   1.189
 5859TIP3    H217521   4.765   3.014   1.202
 5860TIP3   OH217522   0.964   1.008   0.857
 5860TIP3    H117523   0.928   1.010   0.946
 5860TIP3    H217524   1.026   0.935   0.859
 5861TIP3   OH217525   6.080   6.492   4.322
 5861TIP3    H117526   6.152   6.531   4.373
 5861TIP3    H217527   6.007   6.489   4.383
 5862TIP3   OH217528   4.070   0.633   6.542
 5862TIP3    H117529   4.024   0.576   6.603
 5862TIP3    H217530   4.001   0.668   6.486
 5863TIP3   OH217531   5.109   5.729   3.527
 5863TIP3    H117532   5.105   5.639   3.559
 5863TIP3    H217533   5.019   5.761   3.533
 5864TIP3   OH217534   3.329   7.349   1.032
 5864TIP3    H117535   3.369   7.270   0.996
 5864TIP3    H217536   3.238   7.346   1.002
 5865TIP3   OH217537   2.489   5.391   0.652
 5865TIP3    H117538   2.560   5.403   0.715
 5865TIP3    H217539   2.409   5.411   0.701
 5866TIP3   OH217540   0.718   3.842   4.413
 5866TIP3    H117541   0.648   3.811   4.355
 5866TIP3    H217542   0.687   3.925   4.447
 5867TIP3   OH217543   4.168   3.686   6.390
 5867TIP3    H117544   4.184   3.739   6.468
 5867TIP3    H217545   4.172   3.748   6.317
 5868TIP3   OH217546   6.275   6.169   1.781
 5868TIP3    H117547   6.238   6.101   1.837
 5868TIP3    H217548   6.200   6.204   1.733
 5869TIP3   OH217549   2.556   4.485   1.724
 5869TIP3    H117550   2.494   4.491   1.796
 5869TIP3    H217551   2.642   4.481   1.766
 5870TIP3   OH217552   3.097   0.240   0.097
 5870TIP3    H117553   3.187   0.208   0.108
 5870TIP3    H217554   3.105   0.335   0.104
 5871TIP3   OH217555   5.597   5.830   3.154
 5871TIP3    H117556   5.593   5.755   3.214
 5871TIP3    H217557   5.550   5.900   3.200
 5872TIP3   OH217558   0.872   2.178   0.479
 5872TIP3    H117559   0.901   2.267   0.460
 5872TIP3    H217560   0.829   2.185   0.564
 5873TIP3   OH217561   5.851   6.410   2.958
 5873TIP3    H117562   5.911   6.340   2.985
 5873TIP3    H217563   5.811   6.376   2.877
 5874TIP3   OH217564   4.587   6.805   2.293
 5874TIP3    H117565   4.652   6.815   2.363
 5874TIP3    H217566   4.507   6.779   2.338
 5875TIP3   OH217567   2.318   2.755   0.100
 5875TIP3    H117568   2.278   2.833   0.060
 5875TIP3    H217569   2.279   2.682   0.052
 5876TIP3   OH217570   1.709   5.473   5.397
 5876TIP3    H117571   1.755   5.552   5.370
 5876TIP3    H217572   1.770   5.429   5.455
 5877TIP3   OH217573   7.693   6.432   1.273
 5877TIP3    H117574   7.634   6.372   1.228
 5877TIP3    H217575   7.753   6.461   1.205
 5878TIP3   OH217576   1.553   1.064   5.731
 5878TIP3    H117577   1.480   1.033   5.677
 5878TIP3    H217578   1.582   0.986   5.779
 5879TIP3   OH217579   2.066   3.904   4.849
 5879TIP3    H117580   2.138   3.964   4.829
 5879TIP3    H217581   2.032   3.877   4.763
 5880TIP3   OH217582   1.932   0.182   5.732
 5880TIP3    H117583   1.963   0.272   5.741
 5880TIP3    H217584   1.908   0.156   5.821
 5881TIP3   OH217585   6.176   1.030   5.085
 5881TIP3    H117586   6.220   1.090   5.025
 5881TIP3    H217587   6.109   1.085   5.128
 5882TIP3   OH217588   6.710   5.481   1.368
 5882TIP3    H117589   6.689   5.409   1.427
 5882TIP3    H217590   6.706   5.559   1.422
 5883TIP3   OH217591   3.145   2.854   3.243
 5883TIP3    H117592   3.056   2.891   3.246
 5883TIP3    H217593   3.132   2.763   3.215
 5884TIP3   OH217594   0.261   3.034   3.765
 5884TIP3    H117595   0.299   3.097   3.704
 5884TIP3    H217596   0.317   2.956   3.757
 5885TIP3   OH217597   5.091   2.279   2.481
 5885TIP3    H117598   5.131   2.266   2.567
 5885TIP3    H217599   5.081   2.190   2.445
 5886TIP3   OH217600   5.604   6.987   3.402
 5886TIP3    H117601   5.685   6.950   3.366
 5886TIP3    H217602   5.601   7.076   3.367
 5887TIP3   OH217603   4.504   5.948   1.479
 5887TIP3    H117604   4.441   6.017   1.499
 5887TIP3    H217605   4.529   5.912   1.564
 5888TIP3   OH217606   0.397   4.323   1.490
 5888TIP3    H117607   0.458   4.337   1.418
 5888TIP3    H217608   0.312   4.350   1.456
 5889TIP3   OH217609   8.254   0.336   4.631
 5889TIP3    H117610   8.200   0.412   4.610
 5889TIP3    H217611   8.246   0.325   4.726
 5890TIP3   OH217612   2.472   0.854   0.915
 5890TIP3    H117613   2.428   0.878   0.834
 5890TIP3    H217614   2.564   0.845   0.891
 5891TIP3   OH217615   6.841   6.432   0.358
 5891TIP3    H117616   6.877   6.511   0.317
 5891TIP3    H217617   6.816   6.376   0.284
 5892TIP3   OH217618   4.887   2.509   1.296
 5892TIP3    H117619   4.854   2.581   1.242
 5892TIP3    H217620   4.817   2.444   1.295
 5893TIP3   OH217621   7.335   2.832   6.751
 5893TIP3    H117622   7.405   2.886   6.714
 5893TIP3    H217623   7.331   2.756   6.693
 5894TIP3   OH217624   5.000   5.193   6.443
 5894TIP3    H117625   4.999   5.098   6.449
 5894TIP3    H217626   4.930   5.215   6.381
 5895TIP3   OH217627   0.173   5.943   5.581
 5895TIP3    H117628   0.082   5.972   5.567
 5895TIP3    H217629   0.167   5.877   5.650
 5896TIP3   OH217630   4.564   0.662   1.389
 5896TIP3    H117631   4.535   0.597   1.325
 5896TIP3    H217632   4.654   0.682   1.364
 5897TIP3   OH217633   1.115   3.703   0.381
 5897TIP3    H117634   1.148   3.776   0.433
 5897TIP3    H217635   1.043   3.741   0.330
 5898TIP3   OH217636   7.899   3.766   4.745
 5898TIP3    H117637   7.995   3.767   4.743
 5898TIP3    H217638   7.875   3.846   4.793
 5899TIP3   OH217639   0.186   4.306   0.515
 5899TIP3    H117640   0.216   4.344   0.598
 5899TIP3    H217641   0.261   4.315   0.456
 5900TIP3   OH217642   2.397   6.366   1.114
 5900TIP3    H117643   2.308   6.358   1.147
 5900TIP3    H217644   2.401   6.454   1.076
 5901TIP3   OH217645   0.650   6.645   4.937
 5901TIP3    H117646   0.560   6.668   4.959
 5901TIP3    H217647   0.701   6.722   4.964
 5902TIP3   OH217648   2.804   5.733   1.341
 5902TIP3    H117649   2.869   5.664   1.327
 5902TIP3    H217650   2.855   5.814   1.343
 5903TIP3   OH217651   0.916   5.786   5.281
 5903TIP3    H117652   0.998   5.797   5.328
 5903TIP3    H217653   0.850   5.774   5.350
 5904TIP3   OH217654   6.530   7.330   6.555
 5904TIP3    H117655   6.459   7.360   6.612
 5904TIP3    H217656   6.518   7.235   6.550
 5905TIP3   OH217657   6.683   0.388   1.181
 5905TIP3    H117658   6.779   0.380   1.177
 5905TIP3    H217659   6.667   0.482   1.186
 5906TIP3   OH217660   6.944   2.802   2.689
 5906TIP3    H117661   6.861   2.804   2.642
 5906TIP3    H217662   6.929   2.743   2.763
 5907TIP3   OH217663   0.689   5.419   4.671
 5907TIP3    H117664   0.678   5.364   4.749
 5907TIP3    H217665   0.782   5.411   4.649
 5908TIP3   OH217666   4.457   3.007   4.080
 5908TIP3    H117667   4.525   2.980   4.142
 5908TIP3    H217668   4.416   3.083   4.121
 5909TIP3   OH217669   5.908   7.530   4.382
 5909TIP3    H117670   5.822   7.569   4.397
 5909TIP3    H217671   5.916   7.528   4.287
 5910TIP3   OH217672   4.665   3.809   2.228
 5910TIP3    H117673   4.748   3.856   2.220
 5910TIP3    H217674   4.644   3.784   2.138
 5911TIP3   OH217675   3.423   1.992   2.521
 5911TIP3    H117676   3.334   2.022   2.502
 5911TIP3    H217677   3.421   1.967   2.613
 5912TIP3   OH217678   4.036   6.660   3.877
 5912TIP3    H117679   4.061   6.668   3.969
 5912TIP3    H217680   4.024   6.750   3.847
 5913TIP3   OH217681   5.052   5.206   0.204
 5913TIP3    H117682   5.039   5.300   0.216
 5913TIP3    H217683   5.134   5.199   0.155
 5914TIP3   OH217684   7.027   0.743   2.838
 5914TIP3    H117685   7.100   0.803   2.855
 5914TIP3    H217686   7.002   0.761   2.748
 5915TIP3   OH217687   5.087   0.939   0.188
 5915TIP3    H117688   5.056   0.975   0.105
 5915TIP3    H217689   5.008   0.911   0.234
 5916TIP3   OH217690   5.262   5.012   2.306
 5916TIP3    H117691   5.301   4.995   2.392
 5916TIP3    H217692   5.236   5.104   2.309
 5917TIP3   OH217693   2.207   1.117   4.698
 5917TIP3    H117694   2.194   1.064   4.777
 5917TIP3    H217695   2.134   1.179   4.698
 5918TIP3   OH217696   4.386   5.310   5.484
 5918TIP3    H117697   4.371   5.331   5.392
 5918TIP3    H217698   4.473   5.271   5.486
 5919TIP3   OH217699   5.117   5.805   6.247
 5919TIP3    H117700   5.133   5.867   6.318
 5919TIP3    H217701   5.022   5.800   6.240
 5920TIP3   OH217702   0.575   4.972   4.855
 5920TIP3    H117703   0.484   4.986   4.831
 5920TIP3    H217704   0.610   5.060   4.869
 5921TIP3   OH217705   7.138   1.334   2.562
 5921TIP3    H117706   7.096   1.420   2.560
 5921TIP3    H217707   7.074   1.275   2.524
 5922TIP3   OH217708   7.800   0.536   6.378
 5922TIP3    H117709   7.878   0.592   6.385
 5922TIP3    H217710   7.756   0.565   6.299
 5923TIP3   OH217711   6.716   2.036   0.333
 5923TIP3    H117712   6.677   2.008   0.250
 5923TIP3    H217713   6.754   2.122   0.313
 5924TIP3   OH217714   3.164   0.827   5.944
 5924TIP3    H117715   3.259   0.822   5.937
 5924TIP3    H217716   3.146   0.916   5.973
 5925TIP3   OH217717   7.913   5.696   4.534
 5925TIP3    H117718   7.936   5.789   4.539
 5925TIP3    H217719   7.818   5.695   4.525
 5926TIP3   OH217720   6.913   3.934   3.633
 5926TIP3    H117721   7.002   3.920   3.598
 5926TIP3    H217722   6.911   3.881   3.713
 5927TIP3   OH217723   3.833   6.954   1.731
 5927TIP3    H117724   3.782   6.895   1.787
 5927TIP3    H217725   3.915   6.908   1.716
 5928TIP3   OH217726   4.938   2.180   0.522
 5928TIP3    H117727   4.947   2.122   0.447
 5928TIP3    H217728   4.909   2.263   0.484
 5929TIP3   OH217729   8.193   0.976   5.616
 5929TIP3    H117730   8.203   1.003   5.707
 5929TIP3    H217731   8.156   1.053   5.572
 5930TIP3   OH217732   6.104   1.796   2.555
 5930TIP3    H117733   6.024   1.811   2.504
 5930TIP3    H217734   6.087   1.838   2.639
 5931TIP3   OH217735   0.683   0.787   4.102
 5931TIP3    H117736   0.651   0.723   4.039
 5931TIP3    H217737   0.707   0.735   4.179
 5932TIP3   OH217738   4.823   0.905   6.029
 5932TIP3    H117739   4.804   0.895   6.123
 5932TIP3    H217740   4.836   0.816   5.997
 5933TIP3   OH217741   2.517   0.521   5.888
 5933TIP3    H117742   2.535   0.543   5.796
 5933TIP3    H217743   2.577   0.449   5.907
 5934TIP3   OH217744   1.260   7.703   0.909
 5934TIP3    H117745   1.246   7.727   0.818
 5934TIP3    H217746   1.297   7.781   0.950
 5935TIP3   OH217747   0.218   7.545   0.890
 5935TIP3    H117748   0.148   7.491   0.853
 5935TIP3    H217749   0.286   7.547   0.823
 5936TIP3   OH217750   7.414   2.078   0.323
 5936TIP3    H117751   7.445   2.099   0.235
 5936TIP3    H217752   7.396   1.984   0.321
 5937TIP3   OH217753   2.003   5.197   6.561
 5937TIP3    H117754   1.949   5.220   6.636
 5937TIP3    H217755   1.972   5.254   6.490
 5938TIP3   OH217756   8.094   1.423   5.595
 5938TIP3    H117757   8.103   1.510   5.557
 5938TIP3    H217758   8.128   1.432   5.685
 5939TIP3   OH217759   8.102   3.066   2.629
 5939TIP3    H117760   8.185   3.115   2.629
 5939TIP3    H217761   8.038   3.127   2.665
 5940TIP3   OH217762   5.516   7.539   3.480
 5940TIP3    H117763   5.526   7.550   3.385
 5940TIP3    H217764   5.606   7.529   3.513
 5941TIP3   OH217765   1.854   7.120   3.563
 5941TIP3    H117766   1.924   7.184   3.549
 5941TIP3    H217767   1.776   7.161   3.523
 5942TIP3   OH217768   4.132   6.442   6.471
 5942TIP3    H117769   4.044   6.405   6.458
 5942TIP3    H217770   4.190   6.384   6.423
 5943TIP3   OH217771   4.853   7.547   4.589
 5943TIP3    H117772   4.791   7.475   4.583
 5943TIP3    H217773   4.931   7.508   4.629
 5944TIP3   OH217774   0.591   1.914   4.459
 5944TIP3    H117775   0.671   1.916   4.513
 5944TIP3    H217776   0.617   1.865   4.381
 5945TIP3   OH217777   6.348   0.191   6.358
 5945TIP3    H117778   6.437   0.217   6.335
 5945TIP3    H217779   6.305   0.178   6.273
 5946TIP3   OH217780   1.913   0.656   1.689
 5946TIP3    H117781   1.824   0.649   1.652
 5946TIP3    H217782   1.899   0.679   1.781
 5947TIP3   OH217783   4.174   3.720   5.159
 5947TIP3    H117784   4.227   3.643   5.134
 5947TIP3    H217785   4.105   3.724   5.092
 5948TIP3   OH217786   0.266   4.281   5.008
 5948TIP3    H117787   0.300   4.260   5.095
 5948TIP3    H217788   0.205   4.353   5.024
 5949TIP3   OH217789   0.575   1.854   5.605
 5949TIP3    H117790   0.483   1.835   5.587
 5949TIP3    H217791   0.615   1.769   5.622
 5950TIP3   OH217792   7.849   5.972   3.294
 5950TIP3    H117793   7.854   5.886   3.251
 5950TIP3    H217794   7.761   6.004   3.273
 5951TIP3   OH217795   5.966   4.095   2.328
 5951TIP3    H117796   5.960   4.131   2.417
 5951TIP3    H217797   5.987   4.003   2.341
 5952TIP3   OH217798   4.378   2.197   0.980
 5952TIP3    H117799   4.426   2.165   1.056
 5952TIP3    H217800   4.396   2.291   0.978
 5953TIP3   OH217801   6.107   7.629   4.573
 5953TIP3    H117802   6.108   7.557   4.510
 5953TIP3    H217803   6.016   7.634   4.602
 5954TIP3   OH217804   1.058   5.832   5.918
 5954TIP3    H117805   1.071   5.800   5.828
 5954TIP3    H217806   0.970   5.869   5.917
 5955TIP3   OH217807   8.290   5.110   3.009
 5955TIP3    H117808   8.220   5.170   2.981
 5955TIP3    H217809   8.339   5.160   3.074
 5956TIP3   OH217810   0.906   6.400   0.840
 5956TIP3    H117811   0.991   6.356   0.842
 5956TIP3    H217812   0.866   6.378   0.924
 5957TIP3   OH217813   7.143   0.305   5.158
 5957TIP3    H117814   7.174   0.215   5.144
 5957TIP3    H217815   7.212   0.346   5.209
 5958TIP3   OH217816   0.225   2.947   1.268
 5958TIP3    H117817   0.220   3.042   1.282
 5958TIP3    H217818   0.225   2.910   1.356
 5959TIP3   OH217819   1.015   4.843   0.583
 5959TIP3    H117820   1.028   4.757   0.544
 5959TIP3    H217821   0.939   4.879   0.537
 5960TIP3   OH217822   3.001   4.841   2.103
 5960TIP3    H117823   2.996   4.932   2.132
 5960TIP3    H217824   2.912   4.822   2.071
 5961TIP3   OH217825   8.047   3.559   6.306
 5961TIP3    H117826   8.124   3.592   6.352
 5961TIP3    H217827   8.004   3.637   6.272
 5962TIP3   OH217828   6.691   7.344   5.583
 5962TIP3    H117829   6.762   7.348   5.518
 5962TIP3    H217830   6.623   7.291   5.541
 5963TIP3   OH217831   7.068   1.555   3.802
 5963TIP3    H117832   7.056   1.550   3.897
 5963TIP3    H217833   6.991   1.601   3.770
 5964TIP3   OH217834   0.760   6.801   5.542
 5964TIP3    H117835   0.807   6.719   5.526
 5964TIP3    H217836   0.670   6.783   5.514
 5965TIP3   OH217837   5.893   1.229   3.401
 5965TIP3    H117838   5.826   1.296   3.413
 5965TIP3    H217839   5.844   1.148   3.386
 5966TIP3   OH217840   0.280   6.392   4.861
 5966TIP3    H117841   0.239   6.409   4.777
 5966TIP3    H217842   0.332   6.471   4.878
 5967TIP3   OH217843   6.443   2.054   1.769
 5967TIP3    H117844   6.536   2.073   1.760
 5967TIP3    H217845   6.440   1.965   1.804
 5968TIP3   OH217846   7.929   1.933   3.200
 5968TIP3    H117847   8.020   1.905   3.210
 5968TIP3    H217848   7.893   1.875   3.133
 5969TIP3   OH217849   5.009   4.283   0.006
 5969TIP3    H117850   5.070   4.342   0.050
 5969TIP3    H217851   5.022   4.199   0.050
 5970TIP3   OH217852   8.105   3.162   1.051
 5970TIP3    H117853   8.145   3.250   1.047
 5970TIP3    H217854   8.011   3.178   1.044
 5971TIP3   OH217855   2.856   4.513   3.418
 5971TIP3    H117856   2.852   4.604   3.391
 5971TIP3    H217857   2.942   4.503   3.458
 5972TIP3   OH217858   3.534   2.407   1.653
 5972TIP3    H117859   3.572   2.319   1.661
 5972TIP3    H217860   3.596   2.463   1.699
 5973TIP3   OH217861   7.613   1.172   1.509
 5973TIP3    H117862   7.630   1.237   1.578
 5973TIP3    H217863   7.668   1.199   1.436
 5974TIP3   OH217864   4.249   6.326   5.948
 5974TIP3    H117865   4.233   6.419   5.928
 5974TIP3    H217866   4.161   6.287   5.950
 5975TIP3   OH217867   1.590   4.801   4.421
 5975TIP3    H117868   1.509   4.753   4.438
 5975TIP3    H217869   1.565   4.893   4.427
 5976TIP3   OH217870   2.193   6.681   1.549
 5976TIP3    H117871   2.157   6.689   1.638
 5976TIP3    H217872   2.252   6.606   1.554
 5977TIP3   OH217873   7.159   4.416   5.194
 5977TIP3    H117874   7.217   4.465   5.135
 5977TIP3    H217875   7.073   4.454   5.179
 5978TIP3   OH217876   6.654   5.038   5.217
 5978TIP3    H117877   6.726   5.048   5.279
 5978TIP3    H217878   6.589   5.102   5.245
 5979TIP3   OH217879   6.802   5.422   1.777
 5979TIP3    H117880   6.848   5.489   1.828
 5979TIP3    H217881   6.870   5.358   1.756
 5980TIP3   OH217882   6.155   1.809   6.444
 5980TIP3    H117883   6.172   1.883   6.502
 5980TIP3    H217884   6.186   1.733   6.492
 5981TIP3   OH217885   1.247   5.903   3.514
 5981TIP3    H117886   1.173   5.878   3.570
 5981TIP3    H217887   1.305   5.952   3.571
 5982TIP3   OH217888   0.298   1.234   3.308
 5982TIP3    H117889   0.315   1.142   3.330
 5982TIP3    H217890   0.353   1.283   3.368
 5983TIP3   OH217891   7.859   4.334   1.565
 5983TIP3    H117892   7.927   4.373   1.619
 5983TIP3    H217893   7.905   4.271   1.510
 5984TIP3   OH217894   8.168   6.730   2.194
 5984TIP3    H117895   8.155   6.679   2.274
 5984TIP3    H217896   8.082   6.734   2.153
 5985TIP3   OH217897   4.779   3.428   6.045
 5985TIP3    H117898   4.692   3.395   6.066
 5985TIP3    H217899   4.813   3.366   5.981
 5986TIP3   OH217900   0.804   5.511   4.963
 5986TIP3    H117901   0.725   5.527   4.911
 5986TIP3    H217902   0.830   5.598   4.994
 5987TIP3   OH217903   6.853   6.991   5.554
 5987TIP3    H117904   6.932   7.046   5.551
 5987TIP3    H217905   6.864   6.938   5.633
 5988TIP3   OH217906   3.710   2.576   1.780
 5988TIP3    H117907   3.718   2.577   1.876
 5988TIP3    H217908   3.762   2.651   1.751
 5989TIP3   OH217909   5.536   0.698   3.872
 5989TIP3    H117910   5.472   0.759   3.909
 5989TIP3    H217911   5.511   0.613   3.908
 5990TIP3   OH217912   7.329   4.312   2.422
 5990TIP3    H117913   7.235   4.334   2.425
 5990TIP3    H217914   7.369   4.369   2.488
 5991TIP3   OH217915   3.756   5.918   1.928
 5991TIP3    H117916   3.844   5.926   1.965
 5991TIP3    H217917   3.767   5.933   1.835
 5992TIP3   OH217918   5.406   5.326   6.623
 5992TIP3    H117919   5.354   5.301   6.547
 5992TIP3    H217920   5.359   5.400   6.662
 5993TIP3   OH217921   2.732   7.866   5.612
 5993TIP3    H117922   2.703   7.815   5.536
 5993TIP3    H217923   2.652   7.883   5.662
 5994TIP3   OH217924   6.830   3.857   1.021
 5994TIP3    H117925   6.771   3.916   1.068
 5994TIP3    H217926   6.779   3.779   1.004
 5995TIP3   OH217927   3.481   4.774   0.167
 5995TIP3    H117928   3.432   4.846   0.127
 5995TIP3    H217929   3.570   4.783   0.132
 5996TIP3   OH217930   1.704   2.040   5.943
 5996TIP3    H117931   1.793   2.070   5.963
 5996TIP3    H217932   1.664   2.027   6.029
 5997TIP3   OH217933   8.161   4.476   3.655
 5997TIP3    H117934   8.074   4.464   3.618
 5997TIP3    H217935   8.166   4.569   3.676
 5998TIP3   OH217936   1.671   1.979   6.211
 5998TIP3    H117937   1.653   1.991   6.304
 5998TIP3    H217938   1.766   1.972   6.205
 5999TIP3   OH217939   1.092   0.128   1.988
 5999TIP3    H117940   1.125   0.180   1.915
 5999TIP3    H217941   1.117   0.178   2.066
 6000TIP3   OH217942   0.840   1.256   3.636
 6000TIP3    H117943   0.919   1.273   3.585
 6000TIP3    H217944   0.861   1.287   3.724
 6001TIP3   OH217945   3.912   5.453   4.673
 6001TIP3    H117946   3.862   5.375   4.646
 6001TIP3    H217947   3.964   5.423   4.748
 6002TIP3   OH217948   3.418   6.073   0.632
 6002TIP3    H117949   3.364   6.055   0.555
 6002TIP3    H217950   3.487   6.006   0.629
 6003TIP3   OH217951   6.724   3.416   4.059
 6003TIP3    H117952   6.722   3.324   4.086
 6003TIP3    H217953   6.817   3.435   4.047
 6004TIP3   OH217954   6.849   4.403   0.115
 6004TIP3    H117955   6.809   4.387   0.201
 6004TIP3    H217956   6.917   4.469   0.133
 6005TIP3   OH217957   5.429   6.432   1.262
 6005TIP3    H117958   5.434   6.435   1.358
 6005TIP3    H217959   5.346   6.387   1.244
 6006TIP3   OH217960   8.301   7.817   1.018
 6006TIP3    H117961   8.246   7.894   1.032
 6006TIP3    H217962   8.356   7.813   1.096
 6007TIP3   OH217963   3.123   6.603   1.319
 6007TIP3    H117964   3.052   6.645   1.271
 6007TIP3    H217965   3.115   6.510   1.297
 6008TIP3   OH217966   1.795   7.035   0.923
 6008TIP3    H117967   1.759   7.030   0.835
 6008TIP3    H217968   1.843   6.953   0.934
 6009TIP3   OH217969   6.900   7.777   5.541
 6009TIP3    H117970   6.989   7.792   5.572
 6009TIP3    H217971   6.867   7.707   5.597
 6010TIP3   OH217972   8.277   5.893   3.467
 6010TIP3    H117973   8.181   5.900   3.471
 6010TIP3    H217974   8.307   5.924   3.552
 6011TIP3   OH217975   0.516   5.141   6.678
 6011TIP3    H117976   0.577   5.213   6.661
 6011TIP3    H217977   0.571   5.070   6.710
 6012TIP3   OH217978   2.338   6.854   5.373
 6012TIP3    H117979   2.361   6.946   5.360
 6012TIP3    H217980   2.257   6.843   5.323
 6013TIP3   OH217981   6.488   4.777   1.993
 6013TIP3    H117982   6.407   4.750   1.949
 6013TIP3    H217983   6.544   4.700   1.988
 6014TIP3   OH217984   5.217   3.942   2.673
 6014TIP3    H117985   5.132   3.912   2.640
 6014TIP3    H217986   5.195   3.996   2.749
 6015TIP3   OH217987   6.859   7.048   4.556
 6015TIP3    H117988   6.862   7.026   4.649
 6015TIP3    H217989   6.791   6.991   4.520
 6016TIP3   OH217990   3.540   3.621   4.908
 6016TIP3    H117991   3.631   3.596   4.894
 6016TIP3    H217992   3.540   3.717   4.902
 6017TIP3   OH217993   7.300   2.342   6.493
 6017TIP3    H117994   7.366   2.318   6.427
 6017TIP3    H217995   7.226   2.285   6.475
 6018TIP3   OH217996   8.242   5.190   6.737
 6018TIP3    H117997   8.195   5.273   6.731
 6018TIP3    H217998   8.329   5.209   6.704
 6019TIP3   OH217999   2.254   1.110   0.947
 6019TIP3    H118000   2.328   1.103   1.007
 6019TIP3    H218001   2.182   1.068   0.994
 6020TIP3   OH218002   5.000   1.109   5.938
 6020TIP3    H118003   5.028   1.154   6.018
 6020TIP3    H218004   4.946   1.036   5.970
 6021TIP3   OH218005   4.796   1.757   3.518
 6021TIP3    H118006   4.778   1.707   3.439
 6021TIP3    H218007   4.867   1.710   3.562
 6022TIP3   OH218008   7.075   7.599   0.430
 6022TIP3    H118009   7.169   7.588   0.419
 6022TIP3    H218010   7.036   7.532   0.374
 6023TIP3   OH218011   7.352   7.819   5.072
 6023TIP3    H118012   7.269   7.774   5.059
 6023TIP3    H218013   7.381   7.840   4.983
 6024TIP3   OH218014   0.969   5.361   1.019
 6024TIP3    H118015   0.938   5.347   1.108
 6024TIP3    H218016   1.058   5.395   1.030
 6025TIP3   OH218017   3.741   5.420   5.569
 6025TIP3    H118018   3.763   5.436   5.477
 6025TIP3    H218019   3.825   5.422   5.614
 6026TIP3   OH218020   7.770   3.418   1.026
 6026TIP3    H118021   7.828   3.412   1.102
 6026TIP3    H218022   7.694   3.467   1.058
 6027TIP3   OH218023   4.545   0.619   0.278
 6027TIP3    H118024   4.498   0.697   0.306
 6027TIP3    H218025   4.600   0.597   0.354
 6028TIP3   OH218026   8.011   5.909   3.517
 6028TIP3    H118027   7.946   5.857   3.470
 6028TIP3    H218028   8.008   5.995   3.476
 6029TIP3   OH218029   1.752   6.437   5.365
 6029TIP3    H118030   1.705   6.518   5.344
 6029TIP3    H218031   1.839   6.449   5.326
 6030TIP3   OH218032   4.639   0.908   4.396
 6030TIP3    H118033   4.716   0.860   4.427
 6030TIP3    H218034   4.592   0.844   4.342
 6031TIP3   OH218035   7.943   3.403   3.812
 6031TIP3    H118036   7.963   3.309   3.811
 6031TIP3    H218037   7.946   3.430   3.720
 6032TIP3   OH218038   0.211   7.676   3.780
 6032TIP3    H118039   0.271   7.709   3.713
 6032TIP3    H218040   0.124   7.685   3.741
 6033TIP3   OH218041   6.330   6.705   0.574
 6033TIP3    H118042   6.376   6.789   0.573
 6033TIP3    H218043   6.287   6.703   0.660
 6034TIP3   OH218044   0.639   2.956   3.982
 6034TIP3    H118045   0.573   2.889   3.964
 6034TIP3    H218046   0.667   2.986   3.895
 6035TIP3   OH218047   2.815   0.112   2.498
 6035TIP3    H118048   2.879   0.101   2.427
 6035TIP3    H218049   2.809   0.206   2.511
 6036TIP3   OH218050   4.307   5.293   1.572
 6036TIP3    H118051   4.326   5.329   1.486
 6036TIP3    H218052   4.215   5.266   1.568
 6037TIP3   OH218053   2.266   1.876   5.587
 6037TIP3    H118054   2.286   1.851   5.497
 6037TIP3    H218055   2.284   1.970   5.590
 6038TIP3   OH218056   8.072   7.471   6.622
 6038TIP3    H118057   8.116   7.389   6.599
 6038TIP3    H218058   7.997   7.475   6.563
 6039TIP3   OH218059   3.377   1.820   3.666
 6039TIP3    H118060   3.347   1.743   3.715
 6039TIP3    H218061   3.311   1.887   3.685
 6040TIP3   OH218062   0.652   5.559   0.253
 6040TIP3    H118063   0.739   5.534   0.221
 6040TIP3    H218064   0.670   5.600   0.338
 6041TIP3   OH218065   1.918   5.740   3.972
 6041TIP3    H118066   1.977   5.717   4.044
 6041TIP3    H218067   1.833   5.708   4.000
 6042TIP3   OH218068   7.439   4.662   4.627
 6042TIP3    H118069   7.528   4.644   4.657
 6042TIP3    H218070   7.388   4.588   4.660
 6043TIP3   OH218071   1.800   1.859   0.856
 6043TIP3    H118072   1.751   1.799   0.799
 6043TIP3    H218073   1.751   1.941   0.853
 6044TIP3   OH218074   0.252   2.345   4.942
 6044TIP3    H118075   0.236   2.296   4.861
 6044TIP3    H218076   0.199   2.300   5.008
 6045TIP3   OH218077   7.360   5.310   3.851
 6045TIP3    H118078   7.455   5.319   3.859
 6045TIP3    H218079   7.344   5.216   3.860
 6046TIP3   OH218080   0.903   4.505   5.977
 6046TIP3    H118081   0.997   4.494   5.971
 6046TIP3    H218082   0.891   4.580   6.036
 6047TIP3   OH218083   8.226   1.673   2.695
 6047TIP3    H118084   8.318   1.655   2.714
 6047TIP3    H218085   8.228   1.747   2.634
 6048TIP3   OH218086   3.679   0.288   2.655
 6048TIP3    H118087   3.669   0.288   2.559
 6048TIP3    H218088   3.719   0.373   2.674
 6049TIP3   OH218089   2.716   1.023   2.488
 6049TIP3    H118090   2.684   0.979   2.567
 6049TIP3    H218091   2.810   1.005   2.487
 6050TIP3   OH218092   1.473   0.071   2.308
 6050TIP3    H118093   1.462   0.132   2.236
 6050TIP3    H218094   1.489   0.126   2.384
 6051TIP3   OH218095   0.487   3.215   3.973
 6051TIP3    H118096   0.535   3.136   3.947
 6051TIP3    H218097   0.471   3.261   3.891
 6052TIP3   OH218098   8.180   0.080   3.271
 6052TIP3    H118099   8.144   0.077   3.182
 6052TIP3    H218100   8.123   0.141   3.318
 6053TIP3   OH218101   5.694   1.749   1.585
 6053TIP3    H118102   5.703   1.670   1.638
 6053TIP3    H218103   5.625   1.728   1.522
 6054TIP3   OH218104   7.009   6.653   6.765
 6054TIP3    H118105   6.957   6.692   6.695
 6054TIP3    H218106   7.014   6.560   6.744
 6055TIP3   OH218107   3.341   1.017   6.682
 6055TIP3    H118108   3.304   0.996   6.597
 6055TIP3    H218109   3.329   0.938   6.735
 6056TIP3   OH218110   0.825   2.245   4.403
 6056TIP3    H118111   0.734   2.225   4.428
 6056TIP3    H218112   0.860   2.161   4.372
 6057TIP3   OH218113   6.240   7.791   2.058
 6057TIP3    H118114   6.253   7.875   2.013
 6057TIP3    H218115   6.261   7.810   2.150
 6058TIP3   OH218116   4.037   0.691   4.529
 6058TIP3    H118117   4.078   0.736   4.454
 6058TIP3    H218118   4.098   0.621   4.551
 6059TIP3   OH218119   1.893   4.251   6.365
 6059TIP3    H118120   1.852   4.300   6.436
 6059TIP3    H218121   1.987   4.267   6.376
 6060TIP3   OH218122   4.378   3.530   2.562
 6060TIP3    H118123   4.450   3.511   2.621
 6060TIP3    H218124   4.334   3.606   2.600
 6061TIP3   OH218125   0.384   3.686   5.841
 6061TIP3    H118126   0.337   3.603   5.842
 6061TIP3    H218127   0.373   3.721   5.929
 6062TIP3   OH218128   4.971   0.688   5.276
 6062TIP3    H118129   5.000   0.765   5.325
 6062TIP3    H218130   4.876   0.690   5.281
 6063TIP3   OH218131   3.023   5.602   6.432
 6063TIP3    H118132   2.936   5.572   6.405
 6063TIP3    H218133   3.071   5.615   6.350
 6064TIP3   OH218134   0.407   4.572   3.956
 6064TIP3    H118135   0.404   4.482   3.923
 6064TIP3    H218136   0.500   4.595   3.956
 6065TIP3   OH218137   0.536   2.297   5.379
 6065TIP3    H118138   0.556   2.285   5.472
 6065TIP3    H218139   0.598   2.363   5.349
 6066TIP3   OH218140   7.733   6.916   2.876
 6066TIP3    H118141   7.733   7.011   2.874
 6066TIP3    H218142   7.666   6.889   2.814
 6067TIP3   OH218143   1.571   2.747   2.670
 6067TIP3    H118144   1.540   2.658   2.685
 6067TIP3    H218145   1.655   2.751   2.716
 6068TIP3   OH218146   0.090   5.093   1.151
 6068TIP3    H118147   0.068   5.184   1.130
 6068TIP3    H218148   0.127   5.097   1.240
 6069TIP3   OH218149   7.207   2.553   1.779
 6069TIP3    H118150   7.118   2.526   1.798
 6069TIP3    H218151   7.199   2.638   1.737
 6070TIP3   OH218152   6.910   6.362   5.349
 6070TIP3    H118153   6.845   6.349   5.279
 6070TIP3    H218154   6.980   6.300   5.328
 6071TIP3   OH218155   4.060   5.282   5.845
 6071TIP3    H118156   4.116   5.301   5.770
 6071TIP3    H218157   4.066   5.360   5.900
 6072TIP3   OH218158   0.065   3.964   2.083
 6072TIP3    H118159  -0.015   3.973   2.135
 6072TIP3    H218160   0.047   3.890   2.024
 6073TIP3   OH218161   8.213   3.751   1.462
 6073TIP3    H118162   8.175   3.831   1.425
 6073TIP3    H218163   8.265   3.714   1.390
 6074TIP3   OH218164   7.952   4.804   5.797
 6074TIP3    H118165   7.903   4.727   5.823
 6074TIP3    H218166   8.014   4.773   5.732
 6075TIP3   OH218167   2.328   0.414   5.107
 6075TIP3    H118168   2.342   0.320   5.106
 6075TIP3    H218169   2.387   0.447   5.039
 6076TIP3   OH218170   1.512   3.608   0.150
 6076TIP3    H118171   1.521   3.687   0.096
 6076TIP3    H218172   1.450   3.632   0.218
 6077TIP3   OH218173   0.058   2.090   3.382
 6077TIP3    H118174   0.141   2.046   3.401
 6077TIP3    H218175  -0.006   2.043   3.436
 6078TIP3   OH218176   4.140   7.390   3.735
 6078TIP3    H118177   4.203   7.461   3.726
 6078TIP3    H218178   4.082   7.418   3.806
 6079TIP3   OH218179   2.346   3.183   6.598
 6079TIP3    H118180   2.334   3.243   6.672
 6079TIP3    H218181   2.262   3.185   6.552
 6080TIP3   OH218182   4.597   6.299   3.327
 6080TIP3    H118183   4.626   6.229   3.267
 6080TIP3    H218184   4.502   6.300   3.318
 6081TIP3   OH218185   6.780   6.005   4.965
 6081TIP3    H118186   6.833   5.986   5.043
 6081TIP3    H218187   6.704   5.947   4.972
 6082TIP3   OH218188   7.722   0.697   6.178
 6082TIP3    H118189   7.723   0.763   6.109
 6082TIP3    H218190   7.658   0.728   6.242
 6083TIP3   OH218191   8.163   0.448   3.023
 6083TIP3    H118192   8.115   0.369   3.001
 6083TIP3    H218193   8.231   0.454   2.956
 6084TIP3   OH218194   4.952   4.407   5.856
 6084TIP3    H118195   4.979   4.496   5.879
 6084TIP3    H218196   5.026   4.372   5.807
 6085TIP3   OH218197   5.146   0.839   3.586
 6085TIP3    H118198   5.148   0.850   3.681
 6085TIP3    H218199   5.113   0.922   3.552
 6086TIP3   OH218200   0.484   5.701   6.032
 6086TIP3    H118201   0.530   5.628   6.073
 6086TIP3    H218202   0.418   5.728   6.095
 6087TIP3   OH218203   0.024   5.289   4.007
 6087TIP3    H118204  -0.041   5.296   4.077
 6087TIP3    H218205   0.075   5.211   4.028
 6088TIP3   OH218206   2.260   6.442   1.848
 6088TIP3    H118207   2.295   6.504   1.911
 6088TIP3    H218208   2.165   6.442   1.864
 6089TIP3   OH218209   0.505   2.562   3.335
 6089TIP3    H118210   0.466   2.507   3.266
 6089TIP3    H218211   0.433   2.577   3.397
 6090TIP3   OH218212   2.553   2.510   5.679
 6090TIP3    H118213   2.548   2.605   5.669
 6090TIP3    H218214   2.561   2.495   5.773
 6091TIP3   OH218215   2.774   1.694   5.654
 6091TIP3    H118216   2.712   1.634   5.694
 6091TIP3    H218217   2.798   1.653   5.571
 6092TIP3   OH218218   4.596   0.414   5.147
 6092TIP3    H118219   4.637   0.399   5.233
 6092TIP3    H218220   4.624   0.503   5.123
 6093TIP3   OH218221   6.858   4.258   4.748
 6093TIP3    H118222   6.890   4.250   4.838
 6093TIP3    H218223   6.925   4.310   4.703
 6094TIP3   OH218224   4.384   4.158   4.925
 6094TIP3    H118225   4.458   4.125   4.976
 6094TIP3    H218226   4.328   4.081   4.912
 6095TIP3   OH218227   3.121   3.188   1.715
 6095TIP3    H118228   3.118   3.132   1.637
 6095TIP3    H218229   3.213   3.191   1.739
 6096TIP3   OH218230   5.802   7.814   5.949
 6096TIP3    H118231   5.799   7.873   5.873
 6096TIP3    H218232   5.813   7.872   6.024
 6097TIP3   OH218233   1.440   5.728   1.279
 6097TIP3    H118234   1.374   5.786   1.240
 6097TIP3    H218235   1.506   5.787   1.315
 6098TIP3   OH218236   3.853   2.390   2.069
 6098TIP3    H118237   3.930   2.346   2.104
 6098TIP3    H218238   3.782   2.364   2.128
 6099TIP3   OH218239   1.303   7.146   5.655
 6099TIP3    H118240   1.363   7.082   5.618
 6099TIP3    H218241   1.289   7.117   5.745
 6100TIP3   OH218242   5.690   5.945   0.435
 6100TIP3    H118243   5.698   6.036   0.464
 6100TIP3    H218244   5.717   5.947   0.343
 6101TIP3   OH218245   5.734   2.205   5.210
 6101TIP3    H118246   5.735   2.225   5.303
 6101TIP3    H218247   5.661   2.144   5.199
 6102TIP3   OH218248   4.825   0.064   6.446
 6102TIP3    H118249   4.808   0.099   6.533
 6102TIP3    H218250   4.788  -0.025   6.448
 6103TIP3   OH218251   2.049   5.462   1.712
 6103TIP3    H118252   2.144   5.463   1.719
 6103TIP3    H218253   2.021   5.396   1.776
 6104TIP3   OH218254   5.432   0.444   6.504
 6104TIP3    H118255   5.440   0.429   6.410
 6104TIP3    H218256   5.338   0.450   6.520
 6105TIP3   OH218257   0.560   3.467   4.593
 6105TIP3    H118258   0.649   3.454   4.561
 6105TIP3    H218259   0.569   3.465   4.688
 6106TIP3   OH218260   6.082   3.942   0.459
 6106TIP3    H118261   6.177   3.950   0.451
 6106TIP3    H218262   6.056   3.890   0.383
 6107TIP3   OH218263   5.631   6.995   1.499
 6107TIP3    H118264   5.681   6.944   1.563
 6107TIP3    H218265   5.619   7.080   1.541
 6108TIP3   OH218266   5.896   2.165   3.772
 6108TIP3    H118267   5.917   2.254   3.744
 6108TIP3    H218268   5.981   2.122   3.784
 6109TIP3   OH218269   8.073   3.572   1.609
 6109TIP3    H118270   8.128   3.503   1.646
 6109TIP3    H218271   8.131   3.619   1.550
 6110TIP3   OH218272   8.163   5.811   0.605
 6110TIP3    H118273   8.134   5.875   0.669
 6110TIP3    H218274   8.124   5.839   0.522
 6111TIP3   OH218275   5.998   7.224   3.753
 6111TIP3    H118276   6.040   7.138   3.749
 6111TIP3    H218277   5.946   7.223   3.833
 6112TIP3   OH218278   0.658   7.718   5.732
 6112TIP3    H118279   0.647   7.680   5.644
 6112TIP3    H218280   0.584   7.683   5.782
 6113TIP3   OH218281   3.508   6.129   2.607
 6113TIP3    H118282   3.425   6.173   2.624
 6113TIP3    H218283   3.558   6.191   2.554
 6114TIP3   OH218284   8.018   6.557   6.349
 6114TIP3    H118285   8.083   6.626   6.339
 6114TIP3    H218286   8.059   6.479   6.311
 6115TIP3   OH218287   2.870   0.535   4.349
 6115TIP3    H118288   2.844   0.453   4.308
 6115TIP3    H218289   2.956   0.555   4.312
 6116TIP3   OH218290   0.695   0.558   3.384
 6116TIP3    H118291   0.771   0.610   3.358
 6116TIP3    H218292   0.728   0.468   3.384
 6117TIP3   OH218293   7.779   0.471   2.082
 6117TIP3    H118294   7.790   0.561   2.050
 6117TIP3    H218295   7.856   0.425   2.050
 6118TIP3   OH218296   7.264   2.331   0.794
 6118TIP3    H118297   7.215   2.352   0.874
 6118TIP3    H218298   7.267   2.235   0.792
 6119TIP3   OH218299   1.275   7.773   5.600
 6119TIP3    H118300   1.185   7.754   5.571
 6119TIP3    H218301   1.322   7.690   5.588
 6120TIP3   OH218302   6.037   0.639   6.265
 6120TIP3    H118303   6.032   0.550   6.301
 6120TIP3    H218304   6.115   0.638   6.210
 6121TIP3   OH218305   6.773   1.728   1.850
 6121TIP3    H118306   6.777   1.760   1.940
 6121TIP3    H218307   6.864   1.724   1.822
 6122TIP3   OH218308   0.795   4.947   5.404
 6122TIP3    H118309   0.724   4.895   5.369
 6122TIP3    H218310   0.869   4.930   5.346
 6123TIP3   OH218311   6.259   0.534   0.464
 6123TIP3    H118312   6.245   0.612   0.519
 6123TIP3    H218313   6.326   0.484   0.511
 6124TIP3   OH218314   3.029   2.366   5.420
 6124TIP3    H118315   3.076   2.313   5.485
 6124TIP3    H218316   2.955   2.404   5.469
 6125TIP3   OH218317   6.480   5.494   4.421
 6125TIP3    H118318   6.540   5.568   4.424
 6125TIP3    H218319   6.394   5.531   4.442
 6126TIP3   OH218320   7.882   0.292   4.909
 6126TIP3    H118321   7.835   0.335   4.981
 6126TIP3    H218322   7.831   0.314   4.831
 6127TIP3   OH218323   1.318   2.733   4.211
 6127TIP3    H118324   1.368   2.685   4.277
 6127TIP3    H218325   1.384   2.771   4.153
 6128TIP3   OH218326   6.327   4.587   6.661
 6128TIP3    H118327   6.248   4.631   6.628
 6128TIP3    H218328   6.370   4.652   6.716
 6129TIP3   OH218329   4.300   7.494   4.769
 6129TIP3    H118330   4.300   7.541   4.852
 6129TIP3    H218331   4.215   7.449   4.767
 6130TIP3   OH218332   2.270   7.251   2.451
 6130TIP3    H118333   2.338   7.309   2.485
 6130TIP3    H218334   2.189   7.285   2.489
 6131TIP3   OH218335   4.976   6.932   5.447
 6131TIP3    H118336   4.989   7.006   5.506
 6131TIP3    H218337   4.885   6.905   5.462
 6132TIP3   OH218338   6.379   7.646   5.272
 6132TIP3    H118339   6.313   7.715   5.272
 6132TIP3    H218340   6.369   7.603   5.357
 6133TIP3   OH218341   3.253   0.304   2.059
 6133TIP3    H118342   3.169   0.313   2.105
 6133TIP3    H218343   3.229   0.268   1.974
 6134TIP3   OH218344   0.194   5.332   2.933
 6134TIP3    H118345   0.271   5.346   2.878
 6134TIP3    H218346   0.214   5.254   2.984
 6135TIP3   OH218347   5.630   7.685   0.081
 6135TIP3    H118348   5.711   7.734   0.094
 6135TIP3    H218349   5.630   7.620   0.151
 6136TIP3   OH218350   7.798   5.014   4.400
 6136TIP3    H118351   7.863   5.073   4.439
 6136TIP3    H218352   7.826   4.926   4.426
 6137TIP3   OH218353   0.058   7.673   3.468
 6137TIP3    H118354   0.050   7.764   3.439
 6137TIP3    H218355   0.035   7.621   3.392
 6138TIP3   OH218356   4.484   2.972   1.418
 6138TIP3    H118357   4.556   2.974   1.355
 6138TIP3    H218358   4.525   2.945   1.500
 6139TIP3   OH218359   4.242   3.563   0.830
 6139TIP3    H118360   4.155   3.558   0.870
 6139TIP3    H218361   4.274   3.473   0.829
 6140TIP3   OH218362   5.097   7.789   3.156
 6140TIP3    H118363   5.190   7.798   3.175
 6140TIP3    H218364   5.094   7.760   3.065
 6141TIP3   OH218365   4.054   3.622   0.611
 6141TIP3    H118366   4.033   3.712   0.588
 6141TIP3    H218367   4.072   3.624   0.705
 6142TIP3   OH218368   1.817   4.712   6.468
 6142TIP3    H118369   1.873   4.698   6.392
 6142TIP3    H218370   1.864   4.775   6.522
 6143TIP3   OH218371   4.144   1.087   5.924
 6143TIP3    H118372   4.229   1.118   5.958
 6143TIP3    H218373   4.101   1.167   5.894
 6144TIP3   OH218374   0.657   2.032   0.393
 6144TIP3    H118375   0.741   2.034   0.439
 6144TIP3    H218376   0.594   2.064   0.458
 6145TIP3   OH218377   6.238   4.969   6.194
 6145TIP3    H118378   6.249   4.950   6.288
 6145TIP3    H218379   6.200   4.889   6.158
 6146TIP3   OH218380   4.758   1.182   6.329
 6146TIP3    H118381   4.802   1.234   6.396
 6146TIP3    H218382   4.670   1.218   6.325
 6147TIP3   OH218383   4.057   2.758   1.839
 6147TIP3    H118384   4.041   2.715   1.755
 6147TIP3    H218385   3.982   2.817   1.850
 6148TIP3   OH218386   3.856   7.063   5.853
 6148TIP3    H118387   3.924   7.092   5.914
 6148TIP3    H218388   3.903   7.019   5.783
 6149TIP3   OH218389   0.260   1.655   0.984
 6149TIP3    H118390   0.323   1.700   1.040
 6149TIP3    H218391   0.286   1.678   0.894
 6150TIP3   OH218392   3.571   7.205   2.029
 6150TIP3    H118393   3.550   7.165   1.945
 6150TIP3    H218394   3.629   7.277   2.007
 6151TIP3   OH218395   0.967   3.764   4.327
 6151TIP3    H118396   0.880   3.772   4.368
 6151TIP3    H218397   0.994   3.854   4.310
 6152TIP3   OH218398   7.590   0.079   6.764
 6152TIP3    H118399   7.630   0.163   6.786
 6152TIP3    H218400   7.660   0.015   6.778
 6153TIP3   OH218401   7.760   3.875   0.877
 6153TIP3    H118402   7.754   3.915   0.964
 6153TIP3    H218403   7.817   3.799   0.889
 6154TIP3   OH218404   4.870   2.532   2.777
 6154TIP3    H118405   4.892   2.588   2.702
 6154TIP3    H218406   4.954   2.509   2.815
 6155TIP3   OH218407   5.576   7.488   3.968
 6155TIP3    H118408   5.571   7.579   3.997
 6155TIP3    H218409   5.509   7.481   3.899
 6156TIP3   OH218410   4.934   1.050   0.958
 6156TIP3    H118411   4.986   1.128   0.939
 6156TIP3    H218412   4.957   1.026   1.047
 6157TIP3   OH218413   3.933   1.765   4.999
 6157TIP3    H118414   3.867   1.700   5.024
 6157TIP3    H218415   3.958   1.740   4.910
 6158TIP3   OH218416   3.476   1.410   2.888
 6158TIP3    H118417   3.392   1.438   2.925
 6158TIP3    H218418   3.513   1.490   2.851
 6159TIP3   OH218419   0.654   2.562   1.766
 6159TIP3    H118420   0.582   2.545   1.706
 6159TIP3    H218421   0.710   2.484   1.760
 6160TIP3   OH218422   4.910   6.713   0.528
 6160TIP3    H118423   4.848   6.650   0.489
 6160TIP3    H218424   4.987   6.661   0.549
 6161TIP3   OH218425   0.195   4.029   4.959
 6161TIP3    H118426   0.235   4.009   4.874
 6161TIP3    H218427   0.208   4.123   4.970
 6162TIP3   OH218428   6.537   5.106   4.836
 6162TIP3    H118429   6.629   5.082   4.842
 6162TIP3    H218430   6.533   5.193   4.877
 6163TIP3   OH218431   2.504   3.981   1.413
 6163TIP3    H118432   2.459   4.008   1.333
 6163TIP3    H218433   2.490   4.054   1.474
 6164TIP3   OH218434   6.364   0.373   4.153
 6164TIP3    H118435   6.352   0.453   4.204
 6164TIP3    H218436   6.346   0.302   4.214
 6165TIP3   OH218437   3.185  -0.011   4.582
 6165TIP3    H118438   3.145   0.073   4.558
 6165TIP3    H218439   3.200  -0.005   4.676
 6166TIP3   OH218440   6.749   2.272   1.216
 6166TIP3    H118441   6.766   2.182   1.188
 6166TIP3    H218442   6.674   2.300   1.163
 6167TIP3   OH218443   5.602   4.258   1.141
 6167TIP3    H118444   5.511   4.236   1.162
 6167TIP3    H218445   5.606   4.353   1.146
 6168TIP3   OH218446   0.255   2.810   3.364
 6168TIP3    H118447   0.236   2.792   3.272
 6168TIP3    H218448   0.307   2.891   3.362
 6169TIP3   OH218449   4.117   2.414   2.229
 6169TIP3    H118450   4.118   2.509   2.221
 6169TIP3    H218451   4.185   2.394   2.293
 6170TIP3   OH218452   0.698   2.803   2.671
 6170TIP3    H118453   0.662   2.714   2.670
 6170TIP3    H218454   0.738   2.812   2.758
 6171TIP3   OH218455   4.700   3.868   5.984
 6171TIP3    H118456   4.780   3.886   5.934
 6171TIP3    H218457   4.707   3.925   6.061
 6172TIP3   OH218458   3.985   4.647   1.613
 6172TIP3    H118459   3.996   4.601   1.696
 6172TIP3    H218460   4.070   4.641   1.570
 6173TIP3   OH218461   7.431   0.846   4.987
 6173TIP3    H118462   7.435   0.937   5.018
 6173TIP3    H218463   7.408   0.853   4.894
 6174TIP3   OH218464   2.833   7.561   4.275
 6174TIP3    H118465   2.795   7.553   4.187
 6174TIP3    H218466   2.885   7.482   4.287
 6175TIP3   OH218467   0.397   3.193   5.124
 6175TIP3    H118468   0.326   3.232   5.074
 6175TIP3    H218469   0.427   3.120   5.071
 6176TIP3   OH218470   0.059   0.985   4.558
 6176TIP3    H118471   0.139   0.935   4.574
 6176TIP3    H218472  -0.005   0.919   4.530
 6177TIP3   OH218473   5.155   6.758   2.095
 6177TIP3    H118474   5.078   6.813   2.078
 6177TIP3    H218475   5.168   6.764   2.189
 6178TIP3   OH218476   2.939   6.584   3.961
 6178TIP3    H118477   2.947   6.638   4.040
 6178TIP3    H218478   2.845   6.577   3.947
 6179TIP3   OH218479   8.156   2.512   1.139
 6179TIP3    H118480   8.232   2.551   1.181
 6179TIP3    H218481   8.097   2.489   1.211
 6180TIP3   OH218482   5.257   2.795   3.342
 6180TIP3    H118483   5.238   2.875   3.294
 6180TIP3    H218484   5.352   2.784   3.334
 6181TIP3   OH218485   6.575   3.624   4.070
 6181TIP3    H118486   6.545   3.594   4.156
 6181TIP3    H218487   6.638   3.558   4.042
 6182TIP3   OH218488   0.199   2.828   0.653
 6182TIP3    H118489   0.131   2.780   0.605
 6182TIP3    H218490   0.275   2.826   0.596
 6183TIP3   OH218491   2.366   3.050   3.161
 6183TIP3    H118492   2.292   3.106   3.137
 6183TIP3    H218493   2.437   3.078   3.104
 6184TIP3   OH218494   0.074   7.062   6.200
 6184TIP3    H118495   0.130   7.088   6.273
 6184TIP3    H218496  -0.014   7.063   6.236
 6185TIP3   OH218497   1.333   2.434   4.428
 6185TIP3    H118498   1.244   2.420   4.460
 6185TIP3    H218499   1.354   2.523   4.454
 6186TIP3   OH218500   3.972   5.000   2.518
 6186TIP3    H118501   3.999   4.909   2.506
 6186TIP3    H218502   3.918   4.999   2.597
 6187TIP3   OH218503   4.009   1.071   6.172
 6187TIP3    H118504   3.996   1.065   6.077
 6187TIP3    H218505   4.103   1.060   6.184
 6188TIP3   OH218506   5.080   2.795   4.751
 6188TIP3    H118507   5.084   2.701   4.771
 6188TIP3    H218508   4.988   2.818   4.761
 6189TIP3   OH218509   5.774   3.490   4.245
 6189TIP3    H118510   5.733   3.432   4.309
 6189TIP3    H218511   5.705   3.509   4.182
 6190TIP3   OH218512   4.872   2.738   2.570
 6190TIP3    H118513   4.792   2.694   2.541
 6190TIP3    H218514   4.855   2.831   2.553
 6191TIP3   OH218515   1.133   5.766   1.431
 6191TIP3    H118516   1.199   5.724   1.486
 6191TIP3    H218517   1.052   5.760   1.481
 6192TIP3   OH218518   4.142   0.176   3.602
 6192TIP3    H118519   4.220   0.211   3.644
 6192TIP3    H218520   4.174   0.110   3.542
 6193TIP3   OH218521   8.014   3.959   4.542
 6193TIP3    H118522   8.012   4.054   4.554
 6193TIP3    H218523   8.079   3.928   4.605
 6194TIP3   OH218524   3.263   0.707   0.041
 6194TIP3    H118525   3.267   0.801   0.055
 6194TIP3    H218526   3.342   0.673   0.085
 6195TIP3   OH218527   8.120   2.771   5.566
 6195TIP3    H118528   8.067   2.817   5.631
 6195TIP3    H218529   8.111   2.679   5.589
 6196TIP3   OH218530   0.943   2.925   6.496
 6196TIP3    H118531   1.028   2.912   6.538
 6196TIP3    H218532   0.950   2.877   6.413
 6197TIP3   OH218533   2.121   4.860   3.826
 6197TIP3    H118534   2.116   4.790   3.893
 6197TIP3    H218535   2.184   4.827   3.762
 6198TIP3   OH218536   5.787   1.255   2.018
 6198TIP3    H118537   5.822   1.278   2.104
 6198TIP3    H218538   5.695   1.233   2.034
 6199TIP3   OH218539   2.113   0.102   3.185
 6199TIP3    H118540   2.027   0.143   3.190
 6199TIP3    H218541   2.095   0.008   3.180
 6200TIP3   OH218542   8.202   2.281   0.520
 6200TIP3    H118543   8.187   2.272   0.614
 6200TIP3    H218544   8.122   2.318   0.486
 6201TIP3   OH218545   5.510   1.151   4.192
 6201TIP3    H118546   5.439   1.109   4.241
 6201TIP3    H218547   5.568   1.078   4.168
 6202TIP3   OH218548   5.987   0.734   0.690
 6202TIP3    H118549   5.923   0.751   0.759
 6202TIP3    H218550   5.995   0.638   0.688
 6203TIP3   OH218551   5.083   2.073   0.996
 6203TIP3    H118552   5.099   2.001   1.057
 6203TIP3    H218553   5.131   2.147   1.034
 6204TIP3   OH218554   0.396   6.115   2.592
 6204TIP3    H118555   0.378   6.028   2.628
 6204TIP3    H218556   0.472   6.147   2.640
 6205TIP3   OH218557   2.478   6.019   3.531
 6205TIP3    H118558   2.409   5.985   3.474
 6205TIP3    H218559   2.490   6.109   3.503
 6206TIP3   OH218560   7.810   0.558   0.974
 6206TIP3    H118561   7.738   0.620   0.981
 6206TIP3    H218562   7.775   0.485   0.922
 6207TIP3   OH218563   2.588   0.460   5.295
 6207TIP3    H118564   2.670   0.419   5.322
 6207TIP3    H218565   2.583   0.443   5.200
 6208TIP3   OH218566   4.534   4.999   6.039
 6208TIP3    H118567   4.557   4.948   6.117
 6208TIP3    H218568   4.574   4.951   5.967
 6209TIP3   OH218569   5.427   2.594   4.858
 6209TIP3    H118570   5.516   2.588   4.824
 6209TIP3    H218571   5.373   2.547   4.795
 6210TIP3   OH218572   0.612   3.382   1.119
 6210TIP3    H118573   0.553   3.405   1.191
 6210TIP3    H218574   0.555   3.341   1.054
 6211TIP3   OH218575   4.012   5.557   6.069
 6211TIP3    H118576   3.980   5.561   6.159
 6211TIP3    H218577   3.977   5.636   6.027
 6212TIP3   OH218578   5.125   0.629   5.967
 6212TIP3    H118579   5.050   0.607   5.911
 6212TIP3    H218580   5.158   0.711   5.931
 6213TIP3   OH218581   6.835   6.330   1.830
 6213TIP3    H118582   6.826   6.285   1.915
 6213TIP3    H218583   6.758   6.302   1.780
 6214TIP3   OH218584   4.167   0.417   2.025
 6214TIP3    H118585   4.187   0.467   1.946
 6214TIP3    H218586   4.204   0.471   2.096
 6215TIP3   OH218587   2.786   1.997   0.922
 6215TIP3    H118588   2.789   2.075   0.978
 6215TIP3    H218589   2.820   2.027   0.838
 6216TIP3   OH218590   5.449   1.090   5.846
 6216TIP3    H118591   5.381   1.143   5.889
 6216TIP3    H218592   5.442   1.114   5.754
 6217TIP3   OH218593   1.093   4.451   4.643
 6217TIP3    H118594   1.055   4.533   4.676
 6217TIP3    H218595   1.059   4.384   4.702
 6218TIP3   OH218596   2.750   2.359   6.015
 6218TIP3    H118597   2.778   2.272   5.987
 6218TIP3    H218598   2.810   2.419   5.972
 6219TIP3   OH218599   0.320   1.253   0.806
 6219TIP3    H118600   0.394   1.196   0.784
 6219TIP3    H218601   0.271   1.204   0.872
 6220TIP3   OH218602   4.933   3.278   1.725
 6220TIP3    H118603   4.982   3.204   1.761
 6220TIP3    H218604   5.000   3.341   1.699
 6221TIP3   OH218605   6.914   2.491   3.762
 6221TIP3    H118606   6.976   2.540   3.817
 6221TIP3    H218607   6.828   2.513   3.799
 6222TIP3   OH218608   6.604   1.322   4.297
 6222TIP3    H118609   6.672   1.380   4.263
 6222TIP3    H218610   6.647   1.236   4.301
 6223TIP3   OH218611   4.383   2.278   1.617
 6223TIP3    H118612   4.361   2.192   1.655
 6223TIP3    H218613   4.301   2.327   1.621
 6224TIP3   OH218614   7.059   0.586   1.027
 6224TIP3    H118615   6.996   0.651   1.059
 6224TIP3    H218616   7.044   0.509   1.082
 6225TIP3   OH218617   8.057   4.501   6.023
 6225TIP3    H118618   8.027   4.482   6.112
 6225TIP3    H218619   7.977   4.508   5.971
 6226TIP3   OH218620   2.240   3.965   0.745
 6226TIP3    H118621   2.332   3.939   0.735
 6226TIP3    H218622   2.239   4.019   0.824
 6227TIP3   OH218623   4.510   2.934   0.765
 6227TIP3    H118624   4.560   3.002   0.719
 6227TIP3    H218625   4.432   2.921   0.711
 6228TIP3   OH218626   7.742   4.249   5.731
 6228TIP3    H118627   7.695   4.229   5.651
 6228TIP3    H218628   7.686   4.310   5.778
 6229TIP3   OH218629   5.567   0.074   2.627
 6229TIP3    H118630   5.611   0.052   2.545
 6229TIP3    H218631   5.606   0.015   2.691
 6230TIP3   OH218632   3.482   6.297   0.787
 6230TIP3    H118633   3.433   6.275   0.867
 6230TIP3    H218634   3.454   6.231   0.723
 6231TIP3   OH218635   1.566   4.280   1.328
 6231TIP3    H118636   1.500   4.211   1.318
 6231TIP3    H218637   1.564   4.328   1.246
 6232TIP3   OH218638   5.925   6.558   6.766
 6232TIP3    H118639   5.924   6.558   6.671
 6232TIP3    H218640   6.016   6.576   6.789
 6233TIP3   OH218641   3.787   2.875   6.266
 6233TIP3    H118642   3.738   2.951   6.298
 6233TIP3    H218643   3.724   2.803   6.267
 6234TIP3   OH218644   8.244   1.757   0.829
 6234TIP3    H118645   8.265   1.751   0.922
 6234TIP3    H218646   8.235   1.666   0.801
 6235TIP3   OH218647   5.856   6.379   1.865
 6235TIP3    H118648   5.794   6.311   1.840
 6235TIP3    H218649   5.807   6.436   1.925
 6236TIP3   OH218650   2.240   5.103   0.168
 6236TIP3    H118651   2.199   5.152   0.097
 6236TIP3    H218652   2.333   5.101   0.146
 6237TIP3   OH218653   7.047   4.967   0.857
 6237TIP3    H118654   7.116   4.901   0.850
 6237TIP3    H218655   6.999   4.944   0.936
 6238TIP3   OH218656   6.418   4.346   0.061
 6238TIP3    H118657   6.401   4.299   0.143
 6238TIP3    H218658   6.388   4.286  -0.007
 6239TIP3   OH218659   5.250   0.522   1.715
 6239TIP3    H118660   5.192   0.486   1.781
 6239TIP3    H218661   5.330   0.544   1.762
 6240TIP3   OH218662   1.821   0.519   5.563
 6240TIP3    H118663   1.855   0.433   5.540
 6240TIP3    H218664   1.861   0.578   5.499
 6241TIP3   OH218665   0.360   1.382   5.778
 6241TIP3    H118666   0.329   1.422   5.859
 6241TIP3    H218667   0.453   1.367   5.792
 6242TIP3   OH218668   3.640   0.922   4.767
 6242TIP3    H118669   3.660   0.970   4.847
 6242TIP3    H218670   3.700   0.847   4.768
 6243TIP3   OH218671   2.598   0.944   5.542
 6243TIP3    H118672   2.538   1.012   5.574
 6243TIP3    H218673   2.582   0.941   5.447
 6244TIP3   OH218674   2.346   3.138   1.151
 6244TIP3    H118675   2.348   3.063   1.211
 6244TIP3    H218676   2.332   3.214   1.207
 6245TIP3   OH218677   5.479   4.103   1.610
 6245TIP3    H118678   5.431   4.111   1.528
 6245TIP3    H218679   5.568   4.131   1.590
 6246TIP3   OH218680   4.895   3.942   3.896
 6246TIP3    H118681   4.953   3.897   3.834
 6246TIP3    H218682   4.849   4.007   3.843
 6247TIP3   OH218683   1.388   6.695   2.758
 6247TIP3    H118684   1.354   6.611   2.730
 6247TIP3    H218685   1.319   6.734   2.811
 6248TIP3   OH218686   1.224   6.269   2.533
 6248TIP3    H118687   1.201   6.176   2.529
 6248TIP3    H218688   1.140   6.315   2.540
 6249TIP3   OH218689   7.906   3.816   6.265
 6249TIP3    H118690   7.979   3.877   6.270
 6249TIP3    H218691   7.845   3.847   6.332
 6250TIP3   OH218692   1.901   5.758   3.167
 6250TIP3    H118693   1.833   5.718   3.221
 6250TIP3    H218694   1.980   5.752   3.221
 6251TIP3   OH218695   2.672   6.581   1.341
 6251TIP3    H118696   2.724   6.593   1.421
 6251TIP3    H218697   2.653   6.488   1.338
 6252TIP3   OH218698   0.662   4.781   0.760
 6252TIP3    H118699   0.579   4.734   0.767
 6252TIP3    H218700   0.638   4.874   0.762
 6253TIP3   OH218701   7.827   0.015   6.526
 6253TIP3    H118702   7.854   0.024   6.617
 6253TIP3    H218703   7.785  -0.071   6.522
 6254TIP3   OH218704   0.319   3.613   2.098
 6254TIP3    H118705   0.333   3.633   2.191
 6254TIP3    H218706   0.282   3.525   2.098
 6255TIP3   OH218707   7.222   3.988   5.408
 6255TIP3    H118708   7.146   4.000   5.465
 6255TIP3    H218709   7.188   4.002   5.319
 6256TIP3   OH218710   5.199   6.719   0.512
 6256TIP3    H118711   5.261   6.700   0.441
 6256TIP3    H218712   5.251   6.764   0.578
 6257TIP3   OH218713   1.853   2.382   2.628
 6257TIP3    H118714   1.787   2.329   2.584
 6257TIP3    H218715   1.844   2.469   2.589
 6258TIP3   OH218716   1.816   2.876   4.118
 6258TIP3    H118717   1.780   2.893   4.205
 6258TIP3    H218718   1.841   2.962   4.085
 6259TIP3   OH218719   6.737   0.923   2.851
 6259TIP3    H118720   6.782   0.850   2.895
 6259TIP3    H218721   6.657   0.935   2.903
 6260TIP3   OH218722   3.280   7.673   6.336
 6260TIP3    H118723   3.198   7.699   6.295
 6260TIP3    H218724   3.297   7.741   6.401
 6261TIP3   OH218725   5.313   6.286   6.451
 6261TIP3    H118726   5.359   6.365   6.479
 6261TIP3    H218727   5.225   6.316   6.429
 6262TIP3   OH218728   6.101   6.215   0.777
 6262TIP3    H118729   6.160   6.277   0.734
 6262TIP3    H218730   6.114   6.230   0.871
 6263TIP3   OH218731   3.869   0.634   2.420
 6263TIP3    H118732   3.814   0.629   2.342
 6263TIP3    H218733   3.955   0.661   2.387
 6264TIP3   OH218734   2.385   4.248   1.970
 6264TIP3    H118735   2.456   4.188   1.947
 6264TIP3    H218736   2.388   4.251   2.066
 6265TIP3   OH218737   4.008   5.932   2.596
 6265TIP3    H118738   4.081   5.937   2.534
 6265TIP3    H218739   4.020   6.007   2.654
 6266TIP3   OH218740   3.193   0.002   0.907
 6266TIP3    H118741   3.166   0.041   0.824
 6266TIP3    H218742   3.244   0.071   0.950
 6267TIP3   OH218743   4.164   4.932   4.035
 6267TIP3    H118744   4.190   4.851   4.078
 6267TIP3    H218745   4.111   4.903   3.960
 6268TIP3   OH218746   7.440   5.018   4.496
 6268TIP3    H118747   7.512   4.982   4.548
 6268TIP3    H218748   7.483   5.073   4.431
 6269TIP3   OH218749   1.421   5.151   5.266
 6269TIP3    H118750   1.328   5.173   5.273
 6269TIP3    H218751   1.439   5.094   5.341
 6270TIP3   OH218752   5.885   0.643   5.160
 6270TIP3    H118753   5.949   0.611   5.223
 6270TIP3    H218754   5.866   0.567   5.105
 6271TIP3   OH218755   2.622   1.138   0.846
 6271TIP3    H118756   2.557   1.149   0.776
 6271TIP3    H218757   2.657   1.050   0.833
 6272TIP3   OH218758   7.847   2.650   5.568
 6272TIP3    H118759   7.780   2.626   5.632
 6272TIP3    H218760   7.858   2.572   5.514
 6273TIP3   OH218761   0.398   6.129   4.051
 6273TIP3    H118762   0.338   6.162   4.118
 6273TIP3    H218763   0.354   6.051   4.017
 6274TIP3   OH218764   0.460   1.405   4.811
 6274TIP3    H118765   0.398   1.473   4.784
 6274TIP3    H218766   0.416   1.358   4.882
 6275TIP3   OH218767   2.048   5.827   4.766
 6275TIP3    H118768   2.013   5.860   4.849
 6275TIP3    H218769   1.996   5.749   4.747
 6276TIP3   OH218770   1.185   6.601   6.652
 6276TIP3    H118771   1.094   6.625   6.671
 6276TIP3    H218772   1.180   6.556   6.567
 6277TIP3   OH218773   3.058   0.124   3.352
 6277TIP3    H118774   3.153   0.116   3.340
 6277TIP3    H218775   3.022   0.113   3.264
 6278TIP3   OH218776   3.310   0.250   0.992
 6278TIP3    H118777   3.392   0.240   0.944
 6278TIP3    H218778   3.337   0.281   1.079
 6279TIP3   OH218779   1.620   3.483   3.384
 6279TIP3    H118780   1.541   3.536   3.389
 6279TIP3    H218781   1.612   3.435   3.301
 6280TIP3   OH218782   4.294   2.152   5.266
 6280TIP3    H118783   4.224   2.105   5.312
 6280TIP3    H218784   4.280   2.132   5.174
 6281TIP3   OH218785   0.716   6.194   5.006
 6281TIP3    H118786   0.796   6.155   5.042
 6281TIP3    H218787   0.688   6.256   5.074
 6282TIP3   OH218788   4.739   5.881   4.341
 6282TIP3    H118789   4.826   5.920   4.335
 6282TIP3    H218790   4.755   5.787   4.336
 6283TIP3   OH218791   1.559   7.861   5.300
 6283TIP3    H118792   1.503   7.833   5.228
 6283TIP3    H218793   1.502   7.915   5.355
 6284TIP3   OH218794   5.162   1.829   2.588
 6284TIP3    H118795   5.115   1.748   2.567
 6284TIP3    H218796   5.141   1.888   2.515
 6285TIP3   OH218797   4.346   3.309   0.863
 6285TIP3    H118798   4.420   3.295   0.922
 6285TIP3    H218799   4.281   3.244   0.891
 6286TIP3   OH218800   4.502   2.139   2.253
 6286TIP3    H118801   4.561   2.172   2.186
 6286TIP3    H218802   4.418   2.130   2.209
 6287TIP3   OH218803   7.298   2.090   3.448
 6287TIP3    H118804   7.386   2.064   3.421
 6287TIP3    H218805   7.312   2.151   3.520
 6288TIP3   OH218806   8.246   3.799   1.896
 6288TIP3    H118807   8.287   3.776   1.813
 6288TIP3    H218808   8.162   3.837   1.871
 6289TIP3   OH218809   3.473   3.744   3.260
 6289TIP3    H118810   3.493   3.828   3.301
 6289TIP3    H218811   3.437   3.691   3.331
 6290TIP3   OH218812   4.272   4.616   0.381
 6290TIP3    H118813   4.183   4.602   0.412
 6290TIP3    H218814   4.321   4.539   0.411
 6291TIP3   OH218815   1.150   7.273   2.852
 6291TIP3    H118816   1.084   7.207   2.834
 6291TIP3    H218817   1.223   7.252   2.793
 6292TIP3   OH218818   2.964   3.589   3.095
 6292TIP3    H118819   3.019   3.653   3.050
 6292TIP3    H218820   2.943   3.630   3.179
 6293TIP3   OH218821   4.212   2.463   3.932
 6293TIP3    H118822   4.287   2.423   3.887
 6293TIP3    H218823   4.249   2.538   3.978
 6294TIP3   OH218824   5.914   5.330   0.034
 6294TIP3    H118825   5.877   5.250  -0.002
 6294TIP3    H218826   5.997   5.303   0.073
 6295TIP3   OH218827   2.043   2.078   4.457
 6295TIP3    H118828   1.951   2.090   4.430
 6295TIP3    H218829   2.037   2.033   4.541
 6296TIP3   OH218830   0.160   6.752   3.573
 6296TIP3    H118831   0.178   6.710   3.657
 6296TIP3    H218832   0.212   6.703   3.510
 6297TIP3   OH218833   1.647   6.303   3.937
 6297TIP3    H118834   1.569   6.329   3.889
 6297TIP3    H218835   1.687   6.385   3.965
 6298TIP3   OH218836   1.997   1.508   3.115
 6298TIP3    H118837   2.037   1.422   3.131
 6298TIP3    H218838   2.023   1.560   3.191
 6299TIP3   OH218839   1.272   6.020   4.592
 6299TIP3    H118840   1.195   6.073   4.611
 6299TIP3    H218841   1.282   6.025   4.497
 6300TIP3   OH218842   7.546   2.452   6.642
 6300TIP3    H118843   7.537   2.433   6.549
 6300TIP3    H218844   7.554   2.547   6.647
 6301TIP3   OH218845   2.235   3.092   5.651
 6301TIP3    H118846   2.232   3.039   5.572
 6301TIP3    H218847   2.179   3.046   5.713
 6302TIP3   OH218848   4.537   5.405   2.534
 6302TIP3    H118849   4.539   5.441   2.445
 6302TIP3    H218850   4.625   5.370   2.548
 6303TIP3   OH218851   3.693   6.275   0.266
 6303TIP3    H118852   3.748   6.265   0.188
 6303TIP3    H218853   3.704   6.367   0.291
 6304TIP3   OH218854   6.716   3.020   6.402
 6304TIP3    H118855   6.795   3.016   6.349
 6304TIP3    H218856   6.706   2.931   6.437
 6305TIP3   OH218857   0.811   7.492   6.189
 6305TIP3    H118858   0.775   7.463   6.106
 6305TIP3    H218859   0.885   7.548   6.165
 6306TIP3   OH218860   0.799   5.001   1.832
 6306TIP3    H118861   0.795   4.966   1.920
 6306TIP3    H218862   0.708   5.018   1.808
 6307TIP3   OH218863   3.811   1.097   3.674
 6307TIP3    H118864   3.808   1.109   3.579
 6307TIP3    H218865   3.797   1.184   3.709
 6308TIP3   OH218866   0.064   4.357   1.739
 6308TIP3    H118867   0.069   4.330   1.830
 6308TIP3    H218868  -0.026   4.338   1.712
 6309TIP3   OH218869   5.568   0.688   1.664
 6309TIP3    H118870   5.544   0.716   1.576
 6309TIP3    H218871   5.528   0.752   1.723
 6310TIP3   OH218872   0.323   0.481   5.532
 6310TIP3    H118873   0.356   0.418   5.467
 6310TIP3    H218874   0.382   0.555   5.525
 6311TIP3   OH218875   5.054   4.801   0.347
 6311TIP3    H118876   5.138   4.774   0.383
 6311TIP3    H218877   5.050   4.895   0.362
 6312TIP3   OH218878   3.023   3.436   0.869
 6312TIP3    H118879   2.990   3.346   0.868
 6312TIP3    H218880   3.018   3.464   0.778
 6313TIP3   OH218881   5.285   4.983   5.629
 6313TIP3    H118882   5.324   5.059   5.584
 6313TIP3    H218883   5.198   4.975   5.590
 6314TIP3   OH218884   3.209   5.702   0.073
 6314TIP3    H118885   3.196   5.653   0.155
 6314TIP3    H218886   3.304   5.711   0.066
 6315TIP3   OH218887   3.585   5.669   0.557
 6315TIP3    H118888   3.548   5.635   0.638
 6315TIP3    H218889   3.676   5.637   0.557
 6316TIP3   OH218890   3.733   0.869   4.390
 6316TIP3    H118891   3.746   0.830   4.304
 6316TIP3    H218892   3.643   0.903   4.388
 6317TIP3   OH218893   2.642   5.846   6.066
 6317TIP3    H118894   2.615   5.848   6.158
 6317TIP3    H218895   2.677   5.933   6.049
 6318TIP3   OH218896   7.435   2.431   0.043
 6318TIP3    H118897   7.342   2.408   0.047
 6318TIP3    H218898   7.435   2.519   0.005
 6319TIP3   OH218899   4.893   0.496   2.918
 6319TIP3    H118900   4.964   0.436   2.896
 6319TIP3    H218901   4.845   0.507   2.836
 6320TIP3   OH218902   5.595   4.321   5.122
 6320TIP3    H118903   5.637   4.254   5.067
 6320TIP3    H218904   5.667   4.356   5.175
 6321TIP3   OH218905   5.792   4.942   4.846
 6321TIP3    H118906   5.826   4.896   4.769
 6321TIP3    H218907   5.711   4.983   4.816
 6322TIP3   OH218908   1.931   1.908   2.114
 6322TIP3    H118909   1.968   1.823   2.136
 6322TIP3    H218910   2.006   1.961   2.086
 6323TIP3   OH218911   3.676   7.176   2.576
 6323TIP3    H118912   3.698   7.255   2.527
 6323TIP3    H218913   3.731   7.108   2.537
 6324TIP3   OH218914   2.590   7.164   6.602
 6324TIP3    H118915   2.555   7.166   6.513
 6324TIP3    H218916   2.569   7.076   6.635
 6325TIP3   OH218917   0.416   3.981   2.654
 6325TIP3    H118918   0.493   3.985   2.597
 6325TIP3    H218919   0.434   4.044   2.724
 6326TIP3   OH218920   2.993   0.698   2.996
 6326TIP3    H118921   3.045   0.753   3.054
 6326TIP3    H218922   2.990   0.747   2.913
 6327TIP3   OH218923   6.648   4.552   5.453
 6327TIP3    H118924   6.722   4.542   5.393
 6327TIP3    H218925   6.606   4.634   5.427
 6328TIP3   OH218926   4.789   1.623   3.283
 6328TIP3    H118927   4.839   1.543   3.267
 6328TIP3    H218928   4.851   1.693   3.263
 6329TIP3   OH218929   4.437   0.641   3.754
 6329TIP3    H118930   4.532   0.630   3.761
 6329TIP3    H218931   4.410   0.673   3.840
 6330TIP3   OH218932   4.964   7.552   1.461
 6330TIP3    H118933   4.883   7.559   1.512
 6330TIP3    H218934   5.032   7.539   1.527
 6331TIP3   OH218935   5.610   3.338   3.687
 6331TIP3    H118936   5.611   3.350   3.782
 6331TIP3    H218937   5.590   3.425   3.652
 6332TIP3   OH218938   4.244   3.878   1.159
 6332TIP3    H118939   4.277   3.854   1.073
 6332TIP3    H218940   4.154   3.907   1.143
 6333TIP3   OH218941   3.200   2.124   2.003
 6333TIP3    H118942   3.201   2.034   2.034
 6333TIP3    H218943   3.111   2.154   2.019
 6334TIP3   OH218944   3.071   1.481   4.974
 6334TIP3    H118945   3.129   1.526   4.913
 6334TIP3    H218946   3.098   1.512   5.061
 6335TIP3   OH218947   5.036   4.082   6.547
 6335TIP3    H118948   5.034   3.997   6.504
 6335TIP3    H218949   4.947   4.117   6.536
 6336TIP3   OH218950   2.504   3.895   0.751
 6336TIP3    H118951   2.513   3.800   0.744
 6336TIP3    H218952   2.592   3.928   0.734
 6337TIP3   OH218953   3.624   6.869   4.259
 6337TIP3    H118954   3.654   6.959   4.246
 6337TIP3    H218955   3.668   6.819   4.191
 6338TIP3   OH218956   6.811   6.846   2.350
 6338TIP3    H118957   6.795   6.835   2.444
 6338TIP3    H218958   6.904   6.869   2.344
 6339TIP3   OH218959   8.185   2.775   2.182
 6339TIP3    H118960   8.203   2.688   2.147
 6339TIP3    H218961   8.262   2.795   2.235
 6340TIP3   OH218962   1.414   3.606   5.819
 6340TIP3    H118963   1.378   3.643   5.738
 6340TIP3    H218964   1.356   3.639   5.888
 6341TIP3   OH218965   5.865   2.212   5.864
 6341TIP3    H118966   5.835   2.125   5.837
 6341TIP3    H218967   5.932   2.235   5.799
 6342TIP3   OH218968   5.098   7.704   2.088
 6342TIP3    H118969   5.061   7.652   2.016
 6342TIP3    H218970   5.137   7.638   2.146
 6343TIP3   OH218971   3.136   7.701   1.956
 6343TIP3    H118972   3.196   7.671   2.025
 6343TIP3    H218973   3.142   7.796   1.959
 6344TIP3   OH218974   5.569   3.073   0.384
 6344TIP3    H118975   5.634   3.059   0.452
 6344TIP3    H218976   5.513   2.995   0.388
 6345TIP3   OH218977   1.319   2.212   5.471
 6345TIP3    H118978   1.379   2.231   5.398
 6345TIP3    H218979   1.258   2.147   5.435
 6346TIP3   OH218980   1.506   0.409   2.415
 6346TIP3    H118981   1.533   0.345   2.481
 6346TIP3    H218982   1.587   0.438   2.374
 6347TIP3   OH218983   4.859   6.548   1.261
 6347TIP3    H118984   4.768   6.576   1.257
 6347TIP3    H218985   4.896   6.573   1.177
 6348TIP3   OH218986   7.059   7.334   2.020
 6348TIP3    H118987   7.094   7.267   1.963
 6348TIP3    H218988   7.008   7.391   1.963
 6349TIP3   OH218989   3.702   3.919   2.795
 6349TIP3    H118990   3.729   3.889   2.708
 6349TIP3    H218991   3.654   4.000   2.779
 6350TIP3   OH218992   6.678   3.922   4.053
 6350TIP3    H118993   6.649   3.830   4.060
 6350TIP3    H218994   6.618   3.969   4.111
 6351TIP3   OH218995   0.056   7.535   4.346
 6351TIP3    H118996   0.037   7.589   4.270
 6351TIP3    H218997   0.045   7.445   4.315
 6352TIP3   OH218998   6.805   1.389   2.293
 6352TIP3    H118999   6.800   1.466   2.349
 6352TIP3    H219000   6.742   1.328   2.329
 6353TIP3   OH219001   1.374   1.913   5.500
 6353TIP3    H119002   1.459   1.952   5.522
 6353TIP3    H219003   1.375   1.828   5.543
 6354TIP3   OH219004   1.624   5.270   0.613
 6354TIP3    H119005   1.658   5.357   0.634
 6354TIP3    H219006   1.701   5.221   0.583
 6355TIP3   OH219007   5.695   7.527   6.257
 6355TIP3    H119008   5.663   7.616   6.275
 6355TIP3    H219009   5.697   7.521   6.162
 6356TIP3   OH219010   1.041   2.600   5.117
 6356TIP3    H119011   1.122   2.587   5.166
 6356TIP3    H219012   0.982   2.531   5.150
 6357TIP3   OH219013   4.316   0.272   2.680
 6357TIP3    H119014   4.240   0.218   2.660
 6357TIP3    H219015   4.388   0.210   2.690
 6358TIP3   OH219016   5.843   4.287   3.698
 6358TIP3    H119017   5.929   4.320   3.671
 6358TIP3    H219018   5.855   4.193   3.707
 6359TIP3   OH219019   7.780   4.699   0.720
 6359TIP3    H119020   7.821   4.758   0.784
 6359TIP3    H219021   7.822   4.722   0.637
 6360TIP3   OH219022   0.424   1.497   1.622
 6360TIP3    H119023   0.368   1.422   1.606
 6360TIP3    H219024   0.433   1.539   1.536
 6361TIP3   OH219025   5.429   1.919   4.694
 6361TIP3    H119026   5.440   1.870   4.613
 6361TIP3    H219027   5.346   1.888   4.730
 6362TIP3   OH219028   2.940   5.113   3.769
 6362TIP3    H119029   3.006   5.112   3.700
 6362TIP3    H219030   2.876   5.048   3.742
 6363TIP3   OH219031   4.718   3.669   2.446
 6363TIP3    H119032   4.745   3.738   2.506
 6363TIP3    H219033   4.695   3.715   2.365
 6364TIP3   OH219034   3.141   3.599   4.682
 6364TIP3    H119035   3.235   3.590   4.694
 6364TIP3    H219036   3.131   3.671   4.619
 6365TIP3   OH219037   0.705   1.938   1.926
 6365TIP3    H119038   0.655   1.916   1.847
 6365TIP3    H219039   0.699   1.860   1.981
 6366TIP3   OH219040   7.702   5.793   0.438
 6366TIP3    H119041   7.759   5.809   0.362
 6366TIP3    H219042   7.706   5.874   0.488
 6367TIP3   OH219043   2.648   7.046   1.450
 6367TIP3    H119044   2.688   7.131   1.472
 6367TIP3    H219045   2.652   6.997   1.532
 6368TIP3   OH219046   7.682   7.435   2.082
 6368TIP3    H119047   7.604   7.438   2.138
 6368TIP3    H219048   7.738   7.370   2.123
 6369TIP3   OH219049   2.769   4.799   6.601
 6369TIP3    H119050   2.708   4.759   6.663
 6369TIP3    H219051   2.846   4.742   6.603
 6370TIP3   OH219052   5.367   3.312   0.214
 6370TIP3    H119053   5.413   3.327   0.297
 6370TIP3    H219054   5.302   3.382   0.210
 6371TIP3   OH219055   5.491   1.132   0.997
 6371TIP3    H119056   5.396   1.117   0.992
 6371TIP3    H219057   5.512   1.125   1.090
 6372TIP3   OH219058   0.580   7.586   0.745
 6372TIP3    H119059   0.514   7.583   0.676
 6372TIP3    H219060   0.539   7.638   0.815
 6373TIP3   OH219061   0.111   3.278   2.893
 6373TIP3    H119062   0.030   3.264   2.944
 6373TIP3    H219063   0.086   3.256   2.803
 6374TIP3   OH219064   7.487   3.708   6.127
 6374TIP3    H119065   7.464   3.627   6.172
 6374TIP3    H219066   7.439   3.705   6.044
 6375TIP3   OH219067   1.734   7.242   1.733
 6375TIP3    H119068   1.710   7.323   1.688
 6375TIP3    H219069   1.793   7.270   1.802
 6376TIP3   OH219070   3.848   6.656   4.514
 6376TIP3    H119071   3.877   6.647   4.423
 6376TIP3    H219072   3.927   6.638   4.565
 6377TIP3   OH219073   1.549   7.685   4.011
 6377TIP3    H119074   1.565   7.779   4.015
 6377TIP3    H219075   1.509   7.670   3.926
 6378TIP3   OH219076   8.038   1.827   0.555
 6378TIP3    H119077   7.983   1.870   0.490
 6378TIP3    H219078   8.098   1.773   0.503
 6379TIP3   OH219079   0.205   1.835   3.141
 6379TIP3    H119080   0.187   1.751   3.183
 6379TIP3    H219081   0.254   1.885   3.207
 6380TIP3   OH219082   7.012   1.356   3.523
 6380TIP3    H119083   6.999   1.293   3.594
 6380TIP3    H219084   7.048   1.303   3.451
 6381TIP3   OH219085   4.599   0.388   6.267
 6381TIP3    H119086   4.640   0.474   6.262
 6381TIP3    H219087   4.665   0.327   6.232
 6382TIP3   OH219088   0.509   6.767   5.435
 6382TIP3    H119089   0.481   6.677   5.418
 6382TIP3    H219090   0.437   6.822   5.403
 6383TIP3   OH219091   6.346   1.604   1.704
 6383TIP3    H119092   6.309   1.674   1.650
 6383TIP3    H219093   6.321   1.523   1.659
 6384TIP3   OH219094   4.527   0.060   2.753
 6384TIP3    H119095   4.539   0.100   2.839
 6384TIP3    H219096   4.538  -0.033   2.768
 6385TIP3   OH219097   3.142   3.319   4.597
 6385TIP3    H119098   3.151   3.408   4.631
 6385TIP3    H219099   3.158   3.263   4.673
 6386TIP3   OH219100   4.441   7.112   2.278
 6386TIP3    H119101   4.433   7.039   2.340
 6386TIP3    H219102   4.487   7.075   2.203
 6387TIP3   OH219103   6.827   1.612   6.586
 6387TIP3    H119104   6.919   1.610   6.559
 6387TIP3    H219105   6.804   1.520   6.599
 6388TIP3   OH219106   0.744   0.474   4.343
 6388TIP3    H119107   0.659   0.514   4.359
 6388TIP3    H219108   0.750   0.467   4.247
 6389TIP3   OH219109   1.942   7.233   6.519
 6389TIP3    H119110   2.001   7.273   6.583
 6389TIP3    H219111   1.854   7.261   6.547
 6390TIP3   OH219112   1.058   1.686   1.528
 6390TIP3    H119113   0.979   1.639   1.553
 6390TIP3    H219114   1.080   1.653   1.441
 6391TIP3   OH219115   5.494   4.291   5.417
 6391TIP3    H119116   5.534   4.359   5.472
 6391TIP3    H219117   5.494   4.328   5.329
 6392TIP3   OH219118   4.836   7.724   4.146
 6392TIP3    H119119   4.742   7.713   4.137
 6392TIP3    H219120   4.850   7.739   4.239
 6393TIP3   OH219121   2.268   6.351   0.674
 6393TIP3    H119122   2.202   6.417   0.654
 6393TIP3    H219123   2.346   6.402   0.699
 6394TIP3   OH219124   2.911   7.366   6.708
 6394TIP3    H119125   2.905   7.309   6.631
 6394TIP3    H219126   2.996   7.409   6.699
 6395TIP3   OH219127   0.546   3.011   0.526
 6395TIP3    H119128   0.616   3.035   0.465
 6395TIP3    H219129   0.545   3.083   0.590
 6396TIP3   OH219130   8.153   7.190   4.437
 6396TIP3    H119131   8.227   7.139   4.470
 6396TIP3    H219132   8.082   7.172   4.500
 6397TIP3   OH219133   4.235   1.055   0.252
 6397TIP3    H119134   4.195   0.990   0.193
 6397TIP3    H219135   4.265   1.003   0.327
 6398TIP3   OH219136   1.644   3.784   2.844
 6398TIP3    H119137   1.600   3.745   2.769
 6398TIP3    H219138   1.654   3.876   2.822
 6399TIP3   OH219139   5.127   6.914   2.734
 6399TIP3    H119140   5.202   6.876   2.779
 6399TIP3    H219141   5.130   6.877   2.646
 6400TIP3   OH219142   7.143   5.959   2.686
 6400TIP3    H119143   7.195   6.006   2.751
 6400TIP3    H219144   7.062   6.010   2.679
 6401TIP3   OH219145   6.303   4.940   3.660
 6401TIP3    H119146   6.343   4.853   3.664
 6401TIP3    H219147   6.248   4.938   3.582
 6402TIP3   OH219148   5.481   1.631   3.482
 6402TIP3    H119149   5.543   1.630   3.555
 6402TIP3    H219150   5.445   1.720   3.483
 6403TIP3   OH219151   1.846   5.092   4.237
 6403TIP3    H119152   1.762   5.136   4.243
 6403TIP3    H219153   1.850   5.059   4.148
 6404TIP3   OH219154   3.117   3.442   0.443
 6404TIP3    H119155   3.085   3.379   0.379
 6404TIP3    H219156   3.129   3.390   0.523
 6405TIP3   OH219157   1.105   3.363   3.660
 6405TIP3    H119158   1.184   3.358   3.606
 6405TIP3    H219159   1.137   3.354   3.750
 6406TIP3   OH219160   2.442   6.022   5.518
 6406TIP3    H119161   2.428   5.970   5.439
 6406TIP3    H219162   2.367   6.081   5.522
 6407TIP3   OH219163   0.937   6.945   4.698
 6407TIP3    H119164   0.899   6.872   4.650
 6407TIP3    H219165   0.863   7.001   4.720
 6408TIP3   OH219166   0.752   6.452   3.519
 6408TIP3    H119167   0.700   6.456   3.438
 6408TIP3    H219168   0.731   6.533   3.565
 6409TIP3   OH219169   5.826   4.596   5.995
 6409TIP3    H119170   5.866   4.511   6.012
 6409TIP3    H219171   5.740   4.591   6.036
 6410TIP3   OH219172   1.278   7.184   1.522
 6410TIP3    H119173   1.188   7.166   1.549
 6410TIP3    H219174   1.277   7.173   1.427
 6411TIP3   OH219175   4.266   1.122   3.504
 6411TIP3    H119176   4.347   1.081   3.473
 6411TIP3    H219177   4.196   1.065   3.471
 6412TIP3   OH219178   1.152   5.662   0.495
 6412TIP3    H119179   1.231   5.614   0.474
 6412TIP3    H219180   1.085   5.595   0.506
 6413TIP3   OH219181   1.761   5.560   0.660
 6413TIP3    H119182   1.734   5.629   0.599
 6413TIP3    H219183   1.836   5.519   0.617
 6414TIP3   OH219184   2.188   6.100   4.228
 6414TIP3    H119185   2.158   6.054   4.150
 6414TIP3    H219186   2.277   6.067   4.242
 6415TIP3   OH219187   1.622   1.134   2.660
 6415TIP3    H119188   1.606   1.088   2.577
 6415TIP3    H219189   1.711   1.168   2.652
 6416TIP3   OH219190   0.768   7.765   3.268
 6416TIP3    H119191   0.696   7.796   3.213
 6416TIP3    H219192   0.732   7.764   3.357
 6417TIP3   OH219193   2.001   4.143   4.587
 6417TIP3    H119194   1.928   4.147   4.649
 6417TIP3    H219195   2.077   4.119   4.640
 6418TIP3   OH219196   3.591   6.680   1.471
 6418TIP3    H119197   3.606   6.586   1.461
 6418TIP3    H219198   3.498   6.687   1.492
 6419TIP3   OH219199   5.569   6.880   5.404
 6419TIP3    H119200   5.538   6.800   5.362
 6419TIP3    H219201   5.607   6.932   5.333
 6420TIP3   OH219202   1.324   2.815   2.700
 6420TIP3    H119203   1.324   2.896   2.752
 6420TIP3    H219204   1.417   2.796   2.685
 6421TIP3   OH219205   3.630   5.730   6.548
 6421TIP3    H119206   3.610   5.677   6.625
 6421TIP3    H219207   3.614   5.820   6.576
 6422TIP3   OH219208   1.918   2.840   6.105
 6422TIP3    H119209   1.892   2.766   6.160
 6422TIP3    H219210   1.836   2.877   6.074
 6423TIP3   OH219211   2.545   1.281   2.781
 6423TIP3    H119212   2.475   1.237   2.733
 6423TIP3    H219213   2.536   1.249   2.871
 6424TIP3   OH219214   5.499   2.803   4.262
 6424TIP3    H119215   5.549   2.828   4.340
 6424TIP3    H219216   5.408   2.813   4.287
 6425TIP3   OH219217   1.203   6.621   0.725
 6425TIP3    H119218   1.199   6.702   0.675
 6425TIP3    H219219   1.231   6.647   0.812
 6426TIP3   OH219220   5.954   0.348   6.055
 6426TIP3    H119221   5.883   0.284   6.051
 6426TIP3    H219222   6.024   0.309   6.003
 6427TIP3   OH219223   2.869   0.821   5.140
 6427TIP3    H119224   2.909   0.901   5.176
 6427TIP3    H219225   2.934   0.753   5.153
 6428TIP3   OH219226   6.482   0.967   3.507
 6428TIP3    H119227   6.552   0.999   3.563
 6428TIP3    H219228   6.410   0.948   3.568
 6429TIP3   OH219229   1.076   0.185   6.304
 6429TIP3    H119230   1.041   0.130   6.234
 6429TIP3    H219231   1.171   0.179   6.294
 6430TIP3   OH219232   0.896   2.280   1.456
 6430TIP3    H119233   0.910   2.188   1.480
 6430TIP3    H219234   0.802   2.294   1.469
 6431TIP3   OH219235   1.789   7.383   0.917
 6431TIP3    H119236   1.755   7.430   0.993
 6431TIP3    H219237   1.745   7.424   0.842
 6432TIP3   OH219238   7.329   7.005   2.195
 6432TIP3    H119239   7.352   6.932   2.139
 6432TIP3    H219240   7.384   7.077   2.165
 6433TIP3   OH219241   5.378   5.606   5.947
 6433TIP3    H119242   5.452   5.563   5.905
 6433TIP3    H219243   5.347   5.669   5.882
 6434TIP3   OH219244   2.797   1.528   5.439
 6434TIP3    H119245   2.733   1.526   5.368
 6434TIP3    H219246   2.780   1.447   5.488
 6435TIP3   OH219247   0.086   6.357   1.562
 6435TIP3    H119248   0.026   6.430   1.578
 6435TIP3    H219249   0.041   6.303   1.496
 6436TIP3   OH219250   4.926   0.143   4.954
 6436TIP3    H119251   4.974   0.064   4.980
 6436TIP3    H219252   4.920   0.195   5.035
 6437TIP3   OH219253   2.566   3.127   5.712
 6437TIP3    H119254   2.475   3.135   5.682
 6437TIP3    H219255   2.616   3.183   5.653
 6438TIP3   OH219256   4.460   2.305   2.672
 6438TIP3    H119257   4.497   2.245   2.607
 6438TIP3    H219258   4.530   2.317   2.736
 6439TIP3   OH219259   2.041   6.988   0.172
 6439TIP3    H119260   2.136   6.985   0.181
 6439TIP3    H219261   2.026   7.020   0.083
 6440TIP3   OH219262   8.182   2.513   3.380
 6440TIP3    H119263   8.200   2.486   3.470
 6440TIP3    H219264   8.109   2.457   3.352
 6441TIP3   OH219265   6.491   7.598   2.811
 6441TIP3    H119266   6.544   7.613   2.889
 6441TIP3    H219267   6.493   7.682   2.765
 6442TIP3   OH219268   1.443   1.862   5.782
 6442TIP3    H119269   1.525   1.813   5.787
 6442TIP3    H219270   1.456   1.938   5.838
 6443TIP3   OH219271   5.947   6.702   3.029
 6443TIP3    H119272   6.007   6.640   2.987
 6443TIP3    H219273   5.863   6.688   2.987
 6444TIP3   OH219274   2.783   0.130   3.907
 6444TIP3    H119275   2.830   0.197   3.856
 6444TIP3    H219276   2.699   0.170   3.928
 6445TIP3   OH219277   2.645   6.813   1.946
 6445TIP3    H119278   2.664   6.723   1.921
 6445TIP3    H219279   2.560   6.809   1.989
 6446TIP3   OH219280   6.342   1.241   6.422
 6446TIP3    H119281   6.360   1.332   6.446
 6446TIP3    H219282   6.419   1.214   6.372
 6447TIP3   OH219283   5.167   2.574   2.488
 6447TIP3    H119284   5.169   2.497   2.545
 6447TIP3    H219285   5.254   2.577   2.447
 6448TIP3   OH219286   5.383   6.409   5.290
 6448TIP3    H119287   5.292   6.387   5.309
 6448TIP3    H219288   5.432   6.330   5.314
 6449TIP3   OH219289   4.464   3.407   5.681
 6449TIP3    H119290   4.418   3.357   5.613
 6449TIP3    H219291   4.556   3.387   5.666
 6450TIP3   OH219292   4.471   1.339   6.606
 6450TIP3    H119293   4.387   1.309   6.641
 6450TIP3    H219294   4.503   1.402   6.671
 6451TIP3   OH219295   2.747   5.482   3.355
 6451TIP3    H119296   2.755   5.504   3.448
 6451TIP3    H219297   2.670   5.426   3.350
 6452TIP3   OH219298   5.291   7.167   6.184
 6452TIP3    H119299   5.356   7.128   6.126
 6452TIP3    H219300   5.228   7.210   6.126
 6453TIP3   OH219301   7.804   6.260   2.568
 6453TIP3    H119302   7.821   6.200   2.495
 6453TIP3    H219303   7.709   6.262   2.575
 6454TIP3   OH219304   5.017   6.949   4.811
 6454TIP3    H119305   5.046   6.876   4.757
 6454TIP3    H219306   4.923   6.933   4.824
 6455TIP3   OH219307   1.679   4.744   0.510
 6455TIP3    H119308   1.696   4.688   0.435
 6455TIP3    H219309   1.675   4.685   0.584
 6456TIP3   OH219310   4.556   7.402   4.110
 6456TIP3    H119311   4.555   7.312   4.075
 6456TIP3    H219312   4.529   7.392   4.201
 6457TIP3   OH219313   1.436   1.808   1.846
 6457TIP3    H119314   1.477   1.739   1.794
 6457TIP3    H219315   1.361   1.766   1.888
 6458TIP3   OH219316   0.682   1.217   6.496
 6458TIP3    H119317   0.715   1.133   6.528
 6458TIP3    H219318   0.759   1.274   6.496
 6459TIP3   OH219319   6.912   7.012   1.613
 6459TIP3    H119320   6.906   6.931   1.562
 6459TIP3    H219321   6.832   7.060   1.591
 6460TIP3   OH219322   2.408   6.312   4.859
 6460TIP3    H119323   2.497   6.277   4.858
 6460TIP3    H219324   2.369   6.282   4.776
 6461TIP3   OH219325   4.366   2.857   0.993
 6461TIP3    H119326   4.374   2.938   1.043
 6461TIP3    H219327   4.398   2.880   0.905
 6462TIP3   OH219328   4.314   3.515   4.996
 6462TIP3    H119329   4.371   3.439   4.984
 6462TIP3    H219330   4.229   3.488   4.962
 6463TIP3   OH219331   0.851   2.175   3.102
 6463TIP3    H119332   0.929   2.221   3.133
 6463TIP3    H219333   0.812   2.235   3.038
 6464TIP3   OH219334   4.009   0.663   1.761
 6464TIP3    H119335   3.952   0.593   1.792
 6464TIP3    H219336   4.034   0.636   1.673
 6465TIP3   OH219337   4.522   5.208   3.880
 6465TIP3    H119338   4.543   5.129   3.830
 6465TIP3    H219339   4.527   5.279   3.816
 6466TIP3   OH219340   6.398   2.996   5.560
 6466TIP3    H119341   6.385   3.052   5.636
 6466TIP3    H219342   6.401   3.057   5.485
 6467TIP3   OH219343   3.089   2.797   6.067
 6467TIP3    H119344   3.060   2.827   6.154
 6467TIP3    H219345   3.017   2.820   6.009
 6468TIP3   OH219346   0.125   6.698   5.442
 6468TIP3    H119347   0.144   6.791   5.454
 6468TIP3    H219348   0.188   6.652   5.498
 6469TIP3   OH219349   6.883   0.648   1.451
 6469TIP3    H119350   6.793   0.614   1.455
 6469TIP3    H219351   6.874   0.741   1.472
 6470TIP3   OH219352   1.615   0.119   1.664
 6470TIP3    H119353   1.703   0.125   1.700
 6470TIP3    H219354   1.628   0.102   1.571
 6471TIP3   OH219355   6.732   5.539   3.040
 6471TIP3    H119356   6.721   5.623   3.085
 6471TIP3    H219357   6.643   5.507   3.027
 6472TIP3   OH219358   0.875   1.152   1.306
 6472TIP3    H119359   0.840   1.144   1.217
 6472TIP3    H219360   0.799   1.137   1.362
 6473TIP3   OH219361   7.987   0.951   3.957
 6473TIP3    H119362   7.919   0.911   3.903
 6473TIP3    H219363   8.068   0.937   3.908
 6474TIP3   OH219364   5.731   3.562   0.184
 6474TIP3    H119365   5.698   3.651   0.180
 6474TIP3    H219366   5.774   3.555   0.269
 6475TIP3   OH219367   5.710   4.313   1.858
 6475TIP3    H119368   5.679   4.403   1.870
 6475TIP3    H219369   5.635   4.259   1.881
 6476TIP3   OH219370   4.795   3.855   4.865
 6476TIP3    H119371   4.875   3.825   4.908
 6476TIP3    H219372   4.748   3.902   4.933
 6477TIP3   OH219373   7.639   2.806   5.032
 6477TIP3    H119374   7.641   2.742   5.103
 6477TIP3    H219375   7.547   2.831   5.024
 6478TIP3   OH219376   0.404   3.051   6.386
 6478TIP3    H119377   0.473   3.082   6.327
 6478TIP3    H219378   0.382   3.128   6.439
 6479TIP3   OH219379   7.122   0.470   2.769
 6479TIP3    H119380   7.108   0.565   2.775
 6479TIP3    H219381   7.193   0.460   2.705
 6480TIP3   OH219382   2.900   5.500   6.683
 6480TIP3    H119383   2.932   5.551   6.608
 6480TIP3    H219384   2.805   5.505   6.677
 6481TIP3   OH219385   8.002   7.207   3.031
 6481TIP3    H119386   7.998   7.302   3.036
 6481TIP3    H219387   7.935   7.184   2.966
 6482TIP3   OH219388   2.643   2.596   3.858
 6482TIP3    H119389   2.704   2.611   3.929
 6482TIP3    H219390   2.665   2.509   3.824
 6483TIP3   OH219391   6.453   6.913   6.366
 6483TIP3    H119392   6.465   6.843   6.301
 6483TIP3    H219393   6.397   6.977   6.323
 6484TIP3   OH219394   2.125   3.923   1.067
 6484TIP3    H119395   2.046   3.871   1.049
 6484TIP3    H219396   2.113   4.003   1.017
 6485TIP3   OH219397   4.392   2.554   6.021
 6485TIP3    H119398   4.379   2.579   5.929
 6485TIP3    H219399   4.406   2.459   6.018
 6486TIP3   OH219400   7.455   3.688   3.587
 6486TIP3    H119401   7.529   3.632   3.609
 6486TIP3    H219402   7.405   3.696   3.668
 6487TIP3   OH219403   3.191   1.574   6.241
 6487TIP3    H119404   3.214   1.609   6.155
 6487TIP3    H219405   3.207   1.647   6.301
 6488TIP3   OH219406   7.007   0.165   6.085
 6488TIP3    H119407   6.925   0.187   6.040
 6488TIP3    H219408   7.061   0.243   6.073
 6489TIP3   OH219409   0.612   2.095   6.148
 6489TIP3    H119410   0.674   2.166   6.132
 6489TIP3    H219411   0.652   2.045   6.219
 6490TIP3   OH219412   4.636   4.352   5.579
 6490TIP3    H119413   4.618   4.369   5.486
 6490TIP3    H219414   4.553   4.370   5.623
 6491TIP3   OH219415   1.137   5.003   3.926
 6491TIP3    H119416   1.060   4.970   3.972
 6491TIP3    H219417   1.172   4.927   3.880
 6492TIP3   OH219418   3.852   2.045   0.551
 6492TIP3    H119419   3.859   1.950   0.537
 6492TIP3    H219420   3.938   2.070   0.586
 6493TIP3   OH219421   7.444   5.586   3.720
 6493TIP3    H119422   7.514   5.605   3.657
 6493TIP3    H219423   7.490   5.555   3.798
 6494TIP3   OH219424   6.428   3.315   0.262
 6494TIP3    H119425   6.484   3.364   0.322
 6494TIP3    H219426   6.360   3.278   0.317
 6495TIP3   OH219427   3.152   5.688   4.021
 6495TIP3    H119428   3.239   5.679   3.984
 6495TIP3    H219429   3.105   5.611   3.991
 6496TIP3   OH219430   7.450   5.499   5.826
 6496TIP3    H119431   7.459   5.435   5.897
 6496TIP3    H219432   7.511   5.468   5.758
 6497TIP3   OH219433   7.166   2.385   5.774
 6497TIP3    H119434   7.241   2.418   5.724
 6497TIP3    H219435   7.157   2.447   5.846
 6498TIP3   OH219436   0.315   0.003   0.249
 6498TIP3    H119437   0.392  -0.052   0.236
 6498TIP3    H219438   0.305   0.051   0.167
 6499TIP3   OH219439   7.382   0.113   1.281
 6499TIP3    H119440   7.375   0.017   1.287
 6499TIP3    H219441   7.440   0.128   1.206
 6500TIP3   OH219442   5.429   7.777   5.469
 6500TIP3    H119443   5.514   7.818   5.487
 6500TIP3    H219444   5.402   7.740   5.553
 6501TIP3   OH219445   1.881   0.206   2.719
 6501TIP3    H119446   1.818   0.278   2.728
 6501TIP3    H219447   1.928   0.225   2.637
 6502TIP3   OH219448   1.088   2.001   0.485
 6502TIP3    H119449   1.079   1.912   0.518
 6502TIP3    H219450   0.999   2.037   0.489
 6503TIP3   OH219451   0.261   1.575   3.599
 6503TIP3    H119452   0.252   1.502   3.660
 6503TIP3    H219453   0.329   1.630   3.638
 6504TIP3   OH219454   3.356   3.423   6.297
 6504TIP3    H119455   3.309   3.420   6.381
 6504TIP3    H219456   3.307   3.484   6.243
 6505TIP3   OH219457   6.803   3.288   5.625
 6505TIP3    H119458   6.847   3.273   5.541
 6505TIP3    H219459   6.747   3.364   5.610
 6506TIP3   OH219460   0.870   4.404   1.352
 6506TIP3    H119461   0.820   4.414   1.433
 6506TIP3    H219462   0.960   4.384   1.381
 6507TIP3   OH219463   8.142   1.024   2.977
 6507TIP3    H119464   8.139   1.098   2.917
 6507TIP3    H219465   8.235   1.014   2.999
 6508TIP3   OH219466   5.943   3.904   4.978
 6508TIP3    H119467   6.002   3.940   4.912
 6508TIP3    H219468   5.975   3.815   4.993
 6509TIP3   OH219469   5.619   2.159   4.721
 6509TIP3    H119470   5.611   2.085   4.661
 6509TIP3    H219471   5.535   2.161   4.769
 6510TIP3   OH219472   3.219   6.571   4.419
 6510TIP3    H119473   3.285   6.630   4.383
 6510TIP3    H219474   3.160   6.628   4.468
 6511TIP3   OH219475   6.719   5.989   4.355
 6511TIP3    H119476   6.752   5.988   4.265
 6511TIP3    H219477   6.796   5.969   4.409
 6512TIP3   OH219478   2.140   5.442   3.033
 6512TIP3    H119479   2.208   5.397   2.982
 6512TIP3    H219480   2.182   5.523   3.062
 6513TIP3   OH219481   6.508   6.156   2.849
 6513TIP3    H119482   6.566   6.232   2.842
 6513TIP3    H219483   6.507   6.119   2.761
 6514TIP3   OH219484   6.616   1.881   4.736
 6514TIP3    H119485   6.599   1.952   4.797
 6514TIP3    H219486   6.543   1.884   4.675
 6515TIP3   OH219487   6.109   2.511   4.324
 6515TIP3    H119488   6.100   2.449   4.251
 6515TIP3    H219489   6.074   2.464   4.399
 6516TIP3   OH219490   6.538   6.080   2.403
 6516TIP3    H119491   6.474   6.059   2.472
 6516TIP3    H219492   6.509   6.165   2.370
 6517TIP3   OH219493   4.203   3.487   0.246
 6517TIP3    H119494   4.133   3.425   0.268
 6517TIP3    H219495   4.237   3.517   0.330
 6518TIP3   OH219496   4.524   4.719   3.649
 6518TIP3    H119497   4.540   4.751   3.561
 6518TIP3    H219498   4.507   4.625   3.639
 6519TIP3   OH219499   3.860   1.849   4.118
 6519TIP3    H119500   3.874   1.942   4.137
 6519TIP3    H219501   3.786   1.824   4.173
 6520TIP3   OH219502   6.093   4.291   3.511
 6520TIP3    H119503   6.159   4.223   3.516
 6520TIP3    H219504   6.127   4.362   3.565
 6521TIP3   OH219505   0.157   5.341   4.284
 6521TIP3    H119506   0.232   5.282   4.279
 6521TIP3    H219507   0.194   5.429   4.271
 6522TIP3   OH219508   7.752   1.182   1.284
 6522TIP3    H119509   7.704   1.192   1.202
 6522TIP3    H219510   7.831   1.235   1.272
 6523TIP3   OH219511   0.966   6.414   6.134
 6523TIP3    H119512   1.041   6.354   6.130
 6523TIP3    H219513   0.910   6.379   6.203
 6524TIP3   OH219514   2.374   1.154   0.031
 6524TIP3    H119515   2.309   1.211  -0.011
 6524TIP3    H219516   2.325   1.077   0.057
 6525TIP3   OH219517   3.551   5.902   4.461
 6525TIP3    H119518   3.515   5.990   4.452
 6525TIP3    H219519   3.520   5.872   4.546
 6526TIP3   OH219520   0.913   1.421   5.302
 6526TIP3    H119521   0.895   1.515   5.302
 6526TIP3    H219522   0.844   1.383   5.355
 6527TIP3   OH219523   4.805   3.289   2.643
 6527TIP3    H119524   4.827   3.196   2.650
 6527TIP3    H219525   4.786   3.316   2.732
 6528TIP3   OH219526   4.864   7.149   6.056
 6528TIP3    H119527   4.949   7.140   6.013
 6528TIP3    H219528   4.867   7.236   6.096
 6529TIP3   OH219529   1.434   5.431   5.134
 6529TIP3    H119530   1.407   5.409   5.223
 6529TIP3    H219531   1.528   5.410   5.131
 6530TIP3   OH219532   5.781   1.547   1.169
 6530TIP3    H119533   5.759   1.640   1.172
 6530TIP3    H219534   5.698   1.503   1.147
 6531TIP3   OH219535   7.808   6.079   2.354
 6531TIP3    H119536   7.817   5.984   2.357
 6531TIP3    H219537   7.823   6.102   2.263
 6532TIP3   OH219538   3.380   6.326   6.673
 6532TIP3    H119539   3.316   6.355   6.737
 6532TIP3    H219540   3.347   6.358   6.589
 6533TIP3   OH219541   1.608   2.269   2.555
 6533TIP3    H119542   1.599   2.341   2.616
 6533TIP3    H219543   1.580   2.192   2.604
 6534TIP3   OH219544   6.523   0.752   0.373
 6534TIP3    H119545   6.540   0.658   0.362
 6534TIP3    H219546   6.428   0.760   0.363
 6535TIP3   OH219547   8.203   7.262   5.094
 6535TIP3    H119548   8.213   7.248   5.000
 6535TIP3    H219549   8.268   7.329   5.116
 6536TIP3   OH219550   1.444   1.958   2.071
 6536TIP3    H119551   1.527   2.001   2.094
 6536TIP3    H219552   1.465   1.904   1.996
 6537TIP3   OH219553   1.848   5.551   6.106
 6537TIP3    H119554   1.935   5.570   6.072
 6537TIP3    H219555   1.791   5.557   6.029
 6538TIP3   OH219556   0.328   1.572   6.604
 6538TIP3    H119557   0.306   1.557   6.512
 6538TIP3    H219558   0.404   1.630   6.601
 6539TIP3   OH219559   4.894   4.997   1.664
 6539TIP3    H119560   4.865   4.949   1.587
 6539TIP3    H219561   4.864   4.944   1.738
 6540TIP3   OH219562   3.277   4.201   0.282
 6540TIP3    H119563   3.335   4.277   0.275
 6540TIP3    H219564   3.295   4.150   0.203
 6541TIP3   OH219565   3.170   4.356   3.310
 6541TIP3    H119566   3.263   4.361   3.331
 6541TIP3    H219567   3.161   4.403   3.228
 6542TIP3   OH219568   5.087   7.149   4.335
 6542TIP3    H119569   5.078   7.207   4.259
 6542TIP3    H219570   5.175   7.166   4.368
 6543TIP3   OH219571   0.272   7.660   0.655
 6543TIP3    H119572   0.295   7.750   0.678
 6543TIP3    H219573   0.324   7.643   0.576
 6544TIP3   OH219574   5.877   5.483   6.371
 6544TIP3    H119575   5.793   5.519   6.340
 6544TIP3    H219576   5.915   5.553   6.424
 6545TIP3   OH219577   6.142   3.000   2.460
 6545TIP3    H119578   6.183   3.047   2.533
 6545TIP3    H219579   6.177   2.912   2.465
 6546TIP3   OH219580   6.577   4.533   6.535
 6546TIP3    H119581   6.546   4.444   6.522
 6546TIP3    H219582   6.507   4.575   6.587
 6547TIP3   OH219583   1.074   1.314   2.021
 6547TIP3    H119584   1.123   1.393   2.045
 6547TIP3    H219585   1.106   1.246   2.081
 6548TIP3   OH219586   2.808   7.192   1.162
 6548TIP3    H119587   2.812   7.242   1.244
 6548TIP3    H219588   2.726   7.219   1.121
 6549TIP3   OH219589   3.074   1.989   1.108
 6549TIP3    H119590   3.065   1.895   1.092
 6549TIP3    H219591   2.999   2.011   1.163
 6550TIP3   OH219592   7.868   4.085   6.485
 6550TIP3    H119593   7.825   4.004   6.514
 6550TIP3    H219594   7.824   4.106   6.402
 6551TIP3   OH219595   2.206   2.377   6.543
 6551TIP3    H119596   2.129   2.409   6.588
 6551TIP3    H219597   2.175   2.355   6.455
 6552TIP3   OH219598   1.820   1.000   6.066
 6552TIP3    H119599   1.761   0.968   5.998
 6552TIP3    H219600   1.833   0.925   6.124
 6553TIP3   OH219601   6.249   4.318   5.879
 6553TIP3    H119602   6.183   4.267   5.927
 6553TIP3    H219603   6.287   4.256   5.817
 6554TIP3   OH219604   2.738   5.111   1.521
 6554TIP3    H119605   2.780   5.101   1.436
 6554TIP3    H219606   2.780   5.045   1.577
 6555TIP3   OH219607   8.006   4.571   4.437
 6555TIP3    H119608   8.072   4.560   4.369
 6555TIP3    H219609   7.978   4.481   4.458
 6556TIP3   OH219610   3.242   4.123   5.355
 6556TIP3    H119611   3.228   4.211   5.319
 6556TIP3    H219612   3.336   4.121   5.374
 6557TIP3   OH219613   1.180   4.814   2.934
 6557TIP3    H119614   1.094   4.833   2.897
 6557TIP3    H219615   1.185   4.719   2.936
 6558TIP3   OH219616   5.868   1.258   1.108
 6558TIP3    H119617   5.860   1.261   1.012
 6558TIP3    H219618   5.948   1.208   1.123
 6559TIP3   OH219619   2.127   2.226   2.295
 6559TIP3    H119620   2.090   2.195   2.212
 6559TIP3    H219621   2.197   2.286   2.269
 6560TIP3   OH219622   0.449   0.960   5.286
 6560TIP3    H119623   0.493   0.974   5.369
 6560TIP3    H219624   0.511   0.910   5.233
 6561TIP3   OH219625   2.632   4.830   6.362
 6561TIP3    H119626   2.571   4.900   6.386
 6561TIP3    H219627   2.667   4.799   6.445
 6562TIP3   OH219628   3.827   7.518   3.356
 6562TIP3    H119629   3.846   7.599   3.403
 6562TIP3    H219630   3.899   7.508   3.295
 6563TIP3   OH219631   4.958   6.353   3.481
 6563TIP3    H119632   5.014   6.280   3.453
 6563TIP3    H219633   5.015   6.429   3.476
 6564TIP3   OH219634  -0.073   3.406   0.365
 6564TIP3    H119635   0.008   3.437   0.324
 6564TIP3    H219636  -0.073   3.311   0.349
 6565TIP3   OH219637   6.489   1.013   5.197
 6565TIP3    H119638   6.542   1.092   5.195
 6565TIP3    H219639   6.400   1.043   5.215
 6566TIP3   OH219640   6.916   2.584   6.668
 6566TIP3    H119641   6.860   2.508   6.686
 6566TIP3    H219642   7.005   2.549   6.672
 6567TIP3   OH219643   0.398   0.008   2.225
 6567TIP3    H119644   0.306  -0.008   2.205
 6567TIP3    H219645   0.426   0.074   2.161
 6568TIP3   OH219646   6.815   7.421   0.999
 6568TIP3    H119647   6.754   7.455   0.934
 6568TIP3    H219648   6.789   7.465   1.081
 6569TIP3   OH219649   5.611   5.924   5.958
 6569TIP3    H119650   5.558   6.002   5.976
 6569TIP3    H219651   5.559   5.874   5.895
 6570TIP3   OH219652   2.000   4.561   1.293
 6570TIP3    H119653   2.054   4.549   1.371
 6570TIP3    H219654   2.041   4.632   1.245
 6571TIP3   OH219655   8.163   7.489   1.582
 6571TIP3    H119656   8.183   7.581   1.567
 6571TIP3    H219657   8.077   7.476   1.542
 6572TIP3   OH219658   0.103   2.658   3.179
 6572TIP3    H119659   0.086   2.586   3.239
 6572TIP3    H219660   0.016   2.692   3.156
 6573TIP3   OH219661   4.707   7.411   2.728
 6573TIP3    H119662   4.650   7.455   2.792
 6573TIP3    H219663   4.679   7.319   2.730
 6574TIP3   OH219664   1.224   1.609   4.255
 6574TIP3    H119665   1.140   1.633   4.294
 6574TIP3    H219666   1.288   1.628   4.323
 6575TIP3   OH219667   6.415   6.306   6.210
 6575TIP3    H119668   6.473   6.368   6.253
 6575TIP3    H219669   6.338   6.301   6.266
 6576TIP3   OH219670   2.582   2.915   5.886
 6576TIP3    H119671   2.661   2.868   5.858
 6576TIP3    H219672   2.558   2.968   5.811
 6577TIP3   OH219673   5.987   6.979   5.682
 6577TIP3    H119674   5.919   7.009   5.744
 6577TIP3    H219675   6.069   6.991   5.729
 6578TIP3   OH219676   4.570   1.136   5.187
 6578TIP3    H119677   4.504   1.193   5.148
 6578TIP3    H219678   4.563   1.054   5.138
 6579TIP3   OH219679   0.461   3.185   5.394
 6579TIP3    H119680   0.509   3.116   5.440
 6579TIP3    H219681   0.429   3.144   5.314
 6580TIP3   OH219682   4.776   6.091   5.182
 6580TIP3    H119683   4.825   6.026   5.233
 6580TIP3    H219684   4.701   6.043   5.147
 6581TIP3   OH219685   7.979   6.212   5.058
 6581TIP3    H119686   8.063   6.253   5.080
 6581TIP3    H219687   7.979   6.207   4.962
 6582TIP3   OH219688   7.822   3.118   1.381
 6582TIP3    H119689   7.776   3.195   1.415
 6582TIP3    H219690   7.758   3.075   1.324
 6583TIP3   OH219691   5.222   5.695   1.431
 6583TIP3    H119692   5.152   5.631   1.445
 6583TIP3    H219693   5.243   5.688   1.338
 6584TIP3   OH219694   3.558   7.395   1.694
 6584TIP3    H119695   3.594   7.423   1.610
 6584TIP3    H219696   3.574   7.469   1.753
 6585TIP3   OH219697   5.800   2.813   3.823
 6585TIP3    H119698   5.744   2.880   3.862
 6585TIP3    H219699   5.773   2.731   3.866
 6586TIP3   OH219700   7.126   7.585   1.273
 6586TIP3    H119701   7.091   7.620   1.192
 6586TIP3    H219702   7.160   7.498   1.249
 6587TIP3   OH219703   4.304   2.311   3.096
 6587TIP3    H119704   4.345   2.229   3.122
 6587TIP3    H219705   4.255   2.289   3.016
 6588TIP3   OH219706   0.772   0.016   5.979
 6588TIP3    H119707   0.800  -0.064   5.936
 6588TIP3    H219708   0.754   0.077   5.908
 6589TIP3   OH219709   6.910   4.901   1.080
 6589TIP3    H119710   6.947   4.841   1.145
 6589TIP3    H219711   6.844   4.950   1.129
 6590TIP3   OH219712   3.264   0.733   0.456
 6590TIP3    H119713   3.246   0.827   0.469
 6590TIP3    H219714   3.334   0.714   0.517
 6591TIP3   OH219715   7.616   0.503   5.451
 6591TIP3    H119716   7.636   0.596   5.439
 6591TIP3    H219717   7.571   0.499   5.535
 6592TIP3   OH219718   5.341   5.875   0.080
 6592TIP3    H119719   5.388   5.799   0.045
 6592TIP3    H219720   5.355   5.944   0.015
 6593TIP3   OH219721   1.774   6.082   2.173
 6593TIP3    H119722   1.756   6.149   2.106
 6593TIP3    H219723   1.856   6.041   2.144
 6594TIP3   OH219724   3.947   3.274   5.760
 6594TIP3    H119725   4.005   3.350   5.767
 6594TIP3    H219726   3.885   3.297   5.691
 6595TIP3   OH219727   2.948   3.546   5.932
 6595TIP3    H119728   2.961   3.514   6.021
 6595TIP3    H219729   2.855   3.534   5.916
 6596TIP3   OH219730   2.789   6.558   5.396
 6596TIP3    H119731   2.837   6.573   5.478
 6596TIP3    H219732   2.805   6.466   5.377
 6597TIP3   OH219733   3.282   0.889   4.537
 6597TIP3    H119734   3.248   0.804   4.510
 6597TIP3    H219735   3.307   0.876   4.629
 6598TIP3   OH219736   1.913   4.387   4.399
 6598TIP3    H119737   1.919   4.482   4.389
 6598TIP3    H219738   1.901   4.354   4.310
 6599TIP3   OH219739   0.615   5.709   0.981
 6599TIP3    H119740   0.559   5.784   0.961
 6599TIP3    H219741   0.568   5.662   1.049
 6600TIP3   OH219742   5.679   6.924   6.026
 6600TIP3    H119743   5.611   6.926   5.959
 6600TIP3    H219744   5.700   7.017   6.041
 6601TIP3   OH219745   1.838  -0.012   5.519
 6601TIP3    H119746   1.816   0.035   5.438
 6601TIP3    H219747   1.789   0.034   5.587
 6602TIP3   OH219748   1.636   5.465   0.276
 6602TIP3    H119749   1.729   5.450   0.289
 6602TIP3    H219750   1.594   5.384   0.304
 6603TIP3   OH219751   0.551   0.126   5.515
 6603TIP3    H119752   0.577   0.215   5.493
 6603TIP3    H219753   0.568   0.075   5.436
 6604TIP3   OH219754   1.709   4.813   6.027
 6604TIP3    H119755   1.798   4.794   5.998
 6604TIP3    H219756   1.667   4.853   5.951
 6605TIP3   OH219757   2.297   4.984   4.291
 6605TIP3    H119758   2.241   4.909   4.314
 6605TIP3    H219759   2.236   5.051   4.262
 6606TIP3   OH219760   1.018   4.103   4.026
 6606TIP3    H119761   0.933   4.093   4.068
 6606TIP3    H219762   1.081   4.098   4.098
 6607TIP3   OH219763   3.563   2.168   1.904
 6607TIP3    H119764   3.540   2.167   1.811
 6607TIP3    H219765   3.491   2.215   1.946
 6608TIP3   OH219766   5.791   2.497   3.094
 6608TIP3    H119767   5.820   2.408   3.077
 6608TIP3    H219768   5.723   2.487   3.161
 6609TIP3   OH219769   5.840   7.635   4.697
 6609TIP3    H119770   5.810   7.599   4.780
 6609TIP3    H219771   5.760   7.655   4.649
 6610TIP3   OH219772   0.559   7.657   1.071
 6610TIP3    H119773   0.533   7.679   1.161
 6610TIP3    H219774   0.495   7.703   1.017
 6611TIP3   OH219775   6.929   0.755   0.267
 6611TIP3    H119776   7.010   0.797   0.297
 6611TIP3    H219777   6.954   0.664   0.253
 6612TIP3   OH219778   2.074   6.347   1.551
 6612TIP3    H119779   2.000   6.397   1.517
 6612TIP3    H219780   2.071   6.361   1.645
 6613TIP3   OH219781   6.934   5.924   5.247
 6613TIP3    H119782   6.983   5.925   5.329
 6613TIP3    H219783   6.935   5.833   5.219
 6614TIP3   OH219784   2.483   7.064   2.611
 6614TIP3    H119785   2.489   7.158   2.593
 6614TIP3    H219786   2.390   7.048   2.624
 6615TIP3   OH219787   3.108   3.500   4.044
 6615TIP3    H119788   3.013   3.503   4.032
 6615TIP3    H219789   3.120   3.474   4.135
 6616TIP3   OH219790   6.775   0.368   4.541
 6616TIP3    H119791   6.743   0.285   4.574
 6616TIP3    H219792   6.699   0.427   4.545
 6617TIP3   OH219793   8.149   3.898   6.644
 6617TIP3    H119794   8.076   3.910   6.706
 6617TIP3    H219795   8.164   3.803   6.644
 6618TIP3   OH219796   5.252   7.038   1.396
 6618TIP3    H119797   5.282   7.097   1.465
 6618TIP3    H219798   5.317   7.048   1.326
 6619TIP3   OH219799   1.398   0.927   3.252
 6619TIP3    H119800   1.369   1.012   3.286
 6619TIP3    H219801   1.339   0.864   3.292
 6620TIP3   OH219802   7.758   5.192   6.065
 6620TIP3    H119803   7.798   5.105   6.068
 6620TIP3    H219804   7.745   5.216   6.156
 6621TIP3   OH219805   5.197   6.418   0.405
 6621TIP3    H119806   5.148   6.465   0.337
 6621TIP3    H219807   5.281   6.464   0.410
 6622TIP3   OH219808   3.781   2.469   0.091
 6622TIP3    H119809   3.799   2.462  -0.003
 6622TIP3    H219810   3.818   2.553   0.116
 6623TIP3   OH219811   4.944   1.107   2.731
 6623TIP3    H119812   5.039   1.120   2.734
 6623TIP3    H219813   4.916   1.156   2.653
 6624TIP3   OH219814   7.885   6.419   2.015
 6624TIP3    H119815   7.941   6.496   2.017
 6624TIP3    H219816   7.863   6.403   2.106
 6625TIP3   OH219817   7.753   2.094   3.742
 6625TIP3    H119818   7.834   2.058   3.706
 6625TIP3    H219819   7.729   2.165   3.682
 6626TIP3   OH219820   7.890   5.730   5.872
 6626TIP3    H119821   7.883   5.825   5.867
 6626TIP3    H219822   7.978   5.711   5.838
 6627TIP3   OH219823   7.745   4.051   3.955
 6627TIP3    H119824   7.686   4.125   3.967
 6627TIP3    H219825   7.693   3.974   3.978
 6628TIP3   OH219826   2.628   5.905   6.517
 6628TIP3    H119827   2.596   5.991   6.546
 6628TIP3    H219828   2.723   5.913   6.518
 6629TIP3   OH219829   0.922   1.995   0.879
 6629TIP3    H119830   0.998   2.049   0.856
 6629TIP3    H219831   0.852   2.026   0.822
 6630TIP3   OH219832   4.610   2.123   2.527
 6630TIP3    H119833   4.701   2.126   2.496
 6630TIP3    H219834   4.561   2.087   2.453
 6631TIP3   OH219835   4.769   3.829   6.423
 6631TIP3    H119836   4.804   3.747   6.388
 6631TIP3    H219837   4.779   3.891   6.351
 6632TIP3   OH219838   1.251   5.619   2.747
 6632TIP3    H119839   1.216   5.696   2.791
 6632TIP3    H219840   1.342   5.641   2.727
 6633TIP3   OH219841   0.652   5.285   2.751
 6633TIP3    H119842   0.705   5.297   2.673
 6633TIP3    H219843   0.676   5.359   2.808
 6634TIP3   OH219844   6.226   7.402   5.963
 6634TIP3    H119845   6.131   7.390   5.959
 6634TIP3    H219846   6.246   7.408   6.056
 6635TIP3   OH219847   5.535   0.255   2.209
 6635TIP3    H119848   5.557   0.228   2.120
 6635TIP3    H219849   5.569   0.344   2.217
 6636TIP3   OH219850   4.887   0.683   3.683
 6636TIP3    H119851   4.835   0.759   3.656
 6636TIP3    H219852   4.975   0.700   3.649
 6637TIP3   OH219853   3.905   3.559   5.973
 6637TIP3    H119854   3.907   3.648   5.938
 6637TIP3    H219855   3.975   3.513   5.927
 6638TIP3   OH219856   4.446   1.443   2.918
 6638TIP3    H119857   4.445   1.447   2.823
 6638TIP3    H219858   4.424   1.532   2.946
 6639TIP3   OH219859   3.005   0.695   0.333
 6639TIP3    H119860   3.089   0.720   0.373
 6639TIP3    H219861   2.940   0.745   0.382
 6640TIP3   OH219862   2.371   2.586   1.026
 6640TIP3    H119863   2.320   2.608   0.948
 6640TIP3    H219864   2.372   2.667   1.077
 6641TIP3   OH219865   6.252   6.784   1.347
 6641TIP3    H119866   6.172   6.818   1.386
 6641TIP3    H219867   6.282   6.717   1.408
 6642TIP3   OH219868   1.821   0.066   5.955
 6642TIP3    H119869   1.769   0.089   6.032
 6642TIP3    H219870   1.816  -0.029   5.949
 6643TIP3   OH219871   1.208   4.648   4.985
 6643TIP3    H119872   1.137   4.672   4.925
 6643TIP3    H219873   1.192   4.701   5.063
 6644TIP3   OH219874   2.487   7.134   1.221
 6644TIP3    H119875   2.538   7.080   1.282
 6644TIP3    H219876   2.453   7.205   1.275
 6645TIP3   OH219877   3.418   1.383   0.846
 6645TIP3    H119878   3.437   1.433   0.766
 6645TIP3    H219879   3.398   1.294   0.815
 6646TIP3   OH219880   2.985   3.742   5.727
 6646TIP3    H119881   3.047   3.716   5.658
 6646TIP3    H219882   2.966   3.660   5.773
 6647TIP3   OH219883   0.152   4.683   0.504
 6647TIP3    H119884   0.131   4.699   0.412
 6647TIP3    H219885   0.222   4.618   0.502
 6648TIP3   OH219886   5.905   2.389   4.819
 6648TIP3    H119887   5.965   2.438   4.875
 6648TIP3    H219888   5.826   2.378   4.872
 6649TIP3   OH219889   3.476   3.368   4.105
 6649TIP3    H119890   3.390   3.383   4.144
 6649TIP3    H219891   3.473   3.277   4.074
 6650TIP3   OH219892   3.887   6.223   4.838
 6650TIP3    H119893   3.833   6.275   4.899
 6650TIP3    H219894   3.888   6.136   4.876
 6651TIP3   OH219895   5.286   2.470   5.048
 6651TIP3    H119896   5.200   2.508   5.030
 6651TIP3    H219897   5.348   2.534   5.013
 6652TIP3   OH219898   0.623   3.064   3.734
 6652TIP3    H119899   0.577   3.041   3.653
 6652TIP3    H219900   0.694   3.122   3.707
 6653TIP3   OH219901   7.348   2.753   0.334
 6653TIP3    H119902   7.280   2.685   0.340
 6653TIP3    H219903   7.334   2.807   0.411
 6654TIP3   OH219904   3.413   4.543   4.814
 6654TIP3    H119905   3.446   4.479   4.877
 6654TIP3    H219906   3.483   4.552   4.749
 6655TIP3   OH219907   6.547   0.044   1.873
 6655TIP3    H119908   6.614   0.092   1.825
 6655TIP3    H219909   6.491   0.111   1.911
 6656TIP3   OH219910   4.951   3.019   6.562
 6656TIP3    H119911   4.868   2.996   6.521
 6656TIP3    H219912   4.939   3.110   6.590
 6657TIP3   OH219913   6.237   5.986   3.074
 6657TIP3    H119914   6.221   6.079   3.058
 6657TIP3    H219915   6.291   5.984   3.152
 6658TIP3   OH219916   3.945   3.680   2.667
 6658TIP3    H119917   3.904   3.751   2.618
 6658TIP3    H219918   3.886   3.605   2.654
 6659TIP3   OH219919   7.976   3.650   0.068
 6659TIP3    H119920   7.945   3.701  -0.006
 6659TIP3    H219921   8.060   3.614   0.039
 6660TIP3   OH219922   6.934   1.167   0.796
 6660TIP3    H119923   6.885   1.236   0.841
 6660TIP3    H219924   6.964   1.109   0.866
 6661TIP3   OH219925   1.926   4.349   0.342
 6661TIP3    H119926   2.012   4.307   0.333
 6661TIP3    H219927   1.938   4.413   0.412
 6662TIP3   OH219928   4.477   2.908   5.066
 6662TIP3    H119929   4.530   2.948   5.136
 6662TIP3    H219930   4.541   2.875   5.004
 6663TIP3   OH219931   6.394   7.745   2.316
 6663TIP3    H119932   6.483   7.714   2.301
 6663TIP3    H219933   6.342   7.666   2.324
 6664TIP3   OH219934   0.834   2.251   0.198
 6664TIP3    H119935   0.769   2.217   0.136
 6664TIP3    H219936   0.825   2.195   0.275
 6665TIP3   OH219937   6.918   5.979   2.048
 6665TIP3    H119938   6.942   5.911   2.112
 6665TIP3    H219939   6.986   5.974   1.982
 6666TIP3   OH219940   6.151   5.134   0.613
 6666TIP3    H119941   6.149   5.117   0.707
 6666TIP3    H219942   6.227   5.191   0.600
 6667TIP3   OH219943   3.562   2.403   5.590
 6667TIP3    H119944   3.582   2.484   5.543
 6667TIP3    H219945   3.593   2.334   5.533
 6668TIP3   OH219946   5.657   4.091   6.366
 6668TIP3    H119947   5.632   4.173   6.409
 6668TIP3    H219948   5.632   4.023   6.429
 6669TIP3   OH219949   3.507   6.671   1.024
 6669TIP3    H119950   3.476   6.747   1.074
 6669TIP3    H219951   3.489   6.693   0.933
 6670TIP3   OH219952   2.747   7.267   4.740
 6670TIP3    H119953   2.785   7.188   4.778
 6670TIP3    H219954   2.766   7.337   4.803
 6671TIP3   OH219955   3.153   0.726   1.231
 6671TIP3    H119956   3.128   0.637   1.204
 6671TIP3    H219957   3.248   0.723   1.237
 6672TIP3   OH219958   3.296   0.966   5.399
 6672TIP3    H119959   3.308   0.881   5.441
 6672TIP3    H219960   3.210   0.996   5.429
 6673TIP3   OH219961   5.793   3.932   5.834
 6673TIP3    H119962   5.804   3.845   5.873
 6673TIP3    H219963   5.873   3.945   5.783
 6674TIP3   OH219964   2.983   2.894   3.857
 6674TIP3    H119965   3.009   2.901   3.949
 6674TIP3    H219966   3.057   2.930   3.808
 6675TIP3   OH219967   2.826   0.885   0.439
 6675TIP3    H119968   2.747   0.866   0.490
 6675TIP3    H219969   2.809   0.970   0.399
 6676TIP3   OH219970   6.811   2.172   2.871
 6676TIP3    H119971   6.901   2.149   2.845
 6676TIP3    H219972   6.802   2.137   2.959
 6677TIP3   OH219973   6.772   0.738   5.403
 6677TIP3    H119974   6.814   0.824   5.410
 6677TIP3    H219975   6.716   0.745   5.326
 6678TIP3   OH219976   1.692   3.636   1.012
 6678TIP3    H119977   1.606   3.611   1.045
 6678TIP3    H219978   1.674   3.685   0.932
 6679TIP3   OH219979   7.983   7.059   2.705
 6679TIP3    H119980   8.020   7.143   2.731
 6679TIP3    H219981   7.896   7.080   2.671
 6680TIP3   OH219982   7.195   2.347   0.329
 6680TIP3    H119983   7.272   2.332   0.383
 6680TIP3    H219984   7.175   2.440   0.339
 6681TIP3   OH219985   2.540   6.816   2.499
 6681TIP3    H119986   2.549   6.911   2.510
 6681TIP3    H219987   2.628   6.786   2.475
 6682TIP3   OH219988   2.745   1.539   1.908
 6682TIP3    H119989   2.713   1.454   1.936
 6682TIP3    H219990   2.690   1.602   1.955
 6683TIP3   OH219991   7.519   2.157   3.895
 6683TIP3    H119992   7.591   2.133   3.836
 6683TIP3    H219993   7.533   2.251   3.911
 6684TIP3   OH219994   7.444   0.586   4.390
 6684TIP3    H119995   7.455   0.611   4.298
 6684TIP3    H219996   7.354   0.612   4.411
 6685TIP3   OH219997   2.204   3.444   1.053
 6685TIP3    H119998   2.281   3.500   1.040
 6685TIP3    H219999   2.222   3.396   1.133
 6686TIP3   OH220000   0.336   0.942   6.192
 6686TIP3    H120001   0.318   0.869   6.252
 6686TIP3    H220002   0.408   0.911   6.137
 6687TIP3   OH220003   2.195   2.650   2.993
 6687TIP3    H120004   2.209   2.562   3.029
 6687TIP3    H220005   2.283   2.686   2.984
 6688TIP3   OH220006   7.214   7.164   4.196
 6688TIP3    H120007   7.164   7.135   4.273
 6688TIP3    H220008   7.197   7.096   4.130
 6689TIP3   OH220009   6.520   2.565   0.880
 6689TIP3    H120010   6.501   2.659   0.888
 6689TIP3    H220011   6.534   2.536   0.970
 6690TIP3   OH220012   1.817   1.230   1.177
 6690TIP3    H120013   1.885   1.165   1.194
 6690TIP3    H220014   1.758   1.186   1.115
 6691TIP3   OH220015   2.769   2.820   5.635
 6691TIP3    H120016   2.843   2.761   5.624
 6691TIP3    H220017   2.805   2.907   5.618
 6692TIP3   OH220018   6.503   3.684   2.923
 6692TIP3    H120019   6.547   3.769   2.920
 6692TIP3    H220020   6.477   3.666   2.833
 6693TIP3   OH220021   1.855   4.299   5.409
 6693TIP3    H120022   1.929   4.298   5.469
 6693TIP3    H220023   1.815   4.213   5.419
 6694TIP3   OH220024   6.291   6.432   1.834
 6694TIP3    H120025   6.238   6.440   1.913
 6694TIP3    H220026   6.311   6.338   1.827
 6695TIP3   OH220027   5.959   7.236   1.896
 6695TIP3    H120028   6.026   7.249   1.963
 6695TIP3    H220029   5.950   7.322   1.854
 6696TIP3   OH220030   1.386   5.292   0.987
 6696TIP3    H120031   1.457   5.316   1.047
 6696TIP3    H220032   1.315   5.353   1.008
 6697TIP3   OH220033   7.587   7.555   3.552
 6697TIP3    H120034   7.492   7.560   3.555
 6697TIP3    H220035   7.605   7.463   3.532
 6698TIP3   OH220036   0.412   1.266   5.491
 6698TIP3    H120037   0.339   1.287   5.550
 6698TIP3    H220038   0.449   1.185   5.526
 6699TIP3   OH220039   1.473   3.620   1.608
 6699TIP3    H120040   1.442   3.653   1.692
 6699TIP3    H220041   1.395   3.586   1.565
 6700TIP3   OH220042   2.674   6.563   2.663
 6700TIP3    H120043   2.633   6.477   2.669
 6700TIP3    H220044   2.662   6.589   2.571
 6701TIP3   OH220045   7.465   3.363   0.588
 6701TIP3    H120046   7.415   3.435   0.551
 6701TIP3    H220047   7.525   3.337   0.518
 6702TIP3   OH220048   0.474   5.443   6.440
 6702TIP3    H120049   0.423   5.467   6.518
 6702TIP3    H220050   0.556   5.409   6.475
 6703TIP3   OH220051   0.507   5.046   5.300
 6703TIP3    H120052   0.508   5.026   5.393
 6703TIP3    H220053   0.454   4.977   5.260
 6704TIP3   OH220054   0.435   0.678   3.439
 6704TIP3    H120055   0.526   0.651   3.444
 6704TIP3    H220056   0.408   0.690   3.530
 6705TIP3   OH220057   2.000   4.127   4.316
 6705TIP3    H120058   1.949   4.045   4.318
 6705TIP3    H220059   1.992   4.162   4.404
 6706TIP3   OH220060   4.289   0.612   5.011
 6706TIP3    H120061   4.357   0.547   5.000
 6706TIP3    H220062   4.211   0.571   4.973
 6707TIP3   OH220063   3.027   3.238   3.653
 6707TIP3    H120064   3.109   3.276   3.682
 6707TIP3    H220065   3.050   3.188   3.575
 6708TIP3   OH220066   3.518   2.797   1.993
 6708TIP3    H120067   3.596   2.823   2.042
 6708TIP3    H220068   3.538   2.822   1.902
 6709TIP3   OH220069   1.777   2.819   2.913
 6709TIP3    H120070   1.839   2.748   2.932
 6709TIP3    H220071   1.717   2.818   2.987
 6710TIP3   OH220072   7.883   5.486   1.279
 6710TIP3    H120073   7.896   5.532   1.362
 6710TIP3    H220074   7.796   5.513   1.251
 6711TIP3   OH220075   6.063   3.072   1.777
 6711TIP3    H120076   6.066   3.122   1.858
 6711TIP3    H220077   6.081   2.982   1.804
 6712TIP3   OH220078   8.220   1.253   6.449
 6712TIP3    H120079   8.209   1.329   6.506
 6712TIP3    H220080   8.308   1.221   6.467
 6713TIP3   OH220081   2.274   0.000   2.105
 6713TIP3    H120082   2.214  -0.027   2.035
 6713TIP3    H220083   2.225   0.066   2.154
 6714TIP3   OH220084   4.944   0.676   4.989
 6714TIP3    H120085   5.005   0.730   4.939
 6714TIP3    H220086   4.934   0.723   5.072
 6715TIP3   OH220087   0.594   5.046   2.907
 6715TIP3    H120088   0.632   5.106   2.844
 6715TIP3    H220089   0.638   4.963   2.892
 6716TIP3   OH220090   1.399   3.722   3.348
 6716TIP3    H120091   1.421   3.814   3.332
 6716TIP3    H220092   1.303   3.719   3.346
 6717TIP3   OH220093   6.775   5.644   4.893
 6717TIP3    H120094   6.789   5.693   4.812
 6717TIP3    H220095   6.711   5.696   4.941
 6718TIP3   OH220096   6.670   3.132   3.429
 6718TIP3    H120097   6.661   3.082   3.348
 6718TIP3    H220098   6.738   3.197   3.410
 6719TIP3   OH220099   6.946   4.785   1.544
 6719TIP3    H120100   7.033   4.817   1.521
 6719TIP3    H220101   6.952   4.690   1.537
 6720TIP3   OH220102   7.875   6.891   0.926
 6720TIP3    H120103   7.925   6.881   0.845
 6720TIP3    H220104   7.792   6.928   0.898
 6721TIP3   OH220105   1.072   0.228   3.451
 6721TIP3    H120106   1.101   0.224   3.543
 6721TIP3    H220107   1.049   0.138   3.429
 6722TIP3   OH220108   3.378   4.032   2.716
 6722TIP3    H120109   3.298   4.012   2.668
 6722TIP3    H220110   3.414   4.109   2.672
 6723TIP3   OH220111   8.203   7.099   1.298
 6723TIP3    H120112   8.254   7.162   1.248
 6723TIP3    H220113   8.148   7.055   1.233
 6724TIP3   OH220114   5.237   1.071   1.095
 6724TIP3    H120115   5.191   1.064   1.178
 6724TIP3    H220116   5.234   0.982   1.059
 6725TIP3   OH220117   7.344   1.895   0.007
 6725TIP3    H120118   7.295   1.917  -0.072
 6725TIP3    H220119   7.430   1.934  -0.007
 6726TIP3   OH220120   6.840   3.859  -0.008
 6726TIP3    H120121   6.834   3.799   0.066
 6726TIP3    H220122   6.898   3.929   0.024
 6727TIP3   OH220123   7.335   1.906   2.239
 6727TIP3    H120124   7.285   1.834   2.278
 6727TIP3    H220125   7.382   1.945   2.313
 6728TIP3   OH220126   2.672   1.635   4.770
 6728TIP3    H120127   2.599   1.695   4.782
 6728TIP3    H220128   2.704   1.617   4.859
 6729TIP3   OH220129   3.108   0.971   0.483
 6729TIP3    H120130   3.103   1.024   0.563
 6729TIP3    H220131   3.022   0.928   0.478
 6730TIP3   OH220132   0.635   0.804   0.725
 6730TIP3    H120133   0.578   0.728   0.721
 6730TIP3    H220134   0.704   0.785   0.662
 6731TIP3   OH220135   0.823   2.578   4.047
 6731TIP3    H120136   0.799   2.493   4.083
 6731TIP3    H220137   0.784   2.642   4.107
 6732TIP3   OH220138   6.376   7.004   1.642
 6732TIP3    H120139   6.325   6.923   1.636
 6732TIP3    H220140   6.312   7.071   1.665
 6733TIP3   OH220141   3.101   0.508   0.167
 6733TIP3    H120142   3.027   0.553   0.207
 6733TIP3    H220143   3.153   0.578   0.128
 6734TIP3   OH220144   5.988   7.099   3.314
 6734TIP3    H120145   5.969   7.165   3.247
 6734TIP3    H220146   5.984   7.016   3.266
 6735TIP3   OH220147   2.112   1.990   0.054
 6735TIP3    H120148   2.076   1.960   0.137
 6735TIP3    H220149   2.193   1.941   0.043
 6736TIP3   OH220150   2.937   3.994   5.298
 6736TIP3    H120151   2.947   3.995   5.393
 6736TIP3    H220152   3.020   4.027   5.264
 6737TIP3   OH220153   1.885   6.078   0.915
 6737TIP3    H120154   1.830   6.004   0.890
 6737TIP3    H220155   1.964   6.069   0.862
 6738TIP3   OH220156   2.966   4.332   1.667
 6738TIP3    H120157   3.022   4.334   1.590
 6738TIP3    H220158   2.881   4.363   1.637
 6739TIP3   OH220159   5.930   4.841   4.616
 6739TIP3    H120160   5.847   4.797   4.598
 6739TIP3    H220161   5.994   4.770   4.626
 6740TIP3   OH220162   3.577   4.751   2.528
 6740TIP3    H120163   3.607   4.788   2.445
 6740TIP3    H220164   3.494   4.794   2.545
 6741TIP3   OH220165   4.254   3.146   2.729
 6741TIP3    H120166   4.201   3.192   2.663
 6741TIP3    H220167   4.198   3.142   2.806
 6742TIP3   OH220168   3.724   0.519   6.205
 6742TIP3    H120169   3.738   0.567   6.286
 6742TIP3    H220170   3.646   0.466   6.221
 6743TIP3   OH220171   1.960   0.248   0.205
 6743TIP3    H120172   1.901   0.256   0.130
 6743TIP3    H220173   1.978   0.338   0.232
 6744TIP3   OH220174   6.692   2.087   3.121
 6744TIP3    H120175   6.652   2.171   3.097
 6744TIP3    H220176   6.624   2.022   3.103
 6745TIP3   OH220177   2.361   0.809   6.468
 6745TIP3    H120178   2.317   0.743   6.521
 6745TIP3    H220179   2.292   0.843   6.410
 6746TIP3   OH220180   3.274   0.360   3.856
 6746TIP3    H120181   3.291   0.271   3.827
 6746TIP3    H220182   3.297   0.360   3.949
 6747TIP3   OH220183   1.222   6.701   3.176
 6747TIP3    H120184   1.181   6.763   3.115
 6747TIP3    H220185   1.198   6.732   3.263
 6748TIP3   OH220186   3.503   6.575   2.722
 6748TIP3    H120187   3.500   6.634   2.646
 6748TIP3    H220188   3.411   6.557   2.742
 6749TIP3   OH220189   4.812   1.706   2.478
 6749TIP3    H120190   4.832   1.635   2.538
 6749TIP3    H220191   4.783   1.778   2.534
 6750TIP3   OH220192   3.783   1.849   3.756
 6750TIP3    H120193   3.750   1.839   3.666
 6750TIP3    H220194   3.727   1.792   3.808
 6751TIP3   OH220195   0.482   3.880   3.769
 6751TIP3    H120196   0.428   3.954   3.795
 6751TIP3    H220197   0.419   3.808   3.755
 6752TIP3   OH220198   3.126  -0.014   3.605
 6752TIP3    H120199   3.090   0.030   3.528
 6752TIP3    H220200   3.159   0.057   3.659
 6753TIP3   OH220201   8.019   5.679   0.104
 6753TIP3    H120202   8.029   5.629   0.184
 6753TIP3    H220203   8.091   5.650   0.048
 6754TIP3   OH220204   5.771   0.054   4.949
 6754TIP3    H120205   5.773  -0.041   4.964
 6754TIP3    H220206   5.863   0.078   4.935
 6755TIP3   OH220207   4.217   3.132   6.674
 6755TIP3    H120208   4.138   3.180   6.646
 6755TIP3    H220209   4.271   3.126   6.595
 6756TIP3   OH220210   0.215   5.089   4.035
 6756TIP3    H120211   0.280   5.154   4.009
 6756TIP3    H220212   0.250   5.005   4.003
 6757TIP3   OH220213   6.942   2.204   4.406
 6757TIP3    H120214   7.032   2.175   4.424
 6757TIP3    H220215   6.887   2.144   4.456
 6758TIP3   OH220216   5.267   0.430   5.572
 6758TIP3    H120217   5.356   0.425   5.537
 6758TIP3    H220218   5.279   0.428   5.667
 6759TIP3   OH220219   7.761   4.940   3.784
 6759TIP3    H120220   7.727   4.873   3.844
 6759TIP3    H220221   7.738   4.908   3.697
 6760TIP3   OH220222   1.436   4.343   4.012
 6760TIP3    H120223   1.407   4.424   4.055
 6760TIP3    H220224   1.404   4.273   4.069
 6761TIP3   OH220225   0.509   5.536   1.204
 6761TIP3    H120226   0.513   5.568   1.294
 6761TIP3    H220227   0.416   5.526   1.186
 6762TIP3   OH220228   7.095  -0.011   2.545
 6762TIP3    H120229   7.087   0.020   2.635
 6762TIP3    H220230   7.183   0.014   2.519
 6763TIP3   OH220231   6.361   5.296   1.781
 6763TIP3    H120232   6.331   5.321   1.869
 6763TIP3    H220233   6.428   5.361   1.760
 6764TIP3   OH220234   0.066   3.401   4.050
 6764TIP3    H120235   0.045   3.434   4.137
 6764TIP3    H220236   0.161   3.393   4.049
 6765TIP3   OH220237   0.464   2.417   3.752
 6765TIP3    H120238   0.516   2.379   3.824
 6765TIP3    H220239   0.514   2.399   3.673
 6766TIP3   OH220240   4.405   4.869   3.424
 6766TIP3    H120241   4.324   4.817   3.431
 6766TIP3    H220242   4.436   4.851   3.335
 6767TIP3   OH220243   2.897   1.793   6.392
 6767TIP3    H120244   2.814   1.803   6.345
 6767TIP3    H220245   2.938   1.716   6.352
 6768TIP3   OH220246   3.547   4.034   0.340
 6768TIP3    H120247   3.607   4.104   0.368
 6768TIP3    H220248   3.594   3.953   0.361
 6769TIP3   OH220249   3.530   7.558   5.373
 6769TIP3    H120250   3.446   7.537   5.413
 6769TIP3    H220251   3.511   7.571   5.280
 6770TIP3   OH220252   4.770   4.188   4.752
 6770TIP3    H120253   4.692   4.231   4.718
 6770TIP3    H220254   4.781   4.223   4.840
 6771TIP3   OH220255   6.424   5.946   3.600
 6771TIP3    H120256   6.471   5.995   3.668
 6771TIP3    H220257   6.339   5.927   3.639
 6772TIP3   OH220258   4.597   6.171   2.365
 6772TIP3    H120259   4.570   6.090   2.408
 6772TIP3    H220260   4.537   6.181   2.291
 6773TIP3   OH220261   3.783   5.636   2.468
 6773TIP3    H120262   3.720   5.645   2.396
 6773TIP3    H220263   3.774   5.718   2.517
 6774TIP3   OH220264   7.337   1.667   3.142
 6774TIP3    H120265   7.297   1.698   3.224
 6774TIP3    H220266   7.327   1.572   3.145
 6775TIP3   OH220267   5.186   2.447   2.814
 6775TIP3    H120268   5.224   2.364   2.844
 6775TIP3    H220269   5.261   2.501   2.790
 6776TIP3   OH220270   5.926   5.938   2.876
 6776TIP3    H120271   5.846   5.887   2.883
 6776TIP3    H220272   5.983   5.903   2.945
 6777TIP3   OH220273   6.039   6.117   3.900
 6777TIP3    H120274   5.943   6.118   3.900
 6777TIP3    H220275   6.063   6.152   3.986
 6778TIP3   OH220276   5.300   1.636   2.349
 6778TIP3    H120277   5.361   1.709   2.360
 6778TIP3    H220278   5.356   1.558   2.345
 6779TIP3   OH220279   7.743   0.348   2.420
 6779TIP3    H120280   7.806   0.309   2.359
 6779TIP3    H220281   7.761   0.442   2.415
 6780TIP3   OH220282   4.377   2.971   4.450
 6780TIP3    H120283   4.332   2.965   4.535
 6780TIP3    H220284   4.328   2.912   4.393
 6781TIP3   OH220285   7.191   7.662   2.909
 6781TIP3    H120286   7.124   7.611   2.864
 6781TIP3    H220287   7.260   7.674   2.844
 6782TIP3   OH220288   3.938   1.249   0.174
 6782TIP3    H120289   3.863   1.248   0.233
 6782TIP3    H220290   3.991   1.175   0.202
 6783TIP3   OH220291   4.362   6.600   2.035
 6783TIP3    H120292   4.329   6.659   1.967
 6783TIP3    H220293   4.395   6.524   1.987
 6784TIP3   OH220294   7.563   5.638   5.270
 6784TIP3    H120295   7.595   5.644   5.180
 6784TIP3    H220296   7.571   5.545   5.292
 6785TIP3   OH220297   2.171   2.274   1.076
 6785TIP3    H120298   2.106   2.339   1.104
 6785TIP3    H220299   2.240   2.325   1.035
 6786TIP3   OH220300   8.280   3.273   0.669
 6786TIP3    H120301   8.217   3.311   0.731
 6786TIP3    H220302   8.256   3.180   0.666
 6787TIP3   OH220303   1.698   7.355   2.815
 6787TIP3    H120304   1.648   7.281   2.850
 6787TIP3    H220305   1.632   7.424   2.802
 6788TIP3   OH220306   6.437   2.418   0.173
 6788TIP3    H120307   6.532   2.430   0.177
 6788TIP3    H220308   6.424   2.331   0.136
 6789TIP3   OH220309   6.210   0.566   2.563
 6789TIP3    H120310   6.235   0.477   2.536
 6789TIP3    H220311   6.265   0.624   2.510
 6790TIP3   OH220312   6.199   7.732   6.334
 6790TIP3    H120313   6.157   7.800   6.387
 6790TIP3    H220314   6.133   7.710   6.267
 6791TIP3   OH220315   3.835   6.907   6.698
 6791TIP3    H120316   3.887   6.924   6.776
 6791TIP3    H220317   3.763   6.853   6.727
 6792TIP3   OH220318   5.363   1.893   1.590
 6792TIP3    H120319   5.422   1.880   1.665
 6792TIP3    H220320   5.341   1.986   1.593
 6793TIP3   OH220321   7.404   5.504   4.864
 6793TIP3    H120322   7.337   5.460   4.917
 6793TIP3    H220323   7.454   5.433   4.826
 6794TIP3   OH220324   3.542   3.919   5.527
 6794TIP3    H120325   3.576   3.860   5.594
 6794TIP3    H220326   3.551   3.871   5.445
 6795TIP3   OH220327   7.164   1.486   5.095
 6795TIP3    H120328   7.071   1.499   5.078
 6795TIP3    H220329   7.207   1.554   5.043
 6796TIP3   OH220330   0.560   2.273   3.532
 6796TIP3    H120331   0.623   2.235   3.470
 6796TIP3    H220332   0.484   2.294   3.479
 6797TIP3   OH220333   1.302   0.167   4.661
 6797TIP3    H120334   1.216   0.130   4.638
 6797TIP3    H220335   1.361   0.136   4.592
 6798TIP3   OH220336   1.794   7.014   0.664
 6798TIP3    H120337   1.861   7.080   0.680
 6798TIP3    H220338   1.823   6.969   0.585
 6799TIP3   OH220339   5.091   6.038   1.756
 6799TIP3    H120340   5.106   6.113   1.697
 6799TIP3    H220341   5.095   6.076   1.844
 6800TIP3   OH220342   2.624   0.667   4.304
 6800TIP3    H120343   2.688   0.626   4.363
 6800TIP3    H220344   2.602   0.598   4.242
 6801TIP3   OH220345   0.984   4.407   4.407
 6801TIP3    H120346   0.931   4.476   4.449
 6801TIP3    H220347   1.052   4.387   4.471
 6802TIP3   OH220348   3.683   7.676   1.321
 6802TIP3    H120349   3.591   7.693   1.297
 6802TIP3    H220350   3.733   7.700   1.243
 6803TIP3   OH220351   2.376   2.121   6.367
 6803TIP3    H120352   2.336   2.208   6.364
 6803TIP3    H220353   2.342   2.076   6.290
 6804TIP3   OH220354   2.886   5.884   1.698
 6804TIP3    H120355   2.920   5.960   1.746
 6804TIP3    H220356   2.897   5.907   1.606
 6805TIP3   OH220357   5.051   0.386   4.254
 6805TIP3    H120358   5.006   0.306   4.282
 6805TIP3    H220359   5.115   0.358   4.189
 6806TIP3   OH220360   7.733   7.447   2.391
 6806TIP3    H120361   7.790   7.393   2.336
 6806TIP3    H220362   7.649   7.401   2.392
 6807TIP3   OH220363   5.900   5.913   5.787
 6807TIP3    H120364   5.964   5.859   5.834
 6807TIP3    H220365   5.815   5.878   5.812
 6808TIP3   OH220366   3.174   4.123   3.984
 6808TIP3    H120367   3.217   4.039   4.004
 6808TIP3    H220368   3.241   4.189   4.001
 6809TIP3   OH220369   4.520   3.332   3.505
 6809TIP3    H120370   4.562   3.373   3.581
 6809TIP3    H220371   4.580   3.261   3.480
 6810TIP3   OH220372   8.156   0.070   3.799
 6810TIP3    H120373   8.084   0.078   3.861
 6810TIP3    H220374   8.138  -0.011   3.751
 6811TIP3   OH220375   4.146   5.285   0.482
 6811TIP3    H120376   4.136   5.294   0.576
 6811TIP3    H220377   4.133   5.373   0.447
 6812TIP3   OH220378   2.516   7.322   3.448
 6812TIP3    H120379   2.478   7.408   3.431
 6812TIP3    H220380   2.580   7.337   3.517
 6813TIP3   OH220381   1.492   6.990   2.672
 6813TIP3    H120382   1.491   6.910   2.724
 6813TIP3    H220383   1.488   7.061   2.736
 6814TIP3   OH220384   0.863   3.299   1.685
 6814TIP3    H120385   0.792   3.271   1.743
 6814TIP3    H220386   0.925   3.343   1.743
 6815TIP3   OH220387   1.044   6.022   0.703
 6815TIP3    H120388   0.997   5.961   0.759
 6815TIP3    H220389   1.060   5.974   0.622
 6816TIP3   OH220390   3.886   5.940   5.228
 6816TIP3    H120391   3.903   6.034   5.242
 6816TIP3    H220392   3.932   5.897   5.301
 6817TIP3   OH220393   0.009   4.935   0.111
 6817TIP3    H120394   0.006   5.017   0.160
 6817TIP3    H220395   0.093   4.938   0.064
 6818TIP3   OH220396   1.411   2.402   3.415
 6818TIP3    H120397   1.342   2.459   3.382
 6818TIP3    H220398   1.376   2.365   3.495
 6819TIP3   OH220399   3.291   4.422   4.326
 6819TIP3    H120400   3.214   4.375   4.296
 6819TIP3    H220401   3.333   4.363   4.389
 6820TIP3   OH220402   6.056   4.834   0.783
 6820TIP3    H120403   6.001   4.787   0.845
 6820TIP3    H220404   6.070   4.920   0.824
 6821TIP3   OH220405   0.322   2.673   6.187
 6821TIP3    H120406   0.314   2.728   6.109
 6821TIP3    H220407   0.359   2.731   6.254
 6822TIP3   OH220408   2.674   6.125   3.729
 6822TIP3    H120409   2.758   6.148   3.690
 6822TIP3    H220410   2.614   6.117   3.655
 6823TIP3   OH220411   3.652   2.458   3.516
 6823TIP3    H120412   3.732   2.462   3.464
 6823TIP3    H220413   3.644   2.366   3.542
 6824TIP3   OH220414   5.098   0.270   0.672
 6824TIP3    H120415   5.120   0.270   0.766
 6824TIP3    H220416   5.138   0.189   0.639
 6825TIP3   OH220417   1.268   3.001   0.156
 6825TIP3    H120418   1.269   2.906   0.172
 6825TIP3    H220419   1.328   3.036   0.222
 6826TIP3   OH220420   4.039   3.339   4.964
 6826TIP3    H120421   4.030   3.287   4.884
 6826TIP3    H220422   4.112   3.299   5.011
 6827TIP3   OH220423   3.301   2.827   5.675
 6827TIP3    H120424   3.393   2.832   5.650
 6827TIP3    H220425   3.291   2.891   5.745
 6828TIP3   OH220426   6.366   4.169   5.684
 6828TIP3    H120427   6.289   4.126   5.649
 6828TIP3    H220428   6.420   4.189   5.608
 6829TIP3   OH220429   6.100   6.958   6.618
 6829TIP3    H120430   6.099   7.007   6.700
 6829TIP3    H220431   6.155   7.010   6.559
 6830TIP3   OH220432   8.153   3.097   2.351
 6830TIP3    H120433   8.097   3.117   2.426
 6830TIP3    H220434   8.166   3.181   2.308
 6831TIP3   OH220435   8.092   3.575   4.475
 6831TIP3    H120436   8.021   3.563   4.412
 6831TIP3    H220437   8.060   3.533   4.555
 6832TIP3   OH220438   2.505   6.973   4.782
 6832TIP3    H120439   2.471   7.011   4.863
 6832TIP3    H220440   2.461   7.022   4.712
 6833TIP3   OH220441   2.077   3.183   6.515
 6833TIP3    H120442   2.022   3.260   6.530
 6833TIP3    H220443   2.025   3.128   6.456
 6834TIP3   OH220444   0.500   2.947   5.239
 6834TIP3    H120445   0.470   2.941   5.148
 6834TIP3    H220446   0.581   2.896   5.240
 6835TIP3   OH220447   5.536   3.618   1.462
 6835TIP3    H120448   5.494   3.539   1.496
 6835TIP3    H220449   5.505   3.624   1.371
 6836TIP3   OH220450   7.255   2.042   0.793
 6836TIP3    H120451   7.174   1.993   0.801
 6836TIP3    H220452   7.322   1.984   0.831
 6837TIP3   OH220453   3.864   5.912   6.694
 6837TIP3    H120454   3.772   5.940   6.690
 6837TIP3    H220455   3.881   5.902   6.788
 6838TIP3   OH220456   3.739   5.435   3.840
 6838TIP3    H120457   3.809   5.500   3.824
 6838TIP3    H220458   3.672   5.456   3.775
 6839TIP3   OH220459   3.626   5.673   1.716
 6839TIP3    H120460   3.631   5.579   1.704
 6839TIP3    H220461   3.672   5.710   1.640
 6840TIP3   OH220462   6.182   0.435   4.773
 6840TIP3    H120463   6.175   0.407   4.682
 6840TIP3    H220464   6.274   0.460   4.783
 6841TIP3   OH220465   4.189   1.648   0.989
 6841TIP3    H120466   4.259   1.705   0.958
 6841TIP3    H220467   4.114   1.670   0.934
 6842TIP3   OH220468   3.806   1.914   2.512
 6842TIP3    H120469   3.879   1.920   2.450
 6842TIP3    H220470   3.841   1.947   2.594
 6843TIP3   OH220471   1.458   5.826   2.511
 6843TIP3    H120472   1.508   5.864   2.583
 6843TIP3    H220473   1.368   5.855   2.527
 6844TIP3   OH220474   1.985   1.121   6.433
 6844TIP3    H120475   2.036   1.157   6.506
 6844TIP3    H220476   1.903   1.092   6.473
 6845TIP3   OH220477   6.162   1.864   0.843
 6845TIP3    H120478   6.213   1.802   0.893
 6845TIP3    H220479   6.152   1.940   0.901
 6846TIP3   OH220480   0.111  -0.059   4.051
 6846TIP3    H120481   0.020  -0.065   4.080
 6846TIP3    H220482   0.147   0.015   4.100
 6847TIP3   OH220483   0.742   3.793   5.731
 6847TIP3    H120484   0.827   3.749   5.725
 6847TIP3    H220485   0.751   3.851   5.807
 6848TIP3   OH220486   7.205   6.839   4.912
 6848TIP3    H120487   7.298   6.851   4.932
 6848TIP3    H220488   7.203   6.757   4.862
 6849TIP3   OH220489   7.093   7.471   0.709
 6849TIP3    H120490   7.047   7.390   0.685
 6849TIP3    H220491   7.103   7.518   0.627
 6850TIP3   OH220492   1.589   1.624   5.474
 6850TIP3    H120493   1.592   1.544   5.526
 6850TIP3    H220494   1.677   1.660   5.481
 6851TIP3   OH220495   3.642   1.475   1.544
 6851TIP3    H120496   3.641   1.563   1.581
 6851TIP3    H220497   3.721   1.435   1.580
 6852TIP3   OH220498   1.994   1.565   1.899
 6852TIP3    H120499   1.934   1.540   1.829
 6852TIP3    H220500   2.032   1.482   1.928
 6853TIP3   OH220501   3.282   1.916   0.359
 6853TIP3    H120502   3.348   1.967   0.312
 6853TIP3    H220503   3.272   1.836   0.307
 6854TIP3   OH220504   1.088   4.970   0.885
 6854TIP3    H120505   1.120   4.994   0.972
 6854TIP3    H220506   1.014   4.911   0.902
 6855TIP3   OH220507   2.652   5.261   6.293
 6855TIP3    H120508   2.627   5.175   6.261
 6855TIP3    H220509   2.644   5.254   6.388
 6856TIP3   OH220510   2.970   6.537   6.154
 6856TIP3    H120511   2.968   6.620   6.107
 6856TIP3    H220512   2.929   6.475   6.094
 6857TIP3   OH220513   1.628   6.784   3.847
 6857TIP3    H120514   1.557   6.774   3.783
 6857TIP3    H220515   1.584   6.812   3.927
 6858TIP3   OH220516   5.493   4.671   3.127
 6858TIP3    H120517   5.520   4.615   3.054
 6858TIP3    H220518   5.565   4.665   3.189
 6859TIP3   OH220519   3.704   0.392   2.960
 6859TIP3    H120520   3.696   0.335   2.883
 6859TIP3    H220521   3.729   0.332   3.031
 6860TIP3   OH220522   0.885   6.790   0.093
 6860TIP3    H120523   0.802   6.805   0.049
 6860TIP3    H220524   0.862   6.778   0.186
 6861TIP3   OH220525   1.238   5.883   0.951
 6861TIP3    H120526   1.224   5.892   1.046
 6861TIP3    H220527   1.324   5.922   0.936
 6862TIP3   OH220528   5.099   6.171   6.051
 6862TIP3    H120529   5.151   6.249   6.070
 6862TIP3    H220530   5.067   6.184   5.962
 6863TIP3   OH220531   7.666   5.795   6.390
 6863TIP3    H120532   7.616   5.751   6.321
 6863TIP3    H220533   7.635   5.886   6.388
 6864TIP3   OH220534   6.370   3.271   5.489
 6864TIP3    H120535   6.419   3.337   5.538
 6864TIP3    H220536   6.430   3.243   5.419
 6865TIP3   OH220537   0.008   0.753   6.691
 6865TIP3    H120538  -0.014   0.704   6.611
 6865TIP3    H220539   0.016   0.686   6.759
 6866TIP3   OH220540   7.480   5.247   6.251
 6866TIP3    H120541   7.461   5.276   6.161
 6866TIP3    H220542   7.413   5.181   6.268
 6867TIP3   OH220543   0.688   6.774   6.194
 6867TIP3    H120544   0.763   6.818   6.155
 6867TIP3    H220545   0.649   6.725   6.122
 6868TIP3   OH220546   0.636   1.800   1.578
 6868TIP3    H120547   0.561   1.750   1.610
 6868TIP3    H220548   0.608   1.891   1.582
 6869TIP3   OH220549   3.417   4.663   4.402
 6869TIP3    H120550   3.378   4.578   4.382
 6869TIP3    H220551   3.477   4.680   4.329
 6870TIP3   OH220552   4.989   4.982   6.077
 6870TIP3    H120553   4.939   5.063   6.063
 6870TIP3    H220554   5.079   5.011   6.086
 6871TIP3   OH220555   5.189   3.074   2.908
 6871TIP3    H120556   5.141   2.991   2.909
 6871TIP3    H220557   5.270   3.054   2.861
 6872TIP3   OH220558   1.169   7.766   2.615
 6872TIP3    H120559   1.176   7.692   2.555
 6872TIP3    H220560   1.198   7.731   2.700
 6873TIP3   OH220561   6.027   3.291   6.204
 6873TIP3    H120562   6.054   3.199   6.208
 6873TIP3    H220563   5.952   3.292   6.146
 6874TIP3   OH220564   2.360   6.000   6.614
 6874TIP3    H120565   2.403   6.074   6.658
 6874TIP3    H220566   2.270   6.030   6.599
 6875TIP3   OH220567   5.567   6.573   5.095
 6875TIP3    H120568   5.625   6.498   5.106
 6875TIP3    H220569   5.483   6.544   5.132
 6876TIP3   OH220570   3.553   6.581   2.131
 6876TIP3    H120571   3.605   6.582   2.051
 6876TIP3    H220572   3.555   6.489   2.159
 6877TIP3   OH220573   4.307   5.498   4.567
 6877TIP3    H120574   4.245   5.566   4.593
 6877TIP3    H220575   4.313   5.506   4.472
 6878TIP3   OH220576   7.459   0.442   3.024
 6878TIP3    H120577   7.463   0.372   3.089
 6878TIP3    H220578   7.427   0.518   3.073
 6879TIP3   OH220579   6.012   5.891   1.116
 6879TIP3    H120580   6.033   5.928   1.202
 6879TIP3    H220581   6.097   5.881   1.073
 6880TIP3   OH220582   1.490   3.113   4.843
 6880TIP3    H120583   1.516   3.127   4.752
 6880TIP3    H220584   1.402   3.150   4.848
 6881TIP3   OH220585   3.727   1.476   2.015
 6881TIP3    H120586   3.742   1.452   2.107
 6881TIP3    H220587   3.814   1.488   1.978
 6882TIP3   OH220588   6.917   1.732   2.965
 6882TIP3    H120589   6.964   1.797   3.018
 6882TIP3    H220590   6.962   1.649   2.983
 6883TIP3   OH220591   4.640   0.983   1.315
 6883TIP3    H120592   4.680   0.899   1.291
 6883TIP3    H220593   4.706   1.026   1.369
 6884TIP3   OH220594   7.445   7.117   4.007
 6884TIP3    H120595   7.450   7.100   4.102
 6884TIP3    H220596   7.515   7.180   3.991
 6885TIP3   OH220597   8.380   1.245   4.549
 6885TIP3    H120598   8.371   1.150   4.544
 6885TIP3    H220599   8.293   1.277   4.574
 6886TIP3   OH220600   6.553   2.237   3.593
 6886TIP3    H120601   6.592   2.236   3.506
 6886TIP3    H220602   6.577   2.152   3.632
 6887TIP3   OH220603   3.492   0.233   4.346
 6887TIP3    H120604   3.485   0.313   4.294
 6887TIP3    H220605   3.557   0.254   4.414
 6888TIP3   OH220606   5.653   2.293   1.552
 6888TIP3    H120607   5.726   2.262   1.499
 6888TIP3    H220608   5.577   2.287   1.494
 6889TIP3   OH220609   7.526   0.196   1.883
 6889TIP3    H120610   7.491   0.284   1.867
 6889TIP3    H220611   7.599   0.209   1.942
 6890TIP3   OH220612   2.706   3.875   6.267
 6890TIP3    H120613   2.692   3.883   6.362
 6890TIP3    H220614   2.707   3.780   6.252
 6891TIP3   OH220615   6.354   2.258   1.909
 6891TIP3    H120616   6.383   2.196   1.843
 6891TIP3    H220617   6.351   2.207   1.990
 6892TIP3   OH220618   4.531   5.938   5.396
 6892TIP3    H120619   4.520   5.993   5.319
 6892TIP3    H220620   4.479   5.859   5.377
 6893TIP3   OH220621   5.013   0.455   2.225
 6893TIP3    H120622   5.038   0.511   2.299
 6893TIP3    H220623   5.015   0.514   2.149
 6894TIP3   OH220624   7.907   4.241   6.130
 6894TIP3    H120625   7.901   4.190   6.049
 6894TIP3    H220626   7.990   4.213   6.168
 6895TIP3   OH220627   3.610   6.343   2.439
 6895TIP3    H120628   3.671   6.416   2.428
 6895TIP3    H220629   3.524   6.384   2.444
 6896TIP3   OH220630   6.096   2.589   0.198
 6896TIP3    H120631   6.166   2.650   0.172
 6896TIP3    H220632   6.103   2.518   0.135
 6897TIP3   OH220633   0.964   5.764   0.714
 6897TIP3    H120634   0.933   5.794   0.800
 6897TIP3    H220635   0.967   5.668   0.722
 6898TIP3   OH220636   1.081   2.494   6.387
 6898TIP3    H120637   1.068   2.446   6.469
 6898TIP3    H220638   1.092   2.426   6.321
 6899TIP3   OH220639   7.512   2.501   0.533
 6899TIP3    H120640   7.427   2.525   0.495
 6899TIP3    H220641   7.508   2.405   0.542
 6900TIP3   OH220642   7.659   4.725   3.020
 6900TIP3    H120643   7.715   4.687   3.088
 6900TIP3    H220644   7.583   4.757   3.067
 6901TIP3   OH220645   7.853   2.816   3.385
 6901TIP3    H120646   7.804   2.753   3.332
 6901TIP3    H220647   7.793   2.889   3.398
 6902TIP3   OH220648   7.906   3.753   2.598
 6902TIP3    H120649   7.970   3.721   2.661
 6902TIP3    H220650   7.863   3.674   2.564
 6903TIP3   OH220651   1.716   6.809   5.606
 6903TIP3    H120652   1.700   6.825   5.513
 6903TIP3    H220653   1.804   6.772   5.608
 6904TIP3   OH220654   7.361   6.870   3.864
 6904TIP3    H120655   7.446   6.913   3.866
 6904TIP3    H220656   7.363   6.815   3.786
 6905TIP3   OH220657   5.117   7.713   0.454
 6905TIP3    H120658   5.182   7.643   0.457
 6905TIP3    H220659   5.042   7.679   0.504
 6906TIP3   OH220660   4.013   4.525   1.874
 6906TIP3    H120661   3.921   4.541   1.894
 6906TIP3    H220662   4.046   4.478   1.951
 6907TIP3   OH220663   0.453   0.030   6.481
 6907TIP3    H120664   0.463   0.094   6.551
 6907TIP3    H220665   0.365  -0.006   6.492
 6908TIP3   OH220666   0.572   7.330   6.228
 6908TIP3    H120667   0.497   7.347   6.285
 6908TIP3    H220668   0.610   7.416   6.212
 6909TIP3   OH220669   4.346   6.117   0.960
 6909TIP3    H120670   4.427   6.155   0.927
 6909TIP3    H220671   4.356   6.119   1.055
 6910TIP3   OH220672   1.623   3.370   4.990
 6910TIP3    H120673   1.547   3.314   5.003
 6910TIP3    H220674   1.608   3.412   4.906
 6911TIP3   OH220675   5.014   5.754   5.832
 6911TIP3    H120676   5.098   5.791   5.858
 6911TIP3    H220677   5.017   5.663   5.864
 6912TIP3   OH220678   3.199   3.289   0.666
 6912TIP3    H120679   3.188   3.317   0.757
 6912TIP3    H220680   3.277   3.234   0.667
 6913TIP3   OH220681   0.949   7.116   2.084
 6913TIP3    H120682   1.008   7.192   2.084
 6913TIP3    H220683   1.008   7.041   2.076
 6914TIP3   OH220684   5.366   2.431   4.272
 6914TIP3    H120685   5.316   2.497   4.224
 6914TIP3    H220686   5.378   2.468   4.359
 6915TIP3   OH220687   0.447   3.315   1.510
 6915TIP3    H120688   0.534   3.317   1.470
 6915TIP3    H220689   0.446   3.235   1.562
 6916TIP3   OH220690   0.657   3.458   3.724
 6916TIP3    H120691   0.671   3.542   3.680
 6916TIP3    H220692   0.723   3.456   3.793
 6917TIP3   OH220693   6.304   3.894   0.285
 6917TIP3    H120694   6.279   3.896   0.193
 6917TIP3    H220695   6.370   3.825   0.291
 6918TIP3   OH220696   5.255   2.451   3.409
 6918TIP3    H120697   5.167   2.470   3.440
 6918TIP3    H220698   5.301   2.418   3.486
 6919TIP3   OH220699   0.455   7.299   1.527
 6919TIP3    H120700   0.541   7.329   1.558
 6919TIP3    H220701   0.400   7.377   1.532
 6920TIP3   OH220702   7.172   6.804   0.236
 6920TIP3    H120703   7.090   6.827   0.192
 6920TIP3    H220704   7.151   6.724   0.285
 6921TIP3   OH220705   5.904   6.627   1.295
 6921TIP3    H120706   5.971   6.634   1.227
 6921TIP3    H220707   5.925   6.545   1.341
 6922TIP3   OH220708   1.388   3.855   0.238
 6922TIP3    H120709   1.397   3.882   0.329
 6922TIP3    H220710   1.448   3.912   0.190
 6923TIP3   OH220711   2.546   6.915   6.705
 6923TIP3    H120712   2.493   6.892   6.782
 6923TIP3    H220713   2.518   6.853   6.638
 6924TIP3   OH220714   0.452   0.193   2.748
 6924TIP3    H120715   0.425   0.159   2.663
 6924TIP3    H220716   0.453   0.117   2.805
 6925TIP3   OH220717   2.312   0.214   5.701
 6925TIP3    H120718   2.266   0.158   5.639
 6925TIP3    H220719   2.394   0.236   5.658
 6926TIP3   OH220720   4.085   0.663   2.253
 6926TIP3    H120721   4.092   0.680   2.159
 6926TIP3    H220722   4.112   0.744   2.295
 6927TIP3   OH220723   3.407   0.945   0.579
 6927TIP3    H120724   3.498   0.927   0.603
 6927TIP3    H220725   3.366   0.973   0.661
 6928TIP3   OH220726   4.835   2.761   1.131
 6928TIP3    H120727   4.815   2.785   1.041
 6928TIP3    H220728   4.922   2.798   1.147
 6929TIP3   OH220729   3.168   7.467   2.207
 6929TIP3    H120730   3.115   7.398   2.167
 6929TIP3    H220731   3.165   7.448   2.301
 6930TIP3   OH220732   0.336   4.032   2.273
 6930TIP3    H120733   0.323   4.098   2.205
 6930TIP3    H220734   0.405   3.975   2.239
 6931TIP3   OH220735   7.837   7.113   6.376
 6931TIP3    H120736   7.744   7.093   6.363
 6931TIP3    H220737   7.848   7.118   6.470
 6932TIP3   OH220738   0.097   4.335   5.516
 6932TIP3    H120739   0.029   4.373   5.460
 6932TIP3    H220740   0.093   4.241   5.497
 6933TIP3   OH220741   6.257   0.041   0.902
 6933TIP3    H120742   6.298   0.044   0.816
 6933TIP3    H220743   6.165   0.061   0.886
 6934TIP3   OH220744   6.235   6.648   4.479
 6934TIP3    H120745   6.287   6.678   4.553
 6934TIP3    H220746   6.265   6.700   4.405
 6935TIP3   OH220747   8.062   0.726   0.650
 6935TIP3    H120748   8.062   0.631   0.654
 6935TIP3    H220749   8.055   0.746   0.557
 6936TIP3   OH220750   6.876   1.438   2.029
 6936TIP3    H120751   6.795   1.428   1.979
 6936TIP3    H220752   6.848   1.429   2.120
 6937TIP3   OH220753   1.707   2.447   0.877
 6937TIP3    H120754   1.697   2.499   0.957
 6937TIP3    H220755   1.673   2.503   0.807
 6938TIP3   OH220756   0.095   3.992   6.625
 6938TIP3    H120757   0.106   3.966   6.533
 6938TIP3    H220758   0.004   3.969   6.646
 6939TIP3   OH220759   1.546   0.922   3.942
 6939TIP3    H120760   1.550   0.832   3.974
 6939TIP3    H220761   1.481   0.919   3.871
 6940TIP3   OH220762   3.993   5.304   1.221
 6940TIP3    H120763   4.017   5.290   1.129
 6940TIP3    H220764   3.970   5.217   1.252
 6941TIP3   OH220765   0.910   5.764   5.000
 6941TIP3    H120766   0.966   5.823   4.951
 6941TIP3    H220767   0.932   5.781   5.092
 6942TIP3   OH220768   0.475   1.035   0.388
 6942TIP3    H120769   0.537   0.975   0.346
 6942TIP3    H220770   0.457   1.101   0.321
 6943TIP3   OH220771   7.618   2.718   1.199
 6943TIP3    H120772   7.580   2.721   1.111
 6943TIP3    H220773   7.689   2.654   1.192
 6944TIP3   OH220774   5.294   1.298   5.984
 6944TIP3    H120775   5.205   1.271   6.006
 6944TIP3    H220776   5.283   1.376   5.930
 6945TIP3   OH220777   6.216   1.579   0.367
 6945TIP3    H120778   6.136   1.554   0.412
 6945TIP3    H220779   6.233   1.507   0.306
 6946TIP3   OH220780   3.804   4.564   5.955
 6946TIP3    H120781   3.842   4.622   5.890
 6946TIP3    H220782   3.845   4.479   5.939
 6947TIP3   OH220783   1.209   5.600   6.686
 6947TIP3    H120784   1.154   5.558   6.752
 6947TIP3    H220785   1.188   5.554   6.604
 6948TIP3   OH220786   3.797   7.165   4.369
 6948TIP3    H120787   3.778   7.104   4.441
 6948TIP3    H220788   3.803   7.109   4.291
 6949TIP3   OH220789   2.390   3.362   1.334
 6949TIP3    H120790   2.423   3.353   1.424
 6949TIP3    H220791   2.468   3.376   1.281
 6950TIP3   OH220792   4.100   6.953   1.051
 6950TIP3    H120793   4.171   6.948   0.987
 6950TIP3    H220794   4.021   6.966   0.998
 6951TIP3   OH220795   5.288   2.163   1.624
 6951TIP3    H120796   5.235   2.133   1.698
 6951TIP3    H220797   5.339   2.236   1.659
 6952TIP3   OH220798   5.784   1.606   0.614
 6952TIP3    H120799   5.727   1.681   0.596
 6952TIP3    H220800   5.843   1.637   0.682
 6953TIP3   OH220801   7.170   4.103   5.715
 6953TIP3    H120802   7.115   4.052   5.654
 6953TIP3    H220803   7.156   4.194   5.689
 6954TIP3   OH220804   4.528   2.707   2.682
 6954TIP3    H120805   4.564   2.629   2.639
 6954TIP3    H220806   4.562   2.780   2.630
 6955TIP3   OH220807   7.185   4.913   1.930
 6955TIP3    H120808   7.103   4.962   1.927
 6955TIP3    H220809   7.180   4.864   2.012
 6956TIP3   OH220810   2.284   3.054   1.995
 6956TIP3    H120811   2.340   3.109   1.941
 6956TIP3    H220812   2.212   3.029   1.937
 6957TIP3   OH220813   6.883   6.324   4.810
 6957TIP3    H120814   6.891   6.345   4.717
 6957TIP3    H220815   6.914   6.403   4.855
 6958TIP3   OH220816   1.228   3.401   1.660
 6958TIP3    H120817   1.278   3.319   1.659
 6958TIP3    H220818   1.233   3.434   1.571
 6959TIP3   OH220819   2.455   1.473   5.685
 6959TIP3    H120820   2.449   1.393   5.737
 6959TIP3    H220821   2.365   1.504   5.678
 6960TIP3   OH220822   1.092   7.363   3.976
 6960TIP3    H120823   1.179   7.362   4.016
 6960TIP3    H220824   1.067   7.455   3.974
 6961TIP3   OH220825   6.035   5.610   4.281
 6961TIP3    H120826   6.020   5.567   4.197
 6961TIP3    H220827   6.129   5.627   4.282
 6962TIP3   OH220828   6.515   1.389   3.482
 6962TIP3    H120829   6.582   1.347   3.429
 6962TIP3    H220830   6.433   1.345   3.456
 6963TIP3   OH220831   0.204   6.647   2.362
 6963TIP3    H120832   0.177   6.724   2.312
 6963TIP3    H220833   0.166   6.659   2.449
 6964TIP3   OH220834   3.007   3.257   4.364
 6964TIP3    H120835   2.918   3.291   4.377
 6964TIP3    H220836   3.047   3.262   4.450
 6965TIP3   OH220837   0.439   0.768   4.852
 6965TIP3    H120838   0.400   0.801   4.932
 6965TIP3    H220839   0.526   0.808   4.849
 6966TIP3   OH220840   1.432   3.657   1.188
 6966TIP3    H120841   1.459   3.566   1.204
 6966TIP3    H220842   1.342   3.649   1.156
 6967TIP3   OH220843   4.057   5.698   3.042
 6967TIP3    H120844   4.062   5.611   3.003
 6967TIP3    H220845   4.100   5.755   2.978
 6968TIP3   OH220846   7.108   6.195   5.267
 6968TIP3    H120847   7.163   6.121   5.293
 6968TIP3    H220848   7.132   6.211   5.175
 6969TIP3   OH220849   2.600   4.377   3.295
 6969TIP3    H120850   2.682   4.390   3.342
 6969TIP3    H220851   2.555   4.307   3.342
 6970TIP3   OH220852   0.250   2.043   5.767
 6970TIP3    H120853   0.217   2.092   5.842
 6970TIP3    H220854   0.345   2.047   5.776
 6971TIP3   OH220855   7.207   6.274   6.281
 6971TIP3    H120856   7.192   6.363   6.314
 6971TIP3    H220857   7.241   6.287   6.192
 6972TIP3   OH220858   2.180   6.397   6.763
 6972TIP3    H120859   2.091   6.364   6.772
 6972TIP3    H220860   2.209   6.366   6.677
 6973TIP3   OH220861   2.135   6.141   0.796
 6973TIP3    H120862   2.163   6.050   0.800
 6973TIP3    H220863   2.215   6.191   0.778
 6974TIP3   OH220864   7.157   1.114   6.058
 6974TIP3    H120865   7.166   1.182   6.124
 6974TIP3    H220866   7.065   1.119   6.031
 6975TIP3   OH220867   7.537   0.627   0.354
 6975TIP3    H120868   7.592   0.683   0.409
 6975TIP3    H220869   7.504   0.559   0.414
 6976TIP3   OH220870   6.079   6.297   5.410
 6976TIP3    H120871   6.154   6.241   5.427
 6976TIP3    H220872   6.003   6.244   5.436
 6977TIP3   OH220873   4.036   7.732   0.072
 6977TIP3    H120874   4.099   7.781   0.019
 6977TIP3    H220875   3.956   7.730   0.019
 6978TIP3   OH220876   7.737   4.492   0.999
 6978TIP3    H120877   7.813   4.550   1.009
 6978TIP3    H220878   7.774   4.410   0.966
 6979TIP3   OH220879   4.301   1.558   4.002
 6979TIP3    H120880   4.225   1.572   4.059
 6979TIP3    H220881   4.279   1.604   3.921
 6980TIP3   OH220882   6.833   7.694   3.959
 6980TIP3    H120883   6.809   7.665   4.047
 6980TIP3    H220884   6.764   7.755   3.934
 6981TIP3   OH220885   3.724   6.261   1.178
 6981TIP3    H120886   3.660   6.317   1.135
 6981TIP3    H220887   3.800   6.261   1.119
 6982TIP3   OH220888   4.612   1.916   5.643
 6982TIP3    H120889   4.655   1.848   5.695
 6982TIP3    H220890   4.607   1.991   5.703
 6983TIP3   OH220891   3.536   3.022   3.982
 6983TIP3    H120892   3.525   3.053   3.892
 6983TIP3    H220893   3.575   2.935   3.972
 6984TIP3   OH220894   4.972   5.072   0.764
 6984TIP3    H120895   4.882   5.072   0.733
 6984TIP3    H220896   4.969   5.116   0.849
 6985TIP3   OH220897   7.912   2.165   2.258
 6985TIP3    H120898   7.916   2.248   2.210
 6985TIP3    H220899   7.925   2.098   2.191
 6986TIP3   OH220900   2.910   7.327   1.601
 6986TIP3    H120901   2.854   7.393   1.642
 6986TIP3    H220902   2.955   7.374   1.531
 6987TIP3   OH220903   6.596   0.466   2.646
 6987TIP3    H120904   6.667   0.480   2.708
 6987TIP3    H220905   6.639   0.426   2.570
 6988TIP3   OH220906   4.078   0.761   2.016
 6988TIP3    H120907   3.990   0.791   1.991
 6988TIP3    H220908   4.120   0.740   1.932
 6989TIP3   OH220909   3.205   7.438   3.239
 6989TIP3    H120910   3.194   7.501   3.310
 6989TIP3    H220911   3.249   7.487   3.170
 6990TIP3   OH220912   1.773   1.995   2.723
 6990TIP3    H120913   1.754   1.917   2.670
 6990TIP3    H220914   1.687   2.029   2.747
 6991TIP3   OH220915   5.129   1.420   0.639
 6991TIP3    H120916   5.176   1.478   0.699
 6991TIP3    H220917   5.065   1.477   0.596
 6992TIP3   OH220918   4.353   7.756   3.534
 6992TIP3    H120919   4.272   7.726   3.575
 6992TIP3    H220920   4.372   7.689   3.468
 6993TIP3   OH220921   3.008   1.143   3.694
 6993TIP3    H120922   2.928   1.092   3.678
 6993TIP3    H220923   3.002   1.169   3.786
 6994TIP3   OH220924   1.090   7.599   3.811
 6994TIP3    H120925   1.109   7.692   3.807
 6994TIP3    H220926   1.002   7.591   3.775
 6995TIP3   OH220927   1.413   6.019   3.681
 6995TIP3    H120928   1.477   5.949   3.698
 6995TIP3    H220929   1.382   6.045   3.767
 6996TIP3   OH220930   1.924   6.449   1.091
 6996TIP3    H120931   2.005   6.467   1.138
 6996TIP3    H220932   1.885   6.376   1.139
 6997TIP3   OH220933   3.919   6.854   5.310
 6997TIP3    H120934   3.939   6.937   5.352
 6997TIP3    H220935   3.824   6.848   5.312
 6998TIP3   OH220936   0.429   2.482   1.609
 6998TIP3    H120937   0.389   2.568   1.602
 6998TIP3    H220938   0.381   2.439   1.681
 6999TIP3   OH220939   0.531   2.608   5.070
 6999TIP3    H120940   0.598   2.673   5.093
 6999TIP3    H220941   0.452   2.660   5.054
 7000TIP3   OH220942   5.204   2.644   5.630
 7000TIP3    H120943   5.214   2.739   5.639
 7000TIP3    H220944   5.113   2.628   5.657
 7001TIP3   OH220945   3.698   1.400   4.711
 7001TIP3    H120946   3.726   1.408   4.802
 7001TIP3    H220947   3.708   1.308   4.690
 7002TIP3   OH220948   0.217   7.440   2.179
 7002TIP3    H120949   0.220   7.349   2.151
 7002TIP3    H220950   0.164   7.484   2.113
 7003TIP3   OH220951   3.075   0.421   1.187
 7003TIP3    H120952   3.077   0.424   1.091
 7003TIP3    H220953   3.164   0.395   1.212
 7004TIP3   OH220954   0.493   3.319   0.618
 7004TIP3    H120955   0.402   3.316   0.588
 7004TIP3    H220956   0.545   3.322   0.537
 7005TIP3   OH220957   6.456   2.691   0.524
 7005TIP3    H120958   6.535   2.688   0.578
 7005TIP3    H220959   6.409   2.611   0.547
 7006TIP3   OH220960   4.815   1.573   3.992
 7006TIP3    H120961   4.731   1.595   3.953
 7006TIP3    H220962   4.841   1.653   4.038
 7007TIP3   OH220963   3.509   2.417   5.876
 7007TIP3    H120964   3.431   2.472   5.872
 7007TIP3    H220965   3.543   2.417   5.787
 7008TIP3   OH220966   1.234   3.772   3.999
 7008TIP3    H120967   1.226   3.858   4.039
 7008TIP3    H220968   1.195   3.782   3.912
 7009TIP3   OH220969   0.126   4.848   2.965
 7009TIP3    H120970   0.204   4.869   2.914
 7009TIP3    H220971   0.075   4.930   2.967
 7010TIP3   OH220972   1.253   2.657   2.020
 7010TIP3    H120973   1.214   2.638   1.935
 7010TIP3    H220974   1.198   2.610   2.083
 7011TIP3   OH220975   5.794   5.675   3.378
 7011TIP3    H120976   5.793   5.714   3.465
 7011TIP3    H220977   5.795   5.580   3.395
 7012TIP3   OH220978   4.343   5.134   5.737
 7012TIP3    H120979   4.369   5.062   5.681
 7012TIP3    H220980   4.329   5.208   5.677
 7013TIP3   OH220981   5.193   3.248   4.949
 7013TIP3    H120982   5.221   3.295   4.871
 7013TIP3    H220983   5.107   3.212   4.926
 7014TIP3   OH220984   0.822   4.427   4.168
 7014TIP3    H120985   0.894   4.432   4.232
 7014TIP3    H220986   0.749   4.388   4.217
 7015TIP3   OH220987   5.375   6.884   1.747
 7015TIP3    H120988   5.386   6.815   1.812
 7015TIP3    H220989   5.381   6.839   1.663
 7016TIP3   OH220990   4.935   2.109   6.658
 7016TIP3    H120991   4.885   2.047   6.711
 7016TIP3    H220992   5.020   2.066   6.645
 7017TIP3   OH220993   7.349   1.328   5.203
 7017TIP3    H120994   7.302   1.385   5.143
 7017TIP3    H220995   7.360   1.380   5.282
 7018TIP3   OH220996   4.008   6.647   0.788
 7018TIP3    H120997   3.937   6.651   0.853
 7018TIP3    H220998   3.966   6.668   0.705
 7019TIP3   OH220999   6.191   5.567   6.514
 7019TIP3    H121000   6.103   5.604   6.521
 7019TIP3    H221001   6.244   5.621   6.573
 7020TIP3   OH221002   1.908   1.234   6.210
 7020TIP3    H121003   1.920   1.197   6.297
 7020TIP3    H221004   1.881   1.160   6.156
 7021TIP3   OH221005   4.113   1.090   3.111
 7021TIP3    H121006   4.020   1.086   3.086
 7021TIP3    H221007   4.160   1.061   3.033
 7022TIP3   OH221008   7.833   0.872   5.537
 7022TIP3    H121009   7.878   0.789   5.529
 7022TIP3    H221010   7.809   0.878   5.629
 7023TIP3   OH221011   2.451   3.239   4.282
 7023TIP3    H121012   2.469   3.315   4.339
 7023TIP3    H221013   2.396   3.274   4.212
 7024TIP3   OH221014   8.127   5.025   5.661
 7024TIP3    H121015   8.131   4.931   5.679
 7024TIP3    H221016   8.171   5.065   5.736
 7025TIP3   OH221017   1.405   2.841   4.913
 7025TIP3    H121018   1.439   2.813   4.827
 7025TIP3    H221019   1.417   2.936   4.914
 7026TIP3   OH221020   6.276   2.051   3.502
 7026TIP3    H121021   6.211   2.118   3.480
 7026TIP3    H221022   6.252   2.024   3.591
 7027TIP3   OH221023   5.828   6.408   0.226
 7027TIP3    H121024   5.829   6.349   0.302
 7027TIP3    H221025   5.821   6.349   0.151
 7028TIP3   OH221026   3.250   3.060   5.825
 7028TIP3    H121027   3.174   3.076   5.881
 7028TIP3    H221028   3.323   3.052   5.886
 7029TIP3   OH221029   3.335   5.703   6.023
 7029TIP3    H121030   3.355   5.762   5.950
 7029TIP3    H221031   3.419   5.689   6.066
 7030TIP3   OH221032   0.339   4.035   0.572
 7030TIP3    H121033   0.307   3.973   0.507
 7030TIP3    H221034   0.284   4.113   0.562
 7031TIP3   OH221035   5.183   7.321   0.253
 7031TIP3    H121036   5.096   7.289   0.276
 7031TIP3    H221037   5.231   7.242   0.225
 7032TIP3   OH221038   2.621   4.373   3.030
 7032TIP3    H121039   2.713   4.345   3.034
 7032TIP3    H221040   2.583   4.345   3.113
 7033TIP3   OH221041   7.823   6.181   5.282
 7033TIP3    H121042   7.764   6.111   5.254
 7033TIP3    H221043   7.899   6.173   5.223
 7034TIP3   OH221044   5.944   1.985   3.146
 7034TIP3    H121045   5.893   1.906   3.163
 7034TIP3    H221046   5.932   2.038   3.225
 7035TIP3   OH221047   1.484   7.660   3.557
 7035TIP3    H121048   1.473   7.586   3.497
 7035TIP3    H221049   1.511   7.732   3.501
 7036TIP3   OH221050   7.977   7.725   5.555
 7036TIP3    H121051   8.006   7.810   5.523
 7036TIP3    H221052   8.049   7.666   5.535
 7037TIP3   OH221053   1.196   1.733   3.268
 7037TIP3    H121054   1.210   1.736   3.363
 7037TIP3    H221055   1.249   1.658   3.238
 7038TIP3   OH221056   7.080   7.447   6.206
 7038TIP3    H121057   7.019   7.520   6.206
 7038TIP3    H221058   7.076   7.412   6.117
 7039TIP3   OH221059   6.080   4.836   5.216
 7039TIP3    H121060   6.119   4.921   5.239
 7039TIP3    H221061   6.026   4.855   5.140
 7040TIP3   OH221062   7.931   5.251   5.028
 7040TIP3    H121063   7.990   5.275   5.099
 7040TIP3    H221064   7.989   5.235   4.954
 7041TIP3   OH221065   3.227   6.036   1.988
 7041TIP3    H121066   3.257   5.945   1.996
 7041TIP3    H221067   3.298   6.081   1.942
 7042TIP3   OH221068   0.388   5.527   5.474
 7042TIP3    H121069   0.373   5.511   5.568
 7042TIP3    H221070   0.393   5.439   5.435
 7043TIP3   OH221071   7.766   0.491   5.710
 7043TIP3    H121072   7.707   0.563   5.734
 7043TIP3    H221073   7.812   0.524   5.633
 7044TIP3   OH221074   5.944   7.032   6.230
 7044TIP3    H121075   5.860   7.043   6.273
 7044TIP3    H221076   5.965   6.939   6.241
 7045TIP3   OH221077   6.511   6.616   2.852
 7045TIP3    H121078   6.467   6.545   2.897
 7045TIP3    H221079   6.461   6.694   2.874
 7046TIP3   OH221080   6.735   6.806   1.996
 7046TIP3    H121081   6.795   6.856   2.051
 7046TIP3    H221082   6.672   6.870   1.964
 7047TIP3   OH221083   8.175   6.355   5.633
 7047TIP3    H121084   8.081   6.370   5.622
 7047TIP3    H221085   8.211   6.441   5.656
 7048TIP3   OH221086   6.418   1.762   4.168
 7048TIP3    H121087   6.432   1.808   4.250
 7048TIP3    H221088   6.396   1.672   4.194
 7049TIP3   OH221089   7.986   1.520   0.952
 7049TIP3    H121090   7.999   1.431   0.922
 7049TIP3    H221091   8.073   1.560   0.946
 7050TIP3   OH221092   1.816   1.506   5.176
 7050TIP3    H121093   1.901   1.547   5.192
 7050TIP3    H221094   1.795   1.463   5.258
 7051TIP3   OH221095   2.124   6.178   1.345
 7051TIP3    H121096   2.043   6.141   1.310
 7051TIP3    H221097   2.095   6.236   1.416
 7052TIP3   OH221098   2.129   5.010   0.693
 7052TIP3    H121099   2.169   5.090   0.660
 7052TIP3    H221100   2.078   5.037   0.769
 7053TIP3   OH221101   5.846   5.617   2.435
 7053TIP3    H121102   5.879   5.701   2.467
 7053TIP3    H221103   5.830   5.631   2.342
 7054TIP3   OH221104   2.774   2.612   4.495
 7054TIP3    H121105   2.690   2.638   4.457
 7054TIP3    H221106   2.752   2.572   4.579
 7055TIP3   OH221107   7.947   6.922   5.697
 7055TIP3    H121108   7.887   6.850   5.676
 7055TIP3    H221109   7.889   6.995   5.721
 7056TIP3   OH221110   7.205   4.869   3.561
 7056TIP3    H121111   7.160   4.799   3.514
 7056TIP3    H221112   7.137   4.934   3.578
 7057TIP3   OH221113   5.205   3.804   3.476
 7057TIP3    H121114   5.280   3.861   3.491
 7057TIP3    H221115   5.235   3.740   3.412
 7058TIP3   OH221116   7.481   5.227   0.835
 7058TIP3    H121117   7.555   5.167   0.842
 7058TIP3    H221118   7.408   5.180   0.876
 7059TIP3   OH221119   7.025   4.664   4.605
 7059TIP3    H121120   7.089   4.667   4.534
 7059TIP3    H221121   6.969   4.739   4.591
 7060TIP3   OH221122   2.067   0.767   6.699
 7060TIP3    H121123   2.156   0.798   6.716
 7060TIP3    H221124   2.011   0.837   6.733
 7061TIP3   OH221125   4.420   0.560   2.159
 7061TIP3    H121126   4.416   0.496   2.229
 7061TIP3    H221127   4.406   0.644   2.202
 7062TIP3   OH221128   4.071   4.245   1.552
 7062TIP3    H121129   3.987   4.283   1.579
 7062TIP3    H221130   4.136   4.288   1.608
 7063TIP3   OH221131   7.118   7.875   3.084
 7063TIP3    H121132   7.072   7.943   3.036
 7063TIP3    H221133   7.171   7.831   3.018
 7064TIP3   OH221134   0.300   2.190   5.470
 7064TIP3    H121135   0.378   2.235   5.439
 7064TIP3    H221136   0.229   2.227   5.418
 7065TIP3   OH221137   7.469   0.681   1.972
 7065TIP3    H121138   7.483   0.691   2.067
 7065TIP3    H221139   7.502   0.763   1.935
 7066TIP3   OH221140   7.204   4.487   6.496
 7066TIP3    H121141   7.155   4.542   6.557
 7066TIP3    H221142   7.296   4.500   6.520
 7067TIP3   OH221143   1.842   0.179   4.336
 7067TIP3    H121144   1.752   0.209   4.323
 7067TIP3    H221145   1.861   0.126   4.258
 7068TIP3   OH221146   6.570   3.607   5.261
 7068TIP3    H121147   6.607   3.625   5.348
 7068TIP3    H221148   6.641   3.629   5.201
 7069TIP3   OH221149   4.178   5.777   3.974
 7069TIP3    H121150   4.238   5.739   3.909
 7069TIP3    H221151   4.159   5.865   3.940
 7070TIP3   OH221152   3.653   6.857   0.034
 7070TIP3    H121153   3.709   6.929   0.061
 7070TIP3    H221154   3.714   6.789   0.004
 7071TIP3   OH221155   0.731   2.941   1.368
 7071TIP3    H121156   0.820   2.964   1.394
 7071TIP3    H221157   0.718   2.985   1.284
 7072TIP3   OH221158   5.594   1.499   2.996
 7072TIP3    H121159   5.567   1.584   2.962
 7072TIP3    H221160   5.517   1.443   2.985
 7073TIP3   OH221161   4.934   0.065   0.803
 7073TIP3    H121162   4.939  -0.004   0.868
 7073TIP3    H221163   4.854   0.113   0.824
 7074TIP3   OH221164   3.948   6.571   5.943
 7074TIP3    H121165   3.937   6.666   5.951
 7074TIP3    H221166   3.992   6.545   6.024
 7075TIP3   OH221167   3.389   1.258   4.753
 7075TIP3    H121168   3.321   1.244   4.687
 7075TIP3    H221169   3.466   1.285   4.703
 7076TIP3   OH221170   4.229   3.905   4.919
 7076TIP3    H121171   4.305   3.855   4.948
 7076TIP3    H221172   4.219   3.881   4.826
 7077TIP3   OH221173   4.959   7.469   6.345
 7077TIP3    H121174   5.000   7.537   6.291
 7077TIP3    H221175   5.028   7.406   6.360
 7078TIP3   OH221176   0.505   6.781   3.618
 7078TIP3    H121177   0.435   6.742   3.670
 7078TIP3    H221178   0.490   6.749   3.529
 7079TIP3   OH221179   1.020   0.508   3.503
 7079TIP3    H121180   1.052   0.422   3.474
 7079TIP3    H221181   1.064   0.524   3.586
 7080TIP3   OH221182   0.524   5.679   5.770
 7080TIP3    H121183   0.504   5.687   5.863
 7080TIP3    H221184   0.456   5.620   5.736
 7081TIP3   OH221185   3.440   7.786   5.050
 7081TIP3    H121186   3.464   7.711   4.995
 7081TIP3    H221187   3.475   7.862   5.003
 7082TIP3   OH221188   4.080   2.559   0.624
 7082TIP3    H121189   4.056   2.529   0.537
 7082TIP3    H221190   4.127   2.486   0.663
 7083TIP3   OH221191   1.693   3.234   3.677
 7083TIP3    H121192   1.726   3.320   3.653
 7083TIP3    H221193   1.641   3.205   3.602
 7084TIP3   OH221194   2.465   5.911   1.259
 7084TIP3    H121195   2.394   5.971   1.238
 7084TIP3    H221196   2.423   5.837   1.303
 7085TIP3   OH221197   5.192   2.800   2.698
 7085TIP3    H121198   5.124   2.748   2.656
 7085TIP3    H221199   5.189   2.884   2.654
 7086TIP3   OH221200   5.927   4.425   2.892
 7086TIP3    H121201   6.007   4.463   2.857
 7086TIP3    H221202   5.951   4.392   2.978
 7087TIP3   OH221203   7.609   2.705   2.170
 7087TIP3    H121204   7.673   2.752   2.117
 7087TIP3    H221205   7.598   2.621   2.127
 7088TIP3   OH221206   6.479   1.295   4.559
 7088TIP3    H121207   6.475   1.286   4.464
 7088TIP3    H221208   6.509   1.209   4.590
 7089TIP3   OH221209   1.918   0.391   4.484
 7089TIP3    H121210   1.906   0.303   4.448
 7089TIP3    H221211   1.932   0.377   4.577
 7090TIP3   OH221212   3.161   4.548   5.056
 7090TIP3    H121213   3.118   4.625   5.094
 7090TIP3    H221214   3.160   4.564   4.961
 7091TIP3   OH221215   2.718   2.255   1.723
 7091TIP3    H121216   2.710   2.301   1.807
 7091TIP3    H221217   2.645   2.287   1.671
 7092TIP3   OH221218   7.643   1.037   4.174
 7092TIP3    H121219   7.726   0.998   4.202
 7092TIP3    H221220   7.578   1.003   4.235
 7093TIP3   OH221221   4.531   4.878   6.769
 7093TIP3    H121222   4.467   4.808   6.759
 7093TIP3    H221223   4.485   4.946   6.817
 7094TIP3   OH221224   5.934   5.726   0.278
 7094TIP3    H121225   5.904   5.683   0.198
 7094TIP3    H221226   5.939   5.656   0.343
 7095TIP3   OH221227   1.342   1.261   6.755
 7095TIP3    H121228   1.378   1.232   6.671
 7095TIP3    H221229   1.336   1.356   6.748
 7096TIP3   OH221230   1.037   2.049   5.407
 7096TIP3    H121231   1.003   2.119   5.352
 7096TIP3    H221232   0.960   2.000   5.436
 7097TIP3   OH221233   4.317   7.630   2.287
 7097TIP3    H121234   4.350   7.540   2.292
 7097TIP3    H221235   4.278   7.645   2.374
 7098TIP3   OH221236   2.175   2.521   1.959
 7098TIP3    H121237   2.208   2.432   1.949
 7098TIP3    H221238   2.254   2.575   1.970
 7099TIP3   OH221239   5.337   1.372   1.814
 7099TIP3    H121240   5.272   1.380   1.745
 7099TIP3    H221241   5.314   1.441   1.876
 7100TIP3   OH221242   0.961   5.394   4.673
 7100TIP3    H121243   0.964   5.400   4.578
 7100TIP3    H221244   1.018   5.466   4.703
 7101TIP3   OH221245   6.014   0.398   1.179
 7101TIP3    H121246   5.958   0.425   1.252
 7101TIP3    H221247   6.041   0.308   1.201
 7102TIP3   OH221248   7.275   4.392   1.036
 7102TIP3    H121249   7.195   4.437   1.008
 7102TIP3    H221250   7.288   4.421   1.127
 7103TIP3   OH221251   5.675   5.310   1.252
 7103TIP3    H121252   5.693   5.330   1.160
 7103TIP3    H221253   5.645   5.393   1.289
 7104TIP3   OH221254   6.992   7.826   4.461
 7104TIP3    H121255   7.068   7.776   4.431
 7104TIP3    H221256   6.918   7.767   4.447
 7105TIP3   OH221257   7.488   1.604   2.688
 7105TIP3    H121258   7.409   1.645   2.725
 7105TIP3    H221259   7.455   1.550   2.616
 7106TIP3   OH221260   6.495   2.180   0.038
 7106TIP3    H121261   6.434   2.144   0.101
 7106TIP3    H221262   6.566   2.116   0.033
 7107TIP3   OH221263   1.441   4.926   6.146
 7107TIP3    H121264   1.425   4.874   6.224
 7107TIP3    H221265   1.518   4.979   6.168
 7108TIP3   OH221266   4.934   7.282   6.789
 7108TIP3    H121267   4.999   7.235   6.736
 7108TIP3    H221268   4.986   7.326   6.856
 7109TIP3   OH221269   0.409   7.183   6.082
 7109TIP3    H121270   0.477   7.238   6.121
 7109TIP3    H221271   0.427   7.095   6.116
 7110TIP3   OH221272   7.939   6.511   2.850
 7110TIP3    H121273   7.920   6.564   2.927
 7110TIP3    H221274   8.015   6.458   2.875
 7111TIP3   OH221275   6.093   0.022   1.647
 7111TIP3    H121276   6.133  -0.017   1.725
 7111TIP3    H221277   6.160   0.083   1.614
 7112TIP3   OH221278   1.973   1.741   4.445
 7112TIP3    H121279   1.899   1.695   4.405
 7112TIP3    H221280   1.933   1.800   4.508
 7113TIP3   OH221281   5.183   3.019   3.576
 7113TIP3    H121282   5.168   2.967   3.496
 7113TIP3    H221283   5.223   3.100   3.544
 7114TIP3   OH221284   0.304   6.657   0.925
 7114TIP3    H121285   0.285   6.664   1.019
 7114TIP3    H221286   0.350   6.739   0.904
 7115TIP3   OH221287   7.593   4.318   0.297
 7115TIP3    H121288   7.630   4.237   0.331
 7115TIP3    H221289   7.521   4.291   0.241
 7116TIP3   OH221290   7.832   1.631   1.857
 7116TIP3    H121291   7.744   1.644   1.821
 7116TIP3    H221292   7.817   1.600   1.946
 7117TIP3   OH221293   3.144   5.085   3.074
 7117TIP3    H121294   3.101   5.045   3.149
 7117TIP3    H221295   3.118   5.032   2.999
 7118TIP3   OH221296   5.659   5.459   4.244
 7118TIP3    H121297   5.723   5.399   4.282
 7118TIP3    H221298   5.581   5.404   4.230
 7119TIP3   OH221299   1.050   5.971   4.880
 7119TIP3    H121300   1.145   5.982   4.873
 7119TIP3    H221301   1.013   6.037   4.821
 7120TIP3   OH221302   0.659   6.511   2.951
 7120TIP3    H121303   0.630   6.586   3.003
 7120TIP3    H221304   0.685   6.549   2.867
 7121TIP3   OH221305   3.695   4.198   2.690
 7121TIP3    H121306   3.631   4.229   2.626
 7121TIP3    H221307   3.772   4.176   2.637
 7122TIP3   OH221308   4.561   7.069   6.034
 7122TIP3    H121309   4.636   7.081   6.092
 7122TIP3    H221310   4.517   6.991   6.069
 7123TIP3   OH221311   6.199   1.083   0.229
 7123TIP3    H121312   6.277   1.028   0.234
 7123TIP3    H221313   6.135   1.030   0.184
 7124TIP3   OH221314   5.239   1.797   4.862
 7124TIP3    H121315   5.315   1.739   4.869
 7124TIP3    H221316   5.168   1.748   4.904
 7125TIP3   OH221317   6.971   5.839   5.513
 7125TIP3    H121318   7.004   5.910   5.568
 7125TIP3    H221319   7.042   5.776   5.511
 7126TIP3   OH221320   5.828   0.690   3.527
 7126TIP3    H121321   5.889   0.659   3.594
 7126TIP3    H221322   5.773   0.754   3.573
 7127TIP3   OH221323   4.383   1.331   5.064
 7127TIP3    H121324   4.403   1.394   5.133
 7127TIP3    H221325   4.434   1.361   4.989
 7128TIP3   OH221326   3.142   0.268   0.427
 7128TIP3    H121327   3.186   0.341   0.385
 7128TIP3    H221328   3.169   0.191   0.377
 7129TIP3   OH221329   4.383   1.831   2.101
 7129TIP3    H121330   4.350   1.894   2.165
 7129TIP3    H221331   4.477   1.851   2.094
 7130TIP3   OH221332   7.138   6.270   1.444
 7130TIP3    H121333   7.142   6.256   1.538
 7130TIP3    H221334   7.044   6.266   1.423
 7131TIP3   OH221335   1.455   4.191   3.248
 7131TIP3    H121336   1.528   4.247   3.276
 7131TIP3    H221337   1.489   4.102   3.256
 7132TIP3   OH221338   3.069   3.450   3.365
 7132TIP3    H121339   3.033   3.362   3.354
 7132TIP3    H221340   3.162   3.441   3.344
 7133TIP3   OH221341   6.782   5.526   4.478
 7133TIP3    H121342   6.746   5.583   4.410
 7133TIP3    H221343   6.853   5.478   4.433
 7134TIP3   OH221344   3.968   5.752   0.074
 7134TIP3    H121345   4.055   5.792   0.075
 7134TIP3    H221346   3.917   5.803   0.136
 7135TIP3   OH221347   4.479   6.453   5.242
 7135TIP3    H121348   4.549   6.427   5.302
 7135TIP3    H221349   4.515   6.436   5.155
 7136TIP3   OH221350   6.616   0.667   1.219
 7136TIP3    H121351   6.596   0.674   1.125
 7136TIP3    H221352   6.532   0.683   1.262
 7137TIP3   OH221353   2.286   5.057   5.778
 7137TIP3    H121354   2.205   5.039   5.731
 7137TIP3    H221355   2.312   4.972   5.814
 7138TIP3   OH221356   3.270   3.980   5.610
 7138TIP3    H121357   3.244   4.035   5.536
 7138TIP3    H221358   3.365   3.969   5.598
 7139TIP3   OH221359   4.184   6.524   5.025
 7139TIP3    H121360   4.246   6.568   4.968
 7139TIP3    H221361   4.186   6.573   5.107
 7140TIP3   OH221362   4.909   4.997   3.747
 7140TIP3    H121363   4.913   5.025   3.656
 7140TIP3    H221364   4.900   4.901   3.742
 7141TIP3   OH221365   6.895   6.079   2.709
 7141TIP3    H121366   6.874   6.111   2.621
 7141TIP3    H221367   6.911   6.158   2.761
 7142TIP3   OH221368   4.288   2.570   2.718
 7142TIP3    H121369   4.339   2.507   2.770
 7142TIP3    H221370   4.350   2.640   2.698
 7143TIP3   OH221371   1.418   0.964   4.313
 7143TIP3    H121372   1.445   0.896   4.251
 7143TIP3    H221373   1.430   0.924   4.399
 7144TIP3   OH221374   0.758   4.430   1.591
 7144TIP3    H121375   0.733   4.505   1.645
 7144TIP3    H221376   0.728   4.354   1.641
 7145TIP3   OH221377   6.879   6.400   2.275
 7145TIP3    H121378   6.947   6.455   2.235
 7145TIP3    H221379   6.841   6.456   2.343
 7146TIP3   OH221380   1.703   4.619   0.268
 7146TIP3    H121381   1.793   4.647   0.257
 7146TIP3    H221382   1.696   4.539   0.215
 7147TIP3   OH221383   0.449   1.882   0.248
 7147TIP3    H121384   0.532   1.918   0.280
 7147TIP3    H221385   0.392   1.959   0.239
 7148TIP3   OH221386   4.727   7.286   1.701
 7148TIP3    H121387   4.662   7.227   1.740
 7148TIP3    H221388   4.677   7.364   1.676
 7149TIP3   OH221389   3.850   5.933   2.985
 7149TIP3    H121390   3.776   5.989   2.962
 7149TIP3    H221391   3.918   5.956   2.922
 7150TIP3   OH221392   4.755   5.376   0.163
 7150TIP3    H121393   4.801   5.432   0.225
 7150TIP3    H221394   4.760   5.423   0.080
 7151TIP3   OH221395   6.509   7.339   1.028
 7151TIP3    H121396   6.514   7.288   0.947
 7151TIP3    H221397   6.600   7.360   1.048
 7152TIP3   OH221398   4.921   5.898   1.563
 7152TIP3    H121399   4.906   5.962   1.493
 7152TIP3    H221400   4.968   5.947   1.631
 7153TIP3   OH221401   7.637   7.045   3.435
 7153TIP3    H121402   7.680   7.115   3.385
 7153TIP3    H221403   7.659   6.965   3.387
 7154TIP3   OH221404   1.358   6.669   6.293
 7154TIP3    H121405   1.351   6.623   6.209
 7154TIP3    H221406   1.278   6.721   6.298
 7155TIP3   OH221407   2.320   4.385   3.082
 7155TIP3    H121408   2.264   4.431   3.020
 7155TIP3    H221409   2.408   4.394   3.046
 7156TIP3   OH221410   6.920   7.152   6.534
 7156TIP3    H121411   6.899   7.124   6.623
 7156TIP3    H221412   7.014   7.135   6.526
 7157TIP3   OH221413   0.615   6.965   1.422
 7157TIP3    H121414   0.656   7.043   1.384
 7157TIP3    H221415   0.682   6.897   1.415
 7158TIP3   OH221416   3.505   1.096   5.220
 7158TIP3    H121417   3.543   1.127   5.302
 7158TIP3    H221418   3.497   1.002   5.231
 7159TIP3   OH221419   6.240   3.450   3.828
 7159TIP3    H121420   6.238   3.473   3.921
 7159TIP3    H221421   6.181   3.513   3.786
 7160TIP3   OH221422   0.185   2.461   3.783
 7160TIP3    H121423   0.270   2.445   3.743
 7160TIP3    H221424   0.200   2.534   3.843
 7161TIP3   OH221425   1.397   7.639   3.800
 7161TIP3    H121426   1.448   7.639   3.719
 7161TIP3    H221427   1.311   7.671   3.773
 7162TIP3   OH221428   7.336   4.909   5.834
 7162TIP3    H121429   7.307   4.945   5.918
 7162TIP3    H221430   7.417   4.955   5.815
 7163TIP3   OH221431   3.304   5.062   5.942
 7163TIP3    H121432   3.340   5.031   6.025
 7163TIP3    H221433   3.211   5.074   5.959
 7164TIP3   OH221434   1.271   2.792   6.150
 7164TIP3    H121435   1.312   2.705   6.143
 7164TIP3    H221436   1.291   2.836   6.068
 7165TIP3   OH221437   7.229   7.701   2.070
 7165TIP3    H121438   7.192   7.781   2.108
 7165TIP3    H221439   7.312   7.689   2.116
 7166TIP3   OH221440   6.909   7.478   5.688
 7166TIP3    H121441   6.896   7.504   5.779
 7166TIP3    H221442   6.847   7.406   5.675
 7167TIP3   OH221443   6.184   3.870   1.959
 7167TIP3    H121444   6.099   3.860   2.002
 7167TIP3    H221445   6.189   3.964   1.939
 7168TIP3   OH221446   0.479   3.864   4.981
 7168TIP3    H121447   0.556   3.904   4.939
 7168TIP3    H221448   0.434   3.938   5.022
 7169TIP3   OH221449   2.728   1.822   1.646
 7169TIP3    H121450   2.754   1.760   1.578
 7169TIP3    H221451   2.664   1.879   1.604
 7170TIP3   OH221452   2.213   6.416   5.784
 7170TIP3    H121453   2.264   6.495   5.799
 7170TIP3    H221454   2.265   6.364   5.723
 7171TIP3   OH221455   0.722   4.044   1.541
 7171TIP3    H121456   0.687   3.957   1.523
 7171TIP3    H221457   0.685   4.068   1.626
 7172TIP3   OH221458   6.805   0.142   2.873
 7172TIP3    H121459   6.722   0.120   2.915
 7172TIP3    H221460   6.797   0.235   2.850
 7173TIP3   OH221461   4.359   3.494   3.377
 7173TIP3    H121462   4.410   3.444   3.440
 7173TIP3    H221463   4.316   3.429   3.322
 7174TIP3   OH221464   4.477   3.829   4.617
 7174TIP3    H121465   4.402   3.872   4.577
 7174TIP3    H221466   4.548   3.893   4.608
 7175TIP3   OH221467   8.236   2.049   1.459
 7175TIP3    H121468   8.160   2.020   1.409
 7175TIP3    H221469   8.206   2.048   1.550
 7176TIP3   OH221470   1.803   2.881   1.618
 7176TIP3    H121471   1.726   2.870   1.561
 7176TIP3    H221472   1.773   2.850   1.704
 7177TIP3   OH221473   1.995   2.738   6.705
 7177TIP3    H121474   2.025   2.777   6.623
 7177TIP3    H221475   2.027   2.796   6.774
 7178TIP3   OH221476   1.862   6.109   1.198
 7178TIP3    H121477   1.893   6.038   1.253
 7178TIP3    H221478   1.847   6.069   1.112
 7179TIP3   OH221479   0.064   1.875   3.849
 7179TIP3    H121480   0.058   1.968   3.828
 7179TIP3    H221481   0.157   1.860   3.868
 7180TIP3   OH221482   1.807   5.238   1.398
 7180TIP3    H121483   1.821   5.148   1.428
 7180TIP3    H221484   1.837   5.237   1.307
 7181TIP3   OH221485   0.403   2.332   2.670
 7181TIP3    H121486   0.436   2.418   2.694
 7181TIP3    H221487   0.318   2.350   2.628
 7182TIP3   OH221488   7.673   3.834   1.542
 7182TIP3    H121489   7.700   3.825   1.451
 7182TIP3    H221490   7.581   3.808   1.543
 7183TIP3   OH221491   6.467   3.282   3.922
 7183TIP3    H121492   6.509   3.354   3.969
 7183TIP3    H221493   6.401   3.324   3.868
 7184TIP3   OH221494   3.862   4.091   1.361
 7184TIP3    H121495   3.932   4.152   1.382
 7184TIP3    H221496   3.888   4.052   1.277
 7185TIP3   OH221497   7.608   7.528   1.834
 7185TIP3    H121498   7.674   7.482   1.782
 7185TIP3    H221499   7.642   7.524   1.924
 7186TIP3   OH221500   5.791   0.192   6.588
 7186TIP3    H121501   5.724   0.211   6.523
 7186TIP3    H221502   5.767   0.105   6.621
 7187TIP3   OH221503   5.334   4.859   0.976
 7187TIP3    H121504   5.395   4.890   1.042
 7187TIP3    H221505   5.291   4.939   0.943
 7188TIP3   OH221506   6.028   2.240   2.510
 7188TIP3    H121507   5.954   2.227   2.569
 7188TIP3    H221508   6.020   2.332   2.483
 7189TIP3   OH221509   6.843   1.413   1.493
 7189TIP3    H121510   6.904   1.347   1.526
 7189TIP3    H221511   6.838   1.397   1.399
 7190TIP3   OH221512   6.747   6.808   2.921
 7190TIP3    H121513   6.684   6.874   2.951
 7190TIP3    H221514   6.695   6.746   2.869
 7191TIP3   OH221515   5.494   2.678   6.025
 7191TIP3    H121516   5.444   2.629   5.960
 7191TIP3    H221517   5.558   2.615   6.059
 7192TIP3   OH221518   2.770   2.451   4.749
 7192TIP3    H121519   2.695   2.392   4.748
 7192TIP3    H221520   2.838   2.403   4.797
 7193TIP3   OH221521   4.678   2.551   3.327
 7193TIP3    H121522   4.693   2.646   3.323
 7193TIP3    H221523   4.635   2.530   3.245
 7194TIP3   OH221524   8.187   5.708   6.413
 7194TIP3    H121525   8.103   5.750   6.434
 7194TIP3    H221526   8.244   5.781   6.386
 7195TIP3   OH221527   7.556   2.902   0.611
 7195TIP3    H121528   7.629   2.961   0.629
 7195TIP3    H221529   7.597   2.820   0.583
 7196TIP3   OH221530   6.383   4.889   0.985
 7196TIP3    H121531   6.332   4.821   1.029
 7196TIP3    H221532   6.378   4.866   0.892
 7197TIP3   OH221533   7.233   4.508   0.747
 7197TIP3    H121534   7.202   4.597   0.763
 7197TIP3    H221535   7.324   4.509   0.777
 7198TIP3   OH221536   2.835   3.104   1.801
 7198TIP3    H121537   2.913   3.139   1.757
 7198TIP3    H221538   2.869   3.059   1.878
 7199TIP3   OH221539   6.408   0.032   3.320
 7199TIP3    H121540   6.373  -0.001   3.402
 7199TIP3    H221541   6.494  -0.011   3.311
 7200TIP3   OH221542   4.757   6.340   4.449
 7200TIP3    H121543   4.816   6.267   4.470
 7200TIP3    H221544   4.676   6.318   4.494
 7201TIP3   OH221545   2.814   7.638   4.622
 7201TIP3    H121546   2.722   7.629   4.598
 7201TIP3    H221547   2.849   7.702   4.560
 7202TIP3   OH221548   5.639   1.317   1.500
 7202TIP3    H121549   5.543   1.312   1.497
 7202TIP3    H221550   5.661   1.300   1.592
 7203TIP3   OH221551   7.099   3.140   2.192
 7203TIP3    H121552   7.006   3.122   2.205
 7203TIP3    H221553   7.123   3.092   2.113
 7204TIP3   OH221554   3.958   5.819   2.221
 7204TIP3    H121555   3.882   5.761   2.225
 7204TIP3    H221556   3.923   5.906   2.242
 7205TIP3   OH221557   3.292   4.219   1.248
 7205TIP3    H121558   3.222   4.155   1.257
 7205TIP3    H221559   3.373   4.169   1.260
 7206TIP3   OH221560   2.923   2.530   5.844
 7206TIP3    H121561   3.002   2.498   5.887
 7206TIP3    H221562   2.947   2.617   5.811
 7207TIP3   OH221563   3.662   1.277   0.109
 7207TIP3    H121564   3.678   1.331   0.187
 7207TIP3    H221565   3.717   1.316   0.041
 7208TIP3   OH221566   1.653   6.442   6.594
 7208TIP3    H121567   1.670   6.520   6.646
 7208TIP3    H221568   1.636   6.373   6.659
 7209TIP3   OH221569   2.621   4.408   0.903
 7209TIP3    H121570   2.589   4.447   0.984
 7209TIP3    H221571   2.594   4.469   0.834
 7210TIP3   OH221572   3.443   1.874   4.716
 7210TIP3    H121573   3.373   1.928   4.753
 7210TIP3    H221574   3.408   1.785   4.717
 7211TIP3   OH221575   3.346   5.314   6.366
 7211TIP3    H121576   3.344   5.381   6.434
 7211TIP3    H221577   3.254   5.292   6.351
 7212TIP3   OH221578   4.501   7.688   1.827
 7212TIP3    H121579   4.538   7.693   1.916
 7212TIP3    H221580   4.461   7.601   1.823
 7213TIP3   OH221581   5.152   5.806   0.864
 7213TIP3    H121582   5.243   5.780   0.848
 7213TIP3    H221583   5.101   5.732   0.831
 7214TIP3   OH221584   6.344   2.819   5.081
 7214TIP3    H121585   6.302   2.765   5.014
 7214TIP3    H221586   6.377   2.757   5.145
 7215TIP3   OH221587   0.790   0.232   0.667
 7215TIP3    H121588   0.803   0.154   0.722
 7215TIP3    H221589   0.735   0.289   0.720
 7216TIP3   OH221590   2.046   6.289   4.862
 7216TIP3    H121591   2.086   6.222   4.918
 7216TIP3    H221592   1.993   6.239   4.800
 7217TIP3   OH221593   3.763   6.905   6.084
 7217TIP3    H121594   3.778   6.970   6.015
 7217TIP3    H221595   3.725   6.955   6.156
 7218TIP3   OH221596   2.304   1.464   5.229
 7218TIP3    H121597   2.213   1.493   5.238
 7218TIP3    H221598   2.336   1.508   5.151
 7219TIP3   OH221599   2.442   6.947   4.423
 7219TIP3    H121600   2.531   6.982   4.417
 7219TIP3    H221601   2.396   7.009   4.480
 7220TIP3   OH221602   1.785   6.186   6.102
 7220TIP3    H121603   1.778   6.214   6.193
 7220TIP3    H221604   1.836   6.254   6.059
 7221TIP3   OH221605   6.261   6.483   0.901
 7221TIP3    H121606   6.333   6.544   0.917
 7221TIP3    H221607   6.302   6.410   0.853
 7222TIP3   OH221608   3.728   2.107   4.081
 7222TIP3    H121609   3.702   2.068   4.164
 7222TIP3    H221610   3.678   2.189   4.076
 7223TIP3   OH221611   5.438   0.167   3.055
 7223TIP3    H121612   5.440   0.217   2.974
 7223TIP3    H221613   5.498   0.094   3.040
 7224TIP3   OH221614   2.164   7.034   6.667
 7224TIP3    H121615   2.234   7.050   6.604
 7224TIP3    H221616   2.125   7.120   6.683
 7225TIP3   OH221617   8.049   1.499   6.002
 7225TIP3    H121618   8.097   1.446   6.067
 7225TIP3    H221619   8.002   1.435   5.949
 7226TIP3   OH221620   6.504   2.451   3.761
 7226TIP3    H121621   6.573   2.507   3.795
 7226TIP3    H221622   6.545   2.406   3.686
 7227TIP3   OH221623   1.152   6.856   6.282
 7227TIP3    H121624   1.081   6.863   6.345
 7227TIP3    H221625   1.110   6.821   6.203
 7228TIP3   OH221626   7.595   4.498   6.355
 7228TIP3    H121627   7.521   4.555   6.332
 7228TIP3    H221628   7.667   4.529   6.300
 7229TIP3   OH221629   1.570   6.450   2.105
 7229TIP3    H121630   1.537   6.498   2.029
 7229TIP3    H221631   1.604   6.518   2.163
 7230TIP3   OH221632   3.329   2.340   6.560
 7230TIP3    H121633   3.342   2.247   6.545
 7230TIP3    H221634   3.402   2.366   6.616
 7231TIP3   OH221635   1.631   1.399   1.612
 7231TIP3    H121636   1.637   1.305   1.632
 7231TIP3    H221637   1.684   1.411   1.534
 7232TIP3   OH221638   0.421   0.464   1.382
 7232TIP3    H121639   0.374   0.381   1.378
 7232TIP3    H221640   0.404   0.497   1.470
 7233TIP3   OH221641   4.459   1.302   0.608
 7233TIP3    H121642   4.500   1.338   0.529
 7233TIP3    H221643   4.407   1.373   0.643
 7234TIP3   OH221644   4.911   1.721   0.129
 7234TIP3    H121645   4.876   1.632   0.134
 7234TIP3    H221646   4.983   1.722   0.192
 7235TIP3   OH221647   1.937   3.537   5.889
 7235TIP3    H121648   1.921   3.552   5.796
 7235TIP3    H221649   1.850   3.541   5.929
 7236TIP3   OH221650   4.920   2.331   6.493
 7236TIP3    H121651   4.827   2.323   6.471
 7236TIP3    H221652   4.939   2.255   6.548
 7237TIP3   OH221653   2.005   5.900   3.463
 7237TIP3    H121654   2.063   5.834   3.424
 7237TIP3    H221655   2.043   5.983   3.436
 7238TIP3   OH221656   4.433   2.386   6.317
 7238TIP3    H121657   4.521   2.357   6.294
 7238TIP3    H221658   4.403   2.436   6.240
 7239TIP3   OH221659   5.680   7.496   6.702
 7239TIP3    H121660   5.678   7.474   6.795
 7239TIP3    H221661   5.589   7.485   6.673
 7240TIP3   OH221662   4.590   2.745   4.893
 7240TIP3    H121663   4.650   2.800   4.842
 7240TIP3    H221664   4.647   2.690   4.946
 7241TIP3   OH221665   5.392   7.745   2.407
 7241TIP3    H121666   5.393   7.659   2.366
 7241TIP3    H221667   5.323   7.740   2.472
 7242TIP3   OH221668   5.313   2.948   5.708
 7242TIP3    H121669   5.315   2.907   5.795
 7242TIP3    H221670   5.370   3.025   5.717
 7243TIP3   OH221671   1.377   1.917   2.894
 7243TIP3    H121672   1.396   1.823   2.884
 7243TIP3    H221673   1.357   1.928   2.987
 7244TIP3   OH221674   1.894   1.298   1.806
 7244TIP3    H121675   1.857   1.237   1.742
 7244TIP3    H221676   1.847   1.280   1.887
 7245TIP3   OH221677   2.117   6.364   5.270
 7245TIP3    H121678   2.089   6.453   5.246
 7245TIP3    H221679   2.196   6.349   5.219
 7246TIP3   OH221680   0.648   1.181   4.941
 7246TIP3    H121681   0.587   1.250   4.917
 7246TIP3    H221682   0.733   1.211   4.908
 7247TIP3   OH221683   6.331   1.920   4.699
 7247TIP3    H121684   6.290   1.978   4.763
 7247TIP3    H221685   6.287   1.939   4.616
 7248TIP3   OH221686   3.344   5.734   3.208
 7248TIP3    H121687   3.279   5.673   3.244
 7248TIP3    H221688   3.366   5.697   3.123
 7249TIP3   OH221689   5.698   6.615   3.701
 7249TIP3    H121690   5.727   6.624   3.792
 7249TIP3    H221691   5.616   6.665   3.697
 7250TIP3   OH221692   3.881   6.204   5.256
 7250TIP3    H121693   3.961   6.222   5.206
 7250TIP3    H221694   3.872   6.281   5.313
 7251TIP3   OH221695   5.131   7.110   5.821
 7251TIP3    H121696   5.144   7.187   5.876
 7251TIP3    H221697   5.139   7.142   5.732
 7252TIP3   OH221698   7.514   6.679   5.677
 7252TIP3    H121699   7.473   6.728   5.749
 7252TIP3    H221700   7.463   6.598   5.672
 7253TIP3   OH221701   0.573   4.626   2.102
 7253TIP3    H121702   0.562   4.561   2.032
 7253TIP3    H221703   0.492   4.620   2.153
 7254TIP3   OH221704   0.902   0.424   2.092
 7254TIP3    H121705   0.835   0.445   2.157
 7254TIP3    H221706   0.985   0.428   2.140
 7255TIP3   OH221707   7.782   0.404   4.684
 7255TIP3    H121708   7.853   0.402   4.620
 7255TIP3    H221709   7.707   0.437   4.635
 7256TIP3   OH221710   3.998   2.757   1.182
 7256TIP3    H121711   4.030   2.745   1.272
 7256TIP3    H221712   3.995   2.852   1.171
 7257TIP3   OH221713   4.830   7.442   4.047
 7257TIP3    H121714   4.744   7.471   4.078
 7257TIP3    H221715   4.893   7.484   4.106
 7258TIP3   OH221716   1.635   6.299   2.882
 7258TIP3    H121717   1.568   6.327   2.943
 7258TIP3    H221718   1.662   6.213   2.913
 7259TIP3   OH221719   3.728   4.185   3.336
 7259TIP3    H121720   3.756   4.259   3.390
 7259TIP3    H221721   3.792   4.182   3.265
 7260TIP3   OH221722   5.634   7.805   6.239
 7260TIP3    H121723   5.554   7.846   6.206
 7260TIP3    H221724   5.701   7.872   6.226
 7261TIP3   OH221725   6.301   2.920   4.597
 7261TIP3    H121726   6.276   2.962   4.515
 7261TIP3    H221727   6.371   2.976   4.631
 7262TIP3   OH221728   0.571   0.703   6.479
 7262TIP3    H121729   0.573   0.695   6.575
 7262TIP3    H221730   0.478   0.709   6.457
 7263TIP3   OH221731   5.090   6.787   6.170
 7263TIP3    H121732   5.030   6.841   6.119
 7263TIP3    H221733   5.128   6.726   6.107
 7264TIP3   OH221734   1.392   6.676   5.452
 7264TIP3    H121735   1.485   6.651   5.450
 7264TIP3    H221736   1.360   6.654   5.364
 7265TIP3   OH221737   6.849   6.958   3.197
 7265TIP3    H121738   6.791   6.889   3.164
 7265TIP3    H221739   6.932   6.944   3.150
 7266TIP3   OH221740   1.274   1.436   5.832
 7266TIP3    H121741   1.235   1.353   5.805
 7266TIP3    H221742   1.287   1.427   5.926
 7267TIP3   OH221743   0.521   6.351   0.536
 7267TIP3    H121744   0.609   6.349   0.576
 7267TIP3    H221745   0.469   6.292   0.590
 7268TIP3   OH221746   5.271   6.891   4.623
 7268TIP3    H121747   5.277   6.819   4.686
 7268TIP3    H221748   5.285   6.970   4.674
 7269TIP3   OH221749   3.310   6.849   0.561
 7269TIP3    H121750   3.359   6.931   0.550
 7269TIP3    H221751   3.349   6.788   0.499
 7270TIP3   OH221752   0.025   6.879   6.564
 7270TIP3    H121753  -0.063   6.913   6.549
 7270TIP3    H221754   0.057   6.853   6.478
 7271TIP3   OH221755   6.282   7.615   1.545
 7271TIP3    H121756   6.222   7.555   1.500
 7271TIP3    H221757   6.321   7.563   1.615
 7272TIP3   OH221758   6.737   4.036   1.491
 7272TIP3    H121759   6.659   4.013   1.541
 7272TIP3    H221760   6.808   3.988   1.533
 7273TIP3   OH221761   7.707   5.145   1.031
 7273TIP3    H121762   7.682   5.053   1.040
 7273TIP3    H221763   7.708   5.178   1.121
 7274TIP3   OH221764   0.586   4.103   0.072
 7274TIP3    H121765   0.641   4.120   0.148
 7274TIP3    H221766   0.579   4.007   0.069
 7275TIP3   OH221767   2.685   0.367   4.527
 7275TIP3    H121768   2.637   0.444   4.557
 7275TIP3    H221769   2.760   0.362   4.586
 7276TIP3   OH221770   7.059   4.325   1.672
 7276TIP3    H121771   6.974   4.353   1.638
 7276TIP3    H221772   7.039   4.258   1.738
 7277TIP3   OH221773   7.118   6.191   5.548
 7277TIP3    H121774   7.106   6.209   5.455
 7277TIP3    H221775   7.146   6.274   5.586
 7278TIP3   OH221776   6.807   3.434   2.464
 7278TIP3    H121777   6.734   3.432   2.525
 7278TIP3    H221778   6.869   3.496   2.502
 7279TIP3   OH221779   5.171   1.569   1.258
 7279TIP3    H121780   5.264   1.591   1.249
 7279TIP3    H221781   5.160   1.549   1.351
 7280TIP3   OH221782   7.950   1.226   4.289
 7280TIP3    H121783   8.033   1.235   4.241
 7280TIP3    H221784   7.921   1.137   4.270
 7281TIP3   OH221785   0.076   3.495   6.275
 7281TIP3    H121786   0.074   3.446   6.357
 7281TIP3    H221787   0.092   3.429   6.207
 7282TIP3   OH221788   2.543   5.033   4.162
 7282TIP3    H121789   2.591   4.952   4.149
 7282TIP3    H221790   2.471   5.010   4.220
 7283TIP3   OH221791   1.216   0.547   0.070
 7283TIP3    H121792   1.139   0.513   0.025
 7283TIP3    H221793   1.195   0.541   0.163
 7284TIP3   OH221794   2.693   6.775   4.808
 7284TIP3    H121795   2.639   6.697   4.794
 7284TIP3    H221796   2.630   6.846   4.818
 7285TIP3   OH221797   4.664   2.370   2.875
 7285TIP3    H121798   4.726   2.430   2.835
 7285TIP3    H221799   4.717   2.293   2.898
 7286TIP3   OH221800   6.751   1.092   4.352
 7286TIP3    H121801   6.811   1.022   4.327
 7286TIP3    H221802   6.793   1.135   4.426
 7287TIP3   OH221803   2.425   4.643   1.022
 7287TIP3    H121804   2.398   4.721   0.973
 7287TIP3    H221805   2.466   4.679   1.101
 7288TIP3   OH221806   7.308   0.169   0.763
 7288TIP3    H121807   7.241   0.118   0.718
 7288TIP3    H221808   7.290   0.155   0.856
 7289TIP3   OH221809   8.298   6.322   0.273
 7289TIP3    H121810   8.202   6.327   0.268
 7289TIP3    H221811   8.323   6.270   0.198
 7290TIP3   OH221812   3.990   0.605   5.430
 7290TIP3    H121813   4.015   0.653   5.509
 7290TIP3    H221814   4.045   0.526   5.432
 7291TIP3   OH221815   0.107   6.898   0.125
 7291TIP3    H121816   0.021   6.939   0.138
 7291TIP3    H221817   0.151   6.906   0.209
 7292TIP3   OH221818   7.467   5.770   1.002
 7292TIP3    H121819   7.392   5.765   1.062
 7292TIP3    H221820   7.493   5.862   1.003
 7293TIP3   OH221821   4.698   7.504   3.608
 7293TIP3    H121822   4.610   7.485   3.574
 7293TIP3    H221823   4.735   7.418   3.628
 7294TIP3   OH221824   1.468   2.533   6.342
 7294TIP3    H121825   1.415   2.494   6.411
 7294TIP3    H221826   1.509   2.459   6.297
 7295TIP3   OH221827   3.345   7.022   5.841
 7295TIP3    H121828   3.287   7.056   5.773
 7295TIP3    H221829   3.316   6.932   5.855
 7296TIP3   OH221830   0.650   0.721   4.557
 7296TIP3    H121831   0.595   0.667   4.502
 7296TIP3    H221832   0.639   0.810   4.523
 7297TIP3   OH221833   4.681   1.495   1.462
 7297TIP3    H121834   4.603   1.450   1.493
 7297TIP3    H221835   4.731   1.514   1.541
 7298TIP3   OH221836   3.560   0.263   0.883
 7298TIP3    H121837   3.643   0.214   0.887
 7298TIP3    H221838   3.582   0.349   0.916
 7299TIP3   OH221839   6.646   6.749   3.662
 7299TIP3    H121840   6.711   6.711   3.721
 7299TIP3    H221841   6.696   6.771   3.583
 7300TIP3   OH221842   3.192   0.192   5.828
 7300TIP3    H121843   3.238   0.239   5.897
 7300TIP3    H221844   3.258   0.179   5.760
 7301TIP3   OH221845   0.879   0.013   0.826
 7301TIP3    H121846   0.931   0.067   0.886
 7301TIP3    H221847   0.868  -0.070   0.872
 7302TIP3   OH221848   0.385   3.588   0.957
 7302TIP3    H121849   0.371   3.612   0.865
 7302TIP3    H221850   0.472   3.622   0.977
 7303TIP3   OH221851   4.119   2.747   1.447
 7303TIP3    H121852   4.152   2.836   1.453
 7303TIP3    H221853   4.195   2.692   1.468
 7304TIP3   OH221854   5.184   4.740   4.304
 7304TIP3    H121855   5.120   4.672   4.325
 7304TIP3    H221856   5.268   4.695   4.304
 7305TIP3   OH221857   4.828   6.805   0.854
 7305TIP3    H121858   4.756   6.748   0.828
 7305TIP3    H221859   4.831   6.872   0.786
 7306TIP3   OH221860   6.986   0.668   4.686
 7306TIP3    H121861   6.915   0.638   4.629
 7306TIP3    H221862   6.977   0.764   4.687
 7307TIP3   OH221863   4.641   6.892   2.034
 7307TIP3    H121864   4.637   6.853   2.121
 7307TIP3    H221865   4.551   6.922   2.017
 7308TIP3   OH221866   1.040   3.861   4.708
 7308TIP3    H121867   0.949   3.890   4.711
 7308TIP3    H221868   1.040   3.777   4.753
 7309TIP3   OH221869   6.650   3.679   3.628
 7309TIP3    H121870   6.713   3.619   3.586
 7309TIP3    H221871   6.572   3.625   3.642
 7310TIP3   OH221872   2.579   5.873   5.720
 7310TIP3    H121873   2.538   5.933   5.657
 7310TIP3    H221874   2.575   5.919   5.803
 7311TIP3   OH221875   4.509   2.669   3.929
 7311TIP3    H121876   4.597   2.666   3.967
 7311TIP3    H221877   4.493   2.580   3.898
 7312TIP3   OH221878   6.633   2.246   0.542
 7312TIP3    H121879   6.636   2.338   0.567
 7312TIP3    H221880   6.722   2.214   0.559
 7313TIP3   OH221881   7.616   1.859   0.739
 7313TIP3    H121882   7.606   1.872   0.644
 7313TIP3    H221883   7.699   1.813   0.749
 7314TIP3   OH221884   8.227   2.548   2.019
 7314TIP3    H121885   8.273   2.583   1.942
 7314TIP3    H221886   8.142   2.520   1.985
 7315TIP3   OH221887   7.173   5.579   4.247
 7315TIP3    H121888   7.101   5.517   4.255
 7315TIP3    H221889   7.251   5.524   4.239
 7316TIP3   OH221890   3.640   4.250   4.322
 7316TIP3    H121891   3.621   4.211   4.407
 7316TIP3    H221892   3.721   4.207   4.294
 7317TIP3   OH221893   3.106   4.720   2.907
 7317TIP3    H121894   3.045   4.734   2.835
 7317TIP3    H221895   3.186   4.688   2.865
 7318TIP3   OH221896   6.978   1.434   2.829
 7318TIP3    H121897   7.003   1.342   2.817
 7318TIP3    H221898   6.901   1.445   2.774
 7319TIP3   OH221899   2.972   5.817   2.777
 7319TIP3    H121900   2.966   5.742   2.718
 7319TIP3    H221901   2.897   5.808   2.836
 7320TIP3   OH221902   1.348   2.258   4.696
 7320TIP3    H121903   1.405   2.332   4.674
 7320TIP3    H221904   1.289   2.251   4.621
 7321TIP3   OH221905   7.374  -0.075   6.000
 7321TIP3    H121906   7.420  -0.041   6.076
 7321TIP3    H221907   7.284  -0.044   6.010
 7322TIP3   OH221908   8.262   0.401   2.699
 7322TIP3    H121909   8.205   0.382   2.625
 7322TIP3    H221910   8.332   0.455   2.663
 7323TIP3   OH221911   0.553   6.143   0.142
 7323TIP3    H121912   0.573   6.065   0.193
 7323TIP3    H221913   0.496   6.112   0.072
 7324TIP3   OH221914   1.949   2.700   0.889
 7324TIP3    H121915   2.033   2.745   0.901
 7324TIP3    H221916   1.930   2.712   0.796
 7325TIP3   OH221917   5.463   0.506   1.903
 7325TIP3    H121918   5.386   0.519   1.959
 7325TIP3    H221919   5.532   0.559   1.944
 7326TIP3   OH221920   6.568   0.516   6.295
 7326TIP3    H121921   6.634   0.454   6.326
 7326TIP3    H221922   6.532   0.555   6.374
 7327TIP3   OH221923   0.819   5.299   6.102
 7327TIP3    H121924   0.903   5.275   6.140
 7327TIP3    H221925   0.840   5.330   6.014
 7328TIP3   OH221926   8.289   4.242   1.986
 7328TIP3    H121927   8.210   4.187   1.989
 7328TIP3    H221928   8.332   4.227   2.070
 7329TIP3   OH221929   0.985   7.326   5.925
 7329TIP3    H121930   1.020   7.415   5.933
 7329TIP3    H221931   1.014   7.297   5.839
 7330TIP3   OH221932   3.369   2.549   3.607
 7330TIP3    H121933   3.352   2.586   3.694
 7330TIP3    H221934   3.398   2.460   3.625
 7331TIP3   OH221935   6.620   6.658   5.408
 7331TIP3    H121936   6.618   6.724   5.477
 7331TIP3    H221937   6.581   6.581   5.448
 7332TIP3   OH221938   8.175   1.108   3.667
 7332TIP3    H121939   8.165   1.031   3.724
 7332TIP3    H221940   8.125   1.087   3.589
 7333TIP3   OH221941   5.709   3.738   1.017
 7333TIP3    H121942   5.719   3.783   1.101
 7333TIP3    H221943   5.709   3.808   0.952
 7334TIP3   OH221944   3.584   4.134   1.306
 7334TIP3    H121945   3.583   4.196   1.233
 7334TIP3    H221946   3.674   4.104   1.311
 7335TIP3   OH221947   4.776   3.708   4.516
 7335TIP3    H121948   4.777   3.800   4.541
 7335TIP3    H221949   4.860   3.694   4.471
 7336TIP3   OH221950   8.001   7.681   4.634
 7336TIP3    H121951   8.079   7.729   4.605
 7336TIP3    H221952   8.004   7.599   4.586
 7337TIP3   OH221953   1.817   4.386   1.439
 7337TIP3    H121954   1.887   4.441   1.405
 7337TIP3    H221955   1.821   4.307   1.385
 7338TIP3   OH221956   4.452   2.415   3.859
 7338TIP3    H121957   4.467   2.373   3.943
 7338TIP3    H221958   4.494   2.358   3.795
 7339TIP3   OH221959   0.106   1.036   3.102
 7339TIP3    H121960   0.147   0.996   3.179
 7339TIP3    H221961   0.177   1.040   3.038
 7340TIP3   OH221962   6.401   4.026   3.905
 7340TIP3    H121963   6.439   4.015   3.992
 7340TIP3    H221964   6.477   4.039   3.847
 7341TIP3   OH221965   6.032   4.428   3.165
 7341TIP3    H121966   6.115   4.399   3.127
 7341TIP3    H221967   5.992   4.348   3.198
 7342TIP3   OH221968   3.485   5.270   5.913
 7342TIP3    H121969   3.564   5.262   5.966
 7342TIP3    H221970   3.447   5.182   5.914
 7343TIP3   OH221971   2.462   3.050   1.535
 7343TIP3    H121972   2.523   3.014   1.599
 7343TIP3    H221973   2.437   3.136   1.570
 7344TIP3   OH221974   4.015   0.547   0.939
 7344TIP3    H121975   4.104   0.525   0.909
 7344TIP3    H221976   3.969   0.463   0.941
 7345TIP3   OH221977   4.017   1.465   4.745
 7345TIP3    H121978   4.077   1.394   4.722
 7345TIP3    H221979   3.952   1.423   4.802
 7346TIP3   OH221980   2.378   1.091   5.647
 7346TIP3    H121981   2.377   1.165   5.708
 7346TIP3    H221982   2.309   1.112   5.584
 7347TIP3   OH221983   6.603   0.954   0.210
 7347TIP3    H121984   6.617   0.860   0.220
 7347TIP3    H221985   6.603   0.969   0.116
 7348TIP3   OH221986   4.213   4.865   0.843
 7348TIP3    H121987   4.290   4.898   0.797
 7348TIP3    H221988   4.147   4.856   0.775
 7349TIP3   OH221989   1.228   6.841   2.486
 7349TIP3    H121990   1.260   6.889   2.409
 7349TIP3    H221991   1.307   6.826   2.539
 7350TIP3   OH221992   2.454   3.662   0.472
 7350TIP3    H121993   2.534   3.613   0.488
 7350TIP3    H221994   2.399   3.644   0.549
 7351TIP3   OH221995   3.673   7.329   0.383
 7351TIP3    H121996   3.734   7.382   0.434
 7351TIP3    H221997   3.728   7.264   0.339
 7352TIP3   OH221998   7.229   3.660   6.257
 7352TIP3    H121999   7.276   3.638   6.177
 7352TIP3    H222000   7.198   3.749   6.242
 7353TIP3   OH222001   3.270   7.410   6.398
 7353TIP3    H122002   3.273   7.502   6.372
 7353TIP3    H222003   3.338   7.368   6.344
 7354TIP3   OH222004   3.716   3.052   2.859
 7354TIP3    H122005   3.783   3.062   2.791
 7354TIP3    H222006   3.738   2.969   2.902
 7355TIP3   OH222007   3.895   1.425   4.474
 7355TIP3    H122008   3.880   1.447   4.566
 7355TIP3    H222009   3.966   1.361   4.476
 7356TIP3   OH222010   0.865   6.155   1.685
 7356TIP3    H122011   0.811   6.077   1.671
 7356TIP3    H222012   0.942   6.123   1.732
 7357TIP3   OH222013   0.629   0.348   1.148
 7357TIP3    H122014   0.686   0.355   1.225
 7357TIP3    H222015   0.548   0.308   1.182
 7358TIP3   OH222016   3.782   6.549   0.280
 7358TIP3    H122017   3.768   6.643   0.288
 7358TIP3    H222018   3.869   6.541   0.241
 7359TIP3   OH222019   3.754   5.676   2.970
 7359TIP3    H122020   3.811   5.740   3.011
 7359TIP3    H222021   3.704   5.726   2.905
 7360TIP3   OH222022   2.980   6.956   5.767
 7360TIP3    H122023   2.920   6.941   5.694
 7360TIP3    H222024   3.043   7.020   5.733
 7361TIP3   OH222025   0.948   0.309   2.643
 7361TIP3    H122026   0.859   0.275   2.627
 7361TIP3    H222027   1.001   0.268   2.574
 7362TIP3   OH222028   4.115   0.565   4.160
 7362TIP3    H122029   4.204   0.540   4.181
 7362TIP3    H222030   4.062   0.531   4.233
 7363TIP3   OH222031   1.509   0.707   4.446
 7363TIP3    H122032   1.492   0.768   4.518
 7363TIP3    H222033   1.604   0.697   4.445
 7364TIP3   OH222034   0.983   3.517   2.412
 7364TIP3    H122035   0.936   3.441   2.376
 7364TIP3    H222036   0.945   3.592   2.366
 7365TIP3   OH222037   4.133   1.805   2.353
 7365TIP3    H122038   4.080   1.840   2.281
 7365TIP3    H222039   4.117   1.866   2.425
 7366TIP3   OH222040   6.928   2.010   1.589
 7366TIP3    H122041   6.967   2.010   1.677
 7366TIP3    H222042   6.956   1.927   1.551
 7367TIP3   OH222043   0.644   7.650   1.367
 7367TIP3    H122044   0.633   7.710   1.440
 7367TIP3    H222045   0.664   7.566   1.407
 7368TIP3   OH222046   0.730   6.742   3.356
 7368TIP3    H122047   0.742   6.755   3.450
 7368TIP3    H222048   0.640   6.710   3.348
 7369TIP3   OH222049   0.980   1.603   4.351
 7369TIP3    H122050   0.903   1.653   4.323
 7369TIP3    H222051   0.972   1.598   4.447
 7370TIP3   OH222052   7.555   4.531   1.808
 7370TIP3    H122053   7.486   4.476   1.771
 7370TIP3    H222054   7.562   4.605   1.748
 7371TIP3   OH222055   1.531   5.924   4.121
 7371TIP3    H122056   1.605   5.928   4.182
 7371TIP3    H222057   1.532   5.835   4.088
 7372TIP3   OH222058   6.412   0.622   6.478
 7372TIP3    H122059   6.433   0.704   6.523
 7372TIP3    H222060   6.334   0.589   6.523
 7373TIP3   OH222061   4.145   4.212   5.595
 7373TIP3    H122062   4.170   4.259   5.515
 7373TIP3    H222063   4.074   4.265   5.633
 7374TIP3   OH222064   2.207   0.660   1.344
 7374TIP3    H122065   2.232   0.568   1.346
 7374TIP3    H222066   2.280   0.705   1.302
 7375TIP3   OH222067   7.596   3.092   6.151
 7375TIP3    H122068   7.683   3.106   6.113
 7375TIP3    H222069   7.541   3.161   6.112
 7376TIP3   OH222070   7.330   5.409   0.038
 7376TIP3    H122071   7.392   5.482   0.049
 7376TIP3    H222072   7.337   5.360   0.120
 7377TIP3   OH222073   4.506   1.280   6.352
 7377TIP3    H122074   4.493   1.355   6.294
 7377TIP3    H222075   4.504   1.316   6.440
 7378TIP3   OH222076   1.328   2.743   0.221
 7378TIP3    H122077   1.356   2.671   0.165
 7378TIP3    H222078   1.362   2.721   0.308
 7379TIP3   OH222079   3.119   7.400   5.223
 7379TIP3    H122080   3.195   7.373   5.171
 7379TIP3    H222081   3.151   7.475   5.274
 7380TIP3   OH222082   4.049   3.380   4.189
 7380TIP3    H122083   3.970   3.327   4.175
 7380TIP3    H222084   4.060   3.429   4.108
 7381TIP3   OH222085   1.732   0.459   2.296
 7381TIP3    H122086   1.710   0.538   2.248
 7381TIP3    H222087   1.794   0.488   2.363
 7382TIP3   OH222088   4.267   4.063   4.082
 7382TIP3    H122089   4.338   4.091   4.024
 7382TIP3    H222090   4.203   4.022   4.024
 7383TIP3   OH222091   7.649   5.125   3.971
 7383TIP3    H122092   7.674   5.216   3.957
 7383TIP3    H222093   7.688   5.077   3.898
 7384TIP3   OH222094   3.055   6.926   1.806
 7384TIP3    H122095   3.032   6.959   1.719
 7384TIP3    H222096   3.150   6.916   1.803
 7385TIP3   OH222097   6.534   4.459   2.273
 7385TIP3    H122098   6.501   4.387   2.220
 7385TIP3    H222099   6.591   4.417   2.338
 7386TIP3   OH222100   4.678   0.793   0.631
 7386TIP3    H122101   4.653   0.885   0.631
 7386TIP3    H222102   4.769   0.793   0.601
 7387TIP3   OH222103   1.640   0.842   5.853
 7387TIP3    H122104   1.649   0.811   5.763
 7387TIP3    H222105   1.571   0.788   5.891
 7388TIP3   OH222106   1.969   0.433   5.315
 7388TIP3    H122107   1.943   0.354   5.266
 7388TIP3    H222108   2.063   0.422   5.330
 7389TIP3   OH222109   1.794   1.401   2.123
 7389TIP3    H122110   1.843   1.477   2.154
 7389TIP3    H222111   1.718   1.438   2.079
 7390TIP3   OH222112   1.424   4.256   1.604
 7390TIP3    H122113   1.478   4.291   1.533
 7390TIP3    H222114   1.352   4.211   1.560
 7391TIP3   OH222115   3.968   2.088   3.943
 7391TIP3    H122116   3.888   2.082   3.995
 7391TIP3    H222117   4.031   2.032   3.989
 7392TIP3   OH222118   7.181   4.270   4.683
 7392TIP3    H122119   7.206   4.189   4.727
 7392TIP3    H222120   7.239   4.274   4.607
 7393TIP3   OH222121   3.729   3.929   0.933
 7393TIP3    H122122   3.715   4.021   0.909
 7393TIP3    H222123   3.674   3.880   0.872
 7394TIP3   OH222124   7.787   3.984   1.129
 7394TIP3    H122125   7.707   4.016   1.171
 7394TIP3    H222126   7.856   4.006   1.191
 7395TIP3   OH222127   5.872   3.735   5.207
 7395TIP3    H122128   5.856   3.724   5.113
 7395TIP3    H222129   5.863   3.646   5.243
 7396TIP3   OH222130   3.272   5.807   4.350
 7396TIP3    H122131   3.316   5.891   4.358
 7396TIP3    H222132   3.338   5.748   4.313
 7397TIP3   OH222133   7.187   2.182   4.103
 7397TIP3    H122134   7.095   2.160   4.116
 7397TIP3    H222135   7.213   2.133   4.025
 7398TIP3   OH222136   5.861   7.239   5.464
 7398TIP3    H122137   5.895   7.158   5.502
 7398TIP3    H222138   5.909   7.248   5.381
 7399TIP3   OH222139   2.775   5.190   4.599
 7399TIP3    H122140   2.726   5.109   4.582
 7399TIP3    H222141   2.854   5.161   4.645
 7400TIP3   OH222142   5.502   2.135   0.670
 7400TIP3    H122143   5.480   2.073   0.739
 7400TIP3    H222144   5.419   2.155   0.628
 7401TIP3   OH222145   3.511   7.808   0.102
 7401TIP3    H122146   3.478   7.725   0.066
 7401TIP3    H222147   3.500   7.799   0.197
 7402TIP3   OH222148   4.828   3.379   3.771
 7402TIP3    H122149   4.807   3.448   3.834
 7402TIP3    H222150   4.785   3.301   3.805
 7403TIP3   OH222151   7.688   6.287   6.698
 7403TIP3    H122152   7.622   6.218   6.698
 7403TIP3    H222153   7.766   6.246   6.661
 7404TIP3   OH222154   0.829   5.775   6.240
 7404TIP3    H122155   0.810   5.868   6.231
 7404TIP3    H222156   0.751   5.738   6.281
 7405TIP3   OH222157   7.206   7.249   0.538
 7405TIP3    H122158   7.114   7.272   0.523
 7405TIP3    H222159   7.253   7.290   0.465
 7406TIP3   OH222160   2.823   0.281   0.041
 7406TIP3    H122161   2.916   0.279   0.063
 7406TIP3    H222162   2.783   0.214   0.097
 7407TIP3   OH222163   6.990   2.010   6.249
 7407TIP3    H122164   6.951   2.062   6.179
 7407TIP3    H222165   6.916   1.968   6.293
 7408TIP3   OH222166   1.538   0.616   1.762
 7408TIP3    H122167   1.531   0.547   1.695
 7408TIP3    H222168   1.496   0.692   1.722
 7409TIP3   OH222169   6.185   6.030   5.752
 7409TIP3    H122170   6.140   5.948   5.728
 7409TIP3    H222171   6.176   6.086   5.676
 7410TIP3   OH222172   2.298   0.022   3.659
 7410TIP3    H122173   2.262  -0.054   3.705
 7410TIP3    H222174   2.380  -0.010   3.622
 7411TIP3   OH222175   2.812   6.774   6.065
 7411TIP3    H122176   2.723   6.768   6.099
 7411TIP3    H222177   2.827   6.868   6.053
 7412TIP3   OH222178   6.944   6.017   4.567
 7412TIP3    H122179   6.993   6.033   4.648
 7412TIP3    H222180   7.012   5.998   4.502
 7413TIP3   OH222181   1.882   3.756   3.713
 7413TIP3    H122182   1.854   3.785   3.626
 7413TIP3    H222183   1.807   3.776   3.769
 7414TIP3   OH222184  -0.017   6.280   3.691
 7414TIP3    H122185  -0.022   6.293   3.596
 7414TIP3    H222186  -0.058   6.359   3.728
 7415TIP3   OH222187   2.492   5.708   3.363
 7415TIP3    H122188   2.579   5.744   3.343
 7415TIP3    H222189   2.432   5.780   3.343
 7416TIP3   OH222190   6.668   7.121   3.568
 7416TIP3    H122191   6.704   7.080   3.647
 7416TIP3    H222192   6.630   7.048   3.519
 7417TIP3   OH222193   6.667   0.273   5.524
 7417TIP3    H122194   6.638   0.363   5.513
 7417TIP3    H222195   6.757   0.272   5.491
 7418TIP3   OH222196   4.844   4.442   4.037
 7418TIP3    H122197   4.927   4.490   4.040
 7418TIP3    H222198   4.788   4.494   3.980
 7419TIP3   OH222199   2.859   6.486   0.088
 7419TIP3    H122200   2.879   6.505  -0.003
 7419TIP3    H222201   2.790   6.549   0.111
 7420TIP3   OH222202   0.229   7.269   3.328
 7420TIP3    H122203   0.237   7.232   3.240
 7420TIP3    H222204   0.171   7.345   3.317
 7421TIP3   OH222205   5.435   4.881   4.044
 7421TIP3    H122206   5.427   4.923   3.958
 7421TIP3    H222207   5.426   4.788   4.026
 7422TIP3   OH222208   7.286   3.266   0.118
 7422TIP3    H122209   7.216   3.212   0.155
 7422TIP3    H222210   7.366   3.224   0.149
 7423TIP3   OH222211   2.705   1.333   5.664
 7423TIP3    H122212   2.729   1.289   5.746
 7423TIP3    H222213   2.610   1.347   5.671
 7424TIP3   OH222214   0.431   6.709   3.344
 7424TIP3    H122215   0.368   6.659   3.395
 7424TIP3    H222216   0.430   6.667   3.257
 7425TIP3   OH222217   5.099   7.466   4.711
 7425TIP3    H122218   5.121   7.463   4.804
 7425TIP3    H222219   5.171   7.516   4.672
 7426TIP3   OH222220   5.020   6.934   3.065
 7426TIP3    H122221   5.070   7.002   3.111
 7426TIP3    H222222   5.050   6.939   2.975
 7427TIP3   OH222223   1.443   5.864   1.891
 7427TIP3    H122224   1.519   5.823   1.933
 7427TIP3    H222225   1.465   5.957   1.887
 7428TIP3   OH222226   2.240   2.531   4.267
 7428TIP3    H122227   2.150   2.507   4.242
 7428TIP3    H222228   2.237   2.626   4.276
 7429TIP3   OH222229   0.072   7.060   3.551
 7429TIP3    H122230   0.086   6.969   3.524
 7429TIP3    H222231   0.139   7.109   3.503
 7430TIP3   OH222232   7.523   5.714   6.640
 7430TIP3    H122233   7.575   5.658   6.698
 7430TIP3    H222234   7.573   5.719   6.559
 7431TIP3   OH222235   1.592   4.506   1.539
 7431TIP3    H122236   1.542   4.544   1.467
 7431TIP3    H222237   1.666   4.464   1.497
 7432TIP3   OH222238   5.620   0.707   4.903
 7432TIP3    H122239   5.592   0.634   4.959
 7432TIP3    H222240   5.675   0.667   4.836
 7433TIP3   OH222241   2.618   0.595   6.625
 7433TIP3    H122242   2.569   0.612   6.544
 7433TIP3    H222243   2.696   0.548   6.596
 7434TIP3   OH222244   5.223   0.934   5.069
 7434TIP3    H122245   5.251   0.895   4.987
 7434TIP3    H222246   5.274   0.888   5.136
 7435TIP3   OH222247   8.202   2.992   4.120
 7435TIP3    H122248   8.269   3.013   4.054
 7435TIP3    H222249   8.243   2.924   4.174
 7436TIP3   OH222250   3.235   3.950   5.087
 7436TIP3    H122251   3.195   3.868   5.057
 7436TIP3    H222252   3.223   4.011   5.013
 7437TIP3   OH222253   4.766   5.725   4.026
 7437TIP3    H122254   4.677   5.758   4.019
 7437TIP3    H222255   4.759   5.647   4.081
 7438TIP3   OH222256   2.567   6.289   3.472
 7438TIP3    H122257   2.563   6.370   3.523
 7438TIP3    H222258   2.661   6.274   3.460
 7439TIP3   OH222259   5.571   4.439   0.547
 7439TIP3    H122260   5.629   4.380   0.594
 7439TIP3    H222261   5.605   4.526   0.564
 7440TIP3   OH222262   1.751   4.558   5.460
 7440TIP3    H122263   1.707   4.541   5.543
 7440TIP3    H222264   1.816   4.487   5.453
 7441TIP3   OH222265   7.973   3.386   0.467
 7441TIP3    H122266   7.985   3.314   0.530
 7441TIP3    H222267   8.062   3.404   0.436
 7442TIP3   OH222268   7.588   2.157   4.582
 7442TIP3    H122269   7.593   2.154   4.486
 7442TIP3    H222270   7.525   2.088   4.604
 7443TIP3   OH222271   3.451   3.030   2.432
 7443TIP3    H122272   3.506   2.952   2.426
 7443TIP3    H222273   3.496   3.086   2.496
 7444TIP3   OH222274   5.916   3.932   1.816
 7444TIP3    H122275   5.906   3.974   1.730
 7444TIP3    H222276   5.871   3.990   1.877
 7445TIP3   OH222277   6.393   4.714   4.277
 7445TIP3    H122278   6.336   4.764   4.334
 7445TIP3    H222279   6.453   4.668   4.336
 7446TIP3   OH222280   5.646   1.686   4.222
 7446TIP3    H122281   5.622   1.648   4.307
 7446TIP3    H222282   5.563   1.688   4.173
 7447TIP3   OH222283   6.858   6.283   1.445
 7447TIP3    H122284   6.787   6.335   1.480
 7447TIP3    H222285   6.815   6.219   1.387
 7448TIP3   OH222286   3.650   6.482   4.123
 7448TIP3    H122287   3.619   6.567   4.091
 7448TIP3    H222288   3.576   6.447   4.173
 7449TIP3   OH222289   3.627   4.748   1.435
 7449TIP3    H122290   3.567   4.777   1.367
 7449TIP3    H222291   3.629   4.821   1.498
 7450TIP3   OH222292   0.223   5.256   3.548
 7450TIP3    H122293   0.259   5.168   3.553
 7450TIP3    H222294   0.196   5.277   3.637
 7451TIP3   OH222295   6.000   7.800   2.908
 7451TIP3    H122296   5.916   7.761   2.932
 7451TIP3    H222297   6.056   7.783   2.984
 7452TIP3   OH222298   0.330   7.517   5.461
 7452TIP3    H122299   0.310   7.557   5.546
 7452TIP3    H222300   0.418   7.550   5.440
 7453TIP3   OH222301   0.760   4.080   4.180
 7453TIP3    H122302   0.780   4.083   4.274
 7453TIP3    H222303   0.667   4.098   4.175
 7454TIP3   OH222304   2.664   4.220   1.492
 7454TIP3    H122305   2.640   4.229   1.584
 7454TIP3    H222306   2.734   4.155   1.490
 7455TIP3   OH222307   1.388   3.672   0.916
 7455TIP3    H122308   1.429   3.750   0.952
 7455TIP3    H222309   1.394   3.684   0.821
 7456TIP3   OH222310   2.282   0.415   1.700
 7456TIP3    H122311   2.276   0.342   1.762
 7456TIP3    H222312   2.195   0.453   1.698
 7457TIP3   OH222313   0.291   6.390   0.792
 7457TIP3    H122314   0.323   6.449   0.860
 7457TIP3    H222315   0.201   6.418   0.777
 7458TIP3   OH222316   6.648   2.835   4.473
 7458TIP3    H122317   6.657   2.790   4.557
 7458TIP3    H222318   6.555   2.832   4.453
 7459TIP3   OH222319   5.552   0.153   4.598
 7459TIP3    H122320   5.522   0.223   4.541
 7459TIP3    H222321   5.606   0.097   4.542
 7460TIP3   OH222322   2.414   5.860   6.353
 7460TIP3    H122323   2.371   5.944   6.333
 7460TIP3    H222324   2.470   5.880   6.427
 7461TIP3   OH222325   0.993   4.532   5.253
 7461TIP3    H122326   0.912   4.542   5.203
 7461TIP3    H222327   1.036   4.617   5.248
 7462TIP3   OH222328   7.192   0.170   1.013
 7462TIP3    H122329   7.232   0.244   1.059
 7462TIP3    H222330   7.098   0.180   1.028
 7463TIP3   OH222331   4.735   7.233   0.256
 7463TIP3    H122332   4.780   7.190   0.184
 7463TIP3    H222333   4.797   7.230   0.329
 7464TIP3   OH222334   3.649   6.664   1.845
 7464TIP3    H122335   3.689   6.593   1.795
 7464TIP3    H222336   3.580   6.698   1.787
 7465TIP3   OH222337   1.331   7.233   4.469
 7465TIP3    H122338   1.387   7.274   4.404
 7465TIP3    H222339   1.317   7.144   4.436
 7466TIP3   OH222340   4.119   2.365   1.631
 7466TIP3    H122341   4.048   2.382   1.694
 7466TIP3    H222342   4.075   2.355   1.547
 7467TIP3   OH222343   5.044   7.318   1.172
 7467TIP3    H122344   5.051   7.290   1.263
 7467TIP3    H222345   4.966   7.274   1.139
 7468TIP3   OH222346   0.949   4.130   2.072
 7468TIP3    H122347   0.955   4.164   1.982
 7468TIP3    H222348   0.904   4.046   2.062
 7469TIP3   OH222349   7.145   6.090   6.461
 7469TIP3    H122350   7.166   6.161   6.400
 7469TIP3    H222351   7.154   6.011   6.409
 7470TIP3   OH222352   7.060   2.051   2.852
 7470TIP3    H122353   7.080   1.994   2.927
 7470TIP3    H222354   7.131   2.116   2.852
 7471TIP3   OH222355   4.960   3.763   2.207
 7471TIP3    H122356   5.048   3.732   2.185
 7471TIP3    H222357   4.970   3.803   2.294
 7472TIP3   OH222358   6.893   2.896   5.287
 7472TIP3    H122359   6.950   2.931   5.356
 7472TIP3    H222360   6.930   2.930   5.206
 7473TIP3   OH222361   5.897   0.906   5.030
 7473TIP3    H122362   5.911   0.977   5.092
 7473TIP3    H222363   5.909   0.826   5.080
 7474TIP3   OH222364   4.435   7.633   3.267
 7474TIP3    H122365   4.513   7.673   3.307
 7474TIP3    H222366   4.451   7.638   3.173
 7475TIP3   OH222367   2.572   2.024   6.014
 7475TIP3    H122368   2.577   2.067   5.928
 7475TIP3    H222369   2.481   1.995   6.020
 7476TIP3   OH222370   0.213   7.735   4.926
 7476TIP3    H122371   0.280   7.803   4.913
 7476TIP3    H222372   0.205   7.692   4.841
 7477TIP3   OH222373   6.723   5.786   1.589
 7477TIP3    H122374   6.632   5.794   1.615
 7477TIP3    H222375   6.764   5.868   1.619
 7478TIP3   OH222376   1.414   6.770   3.420
 7478TIP3    H122377   1.454   6.686   3.442
 7478TIP3    H222378   1.446   6.790   3.332
 7479TIP3   OH222379   1.912   5.393   6.370
 7479TIP3    H122380   1.839   5.377   6.311
 7479TIP3    H222381   1.911   5.488   6.384
 7480TIP3   OH222382   5.691   6.802   2.194
 7480TIP3    H122383   5.596   6.807   2.191
 7480TIP3    H222384   5.721   6.883   2.152
 7481TIP3   OH222385   2.850   2.901   1.343
 7481TIP3    H122386   2.760   2.876   1.319
 7481TIP3    H222387   2.851   2.900   1.438
 7482TIP3   OH222388   3.611   1.091   3.176
 7482TIP3    H122389   3.584   1.013   3.127
 7482TIP3    H222390   3.643   1.151   3.109
 7483TIP3   OH222391   6.366   1.451   1.158
 7483TIP3    H122392   6.434   1.403   1.205
 7483TIP3    H222393   6.321   1.502   1.225
 7484TIP3   OH222394   4.206   2.414   5.206
 7484TIP3    H122395   4.256   2.340   5.240
 7484TIP3    H222396   4.268   2.462   5.151
 7485TIP3   OH222397   1.394   2.532   1.030
 7485TIP3    H122398   1.411   2.595   0.960
 7485TIP3    H222399   1.335   2.578   1.090
 7486TIP3   OH222400   3.128   2.754   2.379
 7486TIP3    H122401   3.118   2.668   2.339
 7486TIP3    H222402   3.222   2.771   2.379
 7487TIP3   OH222403   4.346   3.742   5.369
 7487TIP3    H122404   4.294   3.755   5.290
 7487TIP3    H222405   4.355   3.829   5.406
 7488TIP3   OH222406   3.950   0.032   4.129
 7488TIP3    H122407   3.886   0.102   4.135
 7488TIP3    H222408   4.035   0.075   4.139
 7489TIP3   OH222409   4.634   3.048   1.810
 7489TIP3    H122410   4.656   2.978   1.749
 7489TIP3    H222411   4.546   3.026   1.841
 7490TIP3   OH222412   3.683   0.358   4.481
 7490TIP3    H122413   3.727   0.438   4.511
 7490TIP3    H222414   3.648   0.318   4.560
 7491TIP3   OH222415   5.374   0.285   6.757
 7491TIP3    H122416   5.414   0.329   6.682
 7491TIP3    H222417   5.435   0.299   6.829
 7492TIP3   OH222418   4.286  -0.082   2.480
 7492TIP3    H122419   4.360  -0.022   2.492
 7492TIP3    H222420   4.224  -0.034   2.427
 7493TIP3   OH222421   2.478   3.767   2.743
 7493TIP3    H122422   2.570   3.761   2.768
 7493TIP3    H222423   2.467   3.858   2.715
 7494TIP3   OH222424   4.560   1.785   6.314
 7494TIP3    H122425   4.502   1.853   6.278
 7494TIP3    H222426   4.626   1.834   6.364
 7495TIP3   OH222427   2.858   5.966   4.466
 7495TIP3    H122428   2.922   5.908   4.508
 7495TIP3    H222429   2.850   6.040   4.526
 7496TIP3   OH222430   3.036   0.272   2.702
 7496TIP3    H122431   3.023   0.177   2.706
 7496TIP3    H222432   2.981   0.301   2.629
 7497TIP3   OH222433   2.361   4.081   1.696
 7497TIP3    H122434   2.283   4.094   1.750
 7497TIP3    H222435   2.431   4.128   1.743
 7498TIP3   OH222436   0.799   3.288   6.356
 7498TIP3    H122437   0.781   3.198   6.384
 7498TIP3    H222438   0.888   3.286   6.323
 7499TIP3   OH222439   7.507   4.477   4.289
 7499TIP3    H122440   7.582   4.536   4.286
 7499TIP3    H222441   7.440   4.520   4.235
 7500TIP3   OH222442   5.419   6.607   6.267
 7500TIP3    H122443   5.402   6.695   6.233
 7500TIP3    H222444   5.506   6.585   6.233
 7501TIP3   OH222445   7.959   2.230   1.435
 7501TIP3    H122446   7.980   2.153   1.383
 7501TIP3    H222447   8.045   2.267   1.457
 7502TIP3   OH222448   6.767   3.708   5.440
 7502TIP3    H122449   6.736   3.709   5.530
 7502TIP3    H222450   6.835   3.641   5.439
 7503TIP3   OH222451   6.079   2.316   3.204
 7503TIP3    H122452   6.172   2.330   3.220
 7503TIP3    H222453   6.073   2.295   3.110
 7504TIP3   OH222454   2.362   0.904   4.063
 7504TIP3    H122455   2.455   0.882   4.072
 7504TIP3    H222456   2.328   0.899   4.152
 7505TIP3   OH222457   7.528   4.428   2.957
 7505TIP3    H122458   7.591   4.499   2.946
 7505TIP3    H222459   7.489   4.443   3.043
 7506TIP3   OH222460   8.099   0.776   3.556
 7506TIP3    H122461   8.057   0.849   3.511
 7506TIP3    H222462   8.154   0.735   3.489
 7507TIP3   OH222463   7.482   4.279   3.414
 7507TIP3    H122464   7.484   4.211   3.347
 7507TIP3    H222465   7.561   4.330   3.400
 7508TIP3   OH222466   7.094   6.350   4.008
 7508TIP3    H122467   7.163   6.287   3.989
 7508TIP3    H222468   7.083   6.346   4.103
 7509TIP3   OH222469   1.058   3.991   6.069
 7509TIP3    H122470   1.061   4.055   5.997
 7509TIP3    H222471   1.134   4.012   6.122
 7510TIP3   OH222472   5.078   6.924   0.316
 7510TIP3    H122473   5.075   6.852   0.379
 7510TIP3    H222474   5.083   6.880   0.231
 7511TIP3   OH222475   1.074   3.449   0.612
 7511TIP3    H122476   1.064   3.543   0.623
 7511TIP3    H222477   1.115   3.439   0.526
 7512TIP3   OH222478   6.453   1.850   4.418
 7512TIP3    H122479   6.458   1.943   4.442
 7512TIP3    H222480   6.382   1.815   4.472
 7513TIP3   OH222481   5.672   5.273   5.069
 7513TIP3    H122482   5.751   5.323   5.054
 7513TIP3    H222483   5.610   5.306   5.003
 7514TIP3   OH222484   3.620   2.184   6.487
 7514TIP3    H122485   3.564   2.107   6.492
 7514TIP3    H222486   3.672   2.181   6.567
 7515TIP3   OH222487   3.306   4.420   0.573
 7515TIP3    H122488   3.223   4.456   0.542
 7515TIP3    H222489   3.323   4.466   0.655
 7516TIP3   OH222490   0.088   2.066   0.481
 7516TIP3    H122491   0.028   2.140   0.470
 7516TIP3    H222492   0.145   2.093   0.553
 7517TIP3   OH222493   5.597   7.211   1.651
 7517TIP3    H122494   5.626   7.300   1.631
 7517TIP3    H222495   5.607   7.203   1.746
 7518TIP3   OH222496   7.934   4.961   2.312
 7518TIP3    H122497   7.962   4.996   2.227
 7518TIP3    H222498   7.939   5.036   2.371
 7519TIP3   OH222499   5.402   2.116   3.940
 7519TIP3    H122500   5.322   2.155   3.907
 7519TIP3    H222501   5.466   2.188   3.938
 7520TIP3   OH222502   0.706   5.629   1.726
 7520TIP3    H122503   0.648   5.696   1.761
 7520TIP3    H222504   0.788   5.674   1.709
 7521TIP3   OH222505   2.742   0.886   0.788
 7521TIP3    H122506   2.718   0.815   0.728
 7521TIP3    H222507   2.824   0.856   0.829
 7522TIP3   OH222508   4.018   7.190   6.021
 7522TIP3    H122509   4.020   7.238   6.104
 7522TIP3    H222510   4.103   7.207   5.982
 7523TIP3   OH222511   4.120   5.999   4.638
 7523TIP3    H122512   4.174   6.078   4.646
 7523TIP3    H222513   4.109   5.987   4.543
 7524TIP3   OH222514   0.508   6.950   6.347
 7524TIP3    H122515   0.544   7.010   6.412
 7524TIP3    H222516   0.581   6.892   6.325
 7525TIP3   OH222517   4.956   4.469   0.727
 7525TIP3    H122518   4.876   4.427   0.694
 7525TIP3    H222519   4.935   4.563   0.727
 7526TIP3   OH222520   2.555   3.968   2.557
 7526TIP3    H122521   2.635   3.915   2.557
 7526TIP3    H222522   2.586   4.059   2.558
 7527TIP3   OH222523   2.741   5.642   5.036
 7527TIP3    H122524   2.656   5.636   5.080
 7527TIP3    H222525   2.731   5.588   4.958
 7528TIP3   OH222526   4.116   5.596   0.833
 7528TIP3    H122527   4.144   5.681   0.798
 7528TIP3    H222528   4.070   5.619   0.914
 7529TIP3   OH222529   7.467   7.372   3.807
 7529TIP3    H122530   7.425   7.424   3.738
 7529TIP3    H222531   7.398   7.313   3.837
 7530TIP3   OH222532  -0.012   0.796   4.797
 7530TIP3    H122533   0.068   0.746   4.805
 7530TIP3    H222534  -0.012   0.854   4.874
 7531TIP3   OH222535   8.115   7.220   5.766
 7531TIP3    H122536   8.104   7.176   5.681
 7531TIP3    H222537   8.137   7.149   5.827
 7532TIP3   OH222538   5.318   5.918   6.080
 7532TIP3    H122539   5.305   6.009   6.053
 7532TIP3    H222540   5.237   5.895   6.127
 7533TIP3   OH222541   3.271   2.191   1.155
 7533TIP3    H122542   3.196   2.149   1.113
 7533TIP3    H222543   3.285   2.271   1.105
 7534TIP3   OH222544   6.865   6.940   4.211
 7534TIP3    H122545   6.810   6.974   4.281
 7534TIP3    H222546   6.917   6.871   4.253
 7535TIP3   OH222547   1.075   5.666   4.629
 7535TIP3    H122548   1.139   5.709   4.572
 7535TIP3    H222549   0.996   5.658   4.576
 7536TIP3   OH222550   7.445   2.890   6.288
 7536TIP3    H122551   7.387   2.882   6.212
 7536TIP3    H222552   7.519   2.942   6.256
 7537TIP3   OH222553   4.465   6.873   4.023
 7537TIP3    H122554   4.505   6.849   4.107
 7537TIP3    H222555   4.450   6.790   3.978
 7538TIP3   OH222556   0.505   6.617   2.634
 7538TIP3    H122557   0.459   6.578   2.560
 7538TIP3    H222558   0.584   6.656   2.595
 7539TIP3   OH222559   5.049   4.386   4.474
 7539TIP3    H122560   5.046   4.294   4.449
 7539TIP3    H222561   5.142   4.405   4.486
 7540TIP3   OH222562   6.782   1.374   0.899
 7540TIP3    H122563   6.689   1.398   0.898
 7540TIP3    H222564   6.828   1.456   0.918
 7541TIP3   OH222565   1.174   0.965   5.984
 7541TIP3    H122566   1.257   0.953   6.031
 7541TIP3    H222567   1.119   0.894   6.016
 7542TIP3   OH222568   4.151   1.278   3.289
 7542TIP3    H122569   4.179   1.210   3.350
 7542TIP3    H222570   4.130   1.230   3.209
 7543TIP3   OH222571   4.945   4.549   1.248
 7543TIP3    H122572   4.938   4.503   1.165
 7543TIP3    H222573   4.854   4.568   1.273
 7544TIP3   OH222574   1.328   6.325   4.417
 7544TIP3    H122575   1.353   6.246   4.369
 7544TIP3    H222576   1.257   6.362   4.365
 7545TIP3   OH222577   2.373   5.572   2.783
 7545TIP3    H122578   2.347   5.553   2.693
 7545TIP3    H222579   2.433   5.501   2.806
 7546TIP3   OH222580   1.144   2.453   1.475
 7546TIP3    H122581   1.177   2.458   1.564
 7546TIP3    H222582   1.058   2.411   1.483
 7547TIP3   OH222583   2.591   2.450   0.465
 7547TIP3    H122584   2.671   2.498   0.485
 7547TIP3    H222585   2.610   2.360   0.493
 7548TIP3   OH222586   0.327   0.883   2.090
 7548TIP3    H122587   0.403   0.871   2.147
 7548TIP3    H222588   0.296   0.972   2.109
 7549TIP3   OH222589   5.083   2.103   1.820
 7549TIP3    H122590   4.990   2.083   1.829
 7549TIP3    H222591   5.107   2.145   1.903
 7550TIP3   OH222592   6.397   7.853   4.862
 7550TIP3    H122593   6.474   7.824   4.910
 7550TIP3    H222594   6.412   7.823   4.772
 7551TIP3   OH222595   1.276   4.921   1.993
 7551TIP3    H122596   1.213   4.993   2.003
 7551TIP3    H222597   1.344   4.940   2.057
 7552TIP3   OH222598   0.503   3.149   0.184
 7552TIP3    H122599   0.498   3.226   0.241
 7552TIP3    H222600   0.596   3.132   0.175
 7553TIP3   OH222601   7.906   1.401   6.586
 7553TIP3    H122602   7.971   1.347   6.632
 7553TIP3    H222603   7.822   1.371   6.619
 7554TIP3   OH222604   3.667   4.006   4.117
 7554TIP3    H122605   3.750   4.033   4.155
 7554TIP3    H222606   3.656   4.062   4.040
 7555TIP3   OH222607   1.436   4.951   2.239
 7555TIP3    H122608   1.473   4.987   2.320
 7555TIP3    H222609   1.510   4.906   2.197
 7556TIP3   OH222610   1.872   3.712   3.131
 7556TIP3    H122611   1.905   3.642   3.188
 7556TIP3    H222612   1.897   3.793   3.175
 7557TIP3   OH222613   2.593   2.284   6.222
 7557TIP3    H122614   2.519   2.294   6.163
 7557TIP3    H222615   2.670   2.290   6.166
 7558TIP3   OH222616   4.649   6.153   3.934
 7558TIP3    H122617   4.566   6.116   3.903
 7558TIP3    H222618   4.648   6.138   4.028
 7559TIP3   OH222619   3.872   5.103   0.553
 7559TIP3    H122620   3.837   5.191   0.538
 7559TIP3    H222621   3.896   5.072   0.466
 7560TIP3   OH222622   5.608   4.491   4.223
 7560TIP3    H122623   5.629   4.453   4.137
 7560TIP3    H222624   5.683   4.470   4.277
 7561TIP3   OH222625   4.917   6.634   4.016
 7561TIP3    H122626   4.937   6.721   4.050
 7561TIP3    H222627   4.879   6.587   4.090
 7562TIP3   OH222628   6.284   7.145   3.432
 7562TIP3    H122629   6.214   7.131   3.495
 7562TIP3    H222630   6.241   7.141   3.346
 7563TIP3   OH222631   2.580   7.784   4.618
 7563TIP3    H122632   2.655   7.841   4.601
 7563TIP3    H222633   2.580   7.774   4.713
 7564TIP3   OH222634   7.638   6.893   6.217
 7564TIP3    H122635   7.715   6.850   6.253
 7564TIP3    H222636   7.645   6.879   6.122
 7565TIP3   OH222637   7.509   0.812   3.977
 7565TIP3    H122638   7.517   0.837   3.885
 7565TIP3    H222639   7.473   0.890   4.020
 7566TIP3   OH222640   0.509   2.583   2.351
 7566TIP3    H122641   0.519   2.527   2.428
 7566TIP3    H222642   0.554   2.537   2.281
 7567TIP3   OH222643   2.992   7.165   3.055
 7567TIP3    H122644   2.901   7.164   3.024
 7567TIP3    H222645   3.033   7.090   3.011
 7568TIP3   OH222646   5.219   7.553   0.078
 7568TIP3    H122647   5.264   7.506   0.007
 7568TIP3    H222648   5.196   7.485   0.141
 7569TIP3   OH222649   3.157   3.773   3.029
 7569TIP3    H122650   3.251   3.769   3.014
 7569TIP3    H222651   3.145   3.849   3.086
 7570TIP3   OH222652   0.368   5.973   5.971
 7570TIP3    H122653   0.341   6.061   5.997
 7570TIP3    H222654   0.446   5.956   6.024
 7571TIP3   OH222655   3.371   0.712   3.186
 7571TIP3    H122656   3.311   0.783   3.211
 7571TIP3    H222657   3.456   0.756   3.175
 7572TIP3   OH222658   3.817   0.688   4.916
 7572TIP3    H122659   3.816   0.661   5.008
 7572TIP3    H222660   3.826   0.606   4.867
 7573TIP3   OH222661   0.626   6.549   1.709
 7573TIP3    H122662   0.687   6.602   1.658
 7573TIP3    H222663   0.573   6.504   1.643
 7574TIP3   OH222664   2.064   0.577   3.251
 7574TIP3    H122665   2.029   0.489   3.264
 7574TIP3    H222666   2.158   0.564   3.240
 7575TIP3   OH222667   4.678   6.295   5.389
 7575TIP3    H122668   4.687   6.242   5.309
 7575TIP3    H222669   4.749   6.264   5.445
 7576TIP3   OH222670   6.648   3.394   0.402
 7576TIP3    H122671   6.680   3.456   0.467
 7576TIP3    H222672   6.707   3.319   0.409
 7577TIP3   OH222673   0.261   3.329   2.109
 7577TIP3    H122674   0.342   3.324   2.160
 7577TIP3    H222675   0.252   3.243   2.069
 7578TIP3   OH222676   2.133   0.149   0.665
 7578TIP3    H122677   2.139   0.155   0.569
 7578TIP3    H222678   2.105   0.236   0.693
 7579TIP3   OH222679   3.647   3.029   0.158
 7579TIP3    H122680   3.717   3.025   0.093
 7579TIP3    H222681   3.586   2.960   0.131
 7580TIP3   OH222682   4.072   6.405   0.160
 7580TIP3    H122683   4.045   6.336   0.099
 7580TIP3    H222684   4.162   6.382   0.184
 7581TIP3   OH222685   2.912   0.666   2.234
 7581TIP3    H122686   2.864   0.725   2.291
 7581TIP3    H222687   3.003   0.674   2.262
 7582TIP3   OH222688   3.492   2.684   4.771
 7582TIP3    H122689   3.555   2.752   4.745
 7582TIP3    H222690   3.535   2.638   4.843
 7583TIP3   OH222691   6.605   5.311   0.221
 7583TIP3    H122692   6.692   5.289   0.254
 7583TIP3    H222693   6.547   5.244   0.257
 7584TIP3   OH222694   2.623   1.136   2.241
 7584TIP3    H122695   2.659   1.067   2.185
 7584TIP3    H222696   2.633   1.102   2.329
 7585TIP3   OH222697   7.354   1.398   3.082
 7585TIP3    H122698   7.323   1.334   3.146
 7585TIP3    H222699   7.427   1.355   3.038
 7586TIP3   OH222700   7.492   1.511   1.498
 7586TIP3    H122701   7.434   1.443   1.531
 7586TIP3    H222702   7.577   1.493   1.539
 7587TIP3   OH222703   7.160   5.522   6.552
 7587TIP3    H122704   7.229   5.530   6.487
 7587TIP3    H222705   7.101   5.454   6.518
 7588TIP3   OH222706   6.244   5.409   2.442
 7588TIP3    H122707   6.300   5.470   2.394
 7588TIP3    H222708   6.156   5.426   2.408
 7589TIP3   OH222709   0.810   2.654   1.034
 7589TIP3    H122710   0.782   2.565   1.054
 7589TIP3    H222711   0.729   2.705   1.032
 7590TIP3   OH222712   6.217   3.934   5.853
 7590TIP3    H122713   6.205   3.846   5.819
 7590TIP3    H222714   6.170   3.991   5.792
 7591TIP3   OH222715   0.110   4.789   2.307
 7591TIP3    H122716   0.150   4.714   2.263
 7591TIP3    H222717   0.072   4.841   2.235
 7592TIP3   OH222718   6.787   5.166   0.398
 7592TIP3    H122719   6.842   5.105   0.448
 7592TIP3    H222720   6.703   5.164   0.444
 7593TIP3   OH222721   3.399   1.079   2.851
 7593TIP3    H122722   3.388   1.016   2.779
 7593TIP3    H222723   3.381   1.164   2.810
 7594TIP3   OH222724   6.652   1.942   0.080
 7594TIP3    H122725   6.620   1.861   0.121
 7594TIP3    H222726   6.688   1.914  -0.004
 7595TIP3   OH222727   2.336   2.145   1.438
 7595TIP3    H122728   2.289   2.117   1.359
 7595TIP3    H222729   2.270   2.192   1.489
 7596TIP3   OH222730   7.072   0.459   2.025
 7596TIP3    H122731   7.153   0.411   2.040
 7596TIP3    H222732   7.029   0.461   2.111
 7597TIP3   OH222733   5.550   3.037   5.197
 7597TIP3    H122734   5.600   3.089   5.260
 7597TIP3    H222735   5.560   3.083   5.114
 7598TIP3   OH222736   7.702   0.818   0.514
 7598TIP3    H122737   7.779   0.862   0.478
 7598TIP3    H222738   7.634   0.886   0.515
 7599TIP3   OH222739   3.713   7.827   1.547
 7599TIP3    H122740   3.687   7.779   1.469
 7599TIP3    H222741   3.808   7.833   1.541
 7600TIP3   OH222742   1.887   0.814   0.308
 7600TIP3    H122743   1.796   0.822   0.279
 7600TIP3    H222744   1.886   0.843   0.399
 7601TIP3   OH222745   2.162   1.798   0.721
 7601TIP3    H122746   2.096   1.863   0.699
 7601TIP3    H222747   2.121   1.714   0.701
 7602TIP3   OH222748   7.421   6.258   1.249
 7602TIP3    H122749   7.400   6.285   1.160
 7602TIP3    H222750   7.402   6.335   1.303
 7603TIP3   OH222751   1.758   7.080   5.899
 7603TIP3    H122752   1.702   7.002   5.897
 7603TIP3    H222753   1.839   7.051   5.857
 7604TIP3   OH222754   5.462   1.622   5.996
 7604TIP3    H122755   5.422   1.585   6.075
 7604TIP3    H222756   5.485   1.711   6.021
 7605TIP3   OH222757   7.289   7.290   6.312
 7605TIP3    H122758   7.244   7.375   6.309
 7605TIP3    H222759   7.232   7.236   6.366
 7606TIP3   OH222760   1.811   3.844   0.217
 7606TIP3    H122761   1.880   3.866   0.154
 7606TIP3    H222762   1.855   3.794   0.285
 7607TIP3   OH222763   5.812   1.015   0.302
 7607TIP3    H122764   5.817   1.094   0.249
 7607TIP3    H222765   5.878   0.957   0.266
 7608TIP3   OH222766   6.734   1.115   0.598
 7608TIP3    H122767   6.714   1.021   0.589
 7608TIP3    H222768   6.800   1.118   0.667
 7609TIP3   OH222769   1.410   3.476   2.164
 7609TIP3    H122770   1.481   3.535   2.137
 7609TIP3    H222771   1.398   3.417   2.090
 7610TIP3   OH222772   2.824   6.788   5.034
 7610TIP3    H122773   2.792   6.763   4.947
 7610TIP3    H222774   2.808   6.882   5.039
 7611TIP3   OH222775   1.178   7.528   4.344
 7611TIP3    H122776   1.168   7.539   4.250
 7611TIP3    H222777   1.116   7.457   4.366
 7612TIP3   OH222778   4.496   4.127   1.520
 7612TIP3    H122779   4.474   4.110   1.428
 7612TIP3    H222780   4.526   4.042   1.553
 7613TIP3   OH222781   6.774   4.426   2.440
 7613TIP3    H122782   6.744   4.498   2.497
 7613TIP3    H222783   6.766   4.348   2.495
 7614TIP3   OH222784   2.780   2.537   0.236
 7614TIP3    H122785   2.782   2.444   0.259
 7614TIP3    H222786   2.690   2.553   0.207
 7615TIP3   OH222787   5.029   6.529   1.489
 7615TIP3    H122788   4.965   6.478   1.539
 7615TIP3    H222789   4.983   6.553   1.408
 7616TIP3   OH222790   1.029   6.894   5.325
 7616TIP3    H122791   1.068   6.847   5.398
 7616TIP3    H222792   0.935   6.886   5.339
 7617TIP3   OH222793   8.080   0.665   2.309
 7617TIP3    H122794   8.055   0.667   2.217
 7617TIP3    H222795   8.147   0.733   2.318
 7618TIP3   OH222796   5.518   7.578   4.670
 7618TIP3    H122797   5.545   7.589   4.761
 7618TIP3    H222798   5.424   7.596   4.670
 7619TIP3   OH222799   6.376   7.725   3.201
 7619TIP3    H122800   6.459   7.710   3.156
 7619TIP3    H222801   6.401   7.747   3.291
 7620TIP3   OH222802   3.633   5.367   0.502
 7620TIP3    H122803   3.697   5.421   0.548
 7620TIP3    H222804   3.608   5.419   0.426
 7621TIP3   OH222805   2.643   6.521   6.425
 7621TIP3    H122806   2.718   6.570   6.390
 7621TIP3    H222807   2.579   6.588   6.448
 7622TIP3   OH222808   2.625   1.204   1.117
 7622TIP3    H122809   2.603   1.189   1.025
 7622TIP3    H222810   2.716   1.174   1.126
 7623TIP3   OH222811   0.271   4.139   5.811
 7623TIP3    H122812   0.232   4.226   5.815
 7623TIP3    H222813   0.214   4.090   5.751
 7624TIP3   OH222814   2.649   1.328   3.352
 7624TIP3    H122815   2.585   1.261   3.378
 7624TIP3    H222816   2.669   1.307   3.261
 7625TIP3   OH222817   5.135   0.793   1.089
 7625TIP3    H122818   5.061   0.748   1.047
 7625TIP3    H222819   5.209   0.734   1.076
 7626TIP3   OH222820   4.259   4.705   3.782
 7626TIP3    H122821   4.173   4.742   3.764
 7626TIP3    H222822   4.305   4.710   3.699
 7627TIP3   OH222823   4.096   3.528   5.775
 7627TIP3    H122824   4.186   3.494   5.776
 7627TIP3    H222825   4.090   3.575   5.692
 7628TIP3   OH222826   5.435   6.624   1.048
 7628TIP3    H122827   5.463   6.550   0.994
 7628TIP3    H222828   5.454   6.595   1.138
 7629TIP3   OH222829   4.250   6.207   0.305
 7629TIP3    H122830   4.329   6.160   0.328
 7629TIP3    H222831   4.184   6.175   0.367
 7630TIP3   OH222832   7.375   3.866   0.363
 7630TIP3    H122833   7.378   3.901   0.452
 7630TIP3    H222834   7.451   3.904   0.320
 7631TIP3   OH222835   4.253   4.091   5.261
 7631TIP3    H122836   4.243   4.064   5.353
 7631TIP3    H222837   4.340   4.130   5.257
 7632TIP3   OH222838   5.555   1.147   5.204
 7632TIP3    H122839   5.557   1.054   5.227
 7632TIP3    H222840   5.631   1.160   5.148
 7633TIP3   OH222841   3.405   3.899   0.167
 7633TIP3    H122842   3.440   3.928   0.251
 7633TIP3    H222843   3.343   3.830   0.190
 7634TIP3   OH222844   6.847   5.481   3.651
 7634TIP3    H122845   6.906   5.408   3.667
 7634TIP3    H222846   6.856   5.537   3.728
 7635TIP3   OH222847   6.210   0.556   6.741
 7635TIP3    H122848   6.206   0.464   6.715
 7635TIP3    H222849   6.145   0.599   6.685
 7636TIP3   OH222850   7.865   0.147   5.653
 7636TIP3    H122851   7.940   0.199   5.626
 7636TIP3    H222852   7.801   0.160   5.584
 7637TIP3   OH222853   7.674   0.583   6.694
 7637TIP3    H122854   7.635   0.531   6.624
 7637TIP3    H222855   7.600   0.627   6.736
 7638TIP3   OH222856   3.460   1.235   3.706
 7638TIP3    H122857   3.454   1.315   3.654
 7638TIP3    H222858   3.400   1.174   3.662
 7639TIP3   OH222859   2.398   4.290   0.717
 7639TIP3    H122860   2.381   4.313   0.808
 7639TIP3    H222861   2.312   4.289   0.676
 7640TIP3   OH222862   4.859   0.773   0.373
 7640TIP3    H122863   4.790   0.833   0.343
 7640TIP3    H222864   4.826   0.686   0.352
 7641TIP3   OH222865   7.509   5.623   0.767
 7641TIP3    H122866   7.490   5.655   0.855
 7641TIP3    H222867   7.593   5.661   0.744
 7642TIP3   OH222868   4.280   4.704   4.981
 7642TIP3    H122869   4.232   4.625   4.959
 7642TIP3    H222870   4.306   4.742   4.897
 7643TIP3   OH222871   2.053   6.323   6.014
 7643TIP3    H122872   2.000   6.399   6.040
 7643TIP3    H222873   2.106   6.355   5.941
 7644TIP3   OH222874   3.482   2.949   3.394
 7644TIP3    H122875   3.563   2.967   3.443
 7644TIP3    H222876   3.487   2.855   3.373
 7645TIP3   OH222877   0.834   2.252   6.140
 7645TIP3    H122878   0.832   2.333   6.090
 7645TIP3    H222879   0.927   2.230   6.147
 7646TIP3   OH222880   2.147   7.743   4.228
 7646TIP3    H122881   2.211   7.695   4.281
 7646TIP3    H222882   2.192   7.761   4.146
 7647TIP3   OH222883   0.040   3.094   1.737
 7647TIP3    H122884  -0.012   3.097   1.817
 7647TIP3    H222885   0.014   3.012   1.694
 7648TIP3   OH222886   4.933   2.871   0.700
 7648TIP3    H122887   4.974   2.955   0.718
 7648TIP3    H222888   4.983   2.836   0.625
 7649TIP3   OH222889   7.355   5.011   3.378
 7649TIP3    H122890   7.303   4.972   3.447
 7649TIP3    H222891   7.330   5.103   3.378
 7650TIP3   OH222892   2.319   0.236   0.193
 7650TIP3    H122893   2.312   0.148   0.231
 7650TIP3    H222894   2.413   0.250   0.182
 7651TIP3   OH222895   0.709   6.685   4.658
 7651TIP3    H122896   0.665   6.679   4.743
 7651TIP3    H222897   0.673   6.764   4.618
 7652TIP3   OH222898   4.996   2.768   3.672
 7652TIP3    H122899   4.925   2.830   3.654
 7652TIP3    H222900   5.005   2.719   3.591
 7653TIP3   OH222901   0.244   4.056   3.993
 7653TIP3    H122902   0.262   3.984   4.054
 7653TIP3    H222903   0.180   4.110   4.038
 7654TIP3   OH222904   5.666   2.087   0.450
 7654TIP3    H122905   5.599   2.134   0.499
 7654TIP3    H222906   5.748   2.124   0.480
 7655TIP3   OH222907   2.104   1.319   1.639
 7655TIP3    H122908   2.127   1.238   1.686
 7655TIP3    H222909   2.030   1.355   1.688
 7656TIP3   OH222910   7.085   0.731   6.451
 7656TIP3    H122911   6.994   0.722   6.480
 7656TIP3    H222912   7.107   0.822   6.472
 7657TIP3   OH222913   2.038   4.821   2.149
 7657TIP3    H122914   2.118   4.827   2.097
 7657TIP3    H222915   2.065   4.841   2.238
 7658TIP3   OH222916   3.304   3.816   4.251
 7658TIP3    H122917   3.344   3.731   4.237
 7658TIP3    H222918   3.327   3.867   4.173
 7659TIP3   OH222919   7.657   3.483   3.915
 7659TIP3    H122920   7.674   3.513   3.826
 7659TIP3    H222921   7.734   3.432   3.938
 7660TIP3   OH222922   5.606   0.231   1.922
 7660TIP3    H122923   5.624   0.162   1.859
 7660TIP3    H222924   5.532   0.279   1.884
 7661TIP3   OH222925   5.555   0.677   2.594
 7661TIP3    H122926   5.554   0.772   2.603
 7661TIP3    H222927   5.473   0.648   2.633
 7662TIP3   OH222928   2.051   1.600   3.808
 7662TIP3    H122929   2.048   1.507   3.830
 7662TIP3    H222930   2.111   1.639   3.872
 7663TIP3   OH222931   4.549   6.561   4.563
 7663TIP3    H122932   4.552   6.468   4.540
 7663TIP3    H222933   4.507   6.603   4.488
 7664TIP3   OH222934   7.945   4.968   1.739
 7664TIP3    H122935   8.036   4.973   1.771
 7664TIP3    H222936   7.934   4.876   1.714
 7665TIP3   OH222937   0.540   4.756   5.872
 7665TIP3    H122938   0.552   4.799   5.957
 7665TIP3    H222939   0.621   4.774   5.824
 7666TIP3   OH222940   7.610   4.157   1.251
 7666TIP3    H122941   7.666   4.233   1.267
 7666TIP3    H222942   7.548   4.157   1.325
 7667TIP3   OH222943   4.369   2.732   4.715
 7667TIP3    H122944   4.446   2.720   4.770
 7667TIP3    H222945   4.321   2.650   4.724
 7668TIP3   OH222946   7.328   1.625   4.900
 7668TIP3    H122947   7.411   1.640   4.854
 7668TIP3    H222948   7.271   1.586   4.834
 7669TIP3   OH222949   6.959   3.617   1.174
 7669TIP3    H122950   7.020   3.679   1.135
 7669TIP3    H222951   6.913   3.666   1.241
 7670TIP3   OH222952   6.956   2.893   6.679
 7670TIP3    H122953   6.955   2.854   6.766
 7670TIP3    H222954   6.887   2.847   6.631
 7671TIP3   OH222955   4.830   6.846   0.140
 7671TIP3    H122956   4.919   6.811   0.132
 7671TIP3    H222957   4.840   6.940   0.122
 7672TIP3   OH222958   5.511   6.564   2.388
 7672TIP3    H122959   5.528   6.507   2.313
 7672TIP3    H222960   5.501   6.505   2.462
 7673TIP3   OH222961   0.711   7.441   1.539
 7673TIP3    H122962   0.706   7.443   1.635
 7673TIP3    H222963   0.775   7.372   1.520
 7674TIP3   OH222964   4.421   6.573   0.164
 7674TIP3    H122965   4.356   6.557   0.233
 7674TIP3    H222966   4.382   6.535   0.085
 7675TIP3   OH222967   3.764   1.978   5.241
 7675TIP3    H122968   3.747   1.897   5.290
 7675TIP3    H222969   3.841   2.015   5.283
 7676TIP3   OH222970   5.249   5.976   3.111
 7676TIP3    H122971   5.274   5.917   3.183
 7676TIP3    H222972   5.332   6.007   3.075
 7677TIP3   OH222973   4.456   6.033   0.361
 7677TIP3    H122974   4.492   5.971   0.297
 7677TIP3    H222975   4.438   5.979   0.438
 7678TIP3   OH222976   0.306   2.285   3.316
 7678TIP3    H122977   0.241   2.217   3.337
 7678TIP3    H222978   0.287   2.309   3.225
 7679TIP3   OH222979   5.316   0.691   5.551
 7679TIP3    H122980   5.403   0.674   5.585
 7679TIP3    H222981   5.276   0.605   5.540
 7680TIP3   OH222982   8.030   2.367   2.716
 7680TIP3    H122983   8.084   2.404   2.647
 7680TIP3    H222984   8.091   2.319   2.772
 7681TIP3   OH222985   6.575   0.654   2.919
 7681TIP3    H122986   6.524   0.709   2.979
 7681TIP3    H222987   6.632   0.603   2.975
 7682TIP3   OH222988   2.046   6.802   6.425
 7682TIP3    H122989   2.081   6.855   6.353
 7682TIP3    H222990   2.091   6.835   6.502
 7683TIP3   OH222991   7.210   5.489   3.058
 7683TIP3    H122992   7.283   5.478   3.120
 7683TIP3    H222993   7.252   5.519   2.978
 7684TIP3   OH222994   7.193   3.402   2.110
 7684TIP3    H122995   7.288   3.401   2.094
 7684TIP3    H222996   7.171   3.311   2.128
 7685TIP3   OH222997   5.553   3.938   5.141
 7685TIP3    H122998   5.634   3.987   5.153
 7685TIP3    H222999   5.496   3.998   5.092
 7686TIP3   OH223000   1.875   4.752   0.896
 7686TIP3    H123001   1.839   4.792   0.817
 7686TIP3    H223002   1.834   4.801   0.968
 7687TIP3   OH223003   7.592   1.742   1.757
 7687TIP3    H123004   7.671   1.760   1.707
 7687TIP3    H223005   7.522   1.739   1.692
 7688TIP3   OH223006   1.690   3.887   5.917
 7688TIP3    H123007   1.602   3.917   5.942
 7688TIP3    H223008   1.684   3.792   5.917
 7689TIP3   OH223009   2.092   1.480   6.236
 7689TIP3    H123010   2.089   1.387   6.214
 7689TIP3    H223011   2.057   1.524   6.158
 7690TIP3   OH223012   1.946   1.975   5.725
 7690TIP3    H123013   1.974   2.056   5.768
 7690TIP3    H223014   1.983   1.981   5.637
 7691TIP3   OH223015   7.738   3.044   5.523
 7691TIP3    H123016   7.708   3.135   5.522
 7691TIP3    H223017   7.799   3.037   5.450
 7692TIP3   OH223018   2.879   6.139   3.176
 7692TIP3    H123019   2.846   6.189   3.101
 7692TIP3    H223020   2.955   6.092   3.143
 7693TIP3   OH223021   0.020   3.721   1.216
 7693TIP3    H123022   0.091   3.780   1.195
 7693TIP3    H223023   0.030   3.648   1.155
 7694TIP3   OH223024   3.531   4.501   2.435
 7694TIP3    H123025   3.439   4.521   2.455
 7694TIP3    H223026   3.579   4.577   2.468
 7695TIP3   OH223027   0.829   7.529   2.990
 7695TIP3    H123028   0.903   7.579   3.024
 7695TIP3    H223029   0.789   7.586   2.925
 7696TIP3   OH223030   6.561   0.891   2.338
 7696TIP3    H123031   6.499   0.917   2.406
 7696TIP3    H223032   6.556   0.795   2.337
 7697TIP3   OH223033   0.401   5.667   1.605
 7697TIP3    H123034   0.455   5.597   1.566
 7697TIP3    H223035   0.378   5.723   1.530
 7698TIP3   OH223036   2.328   3.799   4.704
 7698TIP3    H123037   2.358   3.742   4.634
 7698TIP3    H223038   2.353   3.753   4.785
 7699TIP3   OH223039   2.699   4.135   2.877
 7699TIP3    H123040   2.692   4.094   2.963
 7699TIP3    H223041   2.793   4.133   2.857
 7700TIP3   OH223042   7.545   5.432   1.502
 7700TIP3    H123043   7.481   5.414   1.571
 7700TIP3    H223044   7.493   5.450   1.425
 7701TIP3   OH223045   1.631   7.616   5.421
 7701TIP3    H123046   1.696   7.585   5.358
 7701TIP3    H223047   1.613   7.706   5.394
 7702TIP3   OH223048   7.163   1.196   1.378
 7702TIP3    H123049   7.127   1.115   1.341
 7702TIP3    H223050   7.192   1.246   1.302
 7703TIP3   OH223051   7.797   3.610   2.360
 7703TIP3    H123052   7.706   3.596   2.387
 7703TIP3    H223053   7.795   3.691   2.309
 7704TIP3   OH223054   2.358   3.872   2.379
 7704TIP3    H123055   2.417   3.913   2.443
 7704TIP3    H223056   2.271   3.881   2.418
 7705TIP3   OH223057   2.840   5.884   0.791
 7705TIP3    H123058   2.864   5.833   0.868
 7705TIP3    H223059   2.745   5.874   0.785
 7706TIP3   OH223060   4.150   3.098   5.944
 7706TIP3    H123061   4.095   3.135   5.876
 7706TIP3    H223062   4.093   3.091   6.020
 7707TIP3   OH223063   4.021   0.995   1.272
 7707TIP3    H123064   4.106   1.031   1.300
 7707TIP3    H223065   3.983   1.065   1.219
 7708TIP3   OH223066   3.353   0.393   1.241
 7708TIP3    H123067   3.366   0.472   1.294
 7708TIP3    H223068   3.391   0.323   1.293
 7709TIP3   OH223069   2.157   4.741   0.907
 7709TIP3    H123070   2.159   4.732   1.002
 7709TIP3    H223071   2.064   4.736   0.884
 7710TIP3   OH223072   1.199   7.785   4.886
 7710TIP3    H123073   1.231   7.806   4.799
 7710TIP3    H223074   1.107   7.763   4.874
 7711TIP3   OH223075   6.542   0.616   0.962
 7711TIP3    H123076   6.536   0.701   0.918
 7711TIP3    H223077   6.504   0.554   0.900
 7712TIP3   OH223078   3.670   1.866   1.212
 7712TIP3    H123079   3.584   1.904   1.230
 7712TIP3    H223080   3.658   1.772   1.224
 7713TIP3   OH223081   2.464   5.109   0.713
 7713TIP3    H123082   2.531   5.150   0.658
 7713TIP3    H223083   2.381   5.142   0.678
 7714TIP3   OH223084   5.066   0.311   2.815
 7714TIP3    H123085   5.141   0.256   2.837
 7714TIP3    H223086   4.999   0.250   2.787
 7715TIP3   OH223087   2.053   2.802   2.248
 7715TIP3    H123088   2.008   2.757   2.177
 7715TIP3    H223089   2.011   2.771   2.328
 7716TIP3   OH223090   3.083   0.560   6.401
 7716TIP3    H123091   3.133   0.615   6.461
 7716TIP3    H223092   3.030   0.622   6.351
 7717TIP3   OH223093   4.879   4.331   1.778
 7717TIP3    H123094   4.937   4.401   1.751
 7717TIP3    H223095   4.804   4.376   1.818
 7718TIP3   OH223096   5.531   7.561   4.948
 7718TIP3    H123097   5.619   7.525   4.941
 7718TIP3    H223098   5.533   7.613   5.028
 7719TIP3   OH223099   2.701   0.358   3.337
 7719TIP3    H123100   2.741   0.339   3.252
 7719TIP3    H223101   2.775   0.362   3.398
 7720TIP3   OH223102   1.955   1.944   4.698
 7720TIP3    H123103   1.866   1.913   4.683
 7720TIP3    H223104   1.960   1.959   4.792
 7721TIP3   OH223105   0.960   7.130   3.143
 7721TIP3    H123106   0.910   7.202   3.181
 7721TIP3    H223107   1.032   7.115   3.204
 7722TIP3   OH223108   3.939   5.773   5.899
 7722TIP3    H123109   3.962   5.858   5.861
 7722TIP3    H223110   3.863   5.744   5.849
 7723TIP3   OH223111   3.991   3.107   6.161
 7723TIP3    H123112   4.002   3.052   6.239
 7723TIP3    H223113   3.986   3.196   6.195
 7724TIP3   OH223114   8.088   7.539   4.885
 7724TIP3    H123115   8.038   7.580   4.814
 7724TIP3    H223116   8.127   7.461   4.845
 7725TIP3   OH223117   4.986   2.920   5.054
 7725TIP3    H123118   4.968   2.934   5.147
 7725TIP3    H223119   5.078   2.897   5.050
 7726TIP3   OH223120   6.607   3.990   5.569
 7726TIP3    H123121   6.550   4.015   5.641
 7726TIP3    H223122   6.622   4.071   5.520
 7727TIP3   OH223123   4.744   3.008   6.757
 7727TIP3    H123124   4.687   2.935   6.733
 7727TIP3    H223125   4.829   2.967   6.774
 7728TIP3   OH223126   3.982   3.557   0.902
 7728TIP3    H123127   3.953   3.548   0.992
 7728TIP3    H223128   3.975   3.468   0.866
 7729TIP3   OH223129   6.919   1.033   5.856
 7729TIP3    H123130   6.937   1.112   5.804
 7729TIP3    H223131   6.973   0.965   5.816
 7730TIP3   OH223132   5.407   7.043   2.787
 7730TIP3    H123133   5.372   6.965   2.829
 7730TIP3    H223134   5.497   7.049   2.817
 7731TIP3   OH223135   6.971   3.556   4.162
 7731TIP3    H123136   7.033   3.483   4.155
 7731TIP3    H223137   6.953   3.580   4.071
 7732TIP3   OH223138   5.940   2.485   3.397
 7732TIP3    H123139   5.915   2.554   3.335
 7732TIP3    H223140   5.984   2.419   3.343
 7733TIP3   OH223141   3.082   6.120   1.592
 7733TIP3    H123142   3.067   6.130   1.686
 7733TIP3    H223143   3.079   6.209   1.558
 7734TIP3   OH223144   4.062   1.638   4.135
 7734TIP3    H123145   4.005   1.583   4.189
 7734TIP3    H223146   4.011   1.718   4.119
 7735TIP3   OH223147   1.240   2.555   4.846
 7735TIP3    H123148   1.267   2.647   4.853
 7735TIP3    H223149   1.208   2.546   4.756
 7736TIP3   OH223150   3.426   4.421   6.068
 7736TIP3    H123151   3.337   4.447   6.092
 7736TIP3    H223152   3.475   4.424   6.150
 7737TIP3   OH223153   6.619   3.202   2.974
 7737TIP3    H123154   6.545   3.161   2.930
 7737TIP3    H223155   6.617   3.168   3.063
 7738TIP3   OH223156   0.514   4.007   3.418
 7738TIP3    H123157   0.544   3.955   3.493
 7738TIP3    H223158   0.592   4.015   3.362
 7739TIP3   OH223159   8.110   0.098   2.972
 7739TIP3    H123160   8.065   0.161   2.916
 7739TIP3    H223161   8.165   0.047   2.912
 7740TIP3   OH223162   0.568   2.623   6.417
 7740TIP3    H123163   0.577   2.549   6.478
 7740TIP3    H223164   0.624   2.691   6.455
 7741TIP3   OH223165   6.670   6.373   2.761
 7741TIP3    H123166   6.706   6.460   2.779
 7741TIP3    H223167   6.730   6.335   2.696
 7742TIP3   OH223168   5.266   0.294   1.247
 7742TIP3    H123169   5.300   0.331   1.329
 7742TIP3    H223170   5.183   0.254   1.272
 7743TIP3   OH223171   3.926   1.582   0.380
 7743TIP3    H123172   3.871   1.505   0.365
 7743TIP3    H223173   3.919   1.633   0.300
 7744TIP3   OH223174   3.453   6.856   5.651
 7744TIP3    H123175   3.465   6.946   5.681
 7744TIP3    H223176   3.502   6.803   5.714
 7745TIP3   OH223177   2.117   2.021   2.587
 7745TIP3    H123178   2.084   2.012   2.677
 7745TIP3    H223179   2.138   2.114   2.579
 7746TIP3   OH223180   4.089   4.062   3.283
 7746TIP3    H123181   4.032   4.014   3.344
 7746TIP3    H223182   4.153   3.997   3.254
 7747TIP3   OH223183   5.861   1.090   6.448
 7747TIP3    H123184   5.777   1.129   6.424
 7747TIP3    H223185   5.886   1.039   6.371
 7748TIP3   OH223186   4.933   1.115   3.914
 7748TIP3    H123187   4.951   1.148   3.826
 7748TIP3    H223188   4.885   1.186   3.957
 7749TIP3   OH223189   0.291   1.738   0.715
 7749TIP3    H123190   0.351   1.722   0.642
 7749TIP3    H223191   0.204   1.733   0.676
 7750TIP3   OH223192   4.081   3.611   4.510
 7750TIP3    H123193   4.003   3.556   4.506
 7750TIP3    H223194   4.081   3.659   4.428
 7751TIP3   OH223195   1.635   2.988   1.163
 7751TIP3    H123196   1.691   2.947   1.230
 7751TIP3    H223197   1.547   2.985   1.201
 7752TIP3   OH223198   6.101   6.638   6.530
 7752TIP3    H123199   6.152   6.560   6.552
 7752TIP3    H223200   6.164   6.710   6.537
 7753TIP3   OH223201   8.049   3.243   5.126
 7753TIP3    H123202   8.106   3.258   5.051
 7753TIP3    H223203   8.094   3.283   5.199
 7754TIP3   OH223204   6.594   5.807   4.061
 7754TIP3    H123205   6.656   5.878   4.077
 7754TIP3    H223206   6.608   5.783   3.969
 7755TIP3   OH223207   4.998   0.648   3.955
 7755TIP3    H123208   5.008   0.613   3.867
 7755TIP3    H223209   4.972   0.573   4.008
 7756TIP3   OH223210   5.738   7.428   1.566
 7756TIP3    H123211   5.747   7.369   1.492
 7756TIP3    H223212   5.754   7.515   1.530
 7757TIP3   OH223213   0.070   3.831   5.812
 7757TIP3    H123214   0.011   3.873   5.875
 7757TIP3    H223215   0.067   3.889   5.735
 7758TIP3   OH223216   4.603   3.565   2.708
 7758TIP3    H123217   4.650   3.575   2.625
 7758TIP3    H223218   4.650   3.623   2.768
 7759TIP3   OH223219   2.401   3.872   5.871
 7759TIP3    H123220   2.359   3.928   5.936
 7759TIP3    H223221   2.441   3.802   5.921
 7760TIP3   OH223222   6.111   4.797   1.459
 7760TIP3    H123223   6.131   4.890   1.455
 7760TIP3    H223224   6.033   4.792   1.514
 7761TIP3   OH223225   3.587   7.350   4.299
 7761TIP3    H123226   3.552   7.378   4.383
 7761TIP3    H223227   3.656   7.287   4.322
 7762TIP3   OH223228   0.447   7.634   5.916
 7762TIP3    H123229   0.421   7.699   5.981
 7762TIP3    H223230   0.504   7.574   5.964
 7763TIP3   OH223231   7.289   6.105   2.858
 7763TIP3    H123232   7.301   6.119   2.952
 7763TIP3    H223233   7.286   6.194   2.821
 7764TIP3   OH223234   3.133   2.435   6.112
 7764TIP3    H123235   3.103   2.467   6.197
 7764TIP3    H223236   3.191   2.362   6.134
 7765TIP3   OH223237   0.132   2.285   1.625
 7765TIP3    H123238   0.205   2.246   1.577
 7765TIP3    H223239   0.174   2.340   1.692
 7766TIP3   OH223240   4.293   3.344   5.880
 7766TIP3    H123241   4.292   3.260   5.927
 7766TIP3    H223242   4.380   3.347   5.839
 7767TIP3   OH223243   0.181   4.245   1.041
 7767TIP3    H123244   0.233   4.296   1.104
 7767TIP3    H223245   0.223   4.159   1.040
 7768TIP3   OH223246   2.165   4.846   1.508
 7768TIP3    H123247   2.236   4.856   1.571
 7768TIP3    H223248   2.088   4.826   1.561
 7769TIP3   OH223249   4.155   7.482   1.697
 7769TIP3    H123250   4.061   7.465   1.691
 7769TIP3    H223251   4.163   7.577   1.688
 7770TIP3   OH223252   8.245   6.221   1.252
 7770TIP3    H123253   8.214   6.194   1.165
 7770TIP3    H223254   8.182   6.183   1.312
 7771TIP3   OH223255   6.692   0.401   3.965
 7771TIP3    H123256   6.638   0.448   4.029
 7771TIP3    H223257   6.761   0.362   4.018
 7772TIP3   OH223258   5.049   4.648   4.035
 7772TIP3    H123259   5.130   4.611   3.999
 7772TIP3    H223260   5.077   4.729   4.078
 7773TIP3   OH223261   5.349   1.412   2.875
 7773TIP3    H123262   5.316   1.364   2.799
 7773TIP3    H223263   5.344   1.504   2.849
 7774TIP3   OH223264   8.054   0.939   6.001
 7774TIP3    H123265   8.062   0.914   6.093
 7774TIP3    H223266   8.109   0.877   5.954
 7775TIP3   OH223267   8.179   6.746   3.530
 7775TIP3    H123268   8.273   6.744   3.550
 7775TIP3    H223269   8.171   6.694   3.450
 7776TIP3   OH223270   0.394   5.766   5.387
 7776TIP3    H123271   0.396   5.672   5.406
 7776TIP3    H223272   0.353   5.805   5.464
 7777TIP3   OH223273   2.177   6.702   2.943
 7777TIP3    H123274   2.259   6.748   2.926
 7777TIP3    H223275   2.125   6.764   2.995
 7778TIP3   OH223276   2.527   7.627   5.669
 7778TIP3    H123277   2.514   7.709   5.717
 7778TIP3    H223278   2.528   7.654   5.577
 7779TIP3   OH223279   7.781   2.371   5.895
 7779TIP3    H123280   7.770   2.352   5.801
 7779TIP3    H223281   7.873   2.395   5.904
 7780TIP3   OH223282   3.924   1.645   6.166
 7780TIP3    H123283   3.967   1.564   6.194
 7780TIP3    H223284   3.904   1.631   6.073
 7781TIP3   OH223285   6.035   7.755   1.677
 7781TIP3    H123286   5.991   7.675   1.706
 7781TIP3    H223287   6.126   7.729   1.665
 7782TIP3   OH223288   6.121   4.969   5.933
 7782TIP3    H123289   6.177   4.999   6.004
 7782TIP3    H223290   6.141   5.028   5.860
 7783TIP3   OH223291   3.511   2.281   4.080
 7783TIP3    H123292   3.508   2.334   4.160
 7783TIP3    H223293   3.440   2.218   4.091
 7784TIP3   OH223294   5.156   5.216   1.955
 7784TIP3    H123295   5.159   5.307   1.986
 7784TIP3    H223296   5.240   5.203   1.912
 7785TIP3   OH223297   1.456   0.719   4.184
 7785TIP3    H123298   1.531   0.677   4.142
 7785TIP3    H223299   1.466   0.699   4.277
 7786TIP3   OH223300   1.015   2.361   3.180
 7786TIP3    H123301   1.006   2.455   3.194
 7786TIP3    H223302   1.108   2.347   3.164
 7787TIP3   OH223303   7.795   1.030   6.096
 7787TIP3    H123304   7.854   0.988   6.032
 7787TIP3    H223305   7.854   1.064   6.163
 7788TIP3   OH223306   5.141   1.318   5.294
 7788TIP3    H123307   5.175   1.270   5.219
 7788TIP3    H223308   5.212   1.314   5.358
 7789TIP3   OH223309   3.149   4.807   3.372
 7789TIP3    H123310   3.227   4.781   3.422
 7789TIP3    H223311   3.128   4.895   3.405
 7790TIP3   OH223312   5.126   4.584   6.004
 7790TIP3    H123313   5.193   4.613   5.942
 7790TIP3    H223314   5.140   4.638   6.081
 7791TIP3   OH223315   2.370   2.208   2.024
 7791TIP3    H123316   2.450   2.155   2.036
 7791TIP3    H223317   2.363   2.220   1.930
 7792TIP3   OH223318   4.196   1.758   6.214
 7792TIP3    H123319   4.212   1.730   6.304
 7792TIP3    H223320   4.102   1.746   6.202
 7793TIP3   OH223321   2.479   6.285   2.956
 7793TIP3    H123322   2.445   6.363   2.911
 7793TIP3    H223323   2.409   6.221   2.950
 7794TIP3   OH223324   2.280   3.317   2.535
 7794TIP3    H123325   2.192   3.299   2.567
 7794TIP3    H223326   2.267   3.356   2.449
 7795TIP3   OH223327   6.662   7.111   6.097
 7795TIP3    H123328   6.609   7.165   6.156
 7795TIP3    H223329   6.743   7.160   6.086
 7796TIP3   OH223330   0.943   2.986   3.960
 7796TIP3    H123331   0.963   2.944   4.044
 7796TIP3    H223332   0.889   2.922   3.914
 7797TIP3   OH223333   0.968   7.539   6.445
 7797TIP3    H123334   0.975   7.484   6.522
 7797TIP3    H223335   0.886   7.513   6.403
 7798TIP3   OH223336   4.819   4.037   6.215
 7798TIP3    H123337   4.888   4.076   6.162
 7798TIP3    H223338   4.808   4.097   6.289
 7799TIP3   OH223339   5.208   3.510   2.450
 7799TIP3    H123340   5.121   3.479   2.423
 7799TIP3    H223341   5.232   3.575   2.384
 7800TIP3   OH223342   3.235   4.615   6.165
 7800TIP3    H123343   3.306   4.670   6.130
 7800TIP3    H223344   3.157   4.669   6.156
 7801TIP3   OH223345   1.185   7.796   3.280
 7801TIP3    H123346   1.113   7.803   3.343
 7801TIP3    H223347   1.152   7.737   3.211
 7802TIP3   OH223348   0.676   2.103   1.043
 7802TIP3    H123349   0.743   2.045   1.080
 7802TIP3    H223350   0.716   2.190   1.045
 7803TIP3   OH223351   4.585   5.618   5.271
 7803TIP3    H123352   4.623   5.533   5.293
 7803TIP3    H223353   4.631   5.646   5.192
 7804TIP3   OH223354   5.693   4.708   4.597
 7804TIP3    H123355   5.625   4.722   4.531
 7804TIP3    H223356   5.715   4.615   4.590
 7805TIP3   OH223357   5.419   1.862   5.346
 7805TIP3    H123358   5.500   1.812   5.359
 7805TIP3    H223359   5.350   1.797   5.356
 7806TIP3   OH223360   4.764   2.947   3.633
 7806TIP3    H123361   4.723   3.022   3.590
 7806TIP3    H223362   4.700   2.918   3.698
 7807TIP3   OH223363   1.065   2.527   2.169
 7807TIP3    H123364   1.011   2.530   2.249
 7807TIP3    H223365   1.028   2.455   2.119
 7808TIP3   OH223366   7.292   5.131   5.125
 7808TIP3    H123367   7.208   5.086   5.120
 7808TIP3    H223368   7.330   5.100   5.208
 7809TIP3   OH223369   6.999   4.164   1.925
 7809TIP3    H123370   6.914   4.141   1.886
 7809TIP3    H223371   7.038   4.079   1.947
 7810TIP3   OH223372   2.066   7.166   0.667
 7810TIP3    H123373   2.145   7.209   0.698
 7810TIP3    H223374   2.097   7.096   0.609
 7811TIP3   OH223375   6.665   1.226   2.533
 7811TIP3    H123376   6.732   1.159   2.551
 7811TIP3    H223377   6.688   1.299   2.591
 7812TIP3   OH223378   8.259   4.901   2.107
 7812TIP3    H123379   8.321   4.966   2.141
 7812TIP3    H223380   8.185   4.954   2.076
 7813TIP3   OH223381   5.648   4.133   4.700
 7813TIP3    H123382   5.596   4.167   4.627
 7813TIP3    H223383   5.724   4.092   4.659
 7814TIP3   OH223384   7.470   7.104   5.843
 7814TIP3    H123385   7.436   7.168   5.781
 7814TIP3    H223386   7.415   7.115   5.921
 7815TIP3   OH223387   7.300   5.509   1.124
 7815TIP3    H123388   7.300   5.577   1.192
 7815TIP3    H223389   7.231   5.536   1.064
 7816TIP3   OH223390   0.411   0.291   3.239
 7816TIP3    H123391   0.414   0.202   3.275
 7816TIP3    H223392   0.480   0.338   3.285
 7817TIP3   OH223393   2.687   5.815   3.678
 7817TIP3    H123394   2.672   5.845   3.589
 7817TIP3    H223395   2.771   5.853   3.703
 7818TIP3   OH223396   5.959   0.054   3.741
 7818TIP3    H123397   6.003   0.015   3.666
 7818TIP3    H223398   5.978  -0.005   3.814
 7819TIP3   OH223399   3.837   0.403   4.842
 7819TIP3    H123400   3.815   0.358   4.924
 7819TIP3    H223401   3.752   0.424   4.804
 7820TIP3   OH223402   1.899   4.048   3.692
 7820TIP3    H123403   1.944   4.062   3.775
 7820TIP3    H223404   1.959   4.083   3.626
 7821TIP3   OH223405   3.101   5.331   6.243
 7821TIP3    H123406   3.091   5.341   6.149
 7821TIP3    H223407   3.053   5.405   6.281
 7822TIP3   OH223408   2.036   4.587   6.728
 7822TIP3    H123409   2.007   4.573   6.638
 7822TIP3    H223410   2.127   4.557   6.728
 7823TIP3   OH223411   5.796   6.917   4.125
 7823TIP3    H123412   5.709   6.887   4.151
 7823TIP3    H223413   5.855   6.850   4.160
 7824TIP3   OH223414   5.662   4.669   5.802
 7824TIP3    H123415   5.645   4.763   5.799
 7824TIP3    H223416   5.719   4.657   5.878
 7825TIP3   OH223417   2.300   5.390   4.492
 7825TIP3    H123418   2.356   5.362   4.564
 7825TIP3    H223419   2.336   5.347   4.415
 7826TIP3   OH223420   1.068   7.051   4.181
 7826TIP3    H123421   1.021   7.062   4.098
 7826TIP3    H223422   1.000   7.031   4.245
 7827TIP3   OH223423   1.427   2.719   2.307
 7827TIP3    H123424   1.453   2.636   2.346
 7827TIP3    H223425   1.359   2.753   2.366
 7828TIP3   OH223426   8.116   5.260   2.849
 7828TIP3    H123427   8.189   5.273   2.788
 7828TIP3    H223428   8.060   5.195   2.807
 7829TIP3   OH223429   4.048   3.031   3.545
 7829TIP3    H123430   4.041   3.088   3.468
 7829TIP3    H223431   4.002   2.951   3.520
 7830TIP3   OH223432   5.587   0.235   4.852
 7830TIP3    H123433   5.568   0.217   4.760
 7830TIP3    H223434   5.651   0.169   4.877
 7831TIP3   OH223435   2.943   3.119   1.160
 7831TIP3    H123436   2.925   3.207   1.194
 7831TIP3    H223437   2.856   3.082   1.142
 7832TIP3   OH223438   2.809   5.001   2.342
 7832TIP3    H123439   2.730   5.033   2.385
 7832TIP3    H223440   2.785   4.915   2.308
 7833TIP3   OH223441   7.876   5.621   3.932
 7833TIP3    H123442   7.965   5.637   3.901
 7833TIP3    H223443   7.872   5.665   4.017
 7834TIP3   OH223444   4.860   2.098   6.191
 7834TIP3    H123445   4.938   2.143   6.223
 7834TIP3    H223446   4.869   2.008   6.223
 7835TIP3   OH223447   6.074   2.986   5.643
 7835TIP3    H123448   6.006   2.927   5.611
 7835TIP3    H223449   6.025   3.056   5.687
 7836TIP3   OH223450   6.450   4.506   3.383
 7836TIP3    H123451   6.372   4.561   3.382
 7836TIP3    H223452   6.424   4.427   3.335
 7837TIP3   OH223453   1.441   1.601   6.669
 7837TIP3    H123454   1.370   1.554   6.625
 7837TIP3    H223455   1.483   1.651   6.599
 7838TIP3   OH223456   2.334   5.402   6.183
 7838TIP3    H123457   2.370   5.473   6.130
 7838TIP3    H223458   2.345   5.324   6.129
 7839TIP3   OH223459   8.014   5.500   3.304
 7839TIP3    H123460   8.058   5.528   3.385
 7839TIP3    H223461   8.068   5.536   3.234
 7840TIP3   OH223462   3.234   7.601   2.826
 7840TIP3    H123463   3.310   7.642   2.786
 7840TIP3    H223464   3.266   7.518   2.859
 7841TIP3   OH223465   3.173   3.111   3.091
 7841TIP3    H123466   3.163   3.016   3.091
 7841TIP3    H223467   3.174   3.135   2.998
 7842TIP3   OH223468   2.561   3.754   4.436
 7842TIP3    H123469   2.641   3.721   4.394
 7842TIP3    H223470   2.592   3.822   4.496
 7843TIP3   OH223471   1.840   2.244   5.531
 7843TIP3    H123472   1.763   2.287   5.569
 7843TIP3    H223473   1.804   2.182   5.468
 7844TIP3   OH223474   4.454   0.356   4.449
 7844TIP3    H123475   4.538   0.399   4.465
 7844TIP3    H223476   4.462   0.271   4.491
 7845TIP3   OH223477   3.875   7.371   1.273
 7845TIP3    H123478   3.938   7.305   1.245
 7845TIP3    H223479   3.813   7.377   1.200
 7846TIP3   OH223480   7.577   0.774   1.473
 7846TIP3    H123481   7.511   0.752   1.539
 7846TIP3    H223482   7.548   0.859   1.439
 7847TIP3   OH223483   5.055   6.012   1.009
 7847TIP3    H123484   5.138   6.041   1.047
 7847TIP3    H223485   5.080   5.947   0.944
 7848TIP3   OH223486   3.959   1.182   1.837
 7848TIP3    H123487   3.944   1.163   1.930
 7848TIP3    H223488   4.044   1.143   1.818
 7849TIP3   OH223489   8.047   0.920   2.585
 7849TIP3    H123490   8.020   0.845   2.638
 7849TIP3    H223491   7.966   0.949   2.543
 7850TIP3   OH223492   3.774   3.441   1.276
 7850TIP3    H123493   3.791   3.519   1.223
 7850TIP3    H223494   3.838   3.446   1.346
 7851TIP3   OH223495   2.582   0.896   4.501
 7851TIP3    H123496   2.566   0.841   4.424
 7851TIP3    H223497   2.624   0.837   4.564
 7852TIP3   OH223498   0.453   5.366   5.939
 7852TIP3    H123499   0.474   5.436   6.000
 7852TIP3    H223500   0.487   5.286   5.979
 7853TIP3   OH223501   0.880   7.076   4.961
 7853TIP3    H123502   0.940   7.138   4.920
 7853TIP3    H223503   0.845   7.124   5.036
 7854TIP3   OH223504   2.770   0.723   4.629
 7854TIP3    H123505   2.807   0.792   4.684
 7854TIP3    H223506   2.834   0.651   4.634
 7855TIP3   OH223507   0.384   5.359   2.684
 7855TIP3    H123508   0.463   5.345   2.735
 7855TIP3    H223509   0.407   5.329   2.596
 7856TIP3   OH223510   1.126   4.521   2.995
 7856TIP3    H123511   1.040   4.535   3.033
 7856TIP3    H223512   1.185   4.517   3.069
 7857TIP3   OH223513   5.988   3.639   2.477
 7857TIP3    H123514   6.061   3.577   2.480
 7857TIP3    H223515   5.925   3.599   2.418
 7858TIP3   OH223516   2.385   5.952   4.866
 7858TIP3    H123517   2.311   6.003   4.833
 7858TIP3    H223518   2.433   5.925   4.788
 7859TIP3   OH223519   5.624   6.572   2.954
 7859TIP3    H123520   5.569   6.545   3.028
 7859TIP3    H223521   5.686   6.499   2.943
 7860TIP3   OH223522   7.679   1.060   0.226
 7860TIP3    H123523   7.595   1.017   0.215
 7860TIP3    H223524   7.666   1.148   0.191
 7861TIP3   OH223525   3.678   4.541   4.188
 7861TIP3    H123526   3.661   4.466   4.246
 7861TIP3    H223527   3.600   4.546   4.133
 7862TIP3   OH223528   6.987   2.550   1.319
 7862TIP3    H123529   7.005   2.631   1.271
 7862TIP3    H223530   6.968   2.486   1.251
 7863TIP3   OH223531   6.667   7.225   4.743
 7863TIP3    H123532   6.574   7.245   4.745
 7863TIP3    H223533   6.671   7.130   4.731
 7864TIP3   OH223534   5.279   5.689   1.138
 7864TIP3    H123535   5.255   5.767   1.089
 7864TIP3    H223536   5.266   5.617   1.077
 7865TIP3   OH223537   5.586   5.767   0.087
 7865TIP3    H123538   5.624   5.680   0.075
 7865TIP3    H223539   5.607   5.814   0.007
 7866TIP3   OH223540   1.288   3.451   5.397
 7866TIP3    H123541   1.327   3.383   5.452
 7866TIP3    H223542   1.207   3.474   5.441
 7867TIP3   OH223543   0.671   2.114   4.145
 7867TIP3    H123544   0.708   2.038   4.190
 7867TIP3    H223545   0.744   2.175   4.137
 7868TIP3   OH223546   2.175   3.357   5.063
 7868TIP3    H123547   2.166   3.453   5.065
 7868TIP3    H223548   2.198   3.333   5.153
 7869TIP3   OH223549   2.717   7.367   3.650
 7869TIP3    H123550   2.684   7.337   3.735
 7869TIP3    H223551   2.791   7.309   3.631
 7870TIP3   OH223552   1.862   5.416   3.376
 7870TIP3    H123553   1.944   5.407   3.327
 7870TIP3    H223554   1.849   5.331   3.417
 7871TIP3   OH223555   7.920   4.973   6.389
 7871TIP3    H123556   7.952   5.036   6.453
 7871TIP3    H223557   7.840   5.013   6.354
 7872TIP3   OH223558   1.856   2.044   4.171
 7872TIP3    H123559   1.941   2.075   4.203
 7872TIP3    H223560   1.860   2.055   4.076
 7873TIP3   OH223561   5.945   0.695   6.618
 7873TIP3    H123562   5.928   0.609   6.657
 7873TIP3    H223563   5.879   0.704   6.549
 7874TIP3   OH223564   4.313   2.189   6.583
 7874TIP3    H123565   4.231   2.180   6.535
 7874TIP3    H223566   4.317   2.111   6.638
 7875TIP3   OH223567   6.230   1.806   1.531
 7875TIP3    H123568   6.309   1.811   1.477
 7875TIP3    H223569   6.201   1.897   1.541
 7876TIP3   OH223570   1.426   2.418   5.023
 7876TIP3    H123571   1.512   2.454   5.001
 7876TIP3    H223572   1.365   2.461   4.964
 7877TIP3   OH223573   4.232   6.912   2.996
 7877TIP3    H123574   4.262   6.856   3.067
 7877TIP3    H223575   4.255   6.864   2.916
 7878TIP3   OH223576   6.419   4.447   6.038
 7878TIP3    H123577   6.369   4.432   5.958
 7878TIP3    H223578   6.481   4.374   6.042
 7879TIP3   OH223579   5.912   2.577   4.073
 7879TIP3    H123580   5.987   2.631   4.049
 7879TIP3    H223581   5.850   2.638   4.115
 7880TIP3   OH223582   3.578   5.708   1.972
 7880TIP3    H123583   3.633   5.786   1.975
 7880TIP3    H223584   3.588   5.675   1.883
 7881TIP3   OH223585   6.378   3.653   6.471
 7881TIP3    H123586   6.307   3.699   6.516
 7881TIP3    H223587   6.447   3.718   6.464
 7882TIP3   OH223588   4.231   6.657   5.810
 7882TIP3    H123589   4.298   6.622   5.751
 7882TIP3    H223590   4.149   6.622   5.777
 7883TIP3   OH223591   0.632   4.726   5.328
 7883TIP3    H123592   0.619   4.655   5.391
 7883TIP3    H223593   0.551   4.729   5.278
 7884TIP3   OH223594   5.823   6.803   5.830
 7884TIP3    H123595   5.788   6.868   5.891
 7884TIP3    H223596   5.913   6.788   5.860
 7885TIP3   OH223597   3.896   1.107   2.079
 7885TIP3    H123598   3.872   1.017   2.059
 7885TIP3    H223599   3.924   1.105   2.170
 7886TIP3   OH223600   6.262   0.127   5.529
 7886TIP3    H123601   6.330   0.065   5.554
 7886TIP3    H223602   6.185   0.073   5.511
 7887TIP3   OH223603   5.647   4.819   2.086
 7887TIP3    H123604   5.603   4.852   2.008
 7887TIP3    H223605   5.738   4.806   2.058
 7888TIP3   OH223606   8.076   5.244   3.305
 7888TIP3    H123607   8.017   5.192   3.250
 7888TIP3    H223608   8.051   5.334   3.288
 7889TIP3   OH223609   6.838   1.404   4.168
 7889TIP3    H123610   6.916   1.441   4.209
 7889TIP3    H223611   6.787   1.479   4.137
 7890TIP3   OH223612   7.391   2.213   4.268
 7890TIP3    H123613   7.322   2.220   4.202
 7890TIP3    H223614   7.424   2.302   4.278
 7891TIP3   OH223615   8.171   1.990   0.299
 7891TIP3    H123616   8.264   1.996   0.320
 7891TIP3    H223617   8.165   1.912   0.244
 7892TIP3   OH223618   2.717   1.195   1.710
 7892TIP3    H123619   2.689   1.224   1.797
 7892TIP3    H223620   2.718   1.275   1.657
 7893TIP3   OH223621   3.268   6.755   5.003
 7893TIP3    H123622   3.222   6.838   4.994
 7893TIP3    H223623   3.300   6.735   4.915
 7894TIP3   OH223624   6.460   4.009   6.741
 7894TIP3    H123625   6.483   3.937   6.683
 7894TIP3    H223626   6.542   4.033   6.783
 7895TIP3   OH223627   2.568   5.489   2.363
 7895TIP3    H123628   2.620   5.509   2.440
 7895TIP3    H223629   2.556   5.574   2.320
 7896TIP3   OH223630   0.065   1.818   0.564
 7896TIP3    H123631   0.065   1.913   0.547
 7896TIP3    H223632   0.010   1.808   0.641
 7897TIP3   OH223633   2.805   4.300   6.474
 7897TIP3    H123634   2.762   4.242   6.538
 7897TIP3    H223635   2.739   4.313   6.406
 7898TIP3   OH223636   8.238   3.388   3.371
 7898TIP3    H123637   8.333   3.397   3.364
 7898TIP3    H223638   8.204   3.477   3.357
 7899TIP3   OH223639   8.148   0.295   4.916
 7899TIP3    H123640   8.125   0.382   4.950
 7899TIP3    H223641   8.064   0.254   4.895
 7900TIP3   OH223642   4.826   4.148   4.347
 7900TIP3    H123643   4.823   4.074   4.287
 7900TIP3    H223644   4.913   4.142   4.388
 7901TIP3   OH223645   1.883   0.855   5.303
 7901TIP3    H123646   1.855   0.943   5.278
 7901TIP3    H223647   1.948   0.869   5.372
 7902TIP3   OH223648   0.509   1.242   1.074
 7902TIP3    H123649   0.435   1.302   1.080
 7902TIP3    H223650   0.470   1.159   1.044
 7903TIP3   OH223651   6.070   2.438   2.081
 7903TIP3    H123652   5.996   2.470   2.030
 7903TIP3    H223653   6.085   2.349   2.048
 7904TIP3   OH223654   4.379   4.676   1.783
 7904TIP3    H123655   4.416   4.674   1.871
 7904TIP3    H223656   4.382   4.768   1.757
 7905TIP3   OH223657   0.867   1.066   1.916
 7905TIP3    H123658   0.783   1.064   1.871
 7905TIP3    H223659   0.866   0.990   1.974
 7906TIP3   OH223660   2.577   3.207   2.509
 7906TIP3    H123661   2.521   3.195   2.586
 7906TIP3    H223662   2.522   3.256   2.447
 7907TIP3   OH223663   5.939   4.845   1.673
 7907TIP3    H123664   5.894   4.929   1.677
 7907TIP3    H223665   5.948   4.818   1.764
 7908TIP3   OH223666   0.992   7.507   5.076
 7908TIP3    H123667   1.025   7.503   4.986
 7908TIP3    H223668   1.066   7.542   5.126
 7909TIP3   OH223669   5.340   4.980   3.186
 7909TIP3    H123670   5.312   5.017   3.102
 7909TIP3    H223671   5.425   5.021   3.203
 7910TIP3   OH223672   8.014   3.047   6.084
 7910TIP3    H123673   7.940   3.098   6.051
 7910TIP3    H223674   8.007   3.052   6.179
 7911TIP3   OH223675   3.560   2.633   0.443
 7911TIP3    H123676   3.545   2.588   0.360
 7911TIP3    H223677   3.535   2.570   0.509
 7912TIP3   OH223678   4.220   1.930   0.895
 7912TIP3    H123679   4.156   1.986   0.850
 7912TIP3    H223680   4.268   1.990   0.952
 7913TIP3   OH223681   2.506   2.464   3.578
 7913TIP3    H123682   2.518   2.435   3.488
 7913TIP3    H223683   2.561   2.404   3.630
 7914TIP3   OH223684   1.692   1.064   4.967
 7914TIP3    H123685   1.605   1.058   4.927
 7914TIP3    H223686   1.739   0.988   4.934
 7915TIP3   OH223687   5.604   1.068   0.762
 7915TIP3    H123688   5.651   0.984   0.763
 7915TIP3    H223689   5.584   1.084   0.855
 7916TIP3   OH223690   6.396   3.458   1.342
 7916TIP3    H123691   6.490   3.444   1.329
 7916TIP3    H223692   6.369   3.383   1.396
 7917TIP3   OH223693   1.021   5.805   3.662
 7917TIP3    H123694   0.942   5.821   3.714
 7917TIP3    H223695   1.050   5.718   3.689
 7918TIP3   OH223696   4.217   0.862   1.101
 7918TIP3    H123697   4.144   0.850   1.161
 7918TIP3    H223698   4.285   0.903   1.154
 7919TIP3   OH223699   7.079   6.930   0.786
 7919TIP3    H123700   7.068   7.007   0.842
 7919TIP3    H223701   7.009   6.870   0.812
 7920TIP3   OH223702   6.332   4.507   3.831
 7920TIP3    H123703   6.386   4.430   3.811
 7920TIP3    H223704   6.383   4.557   3.894
 7921TIP3   OH223705   1.216   7.415   0.606
 7921TIP3    H123706   1.272   7.442   0.533
 7921TIP3    H223707   1.276   7.379   0.671
 7922TIP3   OH223708   1.460   4.554   5.434
 7922TIP3    H123709   1.417   4.550   5.349
 7922TIP3    H223710   1.553   4.550   5.414
 7923TIP3   OH223711   0.724   0.594   1.599
 7923TIP3    H123712   0.814   0.602   1.565
 7923TIP3    H223713   0.710   0.674   1.649
 7924TIP3   OH223714   5.251   1.575   1.973
 7924TIP3    H123715   5.229   1.668   1.980
 7924TIP3    H223716   5.172   1.529   2.004
 7925TIP3   OH223717   7.599   2.449   5.183
 7925TIP3    H123718   7.576   2.356   5.190
 7925TIP3    H223719   7.547   2.491   5.251
 7926TIP3   OH223720   5.904   4.834   2.207
 7926TIP3    H123721   5.821   4.864   2.243
 7926TIP3    H223722   5.958   4.913   2.203
 7927TIP3   OH223723   3.471   6.793   3.959
 7927TIP3    H123724   3.450   6.699   3.962
 7927TIP3    H223725   3.393   6.836   3.995
 7928TIP3   OH223726   2.889   2.707   4.833
 7928TIP3    H123727   2.955   2.735   4.769
 7928TIP3    H223728   2.864   2.619   4.805
 7929TIP3   OH223729   7.180   2.119   2.568
 7929TIP3    H123730   7.102   2.064   2.559
 7929TIP3    H223731   7.149   2.197   2.615
 7930TIP3   OH223732   6.117   2.622   1.496
 7930TIP3    H123733   6.168   2.648   1.573
 7930TIP3    H223734   6.071   2.542   1.524
 7931TIP3   OH223735   3.441   6.881   5.181
 7931TIP3    H123736   3.428   6.827   5.103
 7931TIP3    H223737   3.399   6.830   5.251
 7932TIP3   OH223738   1.537   4.104   3.844
 7932TIP3    H123739   1.522   4.112   3.938
 7932TIP3    H223740   1.564   4.191   3.816
 7933TIP3   OH223741   3.306   5.417   3.770
 7933TIP3    H123742   3.358   5.400   3.692
 7933TIP3    H223743   3.215   5.419   3.739
 7934TIP3   OH223744   2.856   7.748   0.740
 7934TIP3    H123745   2.867   7.789   0.826
 7934TIP3    H223746   2.884   7.657   0.753
 7935TIP3   OH223747   7.343   6.654   3.672
 7935TIP3    H123748   7.255   6.683   3.646
 7935TIP3    H223749   7.337   6.559   3.674
 7936TIP3   OH223750   3.358   7.206   5.125
 7936TIP3    H123751   3.422   7.234   5.190
 7936TIP3    H223752   3.359   7.111   5.129
 7937TIP3   OH223753   7.362   7.456   1.935
 7937TIP3    H123754   7.434   7.508   1.899
 7937TIP3    H223755   7.291   7.518   1.947
 7938TIP3   OH223756   0.992   0.405   1.279
 7938TIP3    H123757   1.085   0.386   1.287
 7938TIP3    H223758   0.979   0.428   1.187
 7939TIP3   OH223759   1.950   3.947   5.106
 7939TIP3    H123760   2.022   3.942   5.169
 7939TIP3    H223761   1.990   3.927   5.021
 7940TIP3   OH223762   0.842   2.350   1.822
 7940TIP3    H123763   0.928   2.313   1.841
 7940TIP3    H223764   0.780   2.290   1.863
 7941TIP3   OH223765   1.304   6.533   2.317
 7941TIP3    H123766   1.209   6.523   2.324
 7941TIP3    H223767   1.338   6.444   2.326
 7942TIP3   OH223768   5.832   2.202   4.227
 7942TIP3    H123769   5.784   2.225   4.307
 7942TIP3    H223770   5.771   2.148   4.177
 7943TIP3   OH223771   3.924   5.926   1.408
 7943TIP3    H123772   3.890   5.848   1.452
 7943TIP3    H223773   4.016   5.907   1.392
 7944TIP3   OH223774   6.225   3.269   0.451
 7944TIP3    H123775   6.213   3.358   0.485
 7944TIP3    H223776   6.138   3.244   0.419
 7945TIP3   OH223777   3.481   5.323   3.213
 7945TIP3    H123778   3.441   5.247   3.169
 7945TIP3    H223779   3.440   5.399   3.171
 7946TIP3   OH223780   0.156   4.589   0.770
 7946TIP3    H123781   0.200   4.664   0.730
 7946TIP3    H223782   0.094   4.559   0.704
 7947TIP3   OH223783   6.738   5.336   5.586
 7947TIP3    H123784   6.748   5.426   5.553
 7947TIP3    H223785   6.800   5.330   5.658
 7948TIP3   OH223786   0.863   1.351   3.915
 7948TIP3    H123787   0.848   1.422   3.976
 7948TIP3    H223788   0.883   1.275   3.970
 7949TIP3   OH223789   6.235   0.215   5.197
 7949TIP3    H123790   6.250   0.136   5.146
 7949TIP3    H223791   6.320   0.236   5.235
 7950TIP3   OH223792   0.778   2.153   3.398
 7950TIP3    H123793   0.834   2.145   3.321
 7950TIP3    H223794   0.839   2.171   3.470
 7951TIP3   OH223795   0.741   4.350   3.380
 7951TIP3    H123796   0.730   4.379   3.290
 7951TIP3    H223797   0.652   4.349   3.416
 7952TIP3   OH223798   7.311   1.974   4.940
 7952TIP3    H123799   7.234   1.921   4.919
 7952TIP3    H223800   7.278   2.043   4.998
 7953TIP3   OH223801   3.476   6.002   4.005
 7953TIP3    H123802   3.497   5.915   4.039
 7953TIP3    H223803   3.462   6.056   4.084
 7954TIP3   OH223804   2.820   7.349   2.022
 7954TIP3    H123805   2.902   7.301   2.005
 7954TIP3    H223806   2.792   7.319   2.108
 7955TIP3   OH223807   7.326   3.345   4.144
 7955TIP3    H123808   7.269   3.315   4.073
 7955TIP3    H223809   7.316   3.278   4.212
 7956TIP3   OH223810   3.682   4.747   0.887
 7956TIP3    H123811   3.758   4.787   0.929
 7956TIP3    H223812   3.678   4.789   0.801
 7957TIP3   OH223813   4.057   2.017   4.239
 7957TIP3    H123814   4.109   1.951   4.194
 7957TIP3    H223815   4.047   1.984   4.328
 7958TIP3   OH223816   3.280   0.741   5.544
 7958TIP3    H123817   3.316   0.653   5.531
 7958TIP3    H223818   3.191   0.736   5.507
 7959TIP3   OH223819   6.249   1.404   3.391
 7959TIP3    H123820   6.217   1.316   3.373
 7959TIP3    H223821   6.177   1.447   3.437
 7960TIP3   OH223822   6.559   7.640   1.453
 7960TIP3    H123823   6.573   7.725   1.411
 7960TIP3    H223824   6.465   7.625   1.444
 7961TIP3   OH223825   6.154   2.936   3.237
 7961TIP3    H123826   6.107   2.853   3.252
 7961TIP3    H223827   6.161   2.975   3.324
 7962TIP3   OH223828   7.980   6.930   3.976
 7962TIP3    H123829   8.006   6.969   3.893
 7962TIP3    H223830   7.910   6.987   4.009
 7963TIP3   OH223831   5.308   7.186   4.751
 7963TIP3    H123832   5.235   7.245   4.767
 7963TIP3    H223833   5.377   7.241   4.714
 7964TIP3   OH223834   7.464   6.190   5.457
 7964TIP3    H123835   7.431   6.275   5.427
 7964TIP3    H223836   7.494   6.146   5.377
 7965TIP3   OH223837   7.406   0.026   2.288
 7965TIP3    H123838   7.494   0.063   2.278
 7965TIP3    H223839   7.376   0.058   2.374
 7966TIP3   OH223840   1.268   4.415   2.537
 7966TIP3    H123841   1.231   4.401   2.625
 7966TIP3    H223842   1.242   4.338   2.488
 7967TIP3   OH223843   2.211   1.074   0.408
 7967TIP3    H123844   2.166   1.118   0.336
 7967TIP3    H223845   2.275   1.018   0.366
 7968TIP3   OH223846   1.325   1.794   3.758
 7968TIP3    H123847   1.401   1.852   3.753
 7968TIP3    H223848   1.353   1.722   3.814
 7969TIP3   OH223849   7.416   0.065   4.459
 7969TIP3    H123850   7.432   0.115   4.540
 7969TIP3    H223851   7.321   0.057   4.455
 7970TIP3   OH223852   6.434   4.261   0.672
 7970TIP3    H123853   6.452   4.231   0.583
 7970TIP3    H223854   6.450   4.184   0.726
 7971TIP3   OH223855   0.870   2.575   4.600
 7971TIP3    H123856   0.775   2.561   4.608
 7971TIP3    H223857   0.905   2.549   4.685
 7972TIP3   OH223858   7.393   2.045   6.048
 7972TIP3    H123859   7.308   2.062   6.007
 7972TIP3    H223860   7.456   2.051   5.976
 7973TIP3   OH223861   4.042   0.451   1.256
 7973TIP3    H123862   4.036   0.542   1.227
 7973TIP3    H223863   3.952   0.420   1.259
 7974TIP3   OH223864   1.730   1.962   4.390
 7974TIP3    H123865   1.640   1.940   4.365
 7974TIP3    H223866   1.774   1.983   4.308
 7975TIP3   OH223867   5.705   3.350   5.547
 7975TIP3    H123868   5.616   3.381   5.532
 7975TIP3    H223869   5.741   3.411   5.612
 7976TIP3   OH223870   1.542   1.369   0.916
 7976TIP3    H123871   1.597   1.290   0.923
 7976TIP3    H223872   1.601   1.441   0.939
 7977TIP3   OH223873   6.795   5.608   5.457
 7977TIP3    H123874   6.826   5.688   5.501
 7977TIP3    H223875   6.701   5.606   5.477
 7978TIP3   OH223876   5.098   5.891   0.332
 7978TIP3    H123877   5.136   5.965   0.284
 7978TIP3    H223878   5.167   5.864   0.392
 7979TIP3   OH223879   5.115   6.101  -0.049
 7979TIP3    H123880   5.098   6.130   0.041
 7979TIP3    H223881   5.065   6.162  -0.103
 7980TIP3   OH223882   5.748   2.932   0.999
 7980TIP3    H123883   5.837   2.896   1.009
 7980TIP3    H223884   5.707   2.877   0.933
 7981TIP3   OH223885   7.867   6.545   0.381
 7981TIP3    H123886   7.923   6.562   0.457
 7981TIP3    H223887   7.907   6.470   0.337
 7982TIP3   OH223888   4.912   7.746   2.506
 7982TIP3    H123889   4.821   7.721   2.490
 7982TIP3    H223890   4.916   7.764   2.600
 7983TIP3   OH223891   6.642   7.080   2.917
 7983TIP3    H123892   6.613   7.146   2.854
 7983TIP3    H223893   6.679   7.130   2.989
 7984TIP3   OH223894   2.612   3.499   2.020
 7984TIP3    H123895   2.639   3.495   1.929
 7984TIP3    H223896   2.534   3.555   2.019
 7985TIP3   OH223897   6.371   7.244   1.255
 7985TIP3    H123898   6.384   7.296   1.176
 7985TIP3    H223899   6.453   7.197   1.267
 7986TIP3   OH223900   2.086   5.411   2.401
 7986TIP3    H123901   2.163   5.411   2.344
 7986TIP3    H223902   2.012   5.426   2.342
 7987TIP3   OH223903   6.932   4.608   3.750
 7987TIP3    H123904   6.973   4.679   3.701
 7987TIP3    H223905   7.001   4.576   3.808
 7988TIP3   OH223906   6.024   3.951   2.913
 7988TIP3    H123907   6.046   3.891   2.984
 7988TIP3    H223908   5.971   3.899   2.852
 7989TIP3   OH223909   3.250   7.026   4.906
 7989TIP3    H123910   3.217   7.021   4.816
 7989TIP3    H223911   3.343   7.047   4.897
 7990TIP3   OH223912   7.591   2.396   3.247
 7990TIP3    H123913   7.685   2.398   3.228
 7990TIP3    H223914   7.577   2.469   3.307
 7991TIP3   OH223915   7.843   2.383   2.071
 7991TIP3    H123916   7.883   2.417   1.991
 7991TIP3    H223917   7.762   2.432   2.080
 7992TIP3   OH223918   5.516   5.121   4.471
 7992TIP3    H123919   5.439   5.167   4.503
 7992TIP3    H223920   5.526   5.047   4.530
 7993TIP3   OH223921   2.370   0.441   1.404
 7993TIP3    H123922   2.325   0.405   1.481
 7993TIP3    H223923   2.392   0.364   1.351
 7994TIP3   OH223924   0.081   7.719   5.161
 7994TIP3    H123925   0.115   7.772   5.233
 7994TIP3    H223926   0.140   7.736   5.088
 7995TIP3   OH223927   7.949   2.012   1.992
 7995TIP3    H123928   7.856   1.997   1.979
 7995TIP3    H223929   7.989   1.926   1.983
 7996TIP3   OH223930   3.340   0.828   1.784
 7996TIP3    H123931   3.336   0.922   1.768
 7996TIP3    H223932   3.277   0.813   1.854
 7997TIP3   OH223933   6.248   0.164   1.949
 7997TIP3    H123934   6.267   0.185   1.858
 7997TIP3    H223935   6.232   0.070   1.949
 7998TIP3   OH223936   7.271   1.213   3.231
 7998TIP3    H123937   7.329   1.210   3.306
 7998TIP3    H223938   7.190   1.172   3.262
 7999TIP3   OH223939   2.562   5.242   1.731
 7999TIP3    H123940   2.614   5.281   1.801
 7999TIP3    H223941   2.627   5.210   1.668
 8000TIP3   OH223942   6.833   0.475   2.792
 8000TIP3    H123943   6.929   0.472   2.785
 8000TIP3    H223944   6.817   0.497   2.883
 8001TIP3   OH223945   7.364   0.089   3.695
 8001TIP3    H123946   7.327   0.094   3.783
 8001TIP3    H223947   7.302   0.035   3.646
 8002TIP3   OH223948   1.897   2.996   0.306
 8002TIP3    H123949   1.957   2.964   0.239
 8002TIP3    H223950   1.953   3.021   0.379
 8003TIP3   OH223951   3.476   6.444   5.492
 8003TIP3    H123952   3.437   6.394   5.564
 8003TIP3    H223953   3.409   6.444   5.424
 8004TIP3   OH223954   5.657   4.411   3.532
 8004TIP3    H123955   5.711   4.356   3.588
 8004TIP3    H223956   5.665   4.499   3.569
 8005TIP3   OH223957   6.227   4.865   4.833
 8005TIP3    H123958   6.219   4.879   4.739
 8005TIP3    H223959   6.156   4.805   4.855
 8006TIP3   OH223960   6.347   7.410   1.734
 8006TIP3    H123961   6.336   7.329   1.783
 8006TIP3    H223962   6.321   7.479   1.794
 8007TIP3   OH223963   7.681   1.019   5.178
 8007TIP3    H123964   7.684   0.938   5.228
 8007TIP3    H223965   7.674   0.991   5.086
 8008TIP3   OH223966   5.832   6.691   5.052
 8008TIP3    H123967   5.848   6.635   4.975
 8008TIP3    H223968   5.748   6.661   5.086
 8009TIP3   OH223969   3.745   1.494   5.798
 8009TIP3    H123970   3.765   1.422   5.739
 8009TIP3    H223971   3.660   1.471   5.837
 8010TIP3   OH223972   7.727   0.670   4.879
 8010TIP3    H123973   7.705   0.602   4.943
 8010TIP3    H223974   7.779   0.624   4.812
 8011TIP3   OH223975   4.943   3.141   2.363
 8011TIP3    H123976   4.957   3.194   2.285
 8011TIP3    H223977   4.966   3.198   2.436
 8012TIP3   OH223978   3.293   1.094   1.730
 8012TIP3    H123979   3.227   1.140   1.781
 8012TIP3    H223980   3.346   1.163   1.691
 8013TIP3   OH223981   1.698   1.073   5.484
 8013TIP3    H123982   1.636   1.102   5.552
 8013TIP3    H223983   1.643   1.030   5.419
 8014TIP3   OH223984   2.496   2.453   5.947
 8014TIP3    H123985   2.455   2.425   6.029
 8014TIP3    H223986   2.588   2.428   5.957
 8015TIP3   OH223987   6.252   0.480   3.901
 8015TIP3    H123988   6.311   0.475   3.825
 8015TIP3    H223989   6.304   0.445   3.974
 8016TIP3   OH223990   7.950   0.270   2.881
 8016TIP3    H123991   7.907   0.224   2.809
 8016TIP3    H223992   7.884   0.333   2.912
 8017TIP3   OH223993   7.921   0.052   1.630
 8017TIP3    H123994   7.944   0.084   1.717
 8017TIP3    H223995   7.830   0.079   1.617
 8018TIP3   OH223996   5.273   0.405   5.110
 8018TIP3    H123997   5.264   0.343   5.182
 8018TIP3    H223998   5.366   0.425   5.106
 8019TIP3   OH223999   5.849   0.374   5.033
 8019TIP3    H124000   5.893   0.329   5.105
 8019TIP3    H224001   5.883   0.332   4.954
 8020TIP3   OH224002   6.892   6.542   3.615
 8020TIP3    H124003   6.920   6.485   3.543
 8020TIP3    H224004   6.945   6.621   3.604
 8021TIP3   OH224005   2.570   7.552   1.232
 8021TIP3    H124006   2.621   7.633   1.227
 8021TIP3    H224007   2.537   7.539   1.143
 8022TIP3   OH224008   0.383   2.563   0.773
 8022TIP3    H124009   0.318   2.605   0.829
 8022TIP3    H224010   0.405   2.630   0.708
 8023TIP3   OH224011   2.408   7.504   3.815
 8023TIP3    H124012   2.453   7.508   3.731
 8023TIP3    H224013   2.383   7.412   3.825
 8024TIP3   OH224014   6.478   0.362   0.032
 8024TIP3    H124015   6.479   0.273  -0.004
 8024TIP3    H224016   6.451   0.350   0.123
 8025TIP3   OH224017   4.194   2.982   5.300
 8025TIP3    H124018   4.239   2.903   5.331
 8025TIP3    H224019   4.154   3.019   5.379
 8026TIP3   OH224020   2.503   0.652   1.516
 8026TIP3    H124021   2.473   0.622   1.602
 8026TIP3    H224022   2.471   0.585   1.456
 8027TIP3   OH224023   0.771   4.518   5.697
 8027TIP3    H124024   0.799   4.483   5.782
 8027TIP3    H224025   0.841   4.578   5.672
 8028TIP3   OH224026   4.331   2.682   5.070
 8028TIP3    H124027   4.238   2.706   5.072
 8028TIP3    H224028   4.376   2.764   5.048
 8029TIP3   OH224029   2.648   3.092   4.893
 8029TIP3    H124030   2.674   3.055   4.808
 8029TIP3    H224031   2.633   3.015   4.949
 8030TIP3   OH224032   6.550   7.773   3.439
 8030TIP3    H124033   6.635   7.760   3.397
 8030TIP3    H224034   6.550   7.714   3.513
 8031TIP3   OH224035   2.311   3.454   3.338
 8031TIP3    H124036   2.365   3.376   3.351
 8031TIP3    H224037   2.343   3.492   3.255
 8032TIP3   OH224038   2.625   0.316   4.273
 8032TIP3    H124039   2.653   0.325   4.364
 8032TIP3    H224040   2.621   0.221   4.258
 8033TIP3   OH224041   4.439   3.550   6.374
 8033TIP3    H124042   4.344   3.551   6.361
 8033TIP3    H224043   4.466   3.640   6.357
 8034TIP3   OH224044   5.405   1.303   5.368
 8034TIP3    H124045   5.443   1.391   5.360
 8034TIP3    H224046   5.466   1.247   5.320
 8035TIP3   OH224047   5.394   0.798   0.970
 8035TIP3    H124048   5.428   0.885   0.989
 8035TIP3    H224049   5.332   0.811   0.898
 8036TIP3   OH224050   3.444   2.877   0.031
 8036TIP3    H124051   3.428   2.782   0.033
 8036TIP3    H224052   3.427   2.902  -0.060
 8037TIP3   OH224053   4.910   4.787   2.058
 8037TIP3    H124054   4.860   4.801   2.137
 8037TIP3    H224055   4.988   4.841   2.069
 8038TIP3   OH224056   2.754   6.212   4.065
 8038TIP3    H124057   2.689   6.264   4.111
 8038TIP3    H224058   2.706   6.132   4.040
 8039TIP3   OH224059   5.180   6.267   1.601
 8039TIP3    H124060   5.109   6.263   1.536
 8039TIP3    H224061   5.151   6.334   1.664
 8040TIP3   OH224062   5.443   3.562   3.769
 8040TIP3    H124063   5.405   3.510   3.840
 8040TIP3    H224064   5.386   3.546   3.694
 8041TIP3   OH224065   7.244   6.378   2.897
 8041TIP3    H124066   7.336   6.406   2.903
 8041TIP3    H224067   7.211   6.384   2.987
 8042TIP3   OH224068   5.840   3.116   3.096
 8042TIP3    H124069   5.768   3.172   3.065
 8042TIP3    H224070   5.801   3.030   3.105
 8043TIP3   OH224071   1.519   5.071   5.026
 8043TIP3    H124072   1.495   5.106   5.111
 8043TIP3    H224073   1.454   5.108   4.966
 8044TIP3   OH224074   1.553   6.307   3.559
 8044TIP3    H124075   1.503   6.348   3.630
 8044TIP3    H224076   1.520   6.217   3.555
 8045TIP3   OH224077   1.938   3.928   3.298
 8045TIP3    H124078   1.900   3.983   3.230
 8045TIP3    H224079   2.024   3.966   3.315
 8046TIP3   OH224080   2.617   3.354   6.131
 8046TIP3    H124081   2.539   3.299   6.147
 8046TIP3    H224082   2.659   3.313   6.055
 8047TIP3   OH224083   5.164   5.571   5.454
 8047TIP3    H124084   5.161   5.480   5.482
 8047TIP3    H224085   5.084   5.610   5.490
 8048TIP3   OH224086   7.112   3.319   3.137
 8048TIP3    H124087   7.144   3.399   3.094
 8048TIP3    H224088   7.156   3.318   3.222
 8049TIP3   OH224089   3.798   2.498   6.418
 8049TIP3    H124090   3.791   2.465   6.508
 8049TIP3    H224091   3.729   2.564   6.412
 8050TIP3   OH224092   6.339   1.800  -0.037
 8050TIP3    H124093   6.396   1.795   0.040
 8050TIP3    H224094   6.251   1.814  -0.002
 8051TIP3   OH224095   4.754   1.691   5.762
 8051TIP3    H124096   4.805   1.620   5.801
 8051TIP3    H224097   4.776   1.768   5.815
 8052TIP3   OH224098   3.699   3.527   5.730
 8052TIP3    H124099   3.741   3.504   5.813
 8052TIP3    H224100   3.692   3.445   5.682
 8053TIP3   OH224101   4.373   6.060   6.084
 8053TIP3    H124102   4.300   6.083   6.026
 8053TIP3    H224103   4.451   6.082   6.034
 8054TIP3   OH224104   2.927   2.766   0.099
 8054TIP3    H124105   2.903   2.854   0.069
 8054TIP3    H224106   3.007   2.745   0.050
 8055TIP3   OH224107   2.134   6.773   6.054
 8055TIP3    H124108   2.080   6.729   5.988
 8055TIP3    H224109   2.072   6.800   6.121
 8056TIP3   OH224110   4.095   6.669   5.476
 8056TIP3    H124111   4.032   6.633   5.539
 8056TIP3    H224112   4.041   6.721   5.416
 8057TIP3   OH224113   1.340   4.537   4.772
 8057TIP3    H124114   1.263   4.487   4.744
 8057TIP3    H224115   1.322   4.559   4.863
 8058TIP3   OH224116   4.960   0.217   5.214
 8058TIP3    H124117   5.005   0.299   5.235
 8058TIP3    H224118   4.915   0.193   5.296
 8059TIP3   OH224119   3.488   2.655   3.402
 8059TIP3    H124120   3.525   2.571   3.427
 8059TIP3    H224121   3.418   2.671   3.466
 8060TIP3   OH224122   0.413   3.537   1.278
 8060TIP3    H124123   0.385   3.624   1.305
 8060TIP3    H224124   0.349   3.509   1.213
 8061TIP3   OH224125   6.650   0.761   6.186
 8061TIP3    H124126   6.604   0.677   6.197
 8061TIP3    H224127   6.618   0.815   6.259
 8062TIP3   OH224128   6.281   3.585   6.212
 8062TIP3    H124129   6.320   3.641   6.279
 8062TIP3    H224130   6.319   3.499   6.228
 8063TIP3   OH224131   1.860   0.214   3.207
 8063TIP3    H124132   1.789   0.149   3.203
 8063TIP3    H224133   1.820   0.295   3.176
 8064TIP3   OH224134   7.713   5.583   5.699
 8064TIP3    H124135   7.763   5.655   5.738
 8064TIP3    H224136   7.742   5.581   5.608
 8065TIP3   OH224137   5.569   2.686   5.270
 8065TIP3    H124138   5.609   2.605   5.239
 8065TIP3    H224139   5.633   2.754   5.251
 8066TIP3   OH224140   5.756   5.206   6.353
 8066TIP3    H124141   5.684   5.253   6.311
 8066TIP3    H224142   5.732   5.203   6.446
 8067TIP3   OH224143   5.889   1.560   0.254
 8067TIP3    H124144   5.939   1.523   0.326
 8067TIP3    H224145   5.955   1.579   0.187
 8068TIP3   OH224146   0.182   4.428   5.759
 8068TIP3    H124147   0.114   4.469   5.812
 8068TIP3    H224148   0.138   4.402   5.678
 8069TIP3   OH224149   4.150   3.181   0.036
 8069TIP3    H124150   4.102   3.177   0.119
 8069TIP3    H224151   4.242   3.177   0.062
 8070TIP3   OH224152   1.089   1.916   5.660
 8070TIP3    H124153   1.125   1.954   5.580
 8070TIP3    H224154   1.149   1.844   5.681
 8071TIP3   OH224155   3.200   7.040   2.846
 8071TIP3    H124156   3.288   7.074   2.856
 8071TIP3    H224157   3.183   6.990   2.926
 8072TIP3   OH224158   7.995   3.450   2.255
 8072TIP3    H124159   7.955   3.535   2.272
 8072TIP3    H224160   8.089   3.468   2.256
 8073TIP3   OH224161   7.511   7.377   3.173
 8073TIP3    H124162   7.578   7.338   3.117
 8073TIP3    H224163   7.429   7.337   3.143
 8074TIP3   OH224164   0.484   6.009   2.100
 8074TIP3    H124165   0.428   6.075   2.059
 8074TIP3    H224166   0.483   6.031   2.193
 8075TIP3   OH224167   6.408   3.699   0.827
 8075TIP3    H124168   6.442   3.724   0.741
 8075TIP3    H224169   6.313   3.692   0.814
 8076TIP3   OH224170   3.552   3.373   3.827
 8076TIP3    H124171   3.536   3.387   3.921
 8076TIP3    H224172   3.641   3.405   3.813
 8077TIP3   OH224173   3.356   5.209   5.401
 8077TIP3    H124174   3.339   5.302   5.384
 8077TIP3    H224175   3.378   5.205   5.494
 8078TIP3   OH224176   4.122   3.114   0.634
 8078TIP3    H124177   4.208   3.099   0.596
 8078TIP3    H224178   4.065   3.052   0.589
 8079TIP3   OH224179   3.161   0.502   1.765
 8079TIP3    H124180   3.246   0.474   1.798
 8079TIP3    H224181   3.145   0.445   1.689
 8080TIP3   OH224182   3.728   7.048   1.292
 8080TIP3    H124183   3.739   7.075   1.201
 8080TIP3    H224184   3.651   7.095   1.322
 8081TIP3   OH224185   7.557   3.866   6.357
 8081TIP3    H124186   7.599   3.780   6.362
 8081TIP3    H224187   7.543   3.880   6.263
 8082TIP3   OH224188   7.712   5.617   3.694
 8082TIP3    H124189   7.769   5.576   3.630
 8082TIP3    H224190   7.772   5.656   3.758
 8083TIP3   OH224191   7.810   3.517   5.576
 8083TIP3    H124192   7.724   3.493   5.610
 8083TIP3    H224193   7.816   3.471   5.492
 8084TIP3   OH224194   6.036   0.617   0.271
 8084TIP3    H124195   6.019   0.549   0.206
 8084TIP3    H224196   6.099   0.578   0.331
 8085TIP3   OH224197   8.177   7.551   5.527
 8085TIP3    H124198   8.240   7.556   5.455
 8085TIP3    H224199   8.223   7.504   5.596
 8086TIP3   OH224200   2.557   4.521   6.484
 8086TIP3    H124201   2.530   4.608   6.512
 8086TIP3    H224202   2.523   4.462   6.551
 8087TIP3   OH224203   2.409   4.751   6.592
 8087TIP3    H124204   2.394   4.682   6.657
 8087TIP3    H224205   2.343   4.736   6.524
 8088TIP3   OH224206   3.887   6.379   0.721
 8088TIP3    H124207   3.896   6.450   0.657
 8088TIP3    H224208   3.955   6.397   0.786
 8089TIP3   OH224209   3.013   3.545   5.379
 8089TIP3    H124210   3.088   3.591   5.341
 8089TIP3    H224211   2.941   3.608   5.374
 8090TIP3   OH224212   3.036   6.088   4.728
 8090TIP3    H124213   3.061   6.180   4.729
 8090TIP3    H224214   2.988   6.075   4.810
 8091TIP3   OH224215   7.050   0.894   0.854
 8091TIP3    H124216   6.981   0.829   0.844
 8091TIP3    H224217   7.030   0.939   0.936
 8092TIP3   OH224218   4.413   4.765   2.071
 8092TIP3    H124219   4.344   4.811   2.023
 8092TIP3    H224220   4.458   4.835   2.119
 8093TIP3   OH224221   0.885   4.447   5.003
 8093TIP3    H124222   0.793   4.430   4.984
 8093TIP3    H224223   0.920   4.362   5.028
 8094TIP3   OH224224   7.078   2.881   5.874
 8094TIP3    H124225   7.066   2.961   5.821
 8094TIP3    H224226   7.006   2.882   5.936
 8095TIP3   OH224227   7.288   2.960   4.274
 8095TIP3    H124228   7.287   3.035   4.215
 8095TIP3    H224229   7.302   2.884   4.217
 8096TIP3   OH224230   4.874   0.089   0.497
 8096TIP3    H124231   4.917   0.127   0.574
 8096TIP3    H224232   4.792   0.138   0.489
 8097TIP3   OH224233   1.810   2.632   4.510
 8097TIP3    H124234   1.803   2.717   4.554
 8097TIP3    H224235   1.861   2.651   4.431
 8098TIP3   OH224236   7.066   7.585   5.372
 8098TIP3    H124237   6.982   7.630   5.364
 8098TIP3    H224238   7.127   7.637   5.320
 8099TIP3   OH224239   6.835   5.121   5.405
 8099TIP3    H124240   6.808   5.213   5.405
 8099TIP3    H224241   6.854   5.102   5.497
 8100TIP3   OH224242   3.008   2.192   4.578
 8100TIP3    H124243   3.034   2.247   4.652
 8100TIP3    H224244   3.042   2.237   4.501
 8101TIP3   OH224245   5.993   1.795   0.505
 8101TIP3    H124246   5.967   1.724   0.564
 8101TIP3    H224247   6.018   1.866   0.564
 8102TIP3   OH224248   3.266   1.146   3.108
 8102TIP3    H124249   3.272   1.240   3.093
 8102TIP3    H224250   3.303   1.107   3.029
 8103TIP3   OH224251   5.834   5.997   3.217
 8103TIP3    H124252   5.740   5.979   3.219
 8103TIP3    H224253   5.875   5.911   3.218
 8104TIP3   OH224254   3.921   0.792   0.967
 8104TIP3    H124255   3.960   0.711   0.935
 8104TIP3    H224256   3.857   0.816   0.900
 8105TIP3   OH224257   3.220   6.571   2.727
 8105TIP3    H124258   3.128   6.564   2.752
 8105TIP3    H224259   3.239   6.665   2.727
 8106TIP3   OH224260   6.338   5.785   4.158
 8106TIP3    H124261   6.424   5.788   4.116
 8106TIP3    H224262   6.278   5.820   4.092
 8107TIP3   OH224263   5.011   6.400   3.127
 8107TIP3    H124264   5.007   6.307   3.105
 8107TIP3    H224265   5.040   6.403   3.218
 8108TIP3   OH224266   4.600   4.093   1.836
 8108TIP3    H124267   4.626   4.088   1.928
 8108TIP3    H224268   4.531   4.160   1.834
 8109TIP3   OH224269   3.326   2.568   4.568
 8109TIP3    H124270   3.408   2.591   4.611
 8109TIP3    H224271   3.333   2.474   4.550
 8110TIP3   OH224272   7.944   6.729   2.033
 8110TIP3    H124273   7.857   6.746   2.069
 8110TIP3    H224274   7.931   6.732   1.938
 8111TIP3   OH224275   6.272   4.004   1.042
 8111TIP3    H124276   6.205   3.950   1.000
 8111TIP3    H224277   6.224   4.079   1.076
 8112TIP3   OH224278   6.665   2.620   3.901
 8112TIP3    H124279   6.640   2.658   3.985
 8112TIP3    H224280   6.624   2.678   3.836
 8113TIP3   OH224281   7.598   1.579   3.103
 8113TIP3    H124282   7.504   1.588   3.114
 8113TIP3    H224283   7.608   1.502   3.047
 8114TIP3   OH224284   6.133   5.723   5.843
 8114TIP3    H124285   6.221   5.688   5.826
 8114TIP3    H224286   6.127   5.727   5.938
 8115TIP3   OH224287   0.153   3.642   2.888
 8115TIP3    H124288   0.236   3.609   2.921
 8115TIP3    H224289   0.087   3.599   2.943
 8116TIP3   OH224290   5.867   6.213   4.919
 8116TIP3    H124291   5.851   6.186   4.829
 8116TIP3    H224292   5.829   6.144   4.972
 8117TIP3   OH224293   4.688   2.321   6.163
 8117TIP3    H124294   4.748   2.250   6.185
 8117TIP3    H224295   4.719   2.352   6.077
 8118TIP3   OH224296   3.188   6.492   4.103
 8118TIP3    H124297   3.102   6.499   4.062
 8118TIP3    H224298   3.177   6.532   4.189
 8119TIP3   OH224299   3.141   1.967   5.764
 8119TIP3    H124300   3.107   1.879   5.754
 8119TIP3    H224301   3.187   1.966   5.848
 8120TIP3   OH224302   2.926   5.796   5.985
 8120TIP3    H124303   2.947   5.847   5.907
 8120TIP3    H224304   2.846   5.749   5.962
 8121TIP3   OH224305   0.174   0.879   5.955
 8121TIP3    H124306   0.258   0.911   5.989
 8121TIP3    H224307   0.109   0.939   5.990
 8122TIP3   OH224308   3.075   1.212   1.082
 8122TIP3    H124309   3.155   1.197   1.133
 8122TIP3    H224310   3.054   1.127   1.044
 8123TIP3   OH224311   0.762   6.041   5.950
 8123TIP3    H124312   0.790   6.021   6.039
 8123TIP3    H224313   0.728   5.958   5.916
 8124TIP3   OH224314   4.164   6.871   4.404
 8124TIP3    H124315   4.108   6.857   4.328
 8124TIP3    H224316   4.107   6.854   4.479
 8125TIP3   OH224317   4.992   4.201   6.101
 8125TIP3    H124318   4.962   4.253   6.026
 8125TIP3    H224319   5.051   4.260   6.148
 8126TIP3   OH224320   6.970   4.508   1.465
 8126TIP3    H124321   6.883   4.468   1.471
 8126TIP3    H224322   7.023   4.459   1.528
 8127TIP3   OH224323   4.114   0.944   0.836
 8127TIP3    H124324   4.186   0.977   0.891
 8127TIP3    H224325   4.069   0.880   0.892
 8128TIP3   OH224326   8.207   2.725   6.689
 8128TIP3    H124327   8.221   2.762   6.776
 8128TIP3    H224328   8.156   2.791   6.642
 8129TIP3   OH224329   3.379   0.521   5.371
 8129TIP3    H124330   3.383   0.601   5.319
 8129TIP3    H224331   3.366   0.451   5.308
 8130TIP3   OH224332   2.255   4.079   0.411
 8130TIP3    H124333   2.259   4.124   0.326
 8130TIP3    H224334   2.346   4.065   0.435
 8131TIP3   OH224335   0.463   3.062   5.966
 8131TIP3    H124336   0.412   2.983   5.951
 8131TIP3    H224337   0.409   3.133   5.932
 8132TIP3   OH224338   5.383   7.019   6.679
 8132TIP3    H124339   5.401   7.019   6.585
 8132TIP3    H224340   5.351   6.931   6.698
 8133TIP3   OH224341   1.913   5.919   5.005
 8133TIP3    H124342   1.831   5.969   5.006
 8133TIP3    H224343   1.980   5.982   5.032
 8134TIP3   OH224344   5.257   6.211   1.965
 8134TIP3    H124345   5.285   6.284   1.910
 8134TIP3    H224346   5.208   6.253   2.037
 8135TIP3   OH224347   0.071   0.968   2.656
 8135TIP3    H124348   0.164   0.969   2.630
 8135TIP3    H224349   0.064   0.896   2.718
 8136TIP3   OH224350   0.285   0.506   6.126
 8136TIP3    H124351   0.259   0.424   6.083
 8136TIP3    H224352   0.371   0.526   6.089
 8137TIP3   OH224353   8.178   3.204   3.032
 8137TIP3    H124354   8.089   3.237   3.021
 8137TIP3    H224355   8.168   3.110   3.044
 8138TIP3   OH224356   2.487   4.409   4.371
 8138TIP3    H124357   2.470   4.497   4.402
 8138TIP3    H224358   2.400   4.370   4.361
 8139TIP3   OH224359   3.417   3.226   0.025
 8139TIP3    H124360   3.462   3.288  -0.033
 8139TIP3    H224361   3.488   3.181   0.071
 8140TIP3   OH224362  -0.054   5.626   3.484
 8140TIP3    H124363  -0.041   5.711   3.443
 8140TIP3    H224364  -0.065   5.646   3.577
 8141TIP3   OH224365   0.753   4.439   1.106
 8141TIP3    H124366   0.823   4.461   1.046
 8141TIP3    H224367   0.797   4.412   1.186
 8142TIP3   OH224368   3.577   0.860   4.004
 8142TIP3    H124369   3.581   0.914   3.924
 8142TIP3    H224370   3.513   0.904   4.059
 8143TIP3   OH224371   2.940   3.003   2.038
 8143TIP3    H124372   2.909   3.003   2.128
 8143TIP3    H224373   3.005   2.933   2.035
 8144TIP3   OH224374   0.926   0.142   5.344
 8144TIP3    H124375   0.951   0.073   5.405
 8144TIP3    H224376   0.841   0.173   5.377
 8145TIP3   OH224377   5.770   2.772   4.745
 8145TIP3    H124378   5.789   2.765   4.839
 8145TIP3    H224379   5.839   2.828   4.711
 8146TIP3   OH224380   1.197   4.055   0.200
 8146TIP3    H124381   1.256   3.988   0.233
 8146TIP3    H224382   1.153   4.088   0.278
 8147TIP3   OH224383   5.078   4.166   4.067
 8147TIP3    H124384   5.044   4.189   3.980
 8147TIP3    H224385   5.017   4.101   4.100
 8148TIP3   OH224386   1.317   6.936   2.959
 8148TIP3    H124387   1.368   6.912   3.036
 8148TIP3    H224388   1.228   6.907   2.979
 8149TIP3   OH224389   0.846   5.310   3.919
 8149TIP3    H124390   0.840   5.343   3.830
 8149TIP3    H224391   0.892   5.380   3.967
 8150TIP3   OH224392   5.349   2.280   6.439
 8150TIP3    H124393   5.364   2.363   6.394
 8150TIP3    H224394   5.380   2.294   6.528
 8151TIP3   OH224395   6.455   1.113   3.282
 8151TIP3    H124396   6.371   1.154   3.301
 8151TIP3    H224397   6.466   1.047   3.351
 8152TIP3   OH224398   1.690   2.076   0.079
 8152TIP3    H124399   1.699   2.056   0.172
 8152TIP3    H224400   1.614   2.134   0.073
 8153TIP3   OH224401   7.408   6.502   3.329
 8153TIP3    H124402   7.321   6.498   3.288
 8153TIP3    H224403   7.423   6.596   3.343
 8154TIP3   OH224404   6.558   2.384   1.836
 8154TIP3    H124405   6.488   2.331   1.874
 8154TIP3    H224406   6.551   2.367   1.742
 8155TIP3   OH224407   6.865   2.115   6.027
 8155TIP3    H124408   6.849   2.190   6.084
 8155TIP3    H224409   6.897   2.152   5.945
 8156TIP3   OH224410   2.995   5.588   3.694
 8156TIP3    H124411   2.969   5.671   3.654
 8156TIP3    H224412   3.061   5.553   3.634
 8157TIP3   OH224413   3.817   4.217   5.674
 8157TIP3    H124414   3.801   4.160   5.598
 8157TIP3    H224415   3.742   4.276   5.676
 8158TIP3   OH224416   3.181   1.672   2.327
 8158TIP3    H124417   3.261   1.636   2.288
 8158TIP3    H224418   3.152   1.604   2.388
 8159TIP3   OH224419   3.987   0.402   4.594
 8159TIP3    H124420   4.078   0.373   4.607
 8159TIP3    H224421   3.949   0.404   4.682
 8160TIP3   OH224422   2.266   7.164   1.835
 8160TIP3    H124423   2.354   7.129   1.820
 8160TIP3    H224424   2.222   7.098   1.889
 8161TIP3   OH224425   6.320   4.323   3.205
 8161TIP3    H124426   6.355   4.273   3.131
 8161TIP3    H224427   6.266   4.261   3.254
 8162TIP3   OH224428   5.649   0.515   2.241
 8162TIP3    H124429   5.644   0.597   2.291
 8162TIP3    H224430   5.701   0.539   2.163
 8163TIP3   OH224431   4.596   7.679   3.944
 8163TIP3    H124432   4.545   7.725   4.011
 8163TIP3    H224433   4.569   7.587   3.952
 8164TIP3   OH224434   8.142   5.053   0.523
 8164TIP3    H124435   8.175   4.965   0.538
 8164TIP3    H224436   8.217   5.111   0.540
 8165TIP3   OH224437   0.904   0.686   3.292
 8165TIP3    H124438   0.946   0.634   3.361
 8165TIP3    H224439   0.967   0.685   3.220
 8166TIP3   OH224440   0.811   6.410   1.106
 8166TIP3    H124441   0.900   6.435   1.131
 8166TIP3    H224442   0.757   6.432   1.181
 8167TIP3   OH224443   7.914   0.625   5.487
 8167TIP3    H124444   7.905   0.584   5.401
 8167TIP3    H224445   8.006   0.651   5.492
 8168TIP3   OH224446   5.045   1.037   4.371
 8168TIP3    H124447   5.019   0.954   4.330
 8168TIP3    H224448   4.991   1.103   4.327
 8169TIP3   OH224449   3.539   2.197   1.202
 8169TIP3    H124450   3.467   2.233   1.255
 8169TIP3    H224451   3.495   2.145   1.135
 8170TIP3   OH224452   5.096   6.125   3.405
 8170TIP3    H124453   5.171   6.142   3.349
 8170TIP3    H224454   5.046   6.057   3.360
 8171TIP3   OH224455   0.100   2.513   0.683
 8171TIP3    H124456   0.134   2.559   0.761
 8171TIP3    H224457   0.043   2.577   0.641
 8172TIP3   OH224458   7.310   5.882   6.330
 8172TIP3    H124459   7.336   5.923   6.247
 8172TIP3    H224460   7.258   5.806   6.304
 8173TIP3   OH224461   7.786   1.468   3.286
 8173TIP3    H124462   7.733   1.440   3.361
 8173TIP3    H224463   7.723   1.493   3.220
 8174TIP3   OH224464   6.856   0.736   1.100
 8174TIP3    H124465   6.855   0.829   1.082
 8174TIP3    H224466   6.804   0.726   1.180
 8175TIP3   OH224467   5.932   5.712   6.532
 8175TIP3    H124468   5.896   5.765   6.462
 8175TIP3    H224469   5.961   5.775   6.598
 8176TIP3   OH224470   6.590   3.827   6.516
 8176TIP3    H124471   6.615   3.913   6.481
 8176TIP3    H224472   6.672   3.789   6.547
 8177TIP3   OH224473   2.854   0.364   3.784
 8177TIP3    H124474   2.928   0.421   3.803
 8177TIP3    H224475   2.777   0.419   3.798
 8178TIP3   OH224476   3.225   6.710   2.452
 8178TIP3    H124477   3.277   6.741   2.378
 8178TIP3    H224478   3.175   6.786   2.481
 8179TIP3   OH224479   3.728   0.288   0.301
 8179TIP3    H124480   3.695   0.250   0.383
 8179TIP3    H224481   3.735   0.381   0.320
 8180TIP3   OH224482   7.729   7.080   0.275
 8180TIP3    H124483   7.808   7.134   0.267
 8180TIP3    H224484   7.659   7.143   0.291
 8181TIP3   OH224485   5.351   2.227   2.878
 8181TIP3    H124486   5.406   2.248   2.953
 8181TIP3    H224487   5.409   2.180   2.818
 8182TIP3   OH224488   1.547   0.269   1.003
 8182TIP3    H124489   1.464   0.252   0.958
 8182TIP3    H224490   1.594   0.327   0.943
 8183TIP3   OH224491   0.246   2.352   1.250
 8183TIP3    H124492   0.202   2.427   1.289
 8183TIP3    H224493   0.333   2.386   1.228
 8184TIP3   OH224494   4.030   3.356   6.648
 8184TIP3    H124495   3.977   3.384   6.723
 8184TIP3    H224496   4.110   3.408   6.655
 8185TIP3   OH224497   4.121   0.557   5.872
 8185TIP3    H124498   4.195   0.526   5.819
 8185TIP3    H224499   4.139   0.651   5.884
 8186TIP3   OH224500   5.072   6.334   0.898
 8186TIP3    H124501   5.077   6.250   0.853
 8186TIP3    H224502   5.055   6.311   0.990
 8187TIP3   OH224503   6.185   1.650   1.267
 8187TIP3    H124504   6.228   1.696   1.339
 8187TIP3    H224505   6.109   1.704   1.246
 8188TIP3   OH224506   2.587   6.668   3.565
 8188TIP3    H124507   2.532   6.633   3.634
 8188TIP3    H224508   2.582   6.603   3.494
 8189TIP3   OH224509   0.804   7.282   5.132
 8189TIP3    H124510   0.846   7.367   5.144
 8189TIP3    H224511   0.748   7.272   5.210
 8190TIP3   OH224512   6.930   0.904   1.698
 8190TIP3    H124513   6.891   0.827   1.739
 8190TIP3    H224514   7.004   0.927   1.754
 8191TIP3   OH224515   5.290   2.625   0.248
 8191TIP3    H124516   5.347   2.607   0.173
 8191TIP3    H224517   5.229   2.692   0.217
 8192TIP3   OH224518   6.897   2.177   5.560
 8192TIP3    H124519   6.912   2.233   5.484
 8192TIP3    H224520   6.894   2.238   5.634
 8193TIP3   OH224521   0.031   4.570   4.769
 8193TIP3    H124522   0.045   4.617   4.686
 8193TIP3    H224523   0.090   4.613   4.831
 8194TIP3   OH224524   0.768   5.408   6.402
 8194TIP3    H124525   0.857   5.427   6.373
 8194TIP3    H224526   0.768   5.314   6.420
 8195TIP3   OH224527   5.308   6.765   6.728
 8195TIP3    H124528   5.254   6.726   6.797
 8195TIP3    H224529   5.320   6.696   6.664
 8196TIP3   OH224530   2.791   3.405   3.956
 8196TIP3    H124531   2.763   3.392   4.047
 8196TIP3    H224532   2.778   3.319   3.915
 8197TIP3   OH224533   4.242   2.881   0.341
 8197TIP3    H124534   4.253   2.786   0.333
 8197TIP3    H224535   4.267   2.901   0.431
 8198TIP3   OH224536   1.101   5.259   1.275
 8198TIP3    H124537   1.074   5.228   1.361
 8198TIP3    H224538   1.146   5.342   1.292
 8199TIP3   OH224539   2.226   4.329   4.284
 8199TIP3    H124540   2.144   4.311   4.331
 8199TIP3    H224541   2.220   4.274   4.205
 8200TIP3   OH224542   1.623   6.608   2.351
 8200TIP3    H124543   1.658   6.600   2.439
 8200TIP3    H224544   1.541   6.558   2.353
 8201TIP3   OH224545   1.724   6.251   1.966
 8201TIP3    H124546   1.794   6.290   1.915
 8201TIP3    H224547   1.678   6.325   2.005
 8202TIP3   OH224548   5.878   1.097   5.233
 8202TIP3    H124549   5.828   1.165   5.278
 8202TIP3    H224550   5.900   1.034   5.301
 8203TIP3   OH224551   1.285   4.630   6.335
 8203TIP3    H124552   1.333   4.574   6.396
 8203TIP3    H224553   1.352   4.688   6.299
 8204TIP3   OH224554   5.909   6.386   1.423
 8204TIP3    H124555   5.998   6.353   1.408
 8204TIP3    H224556   5.859   6.308   1.446
 8205TIP3   OH224557   3.698   2.844   2.169
 8205TIP3    H124558   3.766   2.910   2.163
 8205TIP3    H224559   3.726   2.787   2.240
 8206TIP3   OH224560   4.175   7.316   3.273
 8206TIP3    H124561   4.238   7.290   3.206
 8206TIP3    H224562   4.114   7.375   3.228
 8207TIP3   OH224563   8.333   2.950   4.510
 8207TIP3    H124564   8.271   2.887   4.547
 8207TIP3    H224565   8.278   3.022   4.479
 8208TIP3   OH224566   8.202   1.301   6.153
 8208TIP3    H124567   8.273   1.239   6.136
 8208TIP3    H224568   8.154   1.263   6.226
 8209TIP3   OH224569   7.627   3.309   0.362
 8209TIP3    H124570   7.698   3.362   0.326
 8209TIP3    H224571   7.669   3.229   0.392
 8210TIP3   OH224572   1.480   0.532   1.318
 8210TIP3    H124573   1.434   0.605   1.358
 8210TIP3    H224574   1.572   0.551   1.332
 8211TIP3   OH224575   3.360   5.983   5.929
 8211TIP3    H124576   3.397   6.061   5.969
 8211TIP3    H224577   3.267   6.003   5.919
 8212TIP3   OH224578   5.285   5.305   2.681
 8212TIP3    H124579   5.215   5.370   2.693
 8212TIP3    H224580   5.350   5.329   2.748
 8213TIP3   OH224581   5.872   7.548   0.557
 8213TIP3    H124582   5.798   7.591   0.599
 8213TIP3    H224583   5.937   7.617   0.544
 8214TIP3   OH224584   7.133   0.087   4.408
 8214TIP3    H124585   7.080   0.065   4.485
 8214TIP3    H224586   7.102   0.174   4.382
 8215TIP3   OH224587   7.969   5.569   3.593
 8215TIP3    H124588   8.005   5.494   3.641
 8215TIP3    H224589   8.014   5.645   3.630
 8216TIP3   OH224590   5.260   6.727   5.576
 8216TIP3    H124591   5.202   6.771   5.638
 8216TIP3    H224592   5.244   6.771   5.493
 8217TIP3   OH224593   3.602   1.268   4.009
 8217TIP3    H124594   3.542   1.212   3.961
 8217TIP3    H224595   3.619   1.221   4.091
 8218TIP3   OH224596   2.091   5.870   3.010
 8218TIP3    H124597   2.021   5.852   3.073
 8218TIP3    H224598   2.084   5.799   2.946
 8219TIP3   OH224599   6.285   2.470   0.781
 8219TIP3    H124600   6.270   2.476   0.686
 8219TIP3    H224601   6.365   2.520   0.795
 8220TIP3   OH224602   1.163   5.414   1.739
 8220TIP3    H124603   1.142   5.464   1.660
 8220TIP3    H224604   1.116   5.332   1.729
 8221TIP3   OH224605   6.241   4.689   6.090
 8221TIP3    H124606   6.282   4.672   6.175
 8221TIP3    H224607   6.304   4.656   6.026
 8222TIP3   OH224608   0.491   3.263   2.595
 8222TIP3    H124609   0.447   3.191   2.640
 8222TIP3    H224610   0.471   3.248   2.502
 8223TIP3   OH224611   1.286   1.505   5.103
 8223TIP3    H124612   1.353   1.558   5.060
 8223TIP3    H224613   1.250   1.563   5.170
 8224TIP3   OH224614   8.105   6.325   2.561
 8224TIP3    H124615   8.011   6.312   2.578
 8224TIP3    H224616   8.135   6.379   2.635
 8225TIP3   OH224617   1.386   1.386   4.481
 8225TIP3    H124618   1.461   1.398   4.424
 8225TIP3    H224619   1.338   1.313   4.443
 8226TIP3   OH224620   2.624   2.802   0.284
 8226TIP3    H124621   2.581   2.771   0.204
 8226TIP3    H224622   2.597   2.894   0.292
 8227TIP3   OH224623   8.138   2.078   1.717
 8227TIP3    H124624   8.044   2.063   1.709
 8227TIP3    H224625   8.156   2.067   1.811
 8228TIP3   OH224626   0.632   0.256   6.121
 8228TIP3    H124627   0.701   0.189   6.122
 8228TIP3    H224628   0.672   0.331   6.078
 8229TIP3   OH224629   0.117   6.157   5.793
 8229TIP3    H124630   0.060   6.213   5.740
 8229TIP3    H224631   0.125   6.076   5.743
 8230TIP3   OH224632   4.780   6.754   5.212
 8230TIP3    H124633   4.830   6.706   5.147
 8230TIP3    H224634   4.738   6.824   5.163
 8231TIP3   OH224635   1.888   0.807   4.893
 8231TIP3    H124636   1.879   0.737   4.828
 8231TIP3    H224637   1.889   0.762   4.977
 8232TIP3   OH224638   2.471   2.884   3.989
 8232TIP3    H124639   2.379   2.906   4.004
 8232TIP3    H224640   2.519   2.961   4.022
 8233TIP3   OH224641   2.834   5.090   6.545
 8233TIP3    H124642   2.769   5.036   6.590
 8233TIP3    H224643   2.879   5.030   6.486
 8234TIP3   OH224644   2.729   2.452   2.527
 8234TIP3    H124645   2.666   2.389   2.493
 8234TIP3    H224646   2.797   2.398   2.568
 8235TIP3   OH224647   0.266   2.481   5.706
 8235TIP3    H124648   0.336   2.463   5.644
 8235TIP3    H224649   0.299   2.447   5.790
 8236TIP3   OH224650   5.208   1.048   3.314
 8236TIP3    H124651   5.118   1.054   3.348
 8236TIP3    H224652   5.257   1.111   3.366
 8237TIP3   OH224653   0.571   0.996   4.598
 8237TIP3    H124654   0.498   1.056   4.610
 8237TIP3    H224655   0.604   1.016   4.510
 8238TIP3   OH224656   7.164   5.065   2.284
 8238TIP3    H124657   7.235   5.042   2.344
 8238TIP3    H224658   7.157   4.991   2.224
 8239TIP3   OH224659   5.797   4.076   2.018
 8239TIP3    H124660   5.752   4.077   2.102
 8239TIP3    H224661   5.822   4.167   2.003
 8240TIP3   OH224662   6.008   4.558   0.905
 8240TIP3    H124663   6.086   4.509   0.930
 8240TIP3    H224664   6.002   4.546   0.810
 8241TIP3   OH224665   4.653   5.653   6.353
 8241TIP3    H124666   4.709   5.608   6.416
 8241TIP3    H224667   4.608   5.582   6.306
 8242TIP3   OH224668   0.409   0.222   2.059
 8242TIP3    H124669   0.356   0.255   1.987
 8242TIP3    H224670   0.499   0.236   2.029
 8243TIP3   OH224671   4.513   5.584   1.750
 8243TIP3    H124672   4.577   5.535   1.801
 8243TIP3    H224673   4.522   5.551   1.661
 8244TIP3   OH224674   1.634   2.789   1.814
 8244TIP3    H124675   1.630   2.754   1.903
 8244TIP3    H224676   1.556   2.754   1.771
 8245TIP3   OH224677   8.264   6.597   1.706
 8245TIP3    H124678   8.344   6.643   1.682
 8245TIP3    H224679   8.261   6.603   1.801
 8246TIP3   OH224680   0.516   6.041   5.362
 8246TIP3    H124681   0.583   6.067   5.299
 8246TIP3    H224682   0.513   5.946   5.356
 8247TIP3   OH224683   1.127   5.160   2.064
 8247TIP3    H124684   1.057   5.136   2.124
 8247TIP3    H224685   1.171   5.234   2.106
 8248TIP3   OH224686   5.215   2.228   0.575
 8248TIP3    H124687   5.201   2.304   0.632
 8248TIP3    H224688   5.131   2.214   0.533
 8249TIP3   OH224689   6.904   7.185   4.987
 8249TIP3    H124690   6.977   7.241   4.961
 8249TIP3    H224691   6.893   7.124   4.914
 8250TIP3   OH224692   1.080   0.263   4.365
 8250TIP3    H124693   1.010   0.255   4.300
 8250TIP3    H224694   1.147   0.315   4.322
 8251TIP3   OH224695   2.945   1.694   3.907
 8251TIP3    H124696   2.915   1.685   3.998
 8251TIP3    H224697   2.973   1.606   3.882
 8252TIP3   OH224698   3.923   3.389   0.516
 8252TIP3    H124699   3.998   3.348   0.471
 8252TIP3    H224700   3.959   3.469   0.554
 8253TIP3   OH224701   1.023   6.527   6.401
 8253TIP3    H124702   0.932   6.529   6.431
 8253TIP3    H224703   1.028   6.593   6.332
 8254TIP3   OH224704   6.884   7.349   2.709
 8254TIP3    H124705   6.932   7.358   2.626
 8254TIP3    H224706   6.795   7.327   2.683
 8255TIP3   OH224707   0.888   6.048   6.196
 8255TIP3    H124708   0.918   6.028   6.285
 8255TIP3    H224709   0.968   6.068   6.148
 8256TIP3   OH224710   3.480   0.685   0.250
 8256TIP3    H124711   3.562   0.655   0.289
 8256TIP3    H224712   3.420   0.690   0.324
 8257TIP3   OH224713   7.702   6.662   3.927
 8257TIP3    H124714   7.697   6.610   4.008
 8257TIP3    H224715   7.694   6.753   3.956
 8258TIP3   OH224716   3.306   3.589   5.035
 8258TIP3    H124717   3.330   3.601   5.127
 8258TIP3    H224718   3.385   3.611   4.987
 8259TIP3   OH224719   3.904   6.562   5.642
 8259TIP3    H124720   3.819   6.590   5.607
 8259TIP3    H224721   3.892   6.565   5.737
 8260TIP3   OH224722   1.748   2.649   1.373
 8260TIP3    H124723   1.760   2.562   1.412
 8260TIP3    H224724   1.657   2.671   1.391
 8261TIP3   OH224725   4.173   5.673   1.239
 8261TIP3    H124726   4.255   5.632   1.210
 8261TIP3    H224727   4.138   5.612   1.304
 8262TIP3   OH224728   3.590   1.246   6.567
 8262TIP3    H124729   3.676   1.282   6.588
 8262TIP3    H224730   3.557   1.212   6.650
 8263TIP3   OH224731   3.414   3.432   4.768
 8263TIP3    H124732   3.409   3.353   4.822
 8263TIP3    H224733   3.444   3.501   4.828
 8264TIP3   OH224734   4.070   7.645   5.533
 8264TIP3    H124735   4.037   7.560   5.563
 8264TIP3    H224736   4.000   7.707   5.557
 8265TIP3   OH224737   3.838   2.340   5.777
 8265TIP3    H124738   3.910   2.315   5.834
 8265TIP3    H224739   3.843   2.279   5.704
 8266TIP3   OH224740   2.775   1.440   5.940
 8266TIP3    H124741   2.818   1.522   5.964
 8266TIP3    H224742   2.683   1.464   5.931
 8267TIP3   OH224743   8.203   0.954   0.720
 8267TIP3    H124744   8.162   0.869   0.705
 8267TIP3    H224745   8.215   0.959   0.815
 8268TIP3   OH224746   3.496   7.802   2.505
 8268TIP3    H124747   3.563   7.865   2.532
 8268TIP3    H224748   3.483   7.746   2.582
 8269TIP3   OH224749   2.286   5.447   0.852
 8269TIP3    H124750   2.241   5.394   0.918
 8269TIP3    H224751   2.334   5.513   0.903
 8270TIP3   OH224752   4.354   5.381   4.149
 8270TIP3    H124753   4.324   5.302   4.103
 8270TIP3    H224754   4.431   5.352   4.197
 8271TIP3   OH224755   1.335   0.372   5.945
 8271TIP3    H124756   1.375   0.325   6.018
 8271TIP3    H224757   1.383   0.342   5.867
 8272TIP3   OH224758   3.020   0.396   5.581
 8272TIP3    H124759   3.073   0.363   5.653
 8272TIP3    H224760   3.073   0.379   5.503
 8273TIP3   OH224761   6.696   1.089   1.585
 8273TIP3    H124762   6.692   1.034   1.506
 8273TIP3    H224763   6.790   1.096   1.603
 8274TIP3   OH224764   7.046   7.040   3.685
 8274TIP3    H124765   7.053   7.094   3.607
 8274TIP3    H224766   6.952   7.032   3.700
 8275TIP3   OH224767   1.053   0.996   5.350
 8275TIP3    H124768   1.099   0.912   5.350
 8275TIP3    H224769   1.085   1.041   5.271
 8276TIP3   OH224770   3.645   2.247   5.320
 8276TIP3    H124771   3.554   2.221   5.309
 8276TIP3    H224772   3.695   2.183   5.269
 8277TIP3   OH224773   8.058   7.696   6.415
 8277TIP3    H124774   7.984   7.752   6.440
 8277TIP3    H224775   8.072   7.640   6.491
 8278TIP3   OH224776   7.464   5.412   3.021
 8278TIP3    H124777   7.423   5.443   2.940
 8278TIP3    H224778   7.555   5.394   2.995
 8279TIP3   OH224779   5.202   4.755   6.219
 8279TIP3    H124780   5.279   4.771   6.274
 8279TIP3    H224781   5.130   4.801   6.263
 8280TIP3   OH224782   4.419   6.901   2.501
 8280TIP3    H124783   4.403   6.807   2.508
 8280TIP3    H224784   4.433   6.930   2.591
 8281TIP3   OH224785   3.519   7.258   1.358
 8281TIP3    H124786   3.433   7.274   1.395
 8281TIP3    H224787   3.579   7.305   1.416
 8282TIP3   OH224788   4.469   3.775   4.326
 8282TIP3    H124789   4.461   3.857   4.278
 8282TIP3    H224790   4.434   3.709   4.267
 8283TIP3   OH224791   6.135   4.389   1.641
 8283TIP3    H124792   6.103   4.335   1.569
 8283TIP3    H224793   6.215   4.430   1.607
 8284TIP3   OH224794   2.940   7.066   2.385
 8284TIP3    H124795   2.976   7.137   2.439
 8284TIP3    H224796   3.016   7.021   2.350
 8285TIP3   OH224797   4.557   0.456   1.219
 8285TIP3    H124798   4.587   0.384   1.274
 8285TIP3    H224799   4.506   0.414   1.149
 8286TIP3   OH224800   2.555   5.287   6.556
 8286TIP3    H124801   2.606   5.239   6.622
 8286TIP3    H224802   2.475   5.236   6.545
 8287TIP3   OH224803   3.342   5.413   0.961
 8287TIP3    H124804   3.356   5.332   0.912
 8287TIP3    H224805   3.393   5.402   1.041
 8288TIP3   OH224806   6.420   3.625   3.362
 8288TIP3    H124807   6.493   3.626   3.300
 8288TIP3    H224808   6.403   3.531   3.377
 8289TIP3   OH224809   4.974   4.679   1.494
 8289TIP3    H124810   4.903   4.743   1.500
 8289TIP3    H224811   4.959   4.633   1.412
 8290TIP3   OH224812   7.889   6.349   5.497
 8290TIP3    H124813   7.906   6.277   5.435
 8290TIP3    H224814   7.804   6.328   5.535
 8291TIP3   OH224815   0.524   4.703   6.408
 8291TIP3    H124816   0.469   4.644   6.458
 8291TIP3    H224817   0.563   4.761   6.473
 8292TIP3   OH224818   3.117   6.812   6.360
 8292TIP3    H124819   3.097   6.873   6.289
 8292TIP3    H224820   3.204   6.778   6.338
 8293TIP3   OH224821   4.871   1.451   3.063
 8293TIP3    H124822   4.945   1.413   3.016
 8293TIP3    H224823   4.819   1.375   3.091
 8294TIP3   OH224824   1.906   3.655   2.661
 8294TIP3    H124825   1.814   3.652   2.634
 8294TIP3    H224826   1.951   3.599   2.598
 8295TIP3   OH224827   8.258   3.509   3.042
 8295TIP3    H124828   8.213   3.529   3.123
 8295TIP3    H224829   8.259   3.413   3.038
 8296TIP3   OH224830   3.407   4.548   6.584
 8296TIP3    H124831   3.401   4.498   6.665
 8296TIP3    H224832   3.353   4.500   6.522
 8297TIP3   OH224833   2.082   3.611   2.418
 8297TIP3    H124834   2.175   3.631   2.410
 8297TIP3    H224835   2.070   3.531   2.367
 8298TIP3   OH224836   2.430   3.594   5.258
 8298TIP3    H124837   2.399   3.674   5.301
 8298TIP3    H224838   2.455   3.536   5.330
 8299TIP3   OH224839   0.359   4.853   1.295
 8299TIP3    H124840   0.338   4.904   1.217
 8299TIP3    H224841   0.447   4.883   1.319
 8300TIP3   OH224842   2.834   7.713   3.406
 8300TIP3    H124843   2.801   7.704   3.317
 8300TIP3    H224844   2.892   7.789   3.402
 8301TIP3   OH224845   2.651   0.035   0.408
 8301TIP3    H124846   2.591   0.109   0.413
 8301TIP3    H224847   2.717   0.053   0.475
 8302TIP3   OH224848   5.282   5.451   1.809
 8302TIP3    H124849   5.327   5.504   1.744
 8302TIP3    H224850   5.196   5.491   1.817
 8303TIP3   OH224851   0.516   1.040   5.896
 8303TIP3    H124852   0.542   1.090   5.973
 8303TIP3    H224853   0.518   0.948   5.925
 8304TIP3   OH224854   7.573   5.401   1.201
 8304TIP3    H124855   7.479   5.386   1.190
 8304TIP3    H224856   7.592   5.366   1.288
 8305TIP3   OH224857   5.980   0.749   2.815
 8305TIP3    H124858   5.972   0.777   2.906
 8305TIP3    H224859   5.901   0.697   2.799
 8306TIP3   OH224860   5.820   1.492   5.880
 8306TIP3    H124861   5.847   1.558   5.944
 8306TIP3    H224862   5.758   1.436   5.927
 8307TIP3   OH224863   6.478   3.660   2.617
 8307TIP3    H124864   6.505   3.733   2.563
 8307TIP3    H224865   6.549   3.595   2.607
 8308TIP3   OH224866   0.924   4.172   5.892
 8308TIP3    H124867   0.990   4.240   5.873
 8308TIP3    H224868   0.884   4.153   5.807
 8309TIP3   OH224869   7.232   3.516   2.977
 8309TIP3    H124870   7.261   3.607   2.977
 8309TIP3    H224871   7.294   3.471   2.919
 8310TIP3   OH224872   2.342   2.415   0.489
 8310TIP3    H124873   2.349   2.430   0.584
 8310TIP3    H224874   2.430   2.429   0.456
 8311TIP3   OH224875   5.034   4.803   0.788
 8311TIP3    H124876   4.951   4.764   0.760
 8311TIP3    H224877   5.019   4.898   0.783
 8312TIP3   OH224878   5.511   1.172   3.443
 8312TIP3    H124879   5.477   1.176   3.354
 8312TIP3    H224880   5.436   1.191   3.499
 8313TIP3   OH224881   3.436   0.132   2.667
 8313TIP3    H124882   3.378   0.208   2.659
 8313TIP3    H224883   3.524   0.169   2.663
 8314TIP3   OH224884   5.649   2.554   4.680
 8314TIP3    H124885   5.696   2.635   4.700
 8314TIP3    H224886   5.702   2.486   4.722
 8315TIP3   OH224887   0.314   0.962   3.324
 8315TIP3    H124888   0.400   0.935   3.290
 8315TIP3    H224889   0.269   0.880   3.343
 8316TIP3   OH224890   8.112   5.241   0.168
 8316TIP3    H124891   8.184   5.188   0.202
 8316TIP3    H224892   8.051   5.177   0.130
 8317TIP3   OH224893   2.407   6.823   0.142
 8317TIP3    H124894   2.471   6.754   0.124
 8317TIP3    H224895   2.453   6.884   0.200
 8318TIP3   OH224896   1.741   0.159   6.195
 8318TIP3    H124897   1.775   0.247   6.175
 8318TIP3    H224898   1.740   0.155   6.290
 8319TIP3   OH224899   8.254   3.554   5.146
 8319TIP3    H124900   8.278   3.571   5.055
 8319TIP3    H224901   8.331   3.510   5.183
 8320TIP3   OH224902   3.766   1.553   3.516
 8320TIP3    H124903   3.712   1.631   3.525
 8320TIP3    H224904   3.739   1.514   3.433
 8321TIP3   OH224905   6.866   2.199   3.820
 8321TIP3    H124906   6.807   2.274   3.822
 8321TIP3    H224907   6.912   2.202   3.904
 8322TIP3   OH224908   6.853   5.081   2.951
 8322TIP3    H124909   6.863   5.074   2.856
 8322TIP3    H224910   6.807   5.164   2.965
 8323TIP3   OH224911   6.056   7.744   0.841
 8323TIP3    H124912   5.979   7.702   0.879
 8323TIP3    H224913   6.102   7.782   0.915
 8324TIP3   OH224914   3.191   4.742   2.279
 8324TIP3    H124915   3.250   4.696   2.219
 8324TIP3    H224916   3.125   4.782   2.223
 8325TIP3   OH224917   7.228   5.602   2.393
 8325TIP3    H124918   7.299   5.545   2.421
 8325TIP3    H224919   7.175   5.615   2.472
 8326TIP3   OH224920   3.996   1.668   6.484
 8326TIP3    H124921   3.974   1.698   6.396
 8326TIP3    H224922   3.943   1.590   6.498
 8327TIP3   OH224923   0.782   7.180   1.337
 8327TIP3    H124924   0.815   7.239   1.269
 8327TIP3    H224925   0.854   7.172   1.399
 8328TIP3   OH224926   3.478   6.684   6.171
 8328TIP3    H124927   3.506   6.767   6.210
 8328TIP3    H224928   3.407   6.709   6.112
 8329TIP3   OH224929   6.097   3.855   2.353
 8329TIP3    H124930   6.093   3.805   2.271
 8329TIP3    H224931   6.077   3.790   2.421
 8330TIP3   OH224932   4.336   7.017   5.455
 8330TIP3    H124933   4.373   6.929   5.464
 8330TIP3    H224934   4.412   7.075   5.451
 8331TIP3   OH224935   1.199   7.061   6.583
 8331TIP3    H124936   1.104   7.068   6.579
 8331TIP3    H224937   1.215   6.983   6.637
 8332TIP3   OH224938   5.321   7.135   1.634
 8332TIP3    H124939   5.345   7.052   1.676
 8332TIP3    H224940   5.404   7.180   1.621
 8333TIP3   OH224941   1.300   0.380   3.992
 8333TIP3    H124942   1.340   0.323   3.927
 8333TIP3    H224943   1.342   0.465   3.979
 8334TIP3   OH224944   5.973   3.065   0.475
 8334TIP3    H124945   5.945   3.104   0.392
 8334TIP3    H224946   6.036   2.998   0.450
 8335TIP3   OH224947   4.813   2.515   3.550
 8335TIP3    H124948   4.896   2.556   3.525
 8335TIP3    H224949   4.755   2.531   3.476
 8336TIP3   OH224950   6.732   1.234   1.857
 8336TIP3    H124951   6.710   1.147   1.890
 8336TIP3    H224952   6.712   1.229   1.763
 8337TIP3   OH224953   5.559   0.571   5.325
 8337TIP3    H124954   5.542   0.504   5.390
 8337TIP3    H224955   5.586   0.522   5.247
 8338TIP3   OH224956   7.424   3.567   1.777
 8338TIP3    H124957   7.402   3.475   1.766
 8338TIP3    H224958   7.515   3.567   1.805
 8339TIP3   OH224959   4.885   2.219   1.486
 8339TIP3    H124960   4.852   2.154   1.547
 8339TIP3    H224961   4.810   2.275   1.466
 8340TIP3   OH224962   8.267   7.456   0.137
 8340TIP3    H124963   8.320   7.519   0.186
 8340TIP3    H224964   8.215   7.510   0.077
 8341TIP3   OH224965   1.508   2.480   2.735
 8341TIP3    H124966   1.414   2.461   2.724
 8341TIP3    H224967   1.521   2.480   2.830
 8342TIP3   OH224968   2.912   5.511   3.032
 8342TIP3    H124969   2.881   5.432   3.076
 8342TIP3    H224970   2.835   5.568   3.030
 8343TIP3   OH224971   0.791   5.104   1.401
 8343TIP3    H124972   0.782   5.134   1.310
 8343TIP3    H224973   0.837   5.021   1.394
 8344TIP3   OH224974   4.305   4.245   3.250
 8344TIP3    H124975   4.283   4.339   3.253
 8344TIP3    H224976   4.220   4.201   3.254
 8345TIP3   OH224977   1.444   3.198   6.246
 8345TIP3    H124978   1.367   3.143   6.262
 8345TIP3    H224979   1.499   3.186   6.323
 8346TIP3   OH224980   1.252   4.162   4.714
 8346TIP3    H124981   1.189   4.090   4.704
 8346TIP3    H224982   1.204   4.229   4.761
 8347TIP3   OH224983   3.281   7.129   0.828
 8347TIP3    H124984   3.209   7.118   0.890
 8347TIP3    H224985   3.333   7.050   0.838
 8348TIP3   OH224986   6.011   5.032   5.512
 8348TIP3    H124987   6.057   5.084   5.577
 8348TIP3    H224988   6.049   5.059   5.428
 8349TIP3   OH224989   7.992   1.526   3.635
 8349TIP3    H124990   8.081   1.524   3.670
 8349TIP3    H224991   8.001   1.567   3.549
 8350TIP3   OH224992  -0.018   5.581   2.553
 8350TIP3    H124993  -0.104   5.552   2.584
 8350TIP3    H224994   0.044   5.528   2.602
 8351TIP3   OH224995   7.502   4.768   0.733
 8351TIP3    H124996   7.532   4.816   0.655
 8351TIP3    H224997   7.581   4.724   0.765
 8352TIP3   OH224998   5.595   1.129   4.925
 8352TIP3    H124999   5.644   1.067   4.871
 8352TIP3    H225000   5.520   1.154   4.870
 8353TIP3   OH225001   6.431   4.702   3.673
 8353TIP3    H125002   6.519   4.709   3.710
 8353TIP3    H225003   6.397   4.620   3.710
 8354TIP3   OH225004   7.717   4.178   2.200
 8354TIP3    H125005   7.644   4.237   2.218
 8354TIP3    H225006   7.733   4.188   2.106
 8355TIP3   OH225007   3.444   7.742   1.872
 8355TIP3    H125008   3.415   7.726   1.962
 8355TIP3    H225009   3.515   7.679   1.858
 8356TIP3   OH225010   0.135   3.482   3.764
 8356TIP3    H125011   0.059   3.442   3.721
 8356TIP3    H225012   0.100   3.517   3.846
 8357TIP3   OH225013   0.309   5.478   6.656
 8357TIP3    H125014   0.235   5.513   6.706
 8357TIP3    H225015   0.300   5.382   6.664
 8358TIP3   OH225016   8.057   5.362   3.768
 8358TIP3    H125017   7.998   5.298   3.808
 8358TIP3    H225018   8.145   5.329   3.790
 8359TIP3   OH225019   1.803   0.437   3.050
 8359TIP3    H125020   1.775   0.400   2.966
 8359TIP3    H225021   1.889   0.476   3.032
 8360TIP3   OH225022   0.195   5.745   5.947
 8360TIP3    H125023   0.117   5.766   5.999
 8360TIP3    H225024   0.251   5.822   5.955
 8361TIP3   OH225025   7.131   6.467   0.926
 8361TIP3    H125026   7.081   6.470   1.008
 8361TIP3    H225027   7.073   6.507   0.862
 8362TIP3   OH225028   3.357   3.247   5.209
 8362TIP3    H125029   3.406   3.200   5.142
 8362TIP3    H225030   3.266   3.242   5.180
 8363TIP3   OH225031   4.243   1.441   6.090
 8363TIP3    H125032   4.248   1.528   6.049
 8363TIP3    H225033   4.168   1.447   6.149
 8364TIP3   OH225034   7.640   1.376   5.131
 8364TIP3    H125035   7.562   1.432   5.126
 8364TIP3    H225036   7.705   1.430   5.176
 8365TIP3   OH225037   0.510   4.213   5.701
 8365TIP3    H125038   0.580   4.182   5.758
 8365TIP3    H225039   0.430   4.201   5.753
 8366TIP3   OH225040   6.861   0.236   0.675
 8366TIP3    H125041   6.950   0.270   0.667
 8366TIP3    H225042   6.813   0.304   0.722
 8367TIP3   OH225043   3.648   5.088   3.168
 8367TIP3    H125044   3.556   5.060   3.175
 8367TIP3    H225045   3.648   5.179   3.196
 8368TIP3   OH225046   0.483   7.238   2.952
 8368TIP3    H125047   0.474   7.275   2.864
 8368TIP3    H225048   0.543   7.165   2.941
 8369TIP3   OH225049   8.276   0.934   1.016
 8369TIP3    H125050   8.184   0.919   1.039
 8369TIP3    H225051   8.320   0.851   1.035
 8370TIP3   OH225052   7.420   0.799   5.624
 8370TIP3    H125053   7.377   0.881   5.648
 8370TIP3    H225054   7.356   0.754   5.568
 8371TIP3   OH225055   4.997   1.527   5.858
 8371TIP3    H125056   5.005   1.442   5.815
 8371TIP3    H225057   5.087   1.556   5.871
 8372TIP3   OH225058   6.667   0.007   5.600
 8372TIP3    H125059   6.580  -0.034   5.595
 8372TIP3    H225060   6.655   0.094   5.561
 8373TIP3   OH225061   2.711   0.064   4.291
 8373TIP3    H125062   2.688   0.038   4.381
 8373TIP3    H225063   2.803   0.040   4.282
 8374TIP3   OH225064   3.673   6.037   1.317
 8374TIP3    H125065   3.763   6.008   1.325
 8374TIP3    H225066   3.678   6.121   1.271
 8375TIP3   OH225067   4.862   6.186   1.440
 8375TIP3    H125068   4.783   6.170   1.389
 8375TIP3    H225069   4.838   6.256   1.501
 8376TIP3   OH225070   5.266   6.518   1.999
 8376TIP3    H125071   5.347   6.553   1.962
 8376TIP3    H225072   5.228   6.592   2.046
 8377TIP3   OH225073   1.554   7.430   1.626
 8377TIP3    H125074   1.537   7.506   1.681
 8377TIP3    H225075   1.546   7.462   1.536
 8378TIP3   OH225076   3.548   1.561   2.377
 8378TIP3    H125077   3.585   1.650   2.375
 8378TIP3    H225078   3.623   1.505   2.359
 8379TIP3   OH225079   2.192   5.467   1.992
 8379TIP3    H125080   2.223   5.450   2.081
 8379TIP3    H225081   2.154   5.385   1.963
 8380TIP3   OH225082   0.289   0.594   2.160
 8380TIP3    H125083   0.229   0.616   2.232
 8380TIP3    H225084   0.315   0.678   2.124
 8381TIP3   OH225085   4.365   6.704   6.385
 8381TIP3    H125086   4.351   6.695   6.479
 8381TIP3    H225087   4.394   6.795   6.374
 8382TIP3   OH225088   0.413   0.085   4.820
 8382TIP3    H125089   0.365   0.071   4.901
 8382TIP3    H225090   0.381   0.018   4.760
 8383TIP3   OH225091   7.034   7.158   2.859
 8383TIP3    H125092   6.984   7.215   2.800
 8383TIP3    H225093   6.967   7.115   2.912
 8384TIP3   OH225094   1.828   3.267   3.306
 8384TIP3    H125095   1.786   3.322   3.372
 8384TIP3    H225096   1.877   3.329   3.252
 8385TIP3   OH225097   2.854   2.271   0.446
 8385TIP3    H125098   2.843   2.206   0.377
 8385TIP3    H225099   2.813   2.232   0.523
 8386TIP3   OH225100   5.227   6.650   5.093
 8386TIP3    H125101   5.174   6.578   5.128
 8386TIP3    H225102   5.232   6.713   5.165
 8387TIP3   OH225103   1.400   1.159   0.263
 8387TIP3    H125104   1.417   1.233   0.321
 8387TIP3    H225105   1.305   1.161   0.248
 8388TIP3   OH225106   0.841   3.270   3.702
 8388TIP3    H125107   0.931   3.302   3.689
 8388TIP3    H225108   0.788   3.350   3.705
 8389TIP3   OH225109   4.116   5.711   4.343
 8389TIP3    H125110   4.115   5.696   4.437
 8389TIP3    H225111   4.032   5.678   4.312
 8390TIP3   OH225112   4.092   3.507   3.948
 8390TIP3    H125113   4.159   3.575   3.947
 8390TIP3    H225114   4.072   3.491   3.856
 8391TIP3   OH225115   7.747   7.339   4.898
 8391TIP3    H125116   7.810   7.318   4.829
 8391TIP3    H225117   7.747   7.262   4.955
 8392TIP3   OH225118   5.293   5.192   0.010
 8392TIP3    H125119   5.285   5.104   0.045
 8392TIP3    H225120   5.385   5.215   0.023
 8393TIP3   OH225121   4.633   7.339   5.780
 8393TIP3    H125122   4.662   7.397   5.852
 8393TIP3    H225123   4.672   7.254   5.801
 8394TIP3   OH225124   2.078   3.063   0.509
 8394TIP3    H125125   2.133   3.130   0.470
 8394TIP3    H225126   2.133   2.985   0.512
 8395TIP3   OH225127   1.011   5.473   5.167
 8395TIP3    H125128   0.948   5.467   5.096
 8395TIP3    H225129   1.064   5.550   5.145
 8396TIP3   OH225130   6.582   2.308   4.348
 8396TIP3    H125131   6.508   2.365   4.323
 8396TIP3    H225132   6.651   2.369   4.373
 8397TIP3   OH225133   0.827   4.576   2.899
 8397TIP3    H125134   0.834   4.620   2.814
 8397TIP3    H225135   0.769   4.633   2.951
 8398TIP3   OH225136   3.581   0.987   3.776
 8398TIP3    H125137   3.532   1.065   3.749
 8398TIP3    H225138   3.665   0.994   3.731
 8399TIP3   OH225139   7.403   2.265   5.024
 8399TIP3    H125140   7.440   2.211   5.093
 8399TIP3    H225141   7.458   2.249   4.948
 8400TIP3   OH225142   1.014   4.256   3.306
 8400TIP3    H125143   1.070   4.244   3.383
 8400TIP3    H225144   0.959   4.331   3.328
 8401TIP3   OH225145   1.946   2.471   6.645
 8401TIP3    H125146   1.970   2.435   6.731
 8401TIP3    H225147   1.954   2.565   6.656
 8402TIP3   OH225148   5.967   2.711   0.621
 8402TIP3    H125149   5.972   2.629   0.572
 8402TIP3    H225150   5.986   2.687   0.711
 8403TIP3   OH225151   1.202   3.258   0.905
 8403TIP3    H125152   1.118   3.273   0.862
 8403TIP3    H225153   1.224   3.167   0.887
 8404TIP3   OH225154   4.700   0.661   5.313
 8404TIP3    H125155   4.626   0.681   5.256
 8404TIP3    H225156   4.662   0.657   5.401
 8405TIP3   OH225157   6.403   4.135   4.444
 8405TIP3    H125158   6.477   4.196   4.450
 8405TIP3    H225159   6.351   4.152   4.523
 8406TIP3   OH225160   2.353   7.312   1.021
 8406TIP3    H125161   2.416   7.285   0.955
 8406TIP3    H225162   2.383   7.269   1.102
 8407TIP3   OH225163   5.138   3.007   2.516
 8407TIP3    H125164   5.225   3.036   2.488
 8407TIP3    H225165   5.094   2.982   2.436
 8408TIP3   OH225166   1.751   5.924   4.738
 8408TIP3    H125167   1.704   5.891   4.661
 8408TIP3    H225168   1.758   5.848   4.795
 8409TIP3   OH225169   0.073   5.666   0.243
 8409TIP3    H125170   0.148   5.611   0.218
 8409TIP3    H225171   0.005   5.604   0.270
 8410TIP3   OH225172   7.842   7.659   5.806
 8410TIP3    H125173   7.858   7.739   5.857
 8410TIP3    H225174   7.884   7.676   5.722
 8411TIP3   OH225175   0.664   4.626   0.201
 8411TIP3    H125176   0.590   4.671   0.159
 8411TIP3    H225177   0.695   4.564   0.135
 8412TIP3   OH225178   7.092   0.628   6.188
 8412TIP3    H125179   7.041   0.572   6.246
 8412TIP3    H225180   7.108   0.707   6.239
 8413TIP3   OH225181   0.839   3.223   1.119
 8413TIP3    H125182   0.853   3.158   1.051
 8413TIP3    H225183   0.745   3.243   1.114
 8414TIP3   OH225184   1.290   4.132   3.692
 8414TIP3    H125185   1.377   4.111   3.726
 8414TIP3    H225186   1.279   4.225   3.712
 8415TIP3   OH225187   5.477   1.657   0.733
 8415TIP3    H125188   5.499   1.575   0.779
 8415TIP3    H225189   5.413   1.700   0.789
 8416TIP3   OH225190   7.290   0.312   2.111
 8416TIP3    H125191   7.262   0.293   2.021
 8416TIP3    H225192   7.379   0.277   2.115
 8417TIP3   OH225193   7.866   3.453   3.550
 8417TIP3    H125194   7.887   3.516   3.481
 8417TIP3    H225195   7.784   3.413   3.522
 8418TIP3   OH225196   7.161   6.269   4.961
 8418TIP3    H125197   7.182   6.361   4.948
 8418TIP3    H225198   7.073   6.259   4.924
 8419TIP3   OH225199   7.566   0.283   3.710
 8419TIP3    H125200   7.630   0.213   3.693
 8419TIP3    H225201   7.481   0.240   3.702
 8420TIP3   OH225202   3.912   6.629   2.232
 8420TIP3    H125203   3.846   6.624   2.301
 8420TIP3    H225204   3.890   6.709   2.184
 8421TIP3   OH225205   5.135   7.652   3.900
 8421TIP3    H125206   5.045   7.636   3.872
 8421TIP3    H225207   5.185   7.654   3.819
 8422TIP3   OH225208   8.294   3.627   4.296
 8422TIP3    H125209   8.217   3.610   4.351
 8422TIP3    H225210   8.274   3.711   4.254
 8423TIP3   OH225211   6.240   1.417   1.518
 8423TIP3    H125212   6.325   1.377   1.499
 8423TIP3    H225213   6.185   1.395   1.443
 8424TIP3   OH225214   7.132   2.113   0.547
 8424TIP3    H125215   7.185   2.091   0.624
 8424TIP3    H225216   7.179   2.075   0.473
 8425TIP3   OH225217   5.156   2.051   4.950
 8425TIP3    H125218   5.153   2.044   5.045
 8425TIP3    H225219   5.174   1.962   4.920
 8426TIP3   OH225220   3.125   6.073   5.852
 8426TIP3    H125221   3.155   6.072   5.761
 8426TIP3    H225222   3.072   6.152   5.859
 8427TIP3   OH225223   3.360   5.794   2.563
 8427TIP3    H125224   3.307   5.807   2.641
 8427TIP3    H225225   3.354   5.878   2.516
 8428TIP3   OH225226   0.148   6.620   2.654
 8428TIP3    H125227   0.202   6.698   2.640
 8428TIP3    H225228   0.196   6.569   2.719
 8429TIP3   OH225229   3.580   6.948   0.781
 8429TIP3    H125230   3.580   6.864   0.736
 8429TIP3    H225231   3.596   7.013   0.711
 8430TIP3   OH225232   1.058   7.281   4.355
 8430TIP3    H125233   1.082   7.209   4.297
 8430TIP3    H225234   1.079   7.249   4.443
 8431TIP3   OH225235   0.579   2.369   5.656
 8431TIP3    H125236   0.621   2.448   5.689
 8431TIP3    H225237   0.582   2.308   5.729
 8432TIP3   OH225238   8.048   5.996   6.748
 8432TIP3    H125239   8.120   6.050   6.715
 8432TIP3    H225240   8.052   6.008   6.843
 8433TIP3   OH225241   7.057   6.666   3.156
 8433TIP3    H125242   7.093   6.743   3.201
 8433TIP3    H225243   6.967   6.660   3.187
 8434TIP3   OH225244   5.010   2.641   2.096
 8434TIP3    H125245   5.017   2.546   2.087
 8434TIP3    H225246   5.032   2.675   2.008
 8435TIP3   OH225247   3.024   1.153   3.994
 8435TIP3    H125248   2.994   1.083   4.053
 8435TIP3    H225249   3.111   1.126   3.967
 8436TIP3   OH225250   6.439   4.898   3.913
 8436TIP3    H125251   6.395   4.901   3.829
 8436TIP3    H225252   6.498   4.823   3.907
 8437TIP3   OH225253   3.475   7.059   2.711
 8437TIP3    H125254   3.541   7.114   2.669
 8437TIP3    H225255   3.420   7.029   2.638
 8438TIP3   OH225256   0.245   3.021   4.250
 8438TIP3    H125257   0.199   3.056   4.174
 8438TIP3    H225258   0.327   2.986   4.214
 8439TIP3   OH225259   5.752   2.463   0.801
 8439TIP3    H125260   5.841   2.488   0.775
 8439TIP3    H225261   5.702   2.544   0.792
 8440TIP3   OH225262   4.173   0.226   5.642
 8440TIP3    H125263   4.113   0.246   5.714
 8440TIP3    H225264   4.174   0.306   5.589
 8441TIP3   OH225265   3.011   0.834   6.255
 8441TIP3    H125266   2.954   0.784   6.196
 8441TIP3    H225267   3.043   0.907   6.201
 8442TIP3   OH225268   2.714   4.802   4.090
 8442TIP3    H125269   2.737   4.729   4.148
 8442TIP3    H225270   2.797   4.830   4.052
 8443TIP3   OH225271   4.791   5.778   2.048
 8443TIP3    H125272   4.851   5.748   1.980
 8443TIP3    H225273   4.761   5.864   2.017
 8444TIP3   OH225274   5.021   2.536   4.511
 8444TIP3    H125275   4.995   2.534   4.603
 8444TIP3    H225276   5.007   2.446   4.481
 8445TIP3   OH225277   7.092   5.996   1.844
 8445TIP3    H125278   7.138   6.070   1.884
 8445TIP3    H225279   7.155   5.925   1.843
 8446TIP3   OH225280   6.127   3.306   3.383
 8446TIP3    H125281   6.106   3.396   3.407
 8446TIP3    H225282   6.192   3.314   3.313
 8447TIP3   OH225283   0.270   0.329   6.356
 8447TIP3    H125284   0.345   0.387   6.342
 8447TIP3    H225285   0.273   0.268   6.282
 8448TIP3   OH225286   0.686   5.258   4.889
 8448TIP3    H125287   0.738   5.262   4.969
 8448TIP3    H225288   0.599   5.290   4.915
 8449TIP3   OH225289   3.308   6.428   0.053
 8449TIP3    H125290   3.381   6.403  -0.005
 8449TIP3    H225291   3.267   6.502   0.009
 8450TIP3   OH225292   4.736   6.790   2.519
 8450TIP3    H125293   4.684   6.852   2.572
 8450TIP3    H225294   4.756   6.719   2.580
 8451TIP3   OH225295   5.887   4.859   5.814
 8451TIP3    H125296   5.942   4.937   5.822
 8451TIP3    H225297   5.799   4.890   5.834
 8452TIP3   OH225298   4.493   1.534   6.261
 8452TIP3    H125299   4.517   1.538   6.168
 8452TIP3    H225300   4.522   1.618   6.296
 8453TIP3   OH225301   0.172   5.250   1.891
 8453TIP3    H125302   0.252   5.303   1.890
 8453TIP3    H225303   0.192   5.177   1.832
 8454TIP3   OH225304   5.596   2.498   3.592
 8454TIP3    H125305   5.540   2.547   3.652
 8454TIP3    H225306   5.685   2.515   3.623
 8455TIP3   OH225307   3.459   4.271   6.522
 8455TIP3    H125308   3.378   4.247   6.566
 8455TIP3    H225309   3.432   4.330   6.452
 8456TIP3   OH225310   2.700   3.839   1.546
 8456TIP3    H125311   2.630   3.877   1.494
 8456TIP3    H225312   2.740   3.913   1.591
 8457TIP3   OH225313   6.098   6.255   4.141
 8457TIP3    H125314   6.074   6.327   4.199
 8457TIP3    H225315   6.138   6.190   4.198
 8458TIP3   OH225316   2.384   4.955   3.183
 8458TIP3    H125317   2.349   4.866   3.193
 8458TIP3    H225318   2.325   5.009   3.235
 8459TIP3   OH225319   0.338   2.729   1.521
 8459TIP3    H125320   0.269   2.796   1.525
 8459TIP3    H225321   0.417   2.777   1.499
 8460TIP3   OH225322   6.242   3.741   5.621
 8460TIP3    H125323   6.263   3.653   5.589
 8460TIP3    H225324   6.147   3.745   5.619
 8461TIP3   OH225325   7.688   5.604   2.763
 8461TIP3    H125326   7.627   5.650   2.706
 8461TIP3    H225327   7.638   5.529   2.796
 8462TIP3   OH225328   1.690   6.292   4.728
 8462TIP3    H125329   1.702   6.373   4.776
 8462TIP3    H225330   1.597   6.272   4.736
 8463TIP3   OH225331   7.100   2.676   4.975
 8463TIP3    H125332   7.083   2.652   4.884
 8463TIP3    H225333   7.123   2.594   5.019
 8464TIP3   OH225334   0.270   6.667   1.201
 8464TIP3    H125335   0.180   6.636   1.189
 8464TIP3    H225336   0.260   6.753   1.242
 8465TIP3   OH225337   8.123   4.887   3.931
 8465TIP3    H125338   8.152   4.864   4.020
 8465TIP3    H225339   8.111   4.981   3.933
 8466TIP3   OH225340   0.150   7.783   6.683
 8466TIP3    H125341   0.165   7.876   6.669
 8466TIP3    H225342   0.182   7.741   6.603
 8467TIP3   OH225343   7.581   6.182   4.950
 8467TIP3    H125344   7.490   6.156   4.938
 8467TIP3    H225345   7.632   6.106   4.921
 8468TIP3   OH225346   2.114   4.953   4.726
 8468TIP3    H125347   2.121   4.891   4.799
 8468TIP3    H225348   2.038   4.923   4.677
 8469TIP3   OH225349   7.056   4.530   2.176
 8469TIP3    H125350   7.056   4.436   2.192
 8469TIP3    H225351   7.008   4.567   2.250
 8470TIP3   OH225352   5.145   6.411   2.768
 8470TIP3    H125353   5.081   6.341   2.767
 8470TIP3    H225354   5.095   6.490   2.750
 8471TIP3   OH225355   1.488   6.052   0.860
 8471TIP3    H125356   1.524   6.133   0.895
 8471TIP3    H225357   1.430   6.081   0.790
 8472TIP3   OH225358   4.381   6.840   0.565
 8472TIP3    H125359   4.435   6.880   0.633
 8472TIP3    H225360   4.397   6.746   0.572
 8473TIP3   OH225361   4.946   0.300   6.076
 8473TIP3    H125362   4.895   0.258   6.006
 8473TIP3    H225363   4.911   0.262   6.157
 8474TIP3   OH225364   0.638   5.047   0.758
 8474TIP3    H125365   0.720   5.098   0.757
 8474TIP3    H225366   0.570   5.112   0.772
 8475TIP3   OH225367   2.570   6.317   2.628
 8475TIP3    H125368   2.482   6.290   2.655
 8475TIP3    H225369   2.623   6.237   2.636
 8476TIP3   OH225370   8.125   0.121   5.142
 8476TIP3    H125371   8.123   0.179   5.065
 8476TIP3    H225372   8.213   0.083   5.141
 8477TIP3   OH225373   6.573   2.133   5.956
 8477TIP3    H125374   6.582   2.118   5.862
 8477TIP3    H225375   6.483   2.164   5.966
 8478TIP3   OH225376   7.620   0.091   3.926
 8478TIP3    H125377   7.613   0.054   4.014
 8478TIP3    H225378   7.603   0.017   3.867
 8479TIP3   OH225379   4.199   1.971   0.385
 8479TIP3    H125380   4.236   1.897   0.337
 8479TIP3    H225381   4.155   2.023   0.318
 8480TIP3   OH225382   3.597   4.183   4.999
 8480TIP3    H125383   3.548   4.134   5.065
 8480TIP3    H225384   3.688   4.180   5.030
 8481TIP3   OH225385   0.827   5.707   2.614
 8481TIP3    H125386   0.881   5.634   2.645
 8481TIP3    H225387   0.758   5.714   2.679
 8482TIP3   OH225388   6.565   2.073   4.211
 8482TIP3    H125389   6.473   2.049   4.211
 8482TIP3    H225390   6.569   2.155   4.261
 8483TIP3   OH225391   6.699   7.553   3.315
 8483TIP3    H125392   6.677   7.494   3.388
 8483TIP3    H225393   6.795   7.551   3.312
 8484TIP3   OH225394   1.846   5.891   4.230
 8484TIP3    H125395   1.880   5.930   4.150
 8484TIP3    H225396   1.879   5.948   4.300
 8485TIP3   OH225397   0.285   2.588   3.543
 8485TIP3    H125398   0.208   2.586   3.601
 8485TIP3    H225399   0.267   2.658   3.481
 8486TIP3   OH225400   6.976   1.142   1.568
 8486TIP3    H125401   7.054   1.145   1.512
 8486TIP3    H225402   6.972   1.051   1.598
 8487TIP3   OH225403   2.969   4.946   4.068
 8487TIP3    H125404   2.943   4.986   3.985
 8487TIP3    H225405   3.014   5.016   4.115
 8488TIP3   OH225406   3.828   4.030   6.490
 8488TIP3    H125407   3.890   4.080   6.437
 8488TIP3    H225408   3.758   4.007   6.430
 8489TIP3   OH225409   5.856   6.936   0.681
 8489TIP3    H125410   5.766   6.961   0.658
 8489TIP3    H225411   5.908   6.965   0.607
 8490TIP3   OH225412   4.441   5.676   3.375
 8490TIP3    H125413   4.497   5.726   3.434
 8490TIP3    H225414   4.374   5.738   3.346
 8491TIP3   OH225415   0.818   2.673   0.511
 8491TIP3    H125416   0.910   2.648   0.498
 8491TIP3    H225417   0.772   2.589   0.523
 8492TIP3   OH225418   0.970   6.366   0.391
 8492TIP3    H125419   0.942   6.447   0.348
 8492TIP3    H225420   0.933   6.372   0.479
 8493TIP3   OH225421   5.774   7.467   3.582
 8493TIP3    H125422   5.860   7.508   3.589
 8493TIP3    H225423   5.793   7.375   3.562
 8494TIP3   OH225424   3.539   1.198   2.435
 8494TIP3    H125425   3.469   1.141   2.468
 8494TIP3    H225426   3.548   1.265   2.502
 8495TIP3   OH225427   0.307   4.258   3.418
 8495TIP3    H125428   0.265   4.235   3.336
 8495TIP3    H225429   0.241   4.308   3.466
 8496TIP3   OH225430   7.101   3.791   0.385
 8496TIP3    H125431   7.188   3.827   0.371
 8496TIP3    H225432   7.111   3.731   0.459
 8497TIP3   OH225433   3.353   0.160   3.644
 8497TIP3    H125434   3.293   0.224   3.604
 8497TIP3    H225435   3.438   0.204   3.645
 8498TIP3   OH225436   7.191   3.659   0.086
 8498TIP3    H125437   7.170   3.746   0.118
 8498TIP3    H225438   7.142   3.650   0.004
 8499TIP3   OH225439   3.615   4.169   1.769
 8499TIP3    H125440   3.563   4.236   1.812
 8499TIP3    H225441   3.702   4.178   1.807
 8500TIP3   OH225442   6.610   2.762   3.664
 8500TIP3    H125443   6.660   2.738   3.586
 8500TIP3    H225444   6.560   2.839   3.638
 8501TIP3   OH225445   4.325   0.221   5.916
 8501TIP3    H125446   4.393   0.163   5.950
 8501TIP3    H225447   4.371   0.282   5.860
 8502TIP3   OH225448   2.364   7.777   2.179
 8502TIP3    H125449   2.284   7.828   2.167
 8502TIP3    H225450   2.435   7.841   2.175
 8503TIP3   OH225451   7.067   2.752   3.525
 8503TIP3    H125452   7.036   2.779   3.438
 8503TIP3    H225453   6.987   2.726   3.571
 8504TIP3   OH225454   6.463   3.881   5.086
 8504TIP3    H125455   6.428   3.880   4.997
 8504TIP3    H225456   6.557   3.867   5.075
 8505TIP3   OH225457   4.003   5.754   1.049
 8505TIP3    H125458   3.926   5.761   1.105
 8505TIP3    H225459   4.077   5.752   1.109
 8506TIP3   OH225460   7.405   5.255   5.936
 8506TIP3    H125461   7.331   5.196   5.946
 8506TIP3    H225462   7.470   5.204   5.888
 8507TIP3   OH225463   1.422   3.389   0.438
 8507TIP3    H125464   1.333   3.412   0.410
 8507TIP3    H225465   1.469   3.472   0.439
 8508TIP3   OH225466   3.294   5.242   2.567
 8508TIP3    H125467   3.361   5.277   2.625
 8508TIP3    H225468   3.335   5.242   2.480
 8509TIP3   OH225469   1.757   0.999   6.521
 8509TIP3    H125470   1.776   0.918   6.473
 8509TIP3    H225471   1.719   0.970   6.604
 8510TIP3   OH225472   2.998   6.690   5.870
 8510TIP3    H125473   2.914   6.665   5.909
 8510TIP3    H225474   2.985   6.781   5.844
 8511TIP3   OH225475   3.590   2.217   6.221
 8511TIP3    H125476   3.599   2.221   6.316
 8511TIP3    H225477   3.633   2.296   6.189
 8512TIP3   OH225478   0.371   4.850   3.158
 8512TIP3    H125479   0.350   4.940   3.135
 8512TIP3    H225480   0.364   4.802   3.076
 8513TIP3   OH225481   1.129   5.505   6.428
 8513TIP3    H125482   1.193   5.434   6.419
 8513TIP3    H225483   1.133   5.553   6.346
 8514TIP3   OH225484   0.232   3.905   1.291
 8514TIP3    H125485   0.199   3.981   1.338
 8514TIP3    H225486   0.290   3.861   1.354
 8515TIP3   OH225487   7.721   2.940   1.575
 8515TIP3    H125488   7.684   2.865   1.528
 8515TIP3    H225489   7.754   2.998   1.507
 8516TIP3   OH225490   6.596   4.836   3.051
 8516TIP3    H125491   6.586   4.853   2.958
 8516TIP3    H225492   6.559   4.749   3.065
 8517TIP3   OH225493   8.042   3.740   5.937
 8517TIP3    H125494   7.990   3.674   5.891
 8517TIP3    H225495   8.110   3.689   5.982
 8518TIP3   OH225496   0.369   3.282   1.054
 8518TIP3    H125497   0.297   3.278   0.991
 8518TIP3    H225498   0.326   3.269   1.139
 8519TIP3   OH225499   1.780   3.516   0.703
 8519TIP3    H125500   1.867   3.486   0.676
 8519TIP3    H225501   1.732   3.436   0.724
 8520TIP3   OH225502   7.251   3.436   0.838
 8520TIP3    H125503   7.158   3.442   0.812
 8520TIP3    H225504   7.275   3.526   0.859
 8521TIP3   OH225505   4.452   4.932   4.881
 8521TIP3    H125506   4.538   4.952   4.917
 8521TIP3    H225507   4.469   4.909   4.789
 8522TIP3   OH225508   3.089   2.488   2.834
 8522TIP3    H125509   3.027   2.554   2.803
 8522TIP3    H225510   3.131   2.528   2.911
 8523TIP3   OH225511   0.617   5.465   2.035
 8523TIP3    H125512   0.704   5.429   2.052
 8523TIP3    H225513   0.630   5.560   2.037
 8524TIP3   OH225514   1.619   4.812   5.754
 8524TIP3    H125515   1.643   4.901   5.780
 8524TIP3    H225516   1.532   4.821   5.716
 8525TIP3   OH225517   6.858   3.761   1.389
 8525TIP3    H125518   6.882   3.822   1.459
 8525TIP3    H225519   6.763   3.768   1.384
 8526TIP3   OH225520   4.219   5.490   3.420
 8526TIP3    H125521   4.295   5.548   3.419
 8526TIP3    H225522   4.147   5.544   3.387
 8527TIP3   OH225523   4.613   3.904   5.499
 8527TIP3    H125524   4.648   3.876   5.414
 8527TIP3    H225525   4.625   3.828   5.556
 8528TIP3   OH225526   1.921   1.703   3.602
 8528TIP3    H125527   1.978   1.690   3.678
 8528TIP3    H225528   1.919   1.617   3.560
 8529TIP3   OH225529   6.415   7.734   1.218
 8529TIP3    H125530   6.419   7.691   1.133
 8529TIP3    H225531   6.322   7.734   1.240
 8530TIP3   OH225532   3.919   2.996   4.911
 8530TIP3    H125533   3.870   3.066   4.956
 8530TIP3    H225534   3.954   3.039   4.833
 8531TIP3   OH225535   4.689   1.367   0.751
 8531TIP3    H125536   4.695   1.462   0.750
 8531TIP3    H225537   4.646   1.345   0.668
 8532TIP3   OH225538   6.336   5.474   5.798
 8532TIP3    H125539   6.380   5.438   5.876
 8532TIP3    H225540   6.296   5.398   5.757
 8533TIP3   OH225541   3.482   4.307   4.103
 8533TIP3    H125542   3.416   4.361   4.146
 8533TIP3    H225543   3.516   4.251   4.172
 8534TIP3   OH225544   1.877   1.377   4.866
 8534TIP3    H125545   1.907   1.356   4.955
 8534TIP3    H225546   1.890   1.296   4.817
 8535TIP3   OH225547   6.239   4.047   6.420
 8535TIP3    H125548   6.173   4.114   6.403
 8535TIP3    H225549   6.282   4.033   6.335
 8536TIP3   OH225550   3.791   1.050   6.810
 8536TIP3    H125551   3.853   1.071   6.740
 8536TIP3    H225552   3.834   0.982   6.861
 8537TIP3   OH225553   2.800   4.007   3.513
 8537TIP3    H125554   2.879   3.974   3.556
 8537TIP3    H225555   2.832   4.071   3.449
 8538TIP3   OH225556   1.836   2.286   6.470
 8538TIP3    H125557   1.759   2.260   6.519
 8538TIP3    H225558   1.876   2.356   6.523
 8539TIP3   OH225559   2.717   0.463   1.304
 8539TIP3    H125560   2.665   0.539   1.277
 8539TIP3    H225561   2.804   0.499   1.321
 8540TIP3   OH225562   6.907   0.145   0.991
 8540TIP3    H125563   6.941   0.080   0.929
 8540TIP3    H225564   6.821   0.111   1.016
 8541TIP3   OH225565   3.738   4.097   5.430
 8541TIP3    H125566   3.744   4.092   5.335
 8541TIP3    H225567   3.683   4.022   5.454
 8542TIP3   OH225568   2.752   1.576   3.664
 8542TIP3    H125569   2.846   1.594   3.667
 8542TIP3    H225570   2.741   1.496   3.715
 8543TIP3   OH225571   0.831   7.416   0.219
 8543TIP3    H125572   0.845   7.431   0.126
 8543TIP3    H225573   0.886   7.340   0.240
 8544TIP3   OH225574   2.080   5.681   2.507
 8544TIP3    H125575   2.055   5.591   2.487
 8544TIP3    H225576   2.018   5.735   2.458
 8545TIP3   OH225577   2.634   5.191   2.457
 8545TIP3    H125578   2.697   5.194   2.530
 8545TIP3    H225579   2.617   5.283   2.436
 8546TIP3   OH225580   0.061   1.163   5.010
 8546TIP3    H125581  -0.009   1.192   5.069
 8546TIP3    H225582   0.106   1.095   5.059
 8547TIP3   OH225583   1.483   6.406   6.100
 8547TIP3    H125584   1.446   6.373   6.183
 8547TIP3    H225585   1.574   6.377   6.102
 8548TIP3   OH225586   5.093   1.333   1.398
 8548TIP3    H125587   5.040   1.403   1.361
 8548TIP3    H225588   5.067   1.254   1.350
 8549TIP3   OH225589   6.694   0.181   6.001
 8549TIP3    H125590   6.652   0.267   5.997
 8549TIP3    H225591   6.622   0.118   6.002
 8550TIP3   OH225592   5.491   5.498   1.375
 8550TIP3    H125593   5.490   5.480   1.469
 8550TIP3    H225594   5.412   5.456   1.342
 8551TIP3   OH225595   1.052   6.100   2.940
 8551TIP3    H125596   1.042   6.174   3.000
 8551TIP3    H225597   1.021   6.024   2.989
 8552TIP3   OH225598   5.225   5.774   4.781
 8552TIP3    H125599   5.134   5.798   4.802
 8552TIP3    H225600   5.219   5.735   4.694
 8553TIP3   OH225601   1.962   6.257   3.196
 8553TIP3    H125602   1.892   6.285   3.256
 8553TIP3    H225603   1.987   6.336   3.149
 8554TIP3   OH225604   8.170   4.262   2.599
 8554TIP3    H125605   8.085   4.258   2.641
 8554TIP3    H225606   8.228   4.211   2.657
 8555TIP3   OH225607   2.173   6.070   4.675
 8555TIP3    H125608   2.091   6.115   4.656
 8555TIP3    H225609   2.147   5.979   4.690
 8556TIP3   OH225610   6.423   0.591   5.441
 8556TIP3    H125611   6.355   0.649   5.405
 8556TIP3    H225612   6.375   0.516   5.475
 8557TIP3   OH225613   0.469   5.065   4.533
 8557TIP3    H125614   0.443   5.123   4.604
 8557TIP3    H225615   0.407   4.993   4.537
 8558TIP3   OH225616   6.162   4.385   0.390
 8558TIP3    H125617   6.244   4.401   0.437
 8558TIP3    H225618   6.176   4.302   0.345
 8559TIP3   OH225619   7.599   6.553   2.239
 8559TIP3    H125620   7.609   6.568   2.334
 8559TIP3    H225621   7.609   6.459   2.229
 8560TIP3   OH225622   4.984   0.794   4.203
 8560TIP3    H125623   4.996   0.731   4.131
 8560TIP3    H225624   4.901   0.837   4.183
 8561TIP3   OH225625   0.262   2.250   2.988
 8561TIP3    H125626   0.288   2.158   2.996
 8561TIP3    H225627   0.238   2.260   2.896
 8562TIP3   OH225628   6.355   6.948   2.059
 8562TIP3    H125629   6.308   6.937   2.142
 8562TIP3    H225630   6.391   6.861   2.040
 8563TIP3   OH225631   6.806   3.203   4.666
 8563TIP3    H125632   6.868   3.130   4.671
 8563TIP3    H225633   6.795   3.230   4.757
 8564TIP3   OH225634   8.052   6.548   2.349
 8564TIP3    H125635   7.982   6.517   2.408
 8564TIP3    H225636   8.133   6.529   2.397
 8565TIP3   OH225637   5.108   0.272   0.953
 8565TIP3    H125638   5.114   0.180   0.976
 8565TIP3    H225639   5.024   0.301   0.987
 8566TIP3   OH225640   5.916   4.940   6.744
 8566TIP3    H125641   5.854   4.946   6.817
 8566TIP3    H225642   5.996   4.908   6.783
 8567TIP3   OH225643   0.079   5.219   5.224
 8567TIP3    H125644   0.008   5.264   5.268
 8567TIP3    H225645   0.149   5.214   5.289
 8568TIP3   OH225646   2.206   4.612   6.463
 8568TIP3    H125647   2.243   4.538   6.416
 8568TIP3    H225648   2.141   4.649   6.403
 8569TIP3   OH225649   0.960   1.460   4.680
 8569TIP3    H125650   0.968   1.373   4.641
 8569TIP3    H225651   1.020   1.458   4.755
 8570TIP3   OH225652   1.755   4.186   1.664
 8570TIP3    H125653   1.749   4.252   1.595
 8570TIP3    H225654   1.726   4.231   1.743
 8571TIP3   OH225655   4.998   2.138   4.669
 8571TIP3    H125656   5.052   2.152   4.592
 8571TIP3    H225657   5.056   2.092   4.730
 8572TIP3   OH225658   7.015   4.656   4.124
 8572TIP3    H125659   7.065   4.716   4.070
 8572TIP3    H225660   6.958   4.712   4.177
 8573TIP3   OH225661   1.708   3.349   5.743
 8573TIP3    H125662   1.698   3.425   5.800
 8573TIP3    H225663   1.782   3.371   5.687
 8574TIP3   OH225664   4.102   1.333   2.332
 8574TIP3    H125665   4.127   1.424   2.315
 8574TIP3    H225666   4.183   1.291   2.361
 8575TIP3   OH225667   5.420   6.966   5.897
 8575TIP3    H125668   5.324   6.969   5.889
 8575TIP3    H225669   5.452   6.995   5.811
 8576TIP3   OH225670   5.723   5.248   4.623
 8576TIP3    H125671   5.657   5.187   4.592
 8576TIP3    H225672   5.806   5.213   4.591
 8577TIP3   OH225673   8.079   1.692   3.841
 8577TIP3    H125674   8.086   1.607   3.885
 8577TIP3    H225675   8.153   1.694   3.780
 8578TIP3   OH225676   0.913   1.201   4.872
 8578TIP3    H125677   0.987   1.260   4.890
 8578TIP3    H225678   0.950   1.113   4.880
 8579TIP3   OH225679   5.031   6.641   6.468
 8579TIP3    H125680   4.979   6.584   6.412
 8579TIP3    H225681   5.102   6.673   6.412
 8580TIP3   OH225682   4.109   2.869   5.068
 8580TIP3    H125683   4.135   2.915   5.148
 8580TIP3    H225684   4.019   2.899   5.052
 8581TIP3   OH225685   2.110   2.211   5.177
 8581TIP3    H125686   2.132   2.295   5.217
 8581TIP3    H225687   2.019   2.196   5.204
 8582TIP3   OH225688   1.664   5.856   4.486
 8582TIP3    H125689   1.669   5.945   4.451
 8582TIP3    H225690   1.651   5.800   4.409
 8583TIP3   OH225691   3.410   0.282   1.512
 8583TIP3    H125692   3.404   0.316   1.601
 8583TIP3    H225693   3.467   0.205   1.520
 8584TIP3   OH225694   5.369   1.561   5.165
 8584TIP3    H125695   5.380   1.607   5.081
 8584TIP3    H225696   5.368   1.469   5.142
 8585TIP3   OH225697   2.615   5.389   5.997
 8585TIP3    H125698   2.590   5.468   5.948
 8585TIP3    H225699   2.597   5.412   6.088
 8586TIP3   OH225700   5.810   4.276   0.645
 8586TIP3    H125701   5.884   4.258   0.586
 8586TIP3    H225702   5.839   4.245   0.730
 8587TIP3   OH225703   0.885   1.698   5.240
 8587TIP3    H125704   0.850   1.745   5.315
 8587TIP3    H225705   0.938   1.763   5.194
 8588TIP3   OH225706   4.074   6.875   2.661
 8588TIP3    H125707   4.077   6.818   2.585
 8588TIP3    H225708   4.149   6.933   2.651
 8589TIP3   OH225709   3.753   5.717   6.297
 8589TIP3    H125710   3.714   5.720   6.384
 8589TIP3    H225711   3.841   5.683   6.311
 8590TIP3   OH225712   2.966   7.311   5.724
 8590TIP3    H125713   2.886   7.258   5.729
 8590TIP3    H225714   2.936   7.398   5.698
 8591TIP3   OH225715   3.067   2.960   3.553
 8591TIP3    H125716   3.077   2.873   3.515
 8591TIP3    H225717   2.973   2.977   3.549
 8592TIP3   OH225718   1.662   3.533   5.948
 8592TIP3    H125719   1.642   3.537   6.041
 8592TIP3    H225720   1.581   3.561   5.905
 8593TIP3   OH225721   4.478   6.574   4.018
 8593TIP3    H125722   4.502   6.580   3.925
 8593TIP3    H225723   4.478   6.480   4.037
 8594TIP3   OH225724   6.828   6.493   5.893
 8594TIP3    H125725   6.884   6.480   5.816
 8594TIP3    H225726   6.886   6.530   5.959
 8595TIP3   OH225727   7.174   4.862   1.285
 8595TIP3    H125728   7.115   4.786   1.278
 8595TIP3    H225729   7.171   4.902   1.198
 8596TIP3   OH225730   4.957   7.183   0.673
 8596TIP3    H125731   4.870   7.213   0.696
 8596TIP3    H225732   5.008   7.190   0.754
 8597TIP3   OH225733   5.732   7.269   2.825
 8597TIP3    H125734   5.798   7.275   2.757
 8597TIP3    H225735   5.749   7.345   2.881
 8598TIP3   OH225736   5.107   1.360   1.685
 8598TIP3    H125737   5.073   1.272   1.697
 8598TIP3    H225738   5.145   1.360   1.597
 8599TIP3   OH225739   6.554   2.454   5.059
 8599TIP3    H125740   6.469   2.412   5.067
 8599TIP3    H225741   6.575   2.446   4.966
 8600TIP3   OH225742   6.380   6.515   5.957
 8600TIP3    H125743   6.359   6.483   5.869
 8600TIP3    H225744   6.366   6.439   6.014
 8601TIP3   OH225745   2.260   1.006   3.677
 8601TIP3    H125746   2.231   1.071   3.741
 8601TIP3    H225747   2.215   1.030   3.596
 8602TIP3   OH225748   5.161   3.867   0.015
 8602TIP3    H125749   5.180   3.913   0.097
 8602TIP3    H225750   5.248   3.851  -0.024
 8603TIP3   OH225751   0.228   1.567   5.498
 8603TIP3    H125752   0.216   1.632   5.566
 8603TIP3    H225753   0.317   1.583   5.465
 8604TIP3   OH225754   5.425   6.145   5.994
 8604TIP3    H125755   5.422   6.200   5.916
 8604TIP3    H225756   5.456   6.203   6.063
 8605TIP3   OH225757   0.766   4.895   4.542
 8605TIP3    H125758   0.801   4.981   4.522
 8605TIP3    H225759   0.701   4.910   4.611
 8606TIP3   OH225760   6.613   5.925   0.307
 8606TIP3    H125761   6.691   5.897   0.259
 8606TIP3    H225762   6.573   5.843   0.336
 8607TIP3   OH225763   2.367   3.139   0.144
 8607TIP3    H125764   2.345   3.073   0.078
 8607TIP3    H225765   2.420   3.203   0.097
 8608TIP3   OH225766   7.348   1.049   2.576
 8608TIP3    H125767   7.426   0.996   2.557
 8608TIP3    H225768   7.364   1.084   2.664
 8609TIP3   OH225769   6.337   1.702   0.993
 8609TIP3    H125770   6.274   1.650   1.044
 8609TIP3    H225771   6.378   1.760   1.058
 8610TIP3   OH225772   6.437   6.930   3.726
 8610TIP3    H125773   6.465   7.008   3.678
 8610TIP3    H225774   6.503   6.864   3.706
 8611TIP3   OH225775   4.204   0.810   5.902
 8611TIP3    H125776   4.181   0.903   5.903
 8611TIP3    H225777   4.266   0.800   5.974
 8612TIP3   OH225778   4.004   3.447   3.698
 8612TIP3    H125779   3.982   3.452   3.605
 8612TIP3    H225780   3.988   3.356   3.721
 8613TIP3   OH225781   6.418   4.012   3.060
 8613TIP3    H125782   6.378   4.031   2.976
 8613TIP3    H225783   6.351   3.961   3.107
 8614TIP3   OH225784   0.466   1.327   6.352
 8614TIP3    H125785   0.546   1.303   6.399
 8614TIP3    H225786   0.481   1.416   6.322
 8615TIP3   OH225787   3.507   1.892   5.618
 8615TIP3    H125788   3.463   1.974   5.639
 8615TIP3    H225789   3.559   1.872   5.695
 8616TIP3   OH225790   4.118   7.075   1.984
 8616TIP3    H125791   4.176   7.129   2.036
 8616TIP3    H225792   4.100   7.127   1.905
 8617TIP3   OH225793   5.914   1.253   1.755
 8617TIP3    H125794   5.989   1.194   1.751
 8617TIP3    H225795   5.863   1.223   1.830
 8618TIP3   OH225796   5.223   2.216   4.204
 8618TIP3    H125797   5.285   2.287   4.217
 8618TIP3    H225798   5.267   2.139   4.240
 8619TIP3   OH225799   2.029   7.574   0.093
 8619TIP3    H125800   1.992   7.593   0.007
 8619TIP3    H225801   1.963   7.519   0.136
 8620TIP3   OH225802   6.939   4.370   6.636
 8620TIP3    H125803   6.885   4.427   6.582
 8620TIP3    H225804   7.005   4.428   6.674
 8621TIP3   OH225805   2.732   0.504   6.288
 8621TIP3    H125806   2.678   0.448   6.345
 8621TIP3    H225807   2.729   0.461   6.203
 8622TIP3   OH225808   5.317   1.365   4.054
 8622TIP3    H125809   5.348   1.451   4.024
 8622TIP3    H225810   5.373   1.344   4.129
 8623TIP3   OH225811   5.391   2.305   3.626
 8623TIP3    H125812   5.426   2.272   3.709
 8623TIP3    H225813   5.467   2.340   3.580
 8624TIP3   OH225814   3.244   4.566   3.761
 8624TIP3    H125815   3.184   4.524   3.699
 8624TIP3    H225816   3.189   4.629   3.808
 8625TIP3   OH225817   3.359   0.517   6.294
 8625TIP3    H125818   3.367   0.610   6.275
 8625TIP3    H225819   3.268   0.507   6.323
 8626TIP3   OH225820   2.371   2.974   3.689
 8626TIP3    H125821   2.366   3.057   3.736
 8626TIP3    H225822   2.370   2.998   3.596
 8627TIP3   OH225823   7.305   2.861   0.592
 8627TIP3    H125824   7.340   2.778   0.625
 8627TIP3    H225825   7.382   2.918   0.584
 8628TIP3   OH225826   4.300   7.616   5.035
 8628TIP3    H125827   4.362   7.599   5.105
 8628TIP3    H225828   4.302   7.711   5.023
 8629TIP3   OH225829   2.432   3.625   3.135
 8629TIP3    H125830   2.386   3.674   3.067
 8629TIP3    H225831   2.520   3.609   3.099
 8630TIP3   OH225832   8.018   0.954   6.531
 8630TIP3    H125833   8.057   0.881   6.579
 8630TIP3    H225834   7.925   0.950   6.552
 8631TIP3   OH225835   7.732   4.687   4.794
 8631TIP3    H125836   7.725   4.591   4.794
 8631TIP3    H225837   7.784   4.707   4.716
 8632TIP3   OH225838   1.913   5.074   3.233
 8632TIP3    H125839   1.836   5.070   3.289
 8632TIP3    H225840   1.964   4.997   3.256
 8633TIP3   OH225841   6.613   4.471   0.791
 8633TIP3    H125842   6.541   4.408   0.795
 8633TIP3    H225843   6.685   4.422   0.752
 8634TIP3   OH225844   2.999   2.292   5.166
 8634TIP3    H125845   2.971   2.369   5.118
 8634TIP3    H225846   2.977   2.311   5.257
 8635TIP3   OH225847   4.475   2.725   0.323
 8635TIP3    H125848   4.529   2.683   0.390
 8635TIP3    H225849   4.484   2.668   0.247
 8636TIP3   OH225850   4.773   1.950   4.628
 8636TIP3    H125851   4.844   2.010   4.651
 8636TIP3    H225852   4.736   1.922   4.711
 8637TIP3   OH225853   3.009   6.548   2.445
 8637TIP3    H125854   2.943   6.616   2.458
 8637TIP3    H225855   3.092   6.594   2.451
 8638TIP3   OH225856   5.944   3.375   3.015
 8638TIP3    H125857   5.902   3.289   3.025
 8638TIP3    H225858   6.037   3.355   3.003
 8639TIP3   OH225859   7.725   4.292   4.745
 8639TIP3    H125860   7.651   4.333   4.791
 8639TIP3    H225861   7.779   4.255   4.815
 8640TIP3   OH225862   4.437   6.071   4.408
 8640TIP3    H125863   4.343   6.091   4.413
 8640TIP3    H225864   4.444   5.983   4.445
 8641TIP3   OH225865   5.037   4.959   5.523
 8641TIP3    H125866   4.971   4.896   5.552
 8641TIP3    H225867   4.992   5.015   5.460
 8642TIP3   OH225868   2.809   1.170   5.869
 8642TIP3    H125869   2.806   1.245   5.927
 8642TIP3    H225870   2.776   1.097   5.922
 8643TIP3   OH225871   4.231   4.479   1.678
 8643TIP3    H125872   4.168   4.462   1.749
 8643TIP3    H225873   4.284   4.551   1.710
 8644TIP3   OH225874   2.801   7.232   6.216
 8644TIP3    H125875   2.867   7.265   6.277
 8644TIP3    H225876   2.849   7.217   6.135
 8645TIP3   OH225877   5.440   4.636   4.376
 8645TIP3    H125878   5.489   4.573   4.324
 8645TIP3    H225879   5.480   4.720   4.355
 8646TIP3   OH225880   1.014   1.648   6.707
 8646TIP3    H125881   1.107   1.632   6.691
 8646TIP3    H225882   1.008   1.653   6.803
 8647TIP3   OH225883   0.990   2.282   2.130
 8647TIP3    H125884   0.914   2.228   2.149
 8647TIP3    H225885   1.030   2.242   2.052
 8648TIP3   OH225886   3.075   7.591   1.146
 8648TIP3    H125887   3.169   7.597   1.166
 8648TIP3    H225888   3.071   7.554   1.058
 8649TIP3   OH225889   7.922   4.338   2.682
 8649TIP3    H125890   7.930   4.404   2.612
 8649TIP3    H225891   7.877   4.265   2.641
 8650TIP3   OH225892   4.053   7.749   2.454
 8650TIP3    H125893   4.137   7.784   2.482
 8650TIP3    H225894   3.990   7.784   2.517
 8651TIP3   OH225895   5.328   1.404   3.373
 8651TIP3    H125896   5.328   1.461   3.296
 8651TIP3    H225897   5.376   1.454   3.440
 8652TIP3   OH225898   7.105   4.157   5.135
 8652TIP3    H125899   7.139   4.235   5.178
 8652TIP3    H225900   7.012   4.175   5.122
 8653TIP3   OH225901   3.266   7.110   3.533
 8653TIP3    H125902   3.211   7.035   3.555
 8653TIP3    H225903   3.238   7.136   3.445
 8654TIP3   OH225904   5.798   5.030   1.245
 8654TIP3    H125905   5.759   4.967   1.305
 8654TIP3    H225906   5.741   5.107   1.249
 8655TIP3   OH225907   7.469   0.835   3.713
 8655TIP3    H125908   7.527   0.893   3.664
 8655TIP3    H225909   7.448   0.765   3.651
 8656TIP3   OH225910   7.675   6.805   2.102
 8656TIP3    H125911   7.641   6.732   2.154
 8656TIP3    H225912   7.606   6.825   2.039
 8657TIP3   OH225913   6.041   6.702   2.075
 8657TIP3    H125914   6.004   6.679   2.160
 8657TIP3    H225915   6.067   6.794   2.084
 8658TIP3   OH225916   4.538   4.564   2.356
 8658TIP3    H125917   4.508   4.651   2.382
 8658TIP3    H225918   4.558   4.520   2.439
 8659TIP3   OH225919   2.293   7.663   0.708
 8659TIP3    H125920   2.317   7.624   0.793
 8659TIP3    H225921   2.237   7.737   0.731
 8660TIP3   OH225922   3.438   2.981   1.112
 8660TIP3    H125923   3.347   2.997   1.137
 8660TIP3    H225924   3.489   3.032   1.175
 8661TIP3   OH225925   6.458   4.021   1.539
 8661TIP3    H125926   6.435   4.087   1.605
 8661TIP3    H225927   6.456   4.069   1.456
 8662TIP3   OH225928   7.800   5.990   5.870
 8662TIP3    H125929   7.788   6.009   5.963
 8662TIP3    H225930   7.774   6.071   5.826
 8663TIP3   OH225931   2.054   2.284   4.174
 8663TIP3    H125932   2.148   2.283   4.190
 8663TIP3    H225933   2.044   2.243   4.087
 8664TIP3   OH225934   1.024   3.113   2.392
 8664TIP3    H125935   0.944   3.060   2.390
 8664TIP3    H225936   1.021   3.158   2.476
 8665TIP3   OH225937   2.405   2.853   6.083
 8665TIP3    H125938   2.450   2.872   6.001
 8665TIP3    H225939   2.475   2.848   6.148
 8666TIP3   OH225940   5.776   1.219   6.759
 8666TIP3    H125941   5.691   1.232   6.716
 8666TIP3    H225942   5.828   1.173   6.693
 8667TIP3   OH225943   5.335   0.968   4.318
 8667TIP3    H125944   5.392   0.964   4.395
 8667TIP3    H225945   5.247   0.972   4.354
 8668TIP3   OH225946   2.677   7.658   3.680
 8668TIP3    H125947   2.732   7.588   3.648
 8668TIP3    H225948   2.627   7.687   3.604
 8669TIP3   OH225949   3.320   3.122   6.263
 8669TIP3    H125950   3.308   3.071   6.343
 8669TIP3    H225951   3.354   3.206   6.293
 8670TIP3   OH225952   0.330   2.497   3.107
 8670TIP3    H125953   0.256   2.556   3.093
 8670TIP3    H225954   0.304   2.415   3.066
 8671TIP3   OH225955   7.725   7.228   2.610
 8671TIP3    H125956   7.746   7.234   2.704
 8671TIP3    H225957   7.762   7.307   2.572
 8672TIP3   OH225958   2.393   6.566   4.988
 8672TIP3    H125959   2.475   6.546   5.033
 8672TIP3    H225960   2.371   6.486   4.941
 8673TIP3   OH225961   5.958   3.904   0.715
 8673TIP3    H125962   5.999   3.923   0.631
 8673TIP3    H225963   6.026   3.920   0.780
 8674TIP3   OH225964   2.187   4.717   3.171
 8674TIP3    H125965   2.095   4.723   3.197
 8674TIP3    H225966   2.228   4.665   3.240
 8675TIP3   OH225967   6.813   6.964   4.829
 8675TIP3    H125968   6.825   6.880   4.785
 8675TIP3    H225969   6.733   6.952   4.882
 8676TIP3   OH225970   0.713   2.802   5.103
 8676TIP3    H125971   0.793   2.807   5.156
 8676TIP3    H225972   0.743   2.770   5.017
 8677TIP3   OH225973   2.195   3.075   5.271
 8677TIP3    H125974   2.102   3.089   5.255
 8677TIP3    H225975   2.232   3.163   5.278
 8678TIP3   OH225976   5.754   0.930   4.798
 8678TIP3    H125977   5.686   0.873   4.836
 8678TIP3    H225978   5.830   0.916   4.854
 8679TIP3   OH225979   1.188   0.811   0.873
 8679TIP3    H125980   1.217   0.747   0.938
 8679TIP3    H225981   1.263   0.870   0.863
 8680TIP3   OH225982   1.701   5.202   5.312
 8680TIP3    H125983   1.704   5.295   5.288
 8680TIP3    H225984   1.612   5.175   5.287
 8681TIP3   OH225985   5.719   1.722   2.201
 8681TIP3    H125986   5.693   1.784   2.132
 8681TIP3    H225987   5.743   1.643   2.153
 8682TIP3   OH225988   2.331   7.123   4.586
 8682TIP3    H125989   2.364   7.166   4.665
 8682TIP3    H225990   2.238   7.146   4.583
 8683TIP3   OH225991   0.460   0.589   0.694
 8683TIP3    H125992   0.416   0.507   0.717
 8683TIP3    H225993   0.438   0.602   0.602
 8684TIP3   OH225994   7.175   7.338   2.272
 8684TIP3    H125995   7.147   7.346   2.181
 8684TIP3    H225996   7.141   7.253   2.300
 8685TIP3   OH225997   7.174   3.179   1.610
 8685TIP3    H125998   7.123   3.241   1.559
 8685TIP3    H225999   7.199   3.111   1.547
 8686TIP3   OH226000   6.340   5.355   2.059
 8686TIP3    H126001   6.378   5.435   2.096
 8686TIP3    H226002   6.253   5.381   2.031
 8687TIP3   OH226003   1.543   2.845   1.460
 8687TIP3    H126004   1.460   2.844   1.413
 8687TIP3    H226005   1.560   2.938   1.476
 8688TIP3   OH226006   1.475   3.319   5.602
 8688TIP3    H126007   1.561   3.329   5.642
 8688TIP3    H226008   1.417   3.371   5.657
 8689TIP3   OH226009   1.164   1.912   2.117
 8689TIP3    H126010   1.142   1.819   2.109
 8689TIP3    H226011   1.259   1.914   2.120
 8690TIP3   OH226012   0.795   4.040   3.399
 8690TIP3    H126013   0.802   4.135   3.395
 8690TIP3    H226014   0.861   4.014   3.464
 8691TIP3   OH226015   3.232   1.794   4.234
 8691TIP3    H126016   3.318   1.810   4.195
 8691TIP3    H226017   3.224   1.859   4.304
 8692TIP3   OH226018   1.126   4.529   3.382
 8692TIP3    H126019   1.044   4.567   3.350
 8692TIP3    H226020   1.106   4.500   3.471
 8693TIP3   OH226021   5.475   6.289   6.213
 8693TIP3    H126022   5.542   6.234   6.253
 8693TIP3    H226023   5.417   6.313   6.286
 8694TIP3   OH226024   2.364   1.416   3.845
 8694TIP3    H126025   2.413   1.494   3.819
 8694TIP3    H226026   2.378   1.409   3.939
 8695TIP3   OH226027   1.765   4.058   3.110
 8695TIP3    H126028   1.724   4.142   3.128
 8695TIP3    H226029   1.728   4.031   3.025
 8696TIP3   OH226030   7.387   0.274   6.670
 8696TIP3    H126031   7.454   0.207   6.684
 8696TIP3    H226032   7.412   0.316   6.588
 8697TIP3   OH226033   4.583   4.972   3.735
 8697TIP3    H126034   4.665   4.945   3.694
 8697TIP3    H226035   4.519   4.907   3.707
 8698TIP3   OH226036   5.388   5.951   1.402
 8698TIP3    H126037   5.317   5.896   1.435
 8698TIP3    H226038   5.468   5.905   1.429
 8699TIP3   OH226039   5.877   3.813   2.749
 8699TIP3    H126040   5.801   3.755   2.749
 8699TIP3    H226041   5.919   3.798   2.664
 8700TIP3   OH226042   1.951   1.728   1.399
 8700TIP3    H126043   1.898   1.775   1.463
 8700TIP3    H226044   2.025   1.786   1.381
 8701TIP3   OH226045   7.364   5.755   5.814
 8701TIP3    H126046   7.390   5.789   5.729
 8701TIP3    H226047   7.392   5.664   5.813
 8702TIP3   OH226048   7.485   5.127   1.640
 8702TIP3    H126049   7.435   5.084   1.570
 8702TIP3    H226050   7.420   5.153   1.704
 8703TIP3   OH226051   7.936   5.596   2.625
 8703TIP3    H126052   7.977   5.682   2.625
 8703TIP3    H226053   7.863   5.604   2.687
 8704TIP3   OH226054   6.452   6.423   3.813
 8704TIP3    H126055   6.360   6.445   3.827
 8704TIP3    H226056   6.494   6.507   3.793
 8705TIP3   OH226057   2.502   0.894   1.656
 8705TIP3    H126058   2.549   0.969   1.619
 8705TIP3    H226059   2.491   0.834   1.583
 8706TIP3   OH226060   2.957   6.501   3.639
 8706TIP3    H126061   3.029   6.453   3.680
 8706TIP3    H226062   2.880   6.477   3.690
 8707TIP3   OH226063   6.789   4.306   0.659
 8707TIP3    H126064   6.754   4.232   0.709
 8707TIP3    H226065   6.877   4.319   0.695
 8708TIP3   OH226066   2.439   4.172   4.551
 8708TIP3    H126067   2.533   4.176   4.565
 8708TIP3    H226068   2.427   4.100   4.489
 8709TIP3   OH226069   3.251   4.548   2.462
 8709TIP3    H126070   3.200   4.610   2.409
 8709TIP3    H226071   3.281   4.482   2.399
 8710TIP3   OH226072   3.244   6.201   5.079
 8710TIP3    H126073   3.305   6.221   5.150
 8710TIP3    H226074   3.240   6.281   5.027
 8711TIP3   OH226075   0.244   3.015   1.585
 8711TIP3    H126076   0.195   3.057   1.657
 8711TIP3    H226077   0.321   3.071   1.574
 8712TIP3   OH226078   8.166   7.773   4.978
 8712TIP3    H126079   8.121   7.688   4.979
 8712TIP3    H226080   8.248   7.758   5.024
 8713TIP3   OH226081   4.799   4.125   5.588
 8713TIP3    H126082   4.739   4.197   5.565
 8713TIP3    H226083   4.761   4.048   5.546
 8714TIP3   OH226084   5.154   2.134   3.734
 8714TIP3    H126085   5.127   2.093   3.816
 8714TIP3    H226086   5.074   2.135   3.681
 8715TIP3   OH226087   3.910   3.565   6.417
 8715TIP3    H126088   4.005   3.574   6.426
 8715TIP3    H226089   3.891   3.602   6.331
 8716TIP3   OH226090   2.612   6.574   4.626
 8716TIP3    H126091   2.676   6.639   4.595
 8716TIP3    H226092   2.620   6.502   4.564
 8717TIP3   OH226093   3.876   0.172   6.357
 8717TIP3    H126094   3.922   0.254   6.343
 8717TIP3    H226095   3.901   0.117   6.283
 8718TIP3   OH226096   0.691   1.731   3.126
 8718TIP3    H126097   0.653   1.778   3.201
 8718TIP3    H226098   0.783   1.720   3.148
 8719TIP3   OH226099   2.636   4.050   3.967
 8719TIP3    H126100   2.722   4.092   3.965
 8719TIP3    H226101   2.614   4.037   3.874
 8720TIP3   OH226102   7.815   7.127   4.079
 8720TIP3    H126103   7.787   7.183   4.007
 8720TIP3    H226104   7.860   7.187   4.139
 8721TIP3   OH226105   6.133   6.883   2.858
 8721TIP3    H126106   6.068   6.938   2.901
 8721TIP3    H226107   6.081   6.817   2.812
 8722TIP3   OH226108   6.409   1.755   5.753
 8722TIP3    H126109   6.422   1.800   5.670
 8722TIP3    H226110   6.323   1.715   5.746
 8723TIP3   OH226111   5.548   2.911   2.244
 8723TIP3    H126112   5.452   2.918   2.243
 8723TIP3    H226113   5.566   2.826   2.204
 8724TIP3   OH226114   0.998   6.477   3.372
 8724TIP3    H126115   0.934   6.418   3.412
 8724TIP3    H226116   1.049   6.511   3.445
 8725TIP3   OH226117   3.531   2.449   2.822
 8725TIP3    H126118   3.471   2.386   2.783
 8725TIP3    H226119   3.480   2.494   2.889
 8726TIP3   OH226120   0.080   4.281   3.722
 8726TIP3    H126121   0.006   4.312   3.774
 8726TIP3    H226122   0.143   4.354   3.726
 8727TIP3   OH226123   5.329   1.506   6.718
 8727TIP3    H126124   5.374   1.433   6.676
 8727TIP3    H226125   5.300   1.470   6.802
 8728TIP3   OH226126   4.912   4.942   6.731
 8728TIP3    H126127   4.896   4.850   6.755
 8728TIP3    H226128   4.953   4.937   6.646
 8729TIP3   OH226129   0.736   6.238   2.933
 8729TIP3    H126130   0.713   6.331   2.937
 8729TIP3    H226131   0.822   6.233   2.975
 8730TIP3   OH226132   4.040   2.739   2.828
 8730TIP3    H126133   4.003   2.804   2.768
 8730TIP3    H226134   4.029   2.655   2.782
 8731TIP3   OH226135   1.863   5.658   4.563
 8731TIP3    H126136   1.931   5.701   4.513
 8731TIP3    H226137   1.783   5.708   4.545
 8732TIP3   OH226138   5.957   7.731   3.591
 8732TIP3    H126139   6.034   7.741   3.647
 8732TIP3    H226140   5.886   7.706   3.650
 8733TIP3   OH226141   6.027   3.201   0.237
 8733TIP3    H126142   6.010   3.272   0.175
 8733TIP3    H226143   6.081   3.139   0.187
 8734TIP3   OH226144   6.578   7.332   2.772
 8734TIP3    H126145   6.556   7.340   2.679
 8734TIP3    H226146   6.552   7.416   2.810
 8735TIP3   OH226147   5.603   0.895   3.417
 8735TIP3    H126148   5.554   0.849   3.486
 8735TIP3    H226149   5.573   0.986   3.423
 8736TIP3   OH226150   1.746   0.076   0.408
 8736TIP3    H126151   1.750   0.014   0.481
 8736TIP3    H226152   1.754   0.162   0.449
 8737TIP3   OH226153   5.743   5.763   5.228
 8737TIP3    H126154   5.656   5.725   5.241
 8737TIP3    H226155   5.779   5.716   5.153
 8738TIP3   OH226156   5.526   0.532   3.602
 8738TIP3    H126157   5.465   0.506   3.534
 8738TIP3    H226158   5.498   0.619   3.628
 8739TIP3   OH226159   6.687   4.086   3.752
 8739TIP3    H126160   6.774   4.065   3.718
 8739TIP3    H226161   6.627   4.032   3.701
 8740TIP3   OH226162   6.428   1.461   3.918
 8740TIP3    H126163   6.518   1.486   3.897
 8740TIP3    H226164   6.432   1.431   4.009
 8741TIP3   OH226165   5.312   7.089   1.959
 8741TIP3    H126166   5.290   7.048   1.875
 8741TIP3    H226167   5.396   7.132   1.943
 8742TIP3   OH226168   4.406   2.980   6.005
 8742TIP3    H126169   4.395   2.961   6.098
 8742TIP3    H226170   4.323   3.021   5.979
 8743TIP3   OH226171   4.477   5.793   4.071
 8743TIP3    H126172   4.510   5.877   4.104
 8743TIP3    H226173   4.401   5.774   4.126
 8744TIP3   OH226174   4.852   6.071   2.014
 8744TIP3    H126175   4.794   6.147   2.021
 8744TIP3    H226176   4.849   6.047   1.922
 8745TIP3   OH226177   1.524   0.488   5.288
 8745TIP3    H126178   1.534   0.476   5.194
 8745TIP3    H226179   1.595   0.548   5.313
 8746TIP3   OH226180   3.370   2.362   2.058
 8746TIP3    H126181   3.308   2.295   2.029
 8746TIP3    H226182   3.349   2.374   2.151
 8747TIP3   OH226183   7.969   6.663   1.051
 8747TIP3    H126184   7.932   6.733   0.997
 8747TIP3    H226185   8.009   6.707   1.125
 8748TIP3   OH226186   7.214   1.144   6.580
 8748TIP3    H126187   7.129   1.100   6.585
 8748TIP3    H226188   7.278   1.073   6.579
 8749TIP3   OH226189   4.504   7.455   0.997
 8749TIP3    H126190   4.555   7.501   1.063
 8749TIP3    H226191   4.416   7.447   1.036
 8750TIP3   OH226192   6.226   6.522   6.789
 8750TIP3    H126193   6.286   6.511   6.863
 8750TIP3    H226194   6.243   6.446   6.733
 8751TIP3   OH226195   1.477   1.656   4.781
 8751TIP3    H126196   1.524   1.577   4.809
 8751TIP3    H226197   1.470   1.709   4.860
 8752TIP3   OH226198   4.964   1.537   2.015
 8752TIP3    H126199   4.895   1.512   1.953
 8752TIP3    H226200   4.918   1.552   2.097
 8753TIP3   OH226201   7.513   5.912   3.132
 8753TIP3    H126202   7.450   5.983   3.121
 8753TIP3    H226203   7.588   5.937   3.078
 8754TIP3   OH226204   5.164   1.844   1.958
 8754TIP3    H126205   5.214   1.899   1.897
 8754TIP3    H226206   5.076   1.840   1.920
 8755TIP3   OH226207   6.053   1.661   0.049
 8755TIP3    H126208   6.023   1.742   0.091
 8755TIP3    H226209   5.979   1.634  -0.006
 8756TIP3   OH226210   1.495   7.410   4.884
 8756TIP3    H126211   1.451   7.377   4.962
 8756TIP3    H226212   1.427   7.413   4.817
 8757TIP3   OH226213   5.424   4.188   4.284
 8757TIP3    H126214   5.435   4.161   4.193
 8757TIP3    H226215   5.348   4.247   4.282
 8758TIP3   OH226216   0.296   3.863   4.172
 8758TIP3    H126217   0.386   3.858   4.138
 8758TIP3    H226218   0.294   3.797   4.242
 8759TIP3   OH226219   6.332   3.444   4.696
 8759TIP3    H126220   6.309   3.537   4.690
 8759TIP3    H226221   6.354   3.420   4.606
 8760TIP3   OH226222   1.533   0.497   3.568
 8760TIP3    H126223   1.519   0.588   3.594
 8760TIP3    H226224   1.583   0.460   3.641
 8761TIP3   OH226225   7.799   5.703   3.272
 8761TIP3    H126226   7.852   5.629   3.303
 8761TIP3    H226227   7.762   5.672   3.189
 8762TIP3   OH226228   4.861   3.326   6.380
 8762TIP3    H126229   4.797   3.278   6.328
 8762TIP3    H226230   4.940   3.326   6.326
 8763TIP3   OH226231   0.714   6.924   5.261
 8763TIP3    H126232   0.663   6.998   5.230
 8763TIP3    H226233   0.664   6.889   5.335
 8764TIP3   OH226234   3.331  -0.007   5.202
 8764TIP3    H126235   3.328   0.066   5.141
 8764TIP3    H226236   3.424  -0.024   5.215
 8765TIP3   OH226237   6.396   1.492   4.204
 8765TIP3    H126238   6.309   1.464   4.236
 8765TIP3    H226239   6.457   1.440   4.256
 8766TIP3   OH226240   6.479   6.445   5.514
 8766TIP3    H126241   6.419   6.436   5.588
 8766TIP3    H226242   6.528   6.363   5.513
 8767TIP3   OH226243   3.101   5.636   3.337
 8767TIP3    H126244   3.095   5.541   3.326
 8767TIP3    H226245   3.028   5.671   3.286
 8768TIP3   OH226246   0.340   6.612   3.774
 8768TIP3    H126247   0.296   6.529   3.796
 8768TIP3    H226248   0.351   6.656   3.857
 8769TIP3   OH226249   5.502   4.097   4.914
 8769TIP3    H126250   5.575   4.135   4.865
 8769TIP3    H226251   5.463   4.033   4.853
 8770TIP3   OH226252   7.719   6.002   2.973
 8770TIP3    H126253   7.672   5.964   2.899
 8770TIP3    H226254   7.808   5.969   2.966
 8771TIP3   OH226255   0.214   2.720   0.232
 8771TIP3    H126256   0.231   2.802   0.279
 8771TIP3    H226257   0.280   2.717   0.163
 8772TIP3   OH226258   4.056   2.893   0.158
 8772TIP3    H126259   4.115   2.864   0.089
 8772TIP3    H226260   4.111   2.896   0.237
 8773TIP3   OH226261   5.767   7.140   4.326
 8773TIP3    H126262   5.857   7.107   4.325
 8773TIP3    H226263   5.771   7.219   4.381
 8774TIP3   OH226264   3.624   5.325   5.034
 8774TIP3    H126265   3.625   5.268   4.957
 8774TIP3    H226266   3.713   5.360   5.040
 8775TIP3   OH226267   4.174   2.296   0.508
 8775TIP3    H126268   4.117   2.315   0.434
 8775TIP3    H226269   4.262   2.317   0.477
 8776TIP3   OH226270   0.696   0.204   2.599
 8776TIP3    H126271   0.642   0.252   2.663
 8776TIP3    H226272   0.634   0.179   2.531
 8777TIP3   OH226273   0.565   3.827   6.610
 8777TIP3    H126274   0.483   3.780   6.594
 8777TIP3    H226275   0.617   3.767   6.664
 8778TIP3   OH226276   2.592   6.967   0.336
 8778TIP3    H126277   2.675   7.013   0.350
 8778TIP3    H226278   2.529   7.015   0.390
 8779TIP3   OH226279   4.236   7.260   2.168
 8779TIP3    H126280   4.323   7.233   2.198
 8779TIP3    H226281   4.178   7.240   2.242
 8780TIP3   OH226282   4.544   6.972   0.733
 8780TIP3    H126283   4.558   7.020   0.814
 8780TIP3    H226284   4.616   6.999   0.676
 8781TIP3   OH226285   2.666   2.175   2.419
 8781TIP3    H126286   2.582   2.130   2.431
 8781TIP3    H226287   2.652   2.234   2.345
 8782TIP3   OH226288   3.132   7.317   5.969
 8782TIP3    H126289   3.150   7.409   5.954
 8782TIP3    H226290   3.075   7.291   5.897
 8783TIP3   OH226291   5.347   6.442   2.599
 8783TIP3    H126292   5.277   6.417   2.660
 8783TIP3    H226293   5.371   6.360   2.556
 8784TIP3   OH226294   6.281   4.662   5.102
 8784TIP3    H126295   6.336   4.735   5.071
 8784TIP3    H226296   6.193   4.699   5.105
 8785TIP3   OH226297   1.406   0.169   0.189
 8785TIP3    H126298   1.380   0.166   0.281
 8785TIP3    H226299   1.323   0.178   0.141
 8786TIP3   OH226300   0.387   2.540   5.385
 8786TIP3    H126301   0.441   2.474   5.342
 8786TIP3    H226302   0.388   2.614   5.325
 8787TIP3   OH226303   5.337   3.796   0.302
 8787TIP3    H126304   5.253   3.840   0.306
 8787TIP3    H226305   5.399   3.857   0.342
 8788TIP3   OH226306   7.008   0.107   1.902
 8788TIP3    H126307   7.016   0.127   1.995
 8788TIP3    H226308   7.086   0.145   1.862
 8789TIP3   OH226309   5.532   7.256   3.640
 8789TIP3    H126310   5.572   7.192   3.699
 8789TIP3    H226311   5.604   7.310   3.610
 8790TIP3   OH226312   4.244   1.752   3.810
 8790TIP3    H126313   4.150   1.738   3.796
 8790TIP3    H226314   4.281   1.754   3.722
 8791TIP3   OH226315   3.552   7.699   3.515
 8791TIP3    H126316   3.585   7.609   3.519
 8791TIP3    H226317   3.459   7.692   3.533
 8792TIP3   OH226318   7.978   6.659   3.938
 8792TIP3    H126319   7.991   6.754   3.936
 8792TIP3    H226320   7.886   6.648   3.912
 8793TIP3   OH226321   7.403   5.706   1.632
 8793TIP3    H126322   7.355   5.786   1.656
 8793TIP3    H226323   7.399   5.652   1.711
 8794TIP3   OH226324   8.075   3.883   5.118
 8794TIP3    H126325   8.166   3.856   5.131
 8794TIP3    H226326   8.025   3.802   5.127
 8795TIP3   OH226327   3.595   1.759   6.488
 8795TIP3    H126328   3.531   1.688   6.484
 8795TIP3    H226329   3.543   1.838   6.496
 8796TIP3   OH226330   0.355   0.487   0.457
 8796TIP3    H126331   0.280   0.531   0.417
 8796TIP3    H226332   0.324   0.398   0.475
 8797TIP3   OH226333   4.537   6.807   4.774
 8797TIP3    H126334   4.515   6.832   4.684
 8797TIP3    H226335   4.491   6.870   4.829
 8798TIP3   OH226336   5.577   7.513   3.199
 8798TIP3    H126337   5.496   7.514   3.148
 8798TIP3    H226338   5.644   7.486   3.135
 8799TIP3   OH226339   0.897   5.383   2.065
 8799TIP3    H126340   0.890   5.316   2.133
 8799TIP3    H226341   0.950   5.341   1.997
 8800TIP3   OH226342   4.707   3.111   3.422
 8800TIP3    H126343   4.673   3.047   3.359
 8800TIP3    H226344   4.766   3.166   3.371
 8801TIP3   OH226345   1.098   3.539   3.165
 8801TIP3    H126346   1.148   3.599   3.221
 8801TIP3    H226347   1.147   3.457   3.168
 8802TIP3   OH226348   4.177   7.754   1.705
 8802TIP3    H126349   4.251   7.776   1.649
 8802TIP3    H226350   4.192   7.803   1.785
 8803TIP3   OH226351   0.900   0.467   5.644
 8803TIP3    H126352   0.969   0.403   5.626
 8803TIP3    H226353   0.941   0.552   5.626
 8804TIP3   OH226354   5.802   2.906   6.692
 8804TIP3    H126355   5.797   2.812   6.677
 8804TIP3    H226356   5.735   2.924   6.758
 8805TIP3   OH226357   2.174   7.726   0.310
 8805TIP3    H126358   2.113   7.717   0.238
 8805TIP3    H226359   2.151   7.810   0.351
 8806TIP3   OH226360   6.358   1.248   2.357
 8806TIP3    H126361   6.268   1.218   2.345
 8806TIP3    H226362   6.351   1.341   2.376
 8807TIP3   OH226363   7.318   0.335   4.371
 8807TIP3    H126364   7.364   0.414   4.401
 8807TIP3    H226365   7.379   0.263   4.390
 8808TIP3   OH226366   1.431   5.612   5.888
 8808TIP3    H126367   1.404   5.697   5.925
 8808TIP3    H226368   1.399   5.614   5.798
 8809TIP3   OH226369   5.586   6.415   0.923
 8809TIP3    H126370   5.611   6.351   0.856
 8809TIP3    H226371   5.669   6.443   0.962
 8810TIP3   OH226372   6.958   5.305   4.493
 8810TIP3    H126373   7.021   5.233   4.492
 8810TIP3    H226374   6.956   5.333   4.585
 8811TIP3   OH226375   5.454   0.379   6.198
 8811TIP3    H126376   5.359   0.373   6.190
 8811TIP3    H226377   5.480   0.435   6.124
 8812TIP3   OH226378   8.204   5.194   5.456
 8812TIP3    H126379   8.278   5.248   5.485
 8812TIP3    H226380   8.182   5.142   5.533
 8813TIP3   OH226381   0.030   0.653   6.183
 8813TIP3    H126382   0.078   0.734   6.197
 8813TIP3    H226383  -0.039   0.675   6.122
 8814TIP3   OH226384   6.054   3.666   4.984
 8814TIP3    H126385   6.002   3.602   4.935
 8814TIP3    H226386   6.137   3.623   5.000
 8815TIP3   OH226387   5.536   2.019   5.138
 8815TIP3    H126388   5.488   2.099   5.157
 8815TIP3    H226389   5.488   1.951   5.186
 8816TIP3   OH226390   7.292   5.028   6.348
 8816TIP3    H126391   7.307   4.969   6.423
 8816TIP3    H226392   7.233   4.978   6.290
 8817TIP3   OH226393   1.609   6.101   4.381
 8817TIP3    H126394   1.636   6.158   4.309
 8817TIP3    H226395   1.590   6.162   4.453
 8818TIP3   OH226396   4.468   4.058   0.021
 8818TIP3    H126397   4.492   4.146   0.049
 8818TIP3    H226398   4.441   4.068  -0.071
 8819TIP3   OH226399   5.814   1.982   6.512
 8819TIP3    H126400   5.777   2.057   6.465
 8819TIP3    H226401   5.741   1.946   6.562
 8820TIP3   OH226402   2.453   7.744   0.249
 8820TIP3    H126403   2.448   7.836   0.272
 8820TIP3    H226404   2.374   7.704   0.287
 8821TIP3   OH226405   5.777   5.612   6.062
 8821TIP3    H126406   5.816   5.525   6.077
 8821TIP3    H226407   5.717   5.598   5.989
 8822TIP3   OH226408   4.686   1.984   3.308
 8822TIP3    H126409   4.619   1.968   3.241
 8822TIP3    H226410   4.638   1.991   3.390
 8823TIP3   OH226411   6.248   3.098   2.225
 8823TIP3    H126412   6.229   3.090   2.319
 8823TIP3    H226413   6.335   3.059   2.215
 8824TIP3   OH226414  -0.004   0.449   0.574
 8824TIP3    H126415  -0.059   0.468   0.499
 8824TIP3    H226416   0.041   0.531   0.594
 8825TIP3   OH226417   1.139   6.253   4.711
 8825TIP3    H126418   1.048   6.250   4.683
 8825TIP3    H226419   1.135   6.253   4.807
 8826TIP3   OH226420   4.119   3.857   4.685
 8826TIP3    H126421   4.102   3.783   4.627
 8826TIP3    H226422   4.032   3.889   4.709
 8827TIP3   OH226423   7.741   3.291   5.043
 8827TIP3    H126424   7.708   3.201   5.036
 8827TIP3    H226425   7.821   3.290   4.991
 8828TIP3   OH226426   1.503   6.598   1.881
 8828TIP3    H126427   1.464   6.567   1.799
 8828TIP3    H226428   1.571   6.659   1.853
 8829TIP3   OH226429   5.813   6.060   0.719
 8829TIP3    H126430   5.791   6.140   0.767
 8829TIP3    H226431   5.812   5.991   0.786
 8830TIP3   OH226432   0.327   7.821   6.087
 8830TIP3    H126433   0.416   7.813   6.121
 8830TIP3    H226434   0.309   7.915   6.088
 8831TIP3   OH226435   7.204   0.699   5.896
 8831TIP3    H126436   7.288   0.736   5.921
 8831TIP3    H226437   7.158   0.684   5.978
 8832TIP3   OH226438   7.050   4.484   5.828
 8832TIP3    H126439   6.973   4.438   5.860
 8832TIP3    H226440   7.033   4.576   5.847
 8833TIP3   OH226441   5.778   4.801   6.547
 8833TIP3    H126442   5.819   4.859   6.612
 8833TIP3    H226443   5.753   4.723   6.597
 8834TIP3   OH226444   8.105   3.305   4.044
 8834TIP3    H126445   8.098   3.239   3.975
 8834TIP3    H226446   8.192   3.343   4.031
 8835TIP3   OH226447   8.164   0.825   3.219
 8835TIP3    H126448   8.094   0.888   3.238
 8835TIP3    H226449   8.118   0.743   3.200
 8836TIP3   OH226450   3.820   5.857   4.396
 8836TIP3    H126451   3.732   5.895   4.391
 8836TIP3    H226452   3.812   5.772   4.353
 8837TIP3   OH226453   3.194   2.966   1.203
 8837TIP3    H126454   3.178   2.871   1.202
 8837TIP3    H226455   3.107   3.005   1.197
 8838TIP3   OH226456   8.039   4.468   4.990
 8838TIP3    H126457   8.083   4.407   5.049
 8838TIP3    H226458   7.945   4.452   5.005
 8839TIP3   OH226459   5.486   5.837   2.604
 8839TIP3    H126460   5.500   5.748   2.639
 8839TIP3    H226461   5.440   5.823   2.522
 8840TIP3   OH226462   3.543   2.452   0.657
 8840TIP3    H126463   3.521   2.359   0.653
 8840TIP3    H226464   3.623   2.456   0.710
 8841TIP3   OH226465   5.602   0.771   2.349
 8841TIP3    H126466   5.641   0.855   2.372
 8841TIP3    H226467   5.566   0.738   2.432
 8842TIP3   OH226468   7.047   1.016   2.137
 8842TIP3    H126469   7.032   0.924   2.155
 8842TIP3    H226470   6.979   1.062   2.188
 8843TIP3   OH226471   4.340   3.806   0.096
 8843TIP3    H126472   4.373   3.892   0.069
 8843TIP3    H226473   4.331   3.758   0.014
 8844TIP3   OH226474   5.793   0.597   6.066
 8844TIP3    H126475   5.865   0.635   6.117
 8844TIP3    H226476   5.809   0.503   6.070
 8845TIP3   OH226477   4.036   2.246   6.455
 8845TIP3    H126478   3.950   2.209   6.438
 8845TIP3    H226479   4.091   2.214   6.384
 8846TIP3   OH226480   3.029   3.775   6.211
 8846TIP3    H126481   2.934   3.780   6.212
 8846TIP3    H226482   3.058   3.865   6.226
 8847TIP3   OH226483   1.302   4.665   5.820
 8847TIP3    H126484   1.236   4.695   5.883
 8847TIP3    H226485   1.334   4.745   5.779
 8848TIP3   OH226486   7.179   3.406   0.400
 8848TIP3    H126487   7.167   3.461   0.478
 8848TIP3    H226488   7.244   3.453   0.347
 8849TIP3   OH226489   0.166   0.765   0.028
 8849TIP3    H126490   0.197   0.855   0.017
 8849TIP3    H226491   0.071   0.773   0.029
 8850TIP3   OH226492   1.330   0.298   5.351
 8850TIP3    H126493   1.245   0.308   5.309
 8850TIP3    H226494   1.377   0.379   5.332
 8851TIP3   OH226495   1.110   4.353   5.398
 8851TIP3    H126496   1.045   4.404   5.350
 8851TIP3    H226497   1.137   4.410   5.470
 8852TIP3   OH226498   1.806   5.475   1.526
 8852TIP3    H126499   1.859   5.481   1.605
 8852TIP3    H226500   1.829   5.391   1.488
 8853TIP3   OH226501   7.953   4.318   1.243
 8853TIP3    H126502   7.944   4.234   1.288
 8853TIP3    H226503   7.955   4.295   1.150
 8854TIP3   OH226504   4.060   2.334   3.586
 8854TIP3    H126505   4.144   2.307   3.549
 8854TIP3    H226506   4.007   2.358   3.510
 8855TIP3   OH226507   3.300   6.987   1.437
 8855TIP3    H126508   3.366   6.961   1.501
 8855TIP3    H226509   3.276   7.076   1.461
 8856TIP3   OH226510   2.451   5.706   1.853
 8856TIP3    H126511   2.467   5.613   1.868
 8856TIP3    H226512   2.536   5.748   1.871
 8857TIP3   OH226513   1.110   7.294   1.112
 8857TIP3    H126514   1.170   7.367   1.094
 8857TIP3    H226515   1.156   7.241   1.178
 8858TIP3   OH226516   3.831   2.970   0.819
 8858TIP3    H126517   3.816   2.876   0.831
 8858TIP3    H226518   3.925   2.978   0.802
 8859TIP3   OH226519   1.652   5.786   6.468
 8859TIP3    H126520   1.747   5.782   6.463
 8859TIP3    H226521   1.622   5.760   6.381
 8860TIP3   OH226522   0.967   1.930   1.569
 8860TIP3    H126523   0.987   1.839   1.550
 8860TIP3    H226524   1.026   1.953   1.641
 8861TIP3   OH226525   3.502   4.034   3.246
 8861TIP3    H126526   3.576   4.088   3.274
 8861TIP3    H226527   3.482   4.064   3.158
 8862TIP3   OH226528   4.111   4.917   2.157
 8862TIP3    H126529   4.131   4.826   2.180
 8862TIP3    H226530   4.166   4.936   2.081
 8863TIP3   OH226531   1.562   5.963   2.742
 8863TIP3    H126532   1.605   5.899   2.798
 8863TIP3    H226533   1.521   6.024   2.804
 8864TIP3   OH226534   4.479   3.422   0.211
 8864TIP3    H126535   4.503   3.439   0.302
 8864TIP3    H226536   4.389   3.451   0.204
 8865TIP3   OH226537   4.518   1.649   3.374
 8865TIP3    H126538   4.571   1.570   3.359
 8865TIP3    H226539   4.564   1.718   3.326
 8866TIP3   OH226540   6.504   4.760   5.336
 8866TIP3    H126541   6.523   4.851   5.314
 8866TIP3    H226542   6.412   4.759   5.360
 8867TIP3   OH226543   2.370   1.391   3.206
 8867TIP3    H126544   2.314   1.434   3.141
 8867TIP3    H226545   2.408   1.317   3.159
 8868TIP3   OH226546   7.099   3.590   1.435
 8868TIP3    H126547   7.017   3.640   1.435
 8868TIP3    H226548   7.140   3.611   1.352
 8869TIP3   OH226549   4.135   3.120   2.234
 8869TIP3    H126550   4.103   3.039   2.195
 8869TIP3    H226551   4.227   3.125   2.207
 8870TIP3   OH226552   3.022   1.057   5.460
 8870TIP3    H126553   2.974   1.108   5.395
 8870TIP3    H226554   2.959   1.043   5.531
 8871TIP3   OH226555   5.046   0.443   5.385
 8871TIP3    H126556   5.043   0.524   5.334
 8871TIP3    H226557   5.093   0.466   5.465
 8872TIP3   OH226558   6.836   3.071   2.210
 8872TIP3    H126559   6.769   3.132   2.177
 8872TIP3    H226560   6.792   2.987   2.215
 8873TIP3   OH226561   4.914   3.899   1.968
 8873TIP3    H126562   4.881   3.987   1.985
 8873TIP3    H226563   4.916   3.857   2.054
 8874TIP3   OH226564   6.469   6.411   0.164
 8874TIP3    H126565   6.411   6.467   0.215
 8874TIP3    H226566   6.503   6.348   0.227
 8875TIP3   OH226567   0.981   5.761   1.684
 8875TIP3    H126568   1.002   5.849   1.717
 8875TIP3    H226569   1.055   5.707   1.712
 8876TIP3   OH226570   4.403   6.549   0.603
 8876TIP3    H126571   4.380   6.538   0.695
 8876TIP3    H226572   4.494   6.519   0.598
 8877TIP3   OH226573   1.705   1.722   5.883
 8877TIP3    H126574   1.698   1.639   5.930
 8877TIP3    H226575   1.793   1.754   5.903
 8878TIP3   OH226576   6.496   3.054   2.143
 8878TIP3    H126577   6.515   3.144   2.118
 8878TIP3    H226578   6.490   3.006   2.061
 8879TIP3   OH226579   3.754   7.524   4.107
 8879TIP3    H126580   3.679   7.487   4.153
 8879TIP3    H226581   3.734   7.513   4.015
 8880TIP3   OH226582   3.088   3.496   6.424
 8880TIP3    H126583   3.019   3.446   6.380
 8880TIP3    H226584   3.088   3.581   6.380
 8881TIP3   OH226585   5.849   6.829   3.289
 8881TIP3    H126586   5.802   6.746   3.284
 8881TIP3    H226587   5.930   6.813   3.240
 8882TIP3   OH226588   5.255   1.581   3.659
 8882TIP3    H126589   5.295   1.603   3.743
 8882TIP3    H226590   5.286   1.648   3.599
 8883TIP3   OH226591   6.620   4.823   1.634
 8883TIP3    H126592   6.656   4.748   1.681
 8883TIP3    H226593   6.641   4.898   1.689
 8884TIP3   OH226594   6.820   1.963   5.141
 8884TIP3    H126595   6.743   2.019   5.136
 8884TIP3    H226596   6.839   1.939   5.050
 8885TIP3   OH226597   0.123   6.237   2.641
 8885TIP3    H126598   0.194   6.175   2.631
 8885TIP3    H226599   0.117   6.252   2.736
 8886TIP3   OH226600   2.710   6.340   1.675
 8886TIP3    H126601   2.765   6.406   1.718
 8886TIP3    H226602   2.731   6.258   1.720
 8887TIP3   OH226603   8.153   6.767   4.133
 8887TIP3    H126604   8.124   6.846   4.180
 8887TIP3    H226605   8.072   6.721   4.111
 8888TIP3   OH226606   2.799   6.264   4.545
 8888TIP3    H126607   2.860   6.260   4.619
 8888TIP3    H226608   2.852   6.294   4.472
 8889TIP3   OH226609   6.090   6.095   6.024
 8889TIP3    H126610   6.155   6.053   6.081
 8889TIP3    H226611   6.122   6.078   5.935
 8890TIP3   OH226612   8.089   4.900   2.590
 8890TIP3    H126613   8.088   4.932   2.681
 8890TIP3    H226614   8.112   4.977   2.538
 8891TIP3   OH226615   4.177   2.796   4.332
 8891TIP3    H126616   4.097   2.747   4.354
 8891TIP3    H226617   4.246   2.729   4.331
 8892TIP3   OH226618   7.031   0.682   3.450
 8892TIP3    H126619   7.015   0.721   3.536
 8892TIP3    H226620   7.082   0.603   3.470
 8893TIP3   OH226621   5.567   6.202   4.326
 8893TIP3    H126622   5.616   6.123   4.347
 8893TIP3    H226623   5.491   6.199   4.384
 8894TIP3   OH226624   7.233   1.168   4.458
 8894TIP3    H126625   7.267   1.254   4.433
 8894TIP3    H226626   7.245   1.163   4.552
 8895TIP3   OH226627   8.143   5.510   5.511
 8895TIP3    H126628   8.113   5.438   5.566
 8895TIP3    H226629   8.237   5.495   5.501
 8896TIP3   OH226630   0.317   0.380   2.875
 8896TIP3    H126631   0.361   0.321   2.814
 8896TIP3    H226632   0.290   0.324   2.947
 8897TIP3   OH226633   2.213   6.961   1.478
 8897TIP3    H126634   2.239   6.872   1.501
 8897TIP3    H226635   2.292   7.001   1.443
 8898TIP3   OH226636   0.115   5.558   1.631
 8898TIP3    H126637   0.130   5.513   1.714
 8898TIP3    H226638   0.196   5.606   1.614
 8899TIP3   OH226639   4.382   3.216   4.357
 8899TIP3    H126640   4.474   3.194   4.367
 8899TIP3    H226641   4.337   3.131   4.354
 8900TIP3   OH226642   2.852   0.314   0.387
 8900TIP3    H126643   2.944   0.296   0.367
 8900TIP3    H226644   2.836   0.267   0.469
 8901TIP3   OH226645   0.818   7.250   2.927
 8901TIP3    H126646   0.880   7.201   2.981
 8901TIP3    H226647   0.846   7.341   2.935
 8902TIP3   OH226648   3.022   1.469   2.482
 8902TIP3    H126649   3.085   1.430   2.543
 8902TIP3    H226650   2.938   1.459   2.526
 8903TIP3   OH226651   1.413   0.947   2.988
 8903TIP3    H126652   1.409   0.941   3.083
 8903TIP3    H226653   1.460   1.028   2.970
 8904TIP3   OH226654   2.344   3.518   3.625
 8904TIP3    H126655   2.366   3.440   3.676
 8904TIP3    H226656   2.341   3.487   3.535
 8905TIP3   OH226657   4.239   7.559   0.200
 8905TIP3    H126658   4.314   7.574   0.258
 8905TIP3    H226659   4.210   7.646   0.175
 8906TIP3   OH226660   6.509   7.459   4.475
 8906TIP3    H126661   6.470   7.516   4.409
 8906TIP3    H226662   6.575   7.408   4.428
 8907TIP3   OH226663   3.013   2.920   4.953
 8907TIP3    H126664   2.967   2.838   4.932
 8907TIP3    H226665   2.964   2.956   5.026
 8908TIP3   OH226666   4.914   1.240   0.723
 8908TIP3    H126667   4.965   1.301   0.669
 8908TIP3    H226668   4.840   1.293   0.753
 8909TIP3   OH226669   6.488   0.476   3.308
 8909TIP3    H126670   6.474   0.404   3.247
 8909TIP3    H226671   6.429   0.545   3.277
 8910TIP3   OH226672   0.988   7.684   4.203
 8910TIP3    H126673   0.909   7.734   4.184
 8910TIP3    H226674   1.054   7.720   4.143
 8911TIP3   OH226675   5.250   3.879   5.766
 8911TIP3    H126676   5.190   3.943   5.727
 8911TIP3    H226677   5.314   3.931   5.814
 8912TIP3   OH226678   1.909   2.570   5.873
 8912TIP3    H126679   1.856   2.649   5.860
 8912TIP3    H226680   1.871   2.529   5.951
 8913TIP3   OH226681   2.511   7.115   2.282
 8913TIP3    H126682   2.480   7.044   2.225
 8913TIP3    H226683   2.440   7.126   2.346
 8914TIP3   OH226684   0.889   4.886   2.929
 8914TIP3    H126685   0.890   4.982   2.923
 8914TIP3    H226686   0.822   4.867   2.995
 8915TIP3   OH226687   2.473   5.668   4.916
 8915TIP3    H126688   2.465   5.665   4.821
 8915TIP3    H226689   2.453   5.579   4.945
 8916TIP3   OH226690   6.538   6.025   0.855
 8916TIP3    H126691   6.580   6.012   0.940
 8916TIP3    H226692   6.482   5.948   0.844
 8917TIP3   OH226693   6.977   5.745   6.572
 8917TIP3    H126694   7.046   5.680   6.558
 8917TIP3    H226695   6.896   5.698   6.552
 8918TIP3   OH226696   7.001   4.682   5.453
 8918TIP3    H126697   6.936   4.686   5.524
 8918TIP3    H226698   6.957   4.634   5.383
 8919TIP3   OH226699   8.012   5.964   1.705
 8919TIP3    H126700   7.951   5.940   1.635
 8919TIP3    H226701   7.997   5.900   1.774
 8920TIP3   OH226702   1.452   2.530   3.781
 8920TIP3    H126703   1.447   2.493   3.693
 8920TIP3    H226704   1.510   2.470   3.828
 8921TIP3   OH226705   5.947   3.754   5.573
 8921TIP3    H126706   5.922   3.796   5.491
 8921TIP3    H226707   5.956   3.661   5.551
 8922TIP3   OH226708   3.018   7.337   4.396
 8922TIP3    H126709   2.937   7.286   4.395
 8922TIP3    H226710   3.022   7.373   4.484
 8923TIP3   OH226711   0.335   6.519   2.840
 8923TIP3    H126712   0.429   6.518   2.819
 8923TIP3    H226713   0.318   6.607   2.871
 8924TIP3   OH226714   2.571   7.358   2.869
 8924TIP3    H126715   2.513   7.353   2.792
 8924TIP3    H226716   2.600   7.449   2.871
 8925TIP3   OH226717   0.088   1.693   1.548
 8925TIP3    H126718   0.009   1.731   1.586
 8925TIP3    H226719   0.118   1.631   1.615
 8926TIP3   OH226720   6.257   2.832   5.750
 8926TIP3    H126721   6.337   2.865   5.710
 8926TIP3    H226722   6.187   2.888   5.715
 8927TIP3   OH226723   5.071   4.100   0.257
 8927TIP3    H126724   5.041   4.095   0.348
 8927TIP3    H226725   5.164   4.120   0.264
 8928TIP3   OH226726   2.772   4.494   1.875
 8928TIP3    H126727   2.843   4.543   1.834
 8928TIP3    H226728   2.773   4.522   1.967
 8929TIP3   OH226729   6.805   3.075   4.403
 8929TIP3    H126730   6.768   2.995   4.441
 8929TIP3    H226731   6.811   3.136   4.476
 8930TIP3   OH226732   1.752   4.778   1.296
 8930TIP3    H126733   1.719   4.691   1.275
 8930TIP3    H226734   1.765   4.821   1.211
 8931TIP3   OH226735   4.676   3.440   4.410
 8931TIP3    H126736   4.758   3.469   4.370
 8931TIP3    H226737   4.651   3.362   4.360
 8932TIP3   OH226738   4.167   2.352   0.816
 8932TIP3    H126739   4.247   2.326   0.770
 8932TIP3    H226740   4.196   2.420   0.877
 8933TIP3   OH226741   6.345   4.518   5.354
 8933TIP3    H126742   6.431   4.559   5.366
 8933TIP3    H226743   6.315   4.551   5.269
 8934TIP3   OH226744   6.511   4.113   0.942
 8934TIP3    H126745   6.505   4.182   1.009
 8934TIP3    H226746   6.436   4.056   0.959
 8935TIP3   OH226747   6.978   3.919   1.593
 8935TIP3    H126748   6.981   3.860   1.668
 8935TIP3    H226749   7.056   3.974   1.603
 8936TIP3   OH226750   0.907   2.861   0.691
 8936TIP3    H126751   0.988   2.855   0.641
 8936TIP3    H226752   0.846   2.802   0.646
 8937TIP3   OH226753   8.291   6.158   5.124
 8937TIP3    H126754   8.313   6.065   5.124
 8937TIP3    H226755   8.262   6.176   5.213
 8938TIP3   OH226756   6.973   0.437   1.284
 8938TIP3    H126757   7.059   0.406   1.315
 8938TIP3    H226758   6.953   0.511   1.341
 8939TIP3   OH226759   5.324   2.729   0.596
 8939TIP3    H126760   5.412   2.735   0.560
 8939TIP3    H226761   5.323   2.644   0.642
 8940TIP3   OH226762   1.405   2.936   5.641
 8940TIP3    H126763   1.341   2.994   5.599
 8940TIP3    H226764   1.472   2.922   5.575
 8941TIP3   OH226765   2.607   1.499   5.237
 8941TIP3    H126766   2.654   1.531   5.160
 8941TIP3    H226767   2.515   1.515   5.217
 8942TIP3   OH226768   3.020   1.886   2.260
 8942TIP3    H126769   2.941   1.833   2.276
 8942TIP3    H226770   3.092   1.828   2.281
 8943TIP3   OH226771   2.596   6.474   5.152
 8943TIP3    H126772   2.586   6.540   5.221
 8943TIP3    H226773   2.687   6.446   5.160
 8944TIP3   OH226774   3.879   4.431   1.179
 8944TIP3    H126775   3.813   4.469   1.237
 8944TIP3    H226776   3.835   4.355   1.140
 8945TIP3   OH226777   4.060   1.843   5.763
 8945TIP3    H126778   4.044   1.898   5.840
 8945TIP3    H226779   4.142   1.876   5.726
 8946TIP3   OH226780   0.623   4.936   0.242
 8946TIP3    H126781   0.583   4.874   0.181
 8946TIP3    H226782   0.625   5.019   0.195
 8947TIP3   OH226783   5.603   5.164   1.543
 8947TIP3    H126784   5.625   5.187   1.453
 8947TIP3    H226785   5.535   5.098   1.535
 8948TIP3   OH226786   1.490   3.684   4.000
 8948TIP3    H126787   1.490   3.591   3.976
 8948TIP3    H226788   1.402   3.715   3.976
 8949TIP3   OH226789   5.242   1.027   1.440
 8949TIP3    H126790   5.205   1.015   1.527
 8949TIP3    H226791   5.209   0.952   1.390
 8950TIP3   OH226792   6.537   0.114   2.939
 8950TIP3    H126793   6.489   0.191   2.969
 8950TIP3    H226794   6.507   0.043   2.995
 8951TIP3   OH226795   6.861   0.652   3.902
 8951TIP3    H126796   6.912   0.697   3.834
 8951TIP3    H226797   6.823   0.577   3.856
 8952TIP3   OH226798   5.838   2.733   1.987
 8952TIP3    H126799   5.834   2.773   2.073
 8952TIP3    H226800   5.747   2.722   1.960
 8953TIP3   OH226801   7.812   2.219   3.970
 8953TIP3    H126802   7.783   2.168   3.895
 8953TIP3    H226803   7.836   2.152   4.035
 8954TIP3   OH226804   1.862   5.016   3.955
 8954TIP3    H126805   1.797   5.026   3.885
 8954TIP3    H226806   1.930   4.961   3.918
 8955TIP3   OH226807   7.812   4.789   2.520
 8955TIP3    H126808   7.837   4.853   2.454
 8955TIP3    H226809   7.813   4.838   2.603
 8956TIP3   OH226810   0.004   7.551   2.365
 8956TIP3    H126811   0.003   7.639   2.326
 8956TIP3    H226812   0.068   7.503   2.313
 8957TIP3   OH226813   0.522   7.113   6.597
 8957TIP3    H126814   0.428   7.091   6.601
 8957TIP3    H226815   0.560   7.067   6.672
 8958TIP3   OH226816   0.030   7.722   1.532
 8958TIP3    H126817   0.114   7.701   1.574
 8958TIP3    H226818   0.016   7.815   1.551
 8959TIP3   OH226819   6.283   4.924   0.240
 8959TIP3    H126820   6.190   4.915   0.261
 8959TIP3    H226821   6.314   4.834   0.230
 8960TIP3   OH226822   3.503   1.974   1.611
 8960TIP3    H126823   3.436   2.006   1.551
 8960TIP3    H226824   3.564   2.047   1.620
 8961TIP3   OH226825   5.034   4.397   2.146
 8961TIP3    H126826   5.011   4.398   2.238
 8961TIP3    H226827   4.962   4.442   2.102
 8962TIP3   OH226828   4.534   2.417   0.985
 8962TIP3    H126829   4.596   2.470   0.936
 8962TIP3    H226830   4.499   2.476   1.052
 8963TIP3   OH226831   1.638   6.166   0.145
 8963TIP3    H126832   1.715   6.161   0.088
 8963TIP3    H226833   1.672   6.144   0.232
 8964TIP3   OH226834   2.640   4.766   2.364
 8964TIP3    H126835   2.641   4.765   2.460
 8964TIP3    H226836   2.578   4.696   2.340
 8965TIP3   OH226837   5.491   0.225   1.656
 8965TIP3    H126838   5.552   0.154   1.634
 8965TIP3    H226839   5.547   0.302   1.665
 8966TIP3   OH226840   1.225   4.870   3.693
 8966TIP3    H126841   1.158   4.803   3.676
 8966TIP3    H226842   1.185   4.952   3.663
 8967TIP3   OH226843   5.344   1.746   5.632
 8967TIP3    H126844   5.326   1.710   5.546
 8967TIP3    H226845   5.431   1.786   5.624
 8968TIP3   OH226846   6.445   7.273   3.657
 8968TIP3    H126847   6.518   7.212   3.660
 8968TIP3    H226848   6.397   7.257   3.738
 8969TIP3   OH226849   7.355   1.403   5.809
 8969TIP3    H126850   7.382   1.454   5.732
 8969TIP3    H226851   7.352   1.468   5.880
 8970TIP3   OH226852   6.505   4.725   4.764
 8970TIP3    H126853   6.417   4.689   4.776
 8970TIP3    H226854   6.552   4.703   4.844
 8971TIP3   OH226855   8.245   7.043   3.060
 8971TIP3    H126856   8.337   7.071   3.065
 8971TIP3    H226857   8.195   7.124   3.062
 8972TIP3   OH226858   6.089   5.623   4.721
 8972TIP3    H126859   6.146   5.595   4.793
 8972TIP3    H226860   6.046   5.702   4.753
 8973TIP3   OH226861   6.006   2.298   6.333
 8973TIP3    H126862   6.031   2.288   6.241
 8973TIP3    H226863   5.917   2.264   6.338
 8974TIP3   OH226864   4.890   4.725   3.593
 8974TIP3    H126865   4.935   4.677   3.524
 8974TIP3    H226866   4.845   4.657   3.644
 8975TIP3   OH226867   1.184   1.511   2.964
 8975TIP3    H126868   1.230   1.572   2.906
 8975TIP3    H226869   1.243   1.436   2.972
 8976TIP3   OH226870   3.175   2.576   0.921
 8976TIP3    H126871   3.193   2.503   0.980
 8976TIP3    H226872   3.123   2.637   0.973
 8977TIP3   OH226873   7.495   5.629   4.072
 8977TIP3    H126874   7.483   5.664   4.160
 8977TIP3    H226875   7.561   5.560   4.083
 8978TIP3   OH226876   2.980   1.427   2.217
 8978TIP3    H126877   2.888   1.440   2.243
 8978TIP3    H226878   3.029   1.435   2.299
 8979TIP3   OH226879   3.097   7.153   2.008
 8979TIP3    H126880   3.162   7.160   2.078
 8979TIP3    H226881   3.116   7.070   1.965
 8980TIP3   OH226882   1.308   2.553   0.674
 8980TIP3    H126883   1.244   2.486   0.698
 8980TIP3    H226884   1.381   2.504   0.636
 8981TIP3   OH226885   5.988   1.502   0.994
 8981TIP3    H126886   5.922   1.497   1.063
 8981TIP3    H226887   6.045   1.426   1.010
 8982TIP3   OH226888   0.054   6.102   0.094
 8982TIP3    H126889   0.001   6.038   0.141
 8982TIP3    H226890   0.144   6.084   0.122
 8983TIP3   OH226891   7.702   0.970   3.345
 8983TIP3    H126892   7.685   0.910   3.272
 8983TIP3    H226893   7.724   1.053   3.304
 8984TIP3   OH226894   0.759   3.625   0.624
 8984TIP3    H126895   0.801   3.704   0.657
 8984TIP3    H226896   0.771   3.560   0.693
 8985TIP3   OH226897   7.943   0.170   0.610
 8985TIP3    H126898   8.005   0.153   0.538
 8985TIP3    H226899   7.929   0.084   0.650
 8986TIP3   OH226900   4.102   1.799   0.678
 8986TIP3    H126901   4.120   1.892   0.689
 8986TIP3    H226902   4.164   1.770   0.611
 8987TIP3   OH226903   7.234   4.506   6.787
 8987TIP3    H126904   7.276   4.454   6.718
 8987TIP3    H226905   7.291   4.494   6.863
 8988TIP3   OH226906   7.212   4.282   3.873
 8988TIP3    H126907   7.266   4.203   3.876
 8988TIP3    H226908   7.138   4.259   3.817
 8989TIP3   OH226909   2.908   2.534   6.487
 8989TIP3    H126910   2.837   2.558   6.428
 8989TIP3    H226911   2.915   2.607   6.548
 8990TIP3   OH226912   5.297   1.206   5.080
 8990TIP3    H126913   5.389   1.186   5.097
 8990TIP3    H226914   5.261   1.125   5.044
 8991TIP3   OH226915   5.412   4.839   0.353
 8991TIP3    H126916   5.349   4.805   0.416
 8991TIP3    H226917   5.409   4.777   0.280
 8992TIP3   OH226918   0.612   3.996   1.788
 8992TIP3    H126919   0.682   3.931   1.774
 8992TIP3    H226920   0.532   3.950   1.765
 8993TIP3   OH226921   2.257   0.097   4.267
 8993TIP3    H126922   2.311   0.037   4.216
 8993TIP3    H226923   2.303   0.106   4.351
 8994TIP3   OH226924   7.802   7.396   0.087
 8994TIP3    H126925   7.788   7.330   0.019
 8994TIP3    H226926   7.751   7.472   0.059
 8995TIP3   OH226927   1.602   1.061   2.373
 8995TIP3    H126928   1.640   1.113   2.302
 8995TIP3    H226929   1.508   1.065   2.358
 8996TIP3   OH226930   3.540   4.639   5.915
 8996TIP3    H126931   3.621   4.594   5.940
 8996TIP3    H226932   3.470   4.585   5.951
 8997TIP3   OH226933   2.744   4.987   5.674
 8997TIP3    H126934   2.734   5.082   5.661
 8997TIP3    H226935   2.838   4.973   5.676
 8998TIP3   OH226936   1.227   3.656   6.056
 8998TIP3    H126937   1.203   3.743   6.089
 8998TIP3    H226938   1.253   3.608   6.135
 8999TIP3   OH226939   7.109   2.158   6.453
 8999TIP3    H126940   7.104   2.092   6.522
 8999TIP3    H226941   7.065   2.118   6.378
 9000TIP3   OH226942   0.970   2.487   4.852
 9000TIP3    H126943   1.036   2.536   4.900
 9000TIP3    H226944   0.917   2.444   4.919
 9001TIP3   OH226945   7.395   1.757   6.616
 9001TIP3    H126946   7.440   1.838   6.589
 9001TIP3    H226947   7.314   1.788   6.657
 9002TIP3   OH226948   0.755   3.208   4.848
 9002TIP3    H126949   0.834   3.243   4.890
 9002TIP3    H226950   0.684   3.263   4.881
 9003TIP3   OH226951   1.579   4.761   6.321
 9003TIP3    H126952   1.626   4.722   6.394
 9003TIP3    H226953   1.601   4.705   6.246
 9004TIP3   OH226954   0.946   6.995   1.145
 9004TIP3    H126955   0.875   7.059   1.136
 9004TIP3    H226956   0.984   6.989   1.057
 9005TIP3   OH226957   7.108   2.592   0.349
 9005TIP3    H126958   7.038   2.581   0.414
 9005TIP3    H226959   7.065   2.635   0.276
 9006TIP3   OH226960   7.905   0.652   4.082
 9006TIP3    H126961   7.879   0.664   3.991
 9006TIP3    H226962   7.825   0.669   4.132
 9007TIP3   OH226963   6.261   5.700   0.093
 9007TIP3    H126964   6.320   5.636   0.131
 9007TIP3    H226965   6.254   5.674   0.001
 9008TIP3   OH226966   1.621   2.296   6.275
 9008TIP3    H126967   1.577   2.214   6.255
 9008TIP3    H226968   1.625   2.298   6.371
 9009TIP3   OH226969   4.377   3.794   6.139
 9009TIP3    H126970   4.390   3.701   6.124
 9009TIP3    H226971   4.427   3.812   6.219
 9010TIP3   OH226972   6.195   1.275   1.005
 9010TIP3    H126973   6.282   1.309   1.029
 9010TIP3    H226974   6.170   1.221   1.079
 9011TIP3   OH226975   1.259   7.109   1.249
 9011TIP3    H126976   1.221   7.022   1.261
 9011TIP3    H226977   1.307   7.103   1.166
 9012TIP3   OH226978   3.013   6.670   1.980
 9012TIP3    H126979   2.975   6.663   2.067
 9012TIP3    H226980   3.003   6.763   1.957
 9013TIP3   OH226981   3.434   5.538   2.949
 9013TIP3    H126982   3.528   5.530   2.936
 9013TIP3    H226983   3.398   5.455   2.918
 9014TIP3   OH226984   0.661   1.109   3.479
 9014TIP3    H126985   0.727   1.149   3.536
 9014TIP3    H226986   0.578   1.148   3.508
 9015TIP3   OH226987   5.045   0.719   5.694
 9015TIP3    H126988   5.115   0.725   5.629
 9015TIP3    H226989   5.022   0.626   5.695
 9016TIP3   OH226990   1.393   3.179   5.928
 9016TIP3    H126991   1.425   3.235   5.998
 9016TIP3    H226992   1.349   3.238   5.868
 9017TIP3   OH226993   4.559   7.140   0.937
 9017TIP3    H126994   4.494   7.170   1.001
 9017TIP3    H226995   4.604   7.220   0.910
 9018TIP3   OH226996   4.889   7.622   6.570
 9018TIP3    H126997   4.838   7.562   6.624
 9018TIP3    H226998   4.885   7.585   6.482
 9019TIP3   OH226999   5.158   0.328   1.900
 9019TIP3    H127000   5.187   0.263   1.836
 9019TIP3    H227001   5.205   0.305   1.980
 9020TIP3   OH227002   4.167   4.765   1.101
 9020TIP3    H127003   4.187   4.836   1.040
 9020TIP3    H227004   4.191   4.685   1.054
 9021TIP3   OH227005   8.077   3.876   4.275
 9021TIP3    H127006   8.107   3.952   4.226
 9021TIP3    H227007   8.049   3.911   4.359
 9022TIP3   OH227008   3.477   7.529   0.779
 9022TIP3    H127009   3.435   7.611   0.753
 9022TIP3    H227010   3.416   7.461   0.750
 9023TIP3   OH227011   5.900   1.336   4.287
 9023TIP3    H127012   5.848   1.383   4.222
 9023TIP3    H227013   5.836   1.298   4.346
 9024TIP3   OH227014   4.556   6.986   1.515
 9024TIP3    H127015   4.567   7.031   1.599
 9024TIP3    H227016   4.622   7.025   1.458
 9025TIP3   OH227017   2.007   4.943   2.433
 9025TIP3    H127018   1.931   4.890   2.407
 9025TIP3    H227019   2.073   4.879   2.459
 9026TIP3   OH227020   4.538   6.294   4.599
 9026TIP3    H127021   4.547   6.239   4.677
 9026TIP3    H227022   4.455   6.268   4.560
 9027TIP3   OH227023   4.503   1.503   5.246
 9027TIP3    H127024   4.562   1.493   5.321
 9027TIP3    H227025   4.453   1.583   5.265
 9028TIP3   OH227026   3.004   0.205   6.627
 9028TIP3    H127027   3.004   0.240   6.538
 9028TIP3    H227028   2.953   0.268   6.678
 9029TIP3   OH227029   3.854   4.748   1.153
 9029TIP3    H127030   3.842   4.659   1.185
 9029TIP3    H227031   3.945   4.769   1.176
 9030TIP3   OH227032   7.028   3.316   1.427
 9030TIP3    H127033   7.015   3.401   1.469
 9030TIP3    H227034   7.018   3.334   1.333
 9031TIP3   OH227035   0.747   3.828   3.889
 9031TIP3    H127036   0.714   3.756   3.943
 9031TIP3    H227037   0.712   3.810   3.802
 9032TIP3   OH227038   4.546   4.885   4.607
 9032TIP3    H127039   4.523   4.820   4.541
 9032TIP3    H227040   4.586   4.833   4.678
 9033TIP3   OH227041   4.056   0.876   2.706
 9033TIP3    H127042   4.068   0.959   2.751
 9033TIP3    H227043   3.987   0.832   2.755
 9034TIP3   OH227044   3.620   1.594   1.291
 9034TIP3    H127045   3.550   1.554   1.239
 9034TIP3    H227046   3.617   1.548   1.375
 9035TIP3   OH227047   2.571   1.333   4.913
 9035TIP3    H127048   2.659   1.355   4.943
 9035TIP3    H227049   2.523   1.416   4.916
 9036TIP3   OH227050   1.366   1.220   5.196
 9036TIP3    H127051   1.275   1.202   5.222
 9036TIP3    H227052   1.362   1.306   5.153
 9037TIP3   OH227053   1.178   6.504   1.062
 9037TIP3    H127054   1.190   6.431   1.001
 9037TIP3    H227055   1.253   6.562   1.045
 9038TIP3   OH227056   4.739   2.105   5.003
 9038TIP3    H127057   4.751   2.022   4.957
 9038TIP3    H227058   4.734   2.171   4.933
 9039TIP3   OH227059   2.951   2.063   3.026
 9039TIP3    H127060   2.858   2.050   3.012
 9039TIP3    H227061   2.980   1.982   3.069
 9040TIP3   OH227062   7.155   5.693   6.226
 9040TIP3    H127063   7.133   5.725   6.138
 9040TIP3    H227064   7.110   5.609   6.232
 9041TIP3   OH227065   7.269   4.158   0.428
 9041TIP3    H127066   7.310   4.243   0.447
 9041TIP3    H227067   7.322   4.095   0.475
 9042TIP3   OH227068   5.505   4.907   1.858
 9042TIP3    H127069   5.524   4.840   1.793
 9042TIP3    H227070   5.412   4.896   1.878
 9043TIP3   OH227071   7.205   4.739   1.722
 9043TIP3    H127072   7.198   4.672   1.791
 9043TIP3    H227073   7.221   4.820   1.770
 9044TIP3   OH227074   1.265   3.184   2.011
 9044TIP3    H127075   1.208   3.107   2.021
 9044TIP3    H227076   1.309   3.192   2.096
 9045TIP3   OH227077   2.559   7.679   1.753
 9045TIP3    H127078   2.497   7.636   1.812
 9045TIP3    H227079   2.643   7.674   1.799
 9046TIP3   OH227080   5.106   4.131   4.406
 9046TIP3    H127081   5.104   4.096   4.495
 9046TIP3    H227082   5.133   4.058   4.352
 9047TIP3   OH227083   4.222   6.237   6.305
 9047TIP3    H127084   4.298   6.183   6.281
 9047TIP3    H227085   4.149   6.175   6.309
 9048TIP3   OH227086   3.988   1.729   4.691
 9048TIP3    H127087   3.996   1.636   4.714
 9048TIP3    H227088   3.895   1.743   4.676
 9049TIP3   OH227089   3.986   1.489   1.905
 9049TIP3    H127090   4.028   1.411   1.941
 9049TIP3    H227091   4.052   1.558   1.915
 9050TIP3   OH227092   5.287   5.833   5.835
 9050TIP3    H127093   5.319   5.900   5.775
 9050TIP3    H227094   5.289   5.874   5.921
 9051TIP3   OH227095   2.498   4.563   5.616
 9051TIP3    H127096   2.573   4.592   5.668
 9051TIP3    H227097   2.518   4.593   5.527
 9052TIP3   OH227098   6.481   2.821   0.860
 9052TIP3    H127099   6.408   2.840   0.801
 9052TIP3    H227100   6.479   2.891   0.925
 9053TIP3   OH227101   6.995   6.390   6.683
 9053TIP3    H127102   6.943   6.359   6.758
 9053TIP3    H227103   6.946   6.361   6.606
 9054TIP3   OH227104   4.356   0.153   1.414
 9054TIP3    H127105   4.299   0.178   1.486
 9054TIP3    H227106   4.326   0.206   1.340
 9055TIP3   OH227107   4.219   7.117   1.705
 9055TIP3    H127108   4.145   7.176   1.718
 9055TIP3    H227109   4.180   7.032   1.687
 9056TIP3   OH227110   3.653   6.903   5.376
 9056TIP3    H127111   3.610   6.910   5.290
 9056TIP3    H227112   3.601   6.960   5.433
 9057TIP3   OH227113   8.159   0.562   4.984
 9057TIP3    H127114   8.132   0.578   4.893
 9057TIP3    H227115   8.254   0.567   4.981
 9058TIP3   OH227116   1.123   0.311   5.584
 9058TIP3    H127117   1.159   0.398   5.566
 9058TIP3    H227118   1.172   0.252   5.527
 9059TIP3   OH227119   4.122   6.937   0.082
 9059TIP3    H127120   4.185   6.994   0.127
 9059TIP3    H227121   4.127   6.853   0.128
 9060TIP3   OH227122   5.414   5.755   4.184
 9060TIP3    H127123   5.490   5.713   4.143
 9060TIP3    H227124   5.339   5.726   4.131
 9061TIP3   OH227125   1.923   2.011   6.626
 9061TIP3    H127126   2.013   1.999   6.598
 9061TIP3    H227127   1.871   1.999   6.547
 9062TIP3   OH227128   4.860   3.800   0.827
 9062TIP3    H127129   4.788   3.794   0.763
 9062TIP3    H227130   4.887   3.892   0.823
 9063TIP3   OH227131   1.383   6.237   3.306
 9063TIP3    H127132   1.299   6.212   3.344
 9063TIP3    H227133   1.369   6.324   3.270
 9064TIP3   OH227134   0.686   6.332   1.555
 9064TIP3    H127135   0.607   6.278   1.562
 9064TIP3    H227136   0.752   6.283   1.603
 9065TIP3   OH227137   3.365   1.170   5.903
 9065TIP3    H127138   3.335   1.203   5.988
 9065TIP3    H227139   3.409   1.245   5.863
 9066TIP3   OH227140   2.851   7.016   0.831
 9066TIP3    H127141   2.836   6.990   0.740
 9066TIP3    H227142   2.795   6.957   0.882
 9067TIP3   OH227143   2.954   6.599   6.667
 9067TIP3    H127144   2.937   6.633   6.579
 9067TIP3    H227145   3.015   6.661   6.706
 9068TIP3   OH227146   6.697   7.714   5.366
 9068TIP3    H127147   6.772   7.750   5.414
 9068TIP3    H227148   6.621   7.740   5.418
 9069TIP3   OH227149   3.770   3.534   3.825
 9069TIP3    H127150   3.849   3.514   3.775
 9069TIP3    H227151   3.781   3.625   3.852
 9070TIP3   OH227152   2.918   2.166   2.241
 9070TIP3    H127153   2.840   2.148   2.293
 9070TIP3    H227154   2.956   2.080   2.224
 9071TIP3   OH227155   6.971   2.983   4.751
 9071TIP3    H127156   6.977   2.929   4.830
 9071TIP3    H227157   7.051   3.036   4.752
 9072TIP3   OH227158   2.737   3.302   5.607
 9072TIP3    H127159   2.812   3.275   5.555
 9072TIP3    H227160   2.775   3.331   5.691
 9073TIP3   OH227161   5.835   0.433   2.884
 9073TIP3    H127162   5.930   0.437   2.897
 9073TIP3    H227163   5.811   0.344   2.908
 9074TIP3   OH227164   6.877   3.742   6.073
 9074TIP3    H127165   6.806   3.684   6.100
 9074TIP3    H227166   6.902   3.788   6.153
 9075TIP3   OH227167   0.821   3.259   5.648
 9075TIP3    H127168   0.801   3.352   5.659
 9075TIP3    H227169   0.796   3.220   5.732
 9076TIP3   OH227170   1.331   6.070   0.641
 9076TIP3    H127171   1.236   6.057   0.638
 9076TIP3    H227172   1.348   6.141   0.579
 9077TIP3   OH227173   3.438   5.586   0.763
 9077TIP3    H127174   3.396   5.664   0.799
 9077TIP3    H227175   3.430   5.520   0.832
 9078TIP3   OH227176   4.779   3.686   3.247
 9078TIP3    H127177   4.714   3.637   3.197
 9078TIP3    H227178   4.861   3.638   3.232
 9079TIP3   OH227179   1.320   5.468   3.530
 9079TIP3    H127180   1.375   5.546   3.530
 9079TIP3    H227181   1.308   5.447   3.623
 9080TIP3   OH227182   4.331   3.132   6.424
 9080TIP3    H127183   4.417   3.174   6.423
 9080TIP3    H227184   4.312   3.115   6.332
 9081TIP3   OH227185   7.942   6.477   5.141
 9081TIP3    H127186   8.035   6.471   5.118
 9081TIP3    H227187   7.908   6.389   5.128
 9082TIP3   OH227188   2.118   4.489   2.906
 9082TIP3    H127189   2.053   4.490   2.976
 9082TIP3    H227190   2.153   4.578   2.906
 9083TIP3   OH227191   7.046   2.000   6.681
 9083TIP3    H127192   7.026   1.907   6.692
 9083TIP3    H227193   7.132   2.011   6.722
 9084TIP3   OH227194   5.770   1.850   0.882
 9084TIP3    H127195   5.745   1.849   0.789
 9084TIP3    H227196   5.800   1.761   0.899
 9085TIP3   OH227197   2.203   1.148   1.826
 9085TIP3    H127198   2.151   1.163   1.905
 9085TIP3    H227199   2.204   1.053   1.815
 9086TIP3   OH227200   0.928   4.800   1.632
 9086TIP3    H127201   0.889   4.880   1.665
 9086TIP3    H227202   0.896   4.731   1.690
 9087TIP3   OH227203   1.040   7.100   6.090
 9087TIP3    H127204   0.991   7.125   6.169
 9087TIP3    H227205   1.029   7.174   6.031
 9088TIP3   OH227206   7.392   1.369   0.002
 9088TIP3    H127207   7.361   1.455  -0.024
 9088TIP3    H227208   7.453   1.385   0.074
 9089TIP3   OH227209   3.112   7.630   4.904
 9089TIP3    H127210   3.077   7.541   4.909
 9089TIP3    H227211   3.200   7.619   4.867
 9090TIP3   OH227212   0.284   1.071   2.901
 9090TIP3    H127213   0.289   1.051   2.807
 9090TIP3    H227214   0.374   1.067   2.931
 9091TIP3   OH227215   2.232   3.303   3.058
 9091TIP3    H127216   2.291   3.316   2.984
 9091TIP3    H227217   2.145   3.300   3.018
 9092TIP3   OH227218   4.248   6.980   0.793
 9092TIP3    H127219   4.211   6.945   0.713
 9092TIP3    H227220   4.343   6.978   0.779
 9093TIP3   OH227221   6.265   4.845   6.435
 9093TIP3    H127222   6.300   4.886   6.515
 9093TIP3    H227223   6.175   4.877   6.429
 9094TIP3   OH227224   7.843   1.308   4.942
 9094TIP3    H127225   7.767   1.337   4.992
 9094TIP3    H227226   7.913   1.299   5.006
 9095TIP3   OH227227   5.556   5.447   1.899
 9095TIP3    H127228   5.465   5.430   1.877
 9095TIP3    H227229   5.557   5.538   1.930
 9096TIP3   OH227230   3.711   1.447   4.268
 9096TIP3    H127231   3.685   1.355   4.263
 9096TIP3    H227232   3.764   1.453   4.347
 9097TIP3   OH227233   8.080   0.450   2.478
 9097TIP3    H127234   8.095   0.532   2.431
 9097TIP3    H227235   8.044   0.390   2.412
 9098TIP3   OH227236   4.881   5.389   1.513
 9098TIP3    H127237   4.900   5.479   1.488
 9098TIP3    H227238   4.935   5.336   1.454
 9099TIP3   OH227239   7.788   2.245   5.319
 9099TIP3    H127240   7.823   2.335   5.316
 9099TIP3    H227241   7.702   2.254   5.358
 9100TIP3   OH227242   2.102   7.340   2.655
 9100TIP3    H127243   2.093   7.264   2.712
 9100TIP3    H227244   2.016   7.383   2.658
 9101TIP3   OH227245   2.548   2.676   1.380
 9101TIP3    H127246   2.614   2.651   1.444
 9101TIP3    H227247   2.503   2.594   1.359
 9102TIP3   OH227248   1.269   6.746   0.970
 9102TIP3    H127249   1.338   6.784   1.024
 9102TIP3    H227250   1.225   6.822   0.930
 9103TIP3   OH227251   7.238   0.644   2.544
 9103TIP3    H127252   7.247   0.578   2.476
 9103TIP3    H227253   7.154   0.686   2.525
 9104TIP3   OH227254   0.405   5.849   3.127
 9104TIP3    H127255   0.337   5.902   3.168
 9104TIP3    H227256   0.487   5.891   3.154
 9105TIP3   OH227257   4.872   4.510   4.682
 9105TIP3    H127258   4.782   4.492   4.655
 9105TIP3    H227259   4.925   4.452   4.628
 9106TIP3   OH227260   0.435   4.295   3.845
 9106TIP3    H127261   0.419   4.290   3.750
 9106TIP3    H227262   0.507   4.233   3.860
 9107TIP3   OH227263   4.345   1.716   5.979
 9107TIP3    H127264   4.421   1.662   6.003
 9107TIP3    H227265   4.298   1.729   6.062
 9108TIP3   OH227266   0.591   5.936   0.332
 9108TIP3    H127267   0.527   5.926   0.403
 9108TIP3    H227268   0.664   5.982   0.372
 9109TIP3   OH227269   3.679   7.616   1.851
 9109TIP3    H127270   3.679   7.580   1.940
 9109TIP3    H227271   3.711   7.705   1.862
 9110TIP3   OH227272   2.702   7.690   5.129
 9110TIP3    H127273   2.752   7.609   5.134
 9110TIP3    H227274   2.676   7.708   5.219
 9111TIP3   OH227275   6.585   3.820   0.590
 9111TIP3    H127276   6.649   3.881   0.553
 9111TIP3    H227277   6.632   3.775   0.660
 9112TIP3   OH227278   2.224   2.814   4.258
 9112TIP3    H127279   2.201   2.850   4.172
 9112TIP3    H227280   2.274   2.884   4.300
 9113TIP3   OH227281   6.639   3.959   0.275
 9113TIP3    H127282   6.605   3.891   0.217
 9113TIP3    H227283   6.717   3.991   0.231
 9114TIP3   OH227284   6.282   1.515   2.849
 9114TIP3    H127285   6.362   1.536   2.896
 9114TIP3    H227286   6.311   1.491   2.761
 9115TIP3   OH227287   3.406   1.991   0.847
 9115TIP3    H127288   3.393   1.932   0.922
 9115TIP3    H227289   3.499   2.014   0.851
 9116TIP3   OH227290   3.812   7.770   2.133
 9116TIP3    H127291   3.906   7.758   2.116
 9116TIP3    H227292   3.773   7.774   2.046
 9117TIP3   OH227293   3.582   7.758   0.420
 9117TIP3    H127294   3.650   7.821   0.398
 9117TIP3    H227295   3.552   7.785   0.507
 9118TIP3   OH227296   2.929   1.334   3.356
 9118TIP3    H127297   2.931   1.262   3.293
 9118TIP3    H227298   2.836   1.344   3.378
 9119TIP3   OH227299   8.235   5.453   5.917
 9119TIP3    H127300   8.158   5.411   5.954
 9119TIP3    H227301   8.217   5.458   5.823
 9120TIP3   OH227302   7.415   5.821   3.895
 9120TIP3    H127303   7.383   5.758   3.830
 9120TIP3    H227304   7.438   5.768   3.971
 9121TIP3   OH227305   0.867   1.985   4.265
 9121TIP3    H127306   0.876   1.960   4.357
 9121TIP3    H227307   0.953   1.968   4.227
 9122TIP3   OH227308   1.995   0.526   0.302
 9122TIP3    H127309   1.923   0.513   0.363
 9122TIP3    H227310   1.985   0.616   0.272
 9123TIP3   OH227311   0.565   6.000   6.169
 9123TIP3    H127312   0.539   5.968   6.255
 9123TIP3    H227313   0.609   6.083   6.186
 9124TIP3   OH227314   2.492   2.005   2.759
 9124TIP3    H127315   2.462   2.094   2.741
 9124TIP3    H227316   2.442   1.977   2.835
 9125TIP3   OH227317   7.437   7.403   2.238
 9125TIP3    H127318   7.461   7.339   2.305
 9125TIP3    H227319   7.341   7.397   2.232
 9126TIP3   OH227320   0.347   6.960   4.030
 9126TIP3    H127321   0.422   6.905   4.010
 9126TIP3    H227322   0.281   6.936   3.964
 9127TIP3   OH227323   1.069   1.852   5.117
 9127TIP3    H127324   1.113   1.921   5.168
 9127TIP3    H227325   1.106   1.861   5.029
 9128TIP3   OH227326   0.885   4.619   3.255
 9128TIP3    H127327   0.894   4.714   3.265
 9128TIP3    H227328   0.814   4.608   3.192
 9129TIP3   OH227329   7.819   4.083   4.299
 9129TIP3    H127330   7.837   4.020   4.229
 9129TIP3    H227331   7.803   4.028   4.377
 9130TIP3   OH227332   1.295   2.577   5.726
 9130TIP3    H127333   1.229   2.644   5.743
 9130TIP3    H227334   1.245   2.496   5.712
 9131TIP3   OH227335   7.370   6.636   6.648
 9131TIP3    H127336   7.324   6.713   6.681
 9131TIP3    H227337   7.417   6.602   6.724
 9132TIP3   OH227338   1.900   7.619   6.116
 9132TIP3    H127339   1.906   7.624   6.212
 9132TIP3    H227340   1.810   7.644   6.097
 9133TIP3   OH227341   1.144   0.503   6.282
 9133TIP3    H127342   1.236   0.491   6.260
 9133TIP3    H227343   1.104   0.418   6.266
 9134TIP3   OH227344   1.630   3.937   6.317
 9134TIP3    H127345   1.591   3.950   6.403
 9134TIP3    H227346   1.566   3.885   6.269
 9135TIP3   OH227347   4.841   6.916   5.899
 9135TIP3    H127348   4.769   6.924   5.836
 9135TIP3    H227349   4.830   6.991   5.957
 9136TIP3   OH227350   0.457   6.827   5.700
 9136TIP3    H127351   0.365   6.819   5.724
 9136TIP3    H227352   0.460   6.805   5.606
 9137TIP3   OH227353   6.808   3.490   3.538
 9137TIP3    H127354   6.882   3.452   3.490
 9137TIP3    H227355   6.843   3.506   3.626
 9138TIP3   OH227356   1.527   4.290   4.988
 9138TIP3    H127357   1.525   4.284   4.893
 9138TIP3    H227358   1.526   4.384   5.006
 9139TIP3   OH227359   4.297   0.804   3.461
 9139TIP3    H127360   4.265   0.830   3.375
 9139TIP3    H227361   4.245   0.727   3.484
 9140TIP3   OH227362   0.907   6.109   2.376
 9140TIP3    H127363   0.918   6.022   2.339
 9140TIP3    H227364   0.957   6.107   2.458
 9141TIP3   OH227365   6.954   3.770   1.820
 9141TIP3    H127366   6.974   3.805   1.907
 9141TIP3    H227367   7.033   3.723   1.795
 9142TIP3   OH227368   6.810   1.740   2.205
 9142TIP3    H127369   6.799   1.794   2.283
 9142TIP3    H227370   6.739   1.676   2.211
 9143TIP3   OH227371   8.259   3.917   2.565
 9143TIP3    H127372   8.300   3.975   2.629
 9143TIP3    H227373   8.171   3.954   2.553
 9144TIP3   OH227374   8.146   5.498   1.202
 9144TIP3    H127375   8.179   5.520   1.289
 9144TIP3    H227376   8.053   5.479   1.216
 9145TIP3   OH227377   7.056   1.778   2.116
 9145TIP3    H127378   6.970   1.749   2.147
 9145TIP3    H227379   7.115   1.757   2.188
 9146TIP3   OH227380   6.824   7.689   0.539
 9146TIP3    H127381   6.759   7.632   0.499
 9146TIP3    H227382   6.906   7.666   0.495
 9147TIP3   OH227383   5.195   3.930   1.174
 9147TIP3    H127384   5.173   3.863   1.109
 9147TIP3    H227385   5.110   3.966   1.202
 9148TIP3   OH227386   0.269   0.213   0.477
 9148TIP3    H127387   0.221   0.155   0.418
 9148TIP3    H227388   0.312   0.153   0.539
 9149TIP3   OH227389   4.472   3.522   3.739
 9149TIP3    H127390   4.544   3.531   3.802
 9149TIP3    H227391   4.444   3.431   3.747
 9150TIP3   OH227392   0.913   2.634   5.960
 9150TIP3    H127393   0.965   2.701   5.916
 9150TIP3    H227394   0.955   2.551   5.939
 9151TIP3   OH227395   5.413   4.220   0.550
 9151TIP3    H127396   5.329   4.242   0.591
 9151TIP3    H227397   5.461   4.303   0.550
 9152TIP3   OH227398   1.612   4.789   5.175
 9152TIP3    H127399   1.701   4.823   5.167
 9152TIP3    H227400   1.609   4.715   5.115
 9153TIP3   OH227401   5.680   3.690   0.645
 9153TIP3    H127402   5.621   3.677   0.571
 9153TIP3    H227403   5.664   3.780   0.674
 9154TIP3   OH227404   7.163   4.095   1.403
 9154TIP3    H127405   7.112   4.109   1.482
 9154TIP3    H227406   7.123   4.152   1.337
 9155TIP3   OH227407   3.545   3.879   6.729
 9155TIP3    H127408   3.621   3.839   6.686
 9155TIP3    H227409   3.493   3.915   6.657
 9156TIP3   OH227410   7.550   5.968   4.589
 9156TIP3    H127411   7.532   5.998   4.500
 9156TIP3    H227412   7.503   6.029   4.645
 9157TIP3   OH227413   5.063   7.746   4.946
 9157TIP3    H127414   5.086   7.839   4.954
 9157TIP3    H227415   5.072   7.712   5.035
 9158TIP3   OH227416   7.633   1.290   6.730
 9158TIP3    H127417   7.569   1.226   6.696
 9158TIP3    H227418   7.591   1.375   6.716
 9159TIP3   OH227419   7.921   3.640   0.919
 9159TIP3    H127420   8.007   3.660   0.956
 9159TIP3    H227421   7.894   3.559   0.963
 9160TIP3   OH227422   3.759   3.834   3.858
 9160TIP3    H127423   3.745   3.855   3.950
 9160TIP3    H227424   3.675   3.853   3.815
 9161TIP3   OH227425   4.488   2.738   3.064
 9161TIP3    H127426   4.401   2.739   3.024
 9161TIP3    H227427   4.507   2.645   3.077
 9162TIP3   OH227428   5.300   0.505   4.735
 9162TIP3    H127429   5.241   0.443   4.777
 9162TIP3    H227430   5.323   0.464   4.651
 9163TIP3   OH227431   0.058   6.723   6.327
 9163TIP3    H127432  -0.001   6.661   6.286
 9163TIP3    H227433   0.098   6.771   6.254
 9164TIP3   OH227434   0.387   0.784   2.469
 9164TIP3    H127435   0.320   0.734   2.422
 9164TIP3    H227436   0.390   0.744   2.556
 9165TIP3   OH227437   1.246   1.076   0.580
 9165TIP3    H127438   1.209   1.122   0.505
 9165TIP3    H227439   1.341   1.083   0.569
 9166TIP3   OH227440   1.283   5.473   1.333
 9166TIP3    H127441   1.315   5.551   1.287
 9166TIP3    H227442   1.361   5.428   1.362
 9167TIP3   OH227443   7.938   5.652   4.952
 9167TIP3    H127444   7.950   5.746   4.944
 9167TIP3    H227445   7.923   5.638   5.046
 9168TIP3   OH227446   2.912   1.249   5.263
 9168TIP3    H127447   2.981   1.307   5.296
 9168TIP3    H227448   2.957   1.193   5.199
 9169TIP3   OH227449   0.233   6.488   6.107
 9169TIP3    H127450   0.324   6.515   6.098
 9169TIP3    H227451   0.231   6.397   6.079
 9170TIP3   OH227452   1.727   1.749   1.192
 9170TIP3    H127453   1.772   1.710   1.267
 9170TIP3    H227454   1.773   1.715   1.115
 9171TIP3   OH227455   1.680   2.844   0.937
 9171TIP3    H127456   1.769   2.878   0.941
 9171TIP3    H227457   1.639   2.877   1.017
 9172TIP3   OH227458   6.423   4.538   0.443
 9172TIP3    H127459   6.509   4.569   0.472
 9172TIP3    H227460   6.418   4.566   0.352
 9173TIP3   OH227461   5.972   1.877   0.204
 9173TIP3    H127462   5.884   1.899   0.236
 9173TIP3    H227463   6.014   1.834   0.278
 9174TIP3   OH227464   0.198   0.746   5.275
 9174TIP3    H127465   0.276   0.781   5.319
 9174TIP3    H227466   0.126   0.798   5.311
 9175TIP3   OH227467   2.822   3.605   4.886
 9175TIP3    H127468   2.739   3.577   4.925
 9175TIP3    H227469   2.845   3.535   4.825
 9176TIP3   OH227470   5.091   7.696   5.682
 9176TIP3    H127471   5.005   7.687   5.723
 9176TIP3    H227472   5.099   7.789   5.664
 9177TIP3   OH227473   1.819   7.133   5.497
 9177TIP3    H127474   1.791   7.172   5.580
 9177TIP3    H227475   1.908   7.102   5.514
 9178TIP3   OH227476   7.988   2.409   0.387
 9178TIP3    H127477   7.956   2.327   0.348
 9178TIP3    H227478   8.028   2.456   0.314
 9179TIP3   OH227479   2.143   4.150   6.474
 9179TIP3    H127480   2.184   4.065   6.492
 9179TIP3    H227481   2.067   4.153   6.532
 9180TIP3   OH227482   4.265   2.834   2.524
 9180TIP3    H127483   4.278   2.901   2.591
 9180TIP3    H227484   4.353   2.803   2.503
 9181TIP3   OH227485   5.956   6.552   3.944
 9181TIP3    H127486   5.936   6.464   3.976
 9181TIP3    H227487   5.885   6.606   3.979
 9182TIP3   OH227488   4.942   5.232   1.008
 9182TIP3    H127489   5.032   5.229   1.042
 9182TIP3    H227490   4.889   5.191   1.076
 9183TIP3   OH227491   5.645   4.501   2.971
 9183TIP3    H127492   5.610   4.507   2.882
 9183TIP3    H227493   5.736   4.477   2.960
 9184TIP3   OH227494   4.735   7.799   6.255
 9184TIP3    H127495   4.681   7.733   6.297
 9184TIP3    H227496   4.704   7.882   6.290
 9185TIP3   OH227497   3.314   2.643   3.883
 9185TIP3    H127498   3.311   2.731   3.921
 9185TIP3    H227499   3.233   2.635   3.834
 9186TIP3   OH227500   7.532   7.230   1.425
 9186TIP3    H127501   7.536   7.171   1.500
 9186TIP3    H227502   7.438   7.241   1.408
 9187TIP3   OH227503   6.756   5.734   6.267
 9187TIP3    H127504   6.823   5.686   6.218
 9187TIP3    H227505   6.674   5.715   6.223
 9188TIP3   OH227506   5.530   7.248   1.937
 9188TIP3    H127507   5.529   7.342   1.916
 9188TIP3    H227508   5.580   7.243   2.018
 9189TIP3   OH227509   3.194   1.679   5.980
 9189TIP3    H127510   3.278   1.719   5.960
 9189TIP3    H227511   3.144   1.686   5.899
 9190TIP3   OH227512   4.847   7.639   5.815
 9190TIP3    H127513   4.813   7.695   5.885
 9190TIP3    H227514   4.771   7.624   5.758
 9191TIP3   OH227515   2.007   1.702   6.744
 9191TIP3    H127516   1.953   1.735   6.672
 9191TIP3    H227517   2.033   1.780   6.793
 9192TIP3   OH227518   2.820   3.707   4.325
 9192TIP3    H127519   2.879   3.738   4.393
 9192TIP3    H227520   2.874   3.707   4.245
 9193TIP3   OH227521   6.530   5.505   1.793
 9193TIP3    H127522   6.523   5.557   1.873
 9193TIP3    H227523   6.615   5.461   1.801
 9194TIP3   OH227524   6.060   6.936   4.855
 9194TIP3    H127525   6.103   6.855   4.883
 9194TIP3    H227526   5.997   6.909   4.789
 9195TIP3   OH227527   2.497   3.316   3.153
 9195TIP3    H127528   2.413   3.357   3.133
 9195TIP3    H227529   2.556   3.347   3.084
 9196TIP3   OH227530   6.031   6.535   5.288
 9196TIP3    H127531   6.060   6.459   5.339
 9196TIP3    H227532   5.997   6.497   5.207
 9197TIP3   OH227533   6.159   5.730   3.043
 9197TIP3    H127534   6.088   5.722   3.108
 9197TIP3    H227535   6.198   5.815   3.061
 9198TIP3   OH227536   3.411   7.273   4.868
 9198TIP3    H127537   3.376   7.256   4.955
 9198TIP3    H227538   3.356   7.221   4.810
 9199TIP3   OH227539   1.566   0.975   1.815
 9199TIP3    H127540   1.507   0.995   1.888
 9199TIP3    H227541   1.507   0.946   1.745
 9200TIP3   OH227542   0.755   0.968   5.428
 9200TIP3    H127543   0.811   1.014   5.366
 9200TIP3    H227544   0.806   0.893   5.456
 9201TIP3   OH227545   1.729   7.513   0.681
 9201TIP3    H127546   1.701   7.451   0.614
 9201TIP3    H227547   1.825   7.505   0.682
 9202TIP3   OH227548   0.025   6.425   4.023
 9202TIP3    H127549   0.027   6.514   3.990
 9202TIP3    H227550  -0.061   6.415   4.062
 9203TIP3   OH227551   1.574   0.486   5.008
 9203TIP3    H127552   1.502   0.426   4.986
 9203TIP3    H227553   1.571   0.552   4.939
 9204TIP3   OH227554   3.271   4.728   0.926
 9204TIP3    H127555   3.310   4.800   0.976
 9204TIP3    H227556   3.290   4.650   0.978
 9205TIP3   OH227557   3.632   4.261   4.730
 9205TIP3    H127558   3.720   4.232   4.705
 9205TIP3    H227559   3.634   4.264   4.826
 9206TIP3   OH227560   2.136   4.227   0.615
 9206TIP3    H127561   2.172   4.145   0.582
 9206TIP3    H227562   2.051   4.203   0.651
 9207TIP3   OH227563   8.034   2.849   3.619
 9207TIP3    H127564   7.955   2.813   3.578
 9207TIP3    H227565   8.096   2.859   3.547
 9208TIP3   OH227566   0.387   5.874   4.766
 9208TIP3    H127567   0.468   5.902   4.722
 9208TIP3    H227568   0.370   5.943   4.831
 9209TIP3   OH227569   4.817   5.684   3.522
 9209TIP3    H127570   4.773   5.767   3.507
 9209TIP3    H227571   4.770   5.644   3.595
 9210TIP3   OH227572   7.055   3.010   4.065
 9210TIP3    H127573   7.117   3.062   4.014
 9210TIP3    H227574   7.042   3.061   4.145
 9211TIP3   OH227575   6.475   5.466   3.724
 9211TIP3    H127576   6.495   5.558   3.703
 9211TIP3    H227577   6.406   5.443   3.662
 9212TIP3   OH227578   7.243   0.244   1.851
 9212TIP3    H127579   7.212   0.293   1.775
 9212TIP3    H227580   7.322   0.200   1.821
 9213TIP3   OH227581   5.534   3.454   1.699
 9213TIP3    H127582   5.491   3.526   1.744
 9213TIP3    H227583   5.574   3.402   1.769
 9214TIP3   OH227584   6.056   1.924   2.826
 9214TIP3    H127585   5.984   1.986   2.825
 9214TIP3    H227586   6.115   1.956   2.894
 9215TIP3   OH227587   6.124   6.709   0.788
 9215TIP3    H127588   6.104   6.623   0.824
 9215TIP3    H227589   6.146   6.763   0.864
 9216TIP3   OH227590   2.281   7.616   3.254
 9216TIP3    H127591   2.306   7.560   3.181
 9216TIP3    H227592   2.364   7.652   3.287
 9217TIP3   OH227593   1.327   2.215   1.978
 9217TIP3    H127594   1.398   2.274   1.952
 9217TIP3    H227595   1.372   2.138   2.012
 9218TIP3   OH227596   1.756   1.821   0.254
 9218TIP3    H127597   1.728   1.792   0.167
 9218TIP3    H227598   1.851   1.830   0.247
 9219TIP3   OH227599   0.918   5.553   0.147
 9219TIP3    H127600   0.973   5.630   0.134
 9219TIP3    H227601   0.980   5.480   0.154
 9220TIP3   OH227602   0.579   1.186   6.149
 9220TIP3    H127603   0.664   1.176   6.191
 9220TIP3    H227604   0.531   1.248   6.204
 9221TIP3   OH227605   1.679   5.057   6.705
 9221TIP3    H127606   1.690   5.002   6.783
 9221TIP3    H227607   1.738   5.131   6.720
 9222TIP3   OH227608   4.360   0.470   5.758
 9222TIP3    H127609   4.427   0.530   5.793
 9222TIP3    H227610   4.379   0.465   5.664
 9223TIP3   OH227611   0.649   1.396   5.142
 9223TIP3    H127612   0.606   1.431   5.220
 9223TIP3    H227613   0.611   1.309   5.130
 9224TIP3   OH227614   0.708   4.758   4.963
 9224TIP3    H127615   0.655   4.827   4.923
 9224TIP3    H227616   0.649   4.683   4.971
 9225TIP3   OH227617   6.580   2.681   1.186
 9225TIP3    H127618   6.655   2.741   1.187
 9225TIP3    H227619   6.520   2.718   1.251
 9226TIP3   OH227620   2.445   3.605   4.876
 9226TIP3    H127621   2.389   3.569   4.944
 9226TIP3    H227622   2.534   3.603   4.913
 9227TIP3   OH227623   1.124   2.151   0.777
 9227TIP3    H127624   1.148   2.091   0.706
 9227TIP3    H227625   1.207   2.178   0.815
 9228TIP3   OH227626   3.231   4.660  -0.052
 9228TIP3    H127627   3.291   4.632   0.017
 9228TIP3    H227628   3.153   4.605  -0.040
 9229TIP3   OH227629   0.116   2.119   1.888
 9229TIP3    H127630   0.097   2.172   1.811
 9229TIP3    H227631   0.083   2.032   1.867
 9230TIP3   OH227632   4.072   2.237   5.863
 9230TIP3    H127633   4.120   2.218   5.783
 9230TIP3    H227634   4.094   2.165   5.923
 9231TIP3   OH227635   7.397   2.523   5.359
 9231TIP3    H127636   7.372   2.432   5.377
 9231TIP3    H227637   7.318   2.574   5.378
 9232TIP3   OH227638   7.890   7.311   4.469
 9232TIP3    H127639   7.832   7.325   4.394
 9232TIP3    H227640   7.943   7.391   4.474
 9233TIP3   OH227641   4.690   4.556   1.788
 9233TIP3    H127642   4.686   4.645   1.752
 9233TIP3    H227643   4.612   4.514   1.754
 9234TIP3   OH227644   4.869   0.387   1.036
 9234TIP3    H127645   4.874   0.380   1.131
 9234TIP3    H227646   4.847   0.479   1.020
 9235TIP3   OH227647   7.767   4.184   2.499
 9235TIP3    H127648   7.699   4.147   2.555
 9235TIP3    H227649   7.723   4.203   2.416
 9236TIP3   OH227650   2.380   3.402   5.901
 9236TIP3    H127651   2.366   3.309   5.921
 9236TIP3    H227652   2.320   3.449   5.959
 9237TIP3   OH227653   7.665   2.905   0.051
 9237TIP3    H127654   7.678   2.978  -0.010
 9237TIP3    H227655   7.583   2.926   0.095
 9238TIP3   OH227656   2.519   1.110   3.451
 9238TIP3    H127657   2.556   1.045   3.392
 9238TIP3    H227658   2.425   1.110   3.432
 9239TIP3   OH227659   0.732   5.489   0.568
 9239TIP3    H127660   0.713   5.429   0.640
 9239TIP3    H227661   0.695   5.573   0.596
 9240TIP3   OH227662   6.989   1.628   3.473
 9240TIP3    H127663   7.028   1.548   3.509
 9240TIP3    H227664   6.940   1.599   3.396
 9241TIP3   OH227665   0.729   3.739   2.843
 9241TIP3    H127666   0.795   3.717   2.907
 9241TIP3    H227667   0.740   3.833   2.827
 9242TIP3   OH227668   1.622   4.039   0.156
 9242TIP3    H127669   1.705   4.014   0.197
 9242TIP3    H227670   1.628   4.134   0.145
 9243TIP3   OH227671   1.694   5.912   6.015
 9243TIP3    H127672   1.774   5.949   6.051
 9243TIP3    H227673   1.722   5.861   5.940
 9244TIP3   OH227674   3.342   6.457   2.482
 9244TIP3    H127675   3.275   6.453   2.550
 9244TIP3    H227676   3.349   6.551   2.462
 9245TIP3   OH227677   7.720   3.395   5.285
 9245TIP3    H127678   7.716   3.360   5.196
 9245TIP3    H227679   7.806   3.438   5.289
 9246TIP3   OH227680   4.238   5.196   3.970
 9246TIP3    H127681   4.216   5.110   4.005
 9246TIP3    H227682   4.293   5.178   3.894
 9247TIP3   OH227683   0.304   2.390   0.030
 9247TIP3    H127684   0.355   2.430   0.100
 9247TIP3    H227685   0.245   2.459   0.000
 9248TIP3   OH227686   0.614   4.090   0.790
 9248TIP3    H127687   0.618   3.997   0.813
 9248TIP3    H227688   0.554   4.128   0.855
 9249TIP3   OH227689   2.264   0.016   6.410
 9249TIP3    H127690   2.267   0.106   6.442
 9249TIP3    H227691   2.205   0.019   6.335
 9250TIP3   OH227692   5.605   1.694   5.464
 9250TIP3    H127693   5.676   1.654   5.414
 9250TIP3    H227694   5.640   1.708   5.551
 9251TIP3   OH227695   0.503   5.953   5.749
 9251TIP3    H127696   0.538   5.865   5.737
 9251TIP3    H227697   0.428   5.941   5.808
 9252TIP3   OH227698   0.993   6.103   2.647
 9252TIP3    H127699   0.990   6.198   2.658
 9252TIP3    H227700   1.025   6.070   2.731
 9253TIP3   OH227701   3.433   4.792   6.141
 9253TIP3    H127702   3.503   4.759   6.084
 9253TIP3    H227703   3.471   4.789   6.229
 9254TIP3   OH227704   4.475   7.675   1.280
 9254TIP3    H127705   4.400   7.628   1.244
 9254TIP3    H227706   4.541   7.607   1.296
 9255TIP3   OH227707   0.934   3.433   0.216
 9255TIP3    H127708   0.875   3.428   0.141
 9255TIP3    H227709   0.876   3.436   0.292
 9256TIP3   OH227710   6.318   1.394   2.618
 9256TIP3    H127711   6.346   1.303   2.617
 9256TIP3    H227712   6.375   1.438   2.554
 9257TIP3   OH227713   4.104   4.785   3.232
 9257TIP3    H127714   4.012   4.775   3.210
 9257TIP3    H227715   4.127   4.873   3.201
 9258TIP3   OH227716   0.596   7.422   0.346
 9258TIP3    H127717   0.598   7.329   0.371
 9258TIP3    H227718   0.666   7.432   0.282
 9259TIP3   OH227719   1.189   0.259   1.766
 9259TIP3    H127720   1.208   0.352   1.773
 9259TIP3    H227721   1.177   0.244   1.672
 9260TIP3   OH227722   4.999   3.847   5.881
 9260TIP3    H127723   5.090   3.821   5.869
 9260TIP3    H227724   4.997   3.886   5.969
 9261TIP3   OH227725   1.588   4.145   5.243
 9261TIP3    H127726   1.567   4.202   5.169
 9261TIP3    H227727   1.519   4.162   5.307
 9262TIP3   OH227728   2.397   1.321   0.279
 9262TIP3    H127729   2.477   1.360   0.241
 9262TIP3    H227730   2.381   1.243   0.226
 9263TIP3   OH227731   1.282   3.870   2.833
 9263TIP3    H127732   1.284   3.912   2.919
 9263TIP3    H227733   1.278   3.942   2.771
 9264TIP3   OH227734   8.047   3.346   6.137
 9264TIP3    H127735   8.013   3.286   6.203
 9264TIP3    H227736   8.049   3.431   6.180
 9265TIP3   OH227737   0.590   5.744   2.039
 9265TIP3    H127738   0.498   5.720   2.026
 9265TIP3    H227739   0.590   5.840   2.039
 9266TIP3   OH227740   3.347   5.704   6.430
 9266TIP3    H127741   3.435   5.719   6.465
 9266TIP3    H227742   3.325   5.615   6.458
 9267TIP3   OH227743   1.890   2.240   4.919
 9267TIP3    H127744   1.928   2.321   4.884
 9267TIP3    H227745   1.940   2.224   5.000
 9268TIP3   OH227746   4.499   5.678   6.769
 9268TIP3    H127747   4.432   5.649   6.708
 9268TIP3    H227748   4.580   5.640   6.736
 9269TIP3   OH227749   7.754   1.623   6.505
 9269TIP3    H127750   7.829   1.569   6.531
 9269TIP3    H227751   7.678   1.570   6.527
 9270TIP3   OH227752   5.270   2.115   4.533
 9270TIP3    H127753   5.249   2.033   4.488
 9270TIP3    H227754   5.358   2.137   4.502
 9271TIP3   OH227755   6.818   6.331   0.603
 9271TIP3    H127756   6.752   6.269   0.573
 9271TIP3    H227757   6.849   6.374   0.523
 9272TIP3   OH227758   8.243   7.642   1.278
 9272TIP3    H127759   8.281   7.673   1.360
 9272TIP3    H227760   8.306   7.577   1.245
 9273TIP3   OH227761   7.471   0.381   0.908
 9273TIP3    H127762   7.453   0.310   0.847
 9273TIP3    H227763   7.403   0.446   0.890
 9274TIP3   OH227764   0.871   5.629   4.443
 9274TIP3    H127765   0.777   5.635   4.462
 9274TIP3    H227766   0.882   5.680   4.363
 9275TIP3   OH227767   4.436   7.099   4.188
 9275TIP3    H127768   4.403   7.058   4.108
 9275TIP3    H227769   4.493   7.033   4.228
 9276TIP3   OH227770   3.356   1.548   1.361
 9276TIP3    H127771   3.360   1.478   1.296
 9276TIP3    H227772   3.312   1.620   1.315
 9277TIP3   OH227773   1.694   5.363   4.545
 9277TIP3    H127774   1.766   5.425   4.556
 9277TIP3    H227775   1.636   5.405   4.481
 9278TIP3   OH227776   6.124   2.859   2.130
 9278TIP3    H127777   6.037   2.878   2.164
 9278TIP3    H227778   6.174   2.939   2.146
 9279TIP3   OH227779   4.535   3.996   0.977
 9279TIP3    H127780   4.519   3.904   0.954
 9279TIP3    H227781   4.473   4.045   0.924
 9280TIP3   OH227782   0.268   1.694   4.835
 9280TIP3    H127783   0.331   1.673   4.904
 9280TIP3    H227784   0.316   1.752   4.775
 9281TIP3   OH227785   3.600   7.530   5.059
 9281TIP3    H127786   3.611   7.459   4.996
 9281TIP3    H227787   3.679   7.583   5.050
 9282TIP3   OH227788   0.498   0.538   4.440
 9282TIP3    H127789   0.422   0.549   4.383
 9282TIP3    H227790   0.472   0.468   4.500
 9283TIP3   OH227791   6.007   4.568   4.626
 9283TIP3    H127792   5.923   4.525   4.611
 9283TIP3    H227793   6.027   4.551   4.718
 9284TIP3   OH227794   2.708   6.751   0.174
 9284TIP3    H127795   2.675   6.821   0.230
 9284TIP3    H227796   2.803   6.753   0.185
 9285TIP3   OH227797   3.672   3.147   0.655
 9285TIP3    H127798   3.700   3.116   0.741
 9285TIP3    H227799   3.721   3.093   0.593
 9286TIP3   OH227800   6.877   7.261   1.343
 9286TIP3    H127801   6.919   7.302   1.419
 9286TIP3    H227802   6.811   7.324   1.315
 9287TIP3   OH227803   4.599   1.845   3.712
 9287TIP3    H127804   4.672   1.801   3.668
 9287TIP3    H227805   4.523   1.824   3.658
 9288TIP3   OH227806   3.751   5.498   0.995
 9288TIP3    H127807   3.744   5.406   0.968
 9288TIP3    H227808   3.660   5.527   1.003
 9289TIP3   OH227809   2.876   3.565   0.260
 9289TIP3    H127810   2.789   3.594   0.288
 9289TIP3    H227811   2.930   3.644   0.265
 9290TIP3   OH227812   0.162   6.893   5.662
 9290TIP3    H127813   0.069   6.880   5.644
 9290TIP3    H227814   0.179   6.841   5.741
 9291TIP3   OH227815   4.587   5.832   0.532
 9291TIP3    H127816   4.593   5.767   0.462
 9291TIP3    H227817   4.665   5.887   0.520
 9292TIP3   OH227818   1.307   0.924   3.807
 9292TIP3    H127819   1.254   0.851   3.776
 9292TIP3    H227820   1.254   0.965   3.875
 9293TIP3   OH227821   5.336   0.053   3.292
 9293TIP3    H127822   5.406   0.090   3.345
 9293TIP3    H227823   5.353   0.086   3.204
 9294TIP3   OH227824   4.510   2.256   1.874
 9294TIP3    H127825   4.460   2.306   1.939
 9294TIP3    H227826   4.506   2.309   1.794
 9295TIP3   OH227827   1.755   1.005   3.516
 9295TIP3    H127828   1.765   0.912   3.496
 9295TIP3    H227829   1.772   1.011   3.610
 9296TIP3   OH227830   1.810   6.315   6.360
 9296TIP3    H127831   1.755   6.362   6.423
 9296TIP3    H227832   1.875   6.271   6.415
 9297TIP3   OH227833   5.776   5.844   2.605
 9297TIP3    H127834   5.731   5.765   2.635
 9297TIP3    H227835   5.779   5.900   2.683
 9298TIP3   OH227836   2.242   4.204   0.174
 9298TIP3    H127837   2.235   4.291   0.212
 9298TIP3    H227838   2.261   4.220   0.081
 9299TIP3   OH227839   2.419   1.663   5.473
 9299TIP3    H127840   2.473   1.593   5.510
 9299TIP3    H227841   2.329   1.637   5.494
 9300TIP3   OH227842   8.339   5.919   6.299
 9300TIP3    H127843   8.315   5.864   6.224
 9300TIP3    H227844   8.385   5.994   6.260
 9301TIP3   OH227845   7.853   1.508   4.270
 9301TIP3    H127846   7.928   1.540   4.221
 9301TIP3    H227847   7.876   1.418   4.293
 9302TIP3   OH227848   2.154   7.034   0.980
 9302TIP3    H127849   2.096   7.082   1.039
 9302TIP3    H227850   2.120   7.052   0.892
 9303TIP3   OH227851   5.246   2.906   4.265
 9303TIP3    H127852   5.208   2.981   4.218
 9303TIP3    H227853   5.195   2.902   4.346
 9304TIP3   OH227854   7.230   3.978   1.722
 9304TIP3    H127855   7.185   3.951   1.802
 9304TIP3    H227856   7.299   4.037   1.753
 9305TIP3   OH227857   1.970   7.633   5.478
 9305TIP3    H127858   1.936   7.683   5.404
 9305TIP3    H227859   2.057   7.605   5.450
 9306TIP3   OH227860   1.134   5.646   1.150
 9306TIP3    H127861   1.169   5.697   1.223
 9306TIP3    H227862   1.051   5.612   1.182
 9307TIP3   OH227863   3.000   0.420   2.144
 9307TIP3    H127864   2.925   0.386   2.192
 9307TIP3    H227865   2.985   0.514   2.137
 9308TIP3   OH227866   1.412   6.684   4.897
 9308TIP3    H127867   1.324   6.721   4.897
 9308TIP3    H227868   1.399   6.591   4.883
 9309TIP3   OH227869   2.087   3.402   3.929
 9309TIP3    H127870   2.162   3.460   3.918
 9309TIP3    H227871   2.012   3.453   3.898
 9310TIP3   OH227872   2.019   7.413   4.167
 9310TIP3    H127873   2.056   7.403   4.079
 9310TIP3    H227874   2.071   7.355   4.222
 9311TIP3   OH227875   6.592   4.356   4.752
 9311TIP3    H127876   6.584   4.364   4.657
 9311TIP3    H227877   6.685   4.338   4.767
 9312TIP3   OH227878   1.729   2.217   4.692
 9312TIP3    H127879   1.778   2.230   4.773
 9312TIP3    H227880   1.739   2.124   4.673
 9313TIP3   OH227881   8.150   6.142   6.115
 9313TIP3    H127882   8.153   6.169   6.023
 9313TIP3    H227883   8.104   6.058   6.114
 9314TIP3   OH227884   7.588   2.032   0.109
 9314TIP3    H127885   7.653   2.054   0.043
 9314TIP3    H227886   7.614   1.946   0.141
 9315TIP3   OH227887   7.054   1.289   5.436
 9315TIP3    H127888   6.964   1.322   5.442
 9315TIP3    H227889   7.052   1.229   5.361
 9316TIP3   OH227890   0.870   3.018   6.147
 9316TIP3    H127891   0.882   2.924   6.158
 9316TIP3    H227892   0.947   3.058   6.188
 9317TIP3   OH227893   4.578   4.413   4.724
 9317TIP3    H127894   4.509   4.354   4.695
 9317TIP3    H227895   4.556   4.433   4.815
 9318TIP3   OH227896   6.632   5.278   3.877
 9318TIP3    H127897   6.595   5.193   3.854
 9318TIP3    H227898   6.573   5.342   3.836
 9319TIP3   OH227899   6.442   3.845   5.431
 9319TIP3    H127900   6.389   3.818   5.506
 9319TIP3    H227901   6.522   3.882   5.470
 9320TIP3   OH227902   0.952   1.576   2.854
 9320TIP3    H127903   1.033   1.547   2.896
 9320TIP3    H227904   0.907   1.627   2.922
 9321TIP3   OH227905   3.827   0.861   1.455
 9321TIP3    H127906   3.741   0.876   1.494
 9321TIP3    H227907   3.816   0.781   1.403
 9322TIP3   OH227908   5.118   0.683   4.427
 9322TIP3    H127909   5.198   0.632   4.418
 9322TIP3    H227910   5.101   0.717   4.339
 9323TIP3   OH227911   7.245   7.551   3.150
 9323TIP3    H127912   7.209   7.462   3.151
 9323TIP3    H227913   7.205   7.592   3.074
 9324TIP3   OH227914   7.206   6.511   6.408
 9324TIP3    H127915   7.120   6.544   6.435
 9324TIP3    H227916   7.268   6.574   6.443
 9325TIP3   OH227917   5.743   1.468   4.079
 9325TIP3    H127918   5.715   1.555   4.109
 9325TIP3    H227919   5.676   1.442   4.016
 9326TIP3   OH227920   7.873   2.502   5.320
 9326TIP3    H127921   7.912   2.588   5.304
 9326TIP3    H227922   7.801   2.496   5.257
 9327TIP3   OH227923   3.951   1.103   2.341
 9327TIP3    H127924   4.006   1.180   2.347
 9327TIP3    H227925   3.891   1.110   2.415
 9328TIP3   OH227926   2.382   7.132   5.547
 9328TIP3    H127927   2.417   7.119   5.459
 9328TIP3    H227928   2.434   7.204   5.583
 9329TIP3   OH227929   7.983   0.572   3.205
 9329TIP3    H127930   8.043   0.507   3.168
 9329TIP3    H227931   7.899   0.553   3.164
 9330TIP3   OH227932   2.480   0.409   1.063
 9330TIP3    H127933   2.549   0.358   1.106
 9330TIP3    H227934   2.514   0.498   1.059
 9331TIP3   OH227935   4.649   0.291   5.401
 9331TIP3    H127936   4.744   0.283   5.388
 9331TIP3    H227937   4.615   0.204   5.380
 9332TIP3   OH227938   5.158   2.786   3.917
 9332TIP3    H127939   5.165   2.691   3.921
 9332TIP3    H227940   5.110   2.803   3.836
 9333TIP3   OH227941   4.361   7.044   0.145
 9333TIP3    H127942   4.409   7.119   0.111
 9333TIP3    H227943   4.429   6.980   0.168
 9334TIP3   OH227944   6.735   0.969   1.331
 9334TIP3    H127945   6.663   0.987   1.270
 9334TIP3    H227946   6.814   0.993   1.282
 9335TIP3   OH227947   3.657   1.723   6.229
 9335TIP3    H127948   3.753   1.714   6.229
 9335TIP3    H227949   3.635   1.742   6.320
 9336TIP3   OH227950   7.150   6.693   2.852
 9336TIP3    H127951   7.072   6.699   2.907
 9336TIP3    H227952   7.216   6.747   2.896
 9337TIP3   OH227953   6.898   5.502   1.125
 9337TIP3    H127954   6.862   5.472   1.208
 9337TIP3    H227955   6.915   5.421   1.076
 9338TIP3   OH227956   1.175   4.525   4.048
 9338TIP3    H127957   1.109   4.577   4.094
 9338TIP3    H227958   1.125   4.465   3.993
 9339TIP3   OH227959   1.978   7.609   6.378
 9339TIP3    H127960   2.058   7.564   6.405
 9339TIP3    H227961   1.908   7.560   6.422
 9340TIP3   OH227962   3.164   7.147   5.643
 9340TIP3    H127963   3.110   7.226   5.635
 9340TIP3    H227964   3.151   7.102   5.560
 9341TIP3   OH227965   3.626   1.713   3.913
 9341TIP3    H127966   3.682   1.676   3.980
 9341TIP3    H227967   3.571   1.640   3.884
 9342TIP3   OH227968   6.426   0.303   2.264
 9342TIP3    H127969   6.473   0.229   2.302
 9342TIP3    H227970   6.445   0.297   2.170
 9343TIP3   OH227971   7.413   6.336   4.330
 9343TIP3    H127972   7.361   6.292   4.263
 9343TIP3    H227973   7.417   6.427   4.302
 9344TIP3   OH227974   6.379   3.302   6.516
 9344TIP3    H127975   6.320   3.329   6.586
 9344TIP3    H227976   6.379   3.206   6.520
 9345TIP3   OH227977   2.909   4.060   6.210
 9345TIP3    H127978   2.825   4.020   6.188
 9345TIP3    H227979   2.914   4.053   6.306
 9346TIP3   OH227980   5.402   0.958   3.851
 9346TIP3    H127981   5.315   0.985   3.820
 9346TIP3    H227982   5.385   0.914   3.934
 9347TIP3   OH227983   0.667   0.876   3.311
 9347TIP3    H127984   0.735   0.815   3.341
 9347TIP3    H227985   0.637   0.919   3.391
 9348TIP3   OH227986   2.036   0.210   1.627
 9348TIP3    H127987   2.091   0.214   1.548
 9348TIP3    H227988   2.097   0.186   1.697
 9349TIP3   OH227989   1.422   1.804   0.138
 9349TIP3    H127990   1.346   1.746   0.130
 9349TIP3    H227991   1.495   1.755   0.102
 9350TIP3   OH227992   6.243   5.730   2.073
 9350TIP3    H127993   6.236   5.796   2.142
 9350TIP3    H227994   6.334   5.737   2.043
 9351TIP3   OH227995   0.145   6.972   4.219
 9351TIP3    H127996   0.218   6.981   4.159
 9351TIP3    H227997   0.117   6.881   4.209
 9352TIP3   OH227998   6.781   0.646   3.337
 9352TIP3    H127999   6.873   0.649   3.364
 9352TIP3    H228000   6.732   0.630   3.418
 9353TIP3   OH228001   7.950   6.174   0.433
 9353TIP3    H128002   7.997   6.253   0.460
 9353TIP3    H228003   7.858   6.194   0.451
 9354TIP3   OH228004   3.723   0.613   5.963
 9354TIP3    H128005   3.716   0.587   6.054
 9354TIP3    H228006   3.696   0.536   5.913
 9355TIP3   OH228007   7.404   7.797   4.149
 9355TIP3    H128008   7.483   7.771   4.196
 9355TIP3    H228009   7.404   7.742   4.071
 9356TIP3   OH228010   1.974   3.181   0.092
 9356TIP3    H128011   1.965   3.140   0.006
 9356TIP3    H228012   2.032   3.255   0.077
 9357TIP3   OH228013   2.681   4.738   2.636
 9357TIP3    H128014   2.763   4.690   2.636
 9357TIP3    H228015   2.706   4.829   2.652
 9358TIP3   OH228016   7.559   4.373   3.744
 9358TIP3    H128017   7.490   4.307   3.749
 9358TIP3    H228018   7.594   4.364   3.656
 9359TIP3   OH228019   4.478   2.101   5.845
 9359TIP3    H128020   4.495   2.169   5.779
 9359TIP3    H228021   4.407   2.049   5.808
 9360TIP3   OH228022   3.772   2.974   1.368
 9360TIP3    H128023   3.748   3.013   1.452
 9360TIP3    H228024   3.736   2.885   1.371
 9361TIP3   OH228025   0.421   4.455   5.927
 9361TIP3    H128026   0.446   4.513   5.856
 9361TIP3    H228027   0.348   4.404   5.892
 9362TIP3   OH228028   6.541   4.350   1.622
 9362TIP3    H128029   6.524   4.342   1.715
 9362TIP3    H228030   6.490   4.426   1.594
 9363TIP3   OH228031   3.410   2.873   3.103
 9363TIP3    H128032   3.333   2.892   3.156
 9363TIP3    H228033   3.443   2.959   3.076
 9364TIP3   OH228034   3.280   3.293   3.771
 9364TIP3    H128035   3.275   3.318   3.863
 9364TIP3    H228036   3.368   3.318   3.744
 9365TIP3   OH228037   4.337   4.540   1.051
 9365TIP3    H128038   4.399   4.611   1.034
 9365TIP3    H228039   4.380   4.485   1.116
 9366TIP3   OH228040   8.113   1.895   6.651
 9366TIP3    H128041   8.045   1.879   6.586
 9366TIP3    H228042   8.072   1.954   6.714
 9367TIP3   OH228043   5.408   4.073   3.485
 9367TIP3    H128044   5.383   4.107   3.572
 9367TIP3    H228045   5.498   4.044   3.496
 9368TIP3   OH228046   4.652   0.967   2.245
 9368TIP3    H128047   4.723   1.022   2.211
 9368TIP3    H228048   4.582   1.029   2.265
 9369TIP3   OH228049   5.806   6.747   1.508
 9369TIP3    H128050   5.726   6.707   1.542
 9369TIP3    H228051   5.827   6.696   1.430
 9370TIP3   OH228052   2.085   6.686   4.625
 9370TIP3    H128053   2.038   6.769   4.628
 9370TIP3    H228054   2.175   6.710   4.605
 9371TIP3   OH228055   4.420   0.639   5.284
 9371TIP3    H128056   4.350   0.626   5.220
 9371TIP3    H228057   4.386   0.704   5.345
 9372TIP3   OH228058   0.302   1.624   4.532
 9372TIP3    H128059   0.382   1.581   4.500
 9372TIP3    H228060   0.333   1.705   4.572
 9373TIP3   OH228061   0.509   4.392   2.322
 9373TIP3    H128062   0.422   4.379   2.360
 9373TIP3    H228063   0.524   4.486   2.328
 9374TIP3   OH228064   1.805   4.636   4.332
 9374TIP3    H128065   1.770   4.631   4.243
 9374TIP3    H228066   1.744   4.693   4.378
 9375TIP3   OH228067   3.856   5.662   3.628
 9375TIP3    H128068   3.911   5.694   3.556
 9375TIP3    H228069   3.911   5.667   3.705
 9376TIP3   OH228070   4.173   6.171   5.508
 9376TIP3    H128071   4.218   6.238   5.456
 9376TIP3    H228072   4.082   6.201   5.511
 9377TIP3   OH228073   3.243   5.365   2.153
 9377TIP3    H128074   3.214   5.329   2.069
 9377TIP3    H228075   3.163   5.377   2.203
 9378TIP3   OH228076   2.318   4.456   2.515
 9378TIP3    H128077   2.239   4.423   2.558
 9378TIP3    H228078   2.348   4.382   2.462
 9379TIP3   OH228079   6.985   4.793   2.868
 9379TIP3    H128080   6.932   4.713   2.873
 9379TIP3    H228081   6.973   4.835   2.953
 9380TIP3   OH228082   3.902   3.954   3.667
 9380TIP3    H128083   3.831   3.917   3.613
 9380TIP3    H228084   3.871   3.942   3.757
 9381TIP3   OH228085   7.915   2.666   1.671
 9381TIP3    H128086   7.825   2.656   1.702
 9381TIP3    H228087   7.913   2.635   1.581
 9382TIP3   OH228088   6.376   4.138   5.081
 9382TIP3    H128089   6.369   4.118   4.987
 9382TIP3    H228090   6.386   4.053   5.123
 9383TIP3   OH228091   2.635   1.293   1.959
 9383TIP3    H128092   2.643   1.270   2.051
 9383TIP3    H228093   2.541   1.300   1.944
 9384TIP3   OH228094   1.528   4.604   6.076
 9384TIP3    H128095   1.450   4.601   6.021
 9384TIP3    H228096   1.563   4.692   6.063
 9385TIP3   OH228097   7.327   0.461   5.273
 9385TIP3    H128098   7.310   0.539   5.220
 9385TIP3    H228099   7.423   0.452   5.272
 9386TIP3   OH228100   2.157   7.686   3.855
 9386TIP3    H128101   2.085   7.648   3.805
 9386TIP3    H228102   2.235   7.641   3.823
 9387TIP3   OH228103   1.119   3.478   2.859
 9387TIP3    H128104   1.160   3.413   2.802
 9387TIP3    H228105   1.192   3.520   2.904
 9388TIP3   OH228106   6.014   0.449   0.051
 9388TIP3    H128107   6.053   0.362   0.040
 9388TIP3    H228108   5.921   0.436   0.031
 9389TIP3   OH228109   0.789   3.133   0.119
 9389TIP3    H128110   0.877   3.101   0.137
 9389TIP3    H228111   0.796   3.180   0.036
 9390TIP3   OH228112   2.514   1.050   3.761
 9390TIP3    H128113   2.432   1.009   3.732
 9390TIP3    H228114   2.518   1.133   3.713
 9391TIP3   OH228115   1.900   2.229   2.891
 9391TIP3    H128116   1.875   2.137   2.877
 9391TIP3    H228117   1.901   2.267   2.803
 9392TIP3   OH228118   6.089   0.924   5.406
 9392TIP3    H128119   6.033   0.894   5.477
 9392TIP3    H228120   6.154   0.980   5.449
 9393TIP3   OH228121   6.118   7.323   6.442
 9393TIP3    H128122   6.121   7.409   6.484
 9393TIP3    H228123   6.025   7.307   6.428
 9394TIP3   OH228124   3.080   3.801   3.865
 9394TIP3    H128125   3.044   3.871   3.809
 9394TIP3    H228126   3.017   3.729   3.857
 9395TIP3   OH228127   8.056   6.136   3.349
 9395TIP3    H128128   7.971   6.103   3.321
 9395TIP3    H228129   8.035   6.203   3.413
 9396TIP3   OH228130   6.032   2.434   0.907
 9396TIP3    H128131   6.119   2.452   0.870
 9396TIP3    H228132   6.010   2.348   0.873
 9397TIP3   OH228133   4.392   4.444   3.506
 9397TIP3    H128134   4.339   4.433   3.427
 9397TIP3    H228135   4.331   4.428   3.578
 9398TIP3   OH228136   2.819   4.969   0.910
 9398TIP3    H128137   2.803   4.903   0.842
 9398TIP3    H228138   2.872   4.923   0.976
 9399TIP3   OH228139   4.973   2.869   4.091
 9399TIP3    H128140   5.034   2.834   4.026
 9399TIP3    H228141   4.994   2.823   4.172
 9400TIP3   OH228142   4.174   0.080   1.005
 9400TIP3    H128143   4.253   0.033   0.980
 9400TIP3    H228144   4.204   0.146   1.068
 9401TIP3   OH228145   5.956   0.109   4.129
 9401TIP3    H128146   5.935   0.024   4.091
 9401TIP3    H228147   6.017   0.148   4.067
 9402TIP3   OH228148   0.212   7.263   4.485
 9402TIP3    H128149   0.155   7.228   4.417
 9402TIP3    H228150   0.250   7.186   4.527
 9403TIP3   OH228151   4.395   4.298   1.224
 9403TIP3    H128152   4.300   4.303   1.232
 9403TIP3    H228153   4.414   4.205   1.218
 9404TIP3   OH228154   3.879   0.238   3.550
 9404TIP3    H128155   3.967   0.200   3.555
 9404TIP3    H228156   3.884   0.319   3.601
 9405TIP3   OH228157   5.275   3.542   5.042
 9405TIP3    H128158   5.344   3.537   5.108
 9405TIP3    H228159   5.257   3.451   5.019
 9406TIP3   OH228160   4.984   6.000   6.518
 9406TIP3    H128161   4.938   5.971   6.597
 9406TIP3    H228162   4.938   5.956   6.447
 9407TIP3   OH228163   1.999   0.710   2.739
 9407TIP3    H128164   1.951   0.791   2.750
 9407TIP3    H228165   2.009   0.675   2.828
 9408TIP3   OH228166   2.055   6.600   2.717
 9408TIP3    H128167   2.145   6.592   2.751
 9408TIP3    H228168   2.034   6.513   2.683
 9409TIP3   OH228169   8.219   4.581   4.247
 9409TIP3    H128170   8.150   4.542   4.193
 9409TIP3    H228171   8.295   4.585   4.189
 9410TIP3   OH228172   5.362   6.434   4.097
 9410TIP3    H128173   5.366   6.428   4.002
 9410TIP3    H228174   5.434   6.379   4.128
 9411TIP3   OH228175   5.058   0.208   5.622
 9411TIP3    H128176   5.090   0.276   5.563
 9411TIP3    H228177   4.972   0.185   5.588
 9412TIP3   OH228178   5.739   1.947   5.780
 9412TIP3    H128179   5.828   1.913   5.778
 9412TIP3    H228180   5.683   1.870   5.783
 9413TIP3   OH228181   0.617   3.815   0.805
 9413TIP3    H128182   0.541   3.804   0.748
 9413TIP3    H228183   0.604   3.751   0.875
 9414TIP3   OH228184   2.806   1.219   6.554
 9414TIP3    H128185   2.719   1.180   6.545
 9414TIP3    H228186   2.790   1.314   6.550
 9415TIP3   OH228187   3.550   4.702   6.771
 9415TIP3    H128188   3.613   4.743   6.712
 9415TIP3    H228189   3.483   4.666   6.713
 9416TIP3   OH228190   4.232   6.889   6.669
 9416TIP3    H128191   4.272   6.815   6.715
 9416TIP3    H228192   4.162   6.849   6.618
 9417TIP3   OH228193   2.312   0.491   3.204
 9417TIP3    H128194   2.365   0.561   3.242
 9417TIP3    H228195   2.375   0.436   3.158
 9418TIP3   OH228196   0.990   6.798   2.767
 9418TIP3    H128197   0.902   6.834   2.751
 9418TIP3    H228198   1.014   6.755   2.685
 9419TIP3   OH228199   0.424   0.243   6.660
 9419TIP3    H128200   0.518   0.260   6.656
 9419TIP3    H228201   0.386   0.327   6.685
 9420TIP3   OH228202   6.471   1.096   2.006
 9420TIP3    H128203   6.380   1.123   2.018
 9420TIP3    H228204   6.471   1.051   1.921
 9421TIP3   OH228205   5.027   1.795   5.683
 9421TIP3    H128206   5.037   1.721   5.742
 9421TIP3    H228207   5.113   1.805   5.643
 9422TIP3   OH228208   8.272   1.778   0.100
 9422TIP3    H128209   8.352   1.828   0.087
 9422TIP3    H228210   8.243   1.754   0.012
 9423TIP3   OH228211   4.872   4.861   2.727
 9423TIP3    H128212   4.957   4.829   2.757
 9423TIP3    H228213   4.892   4.941   2.679
 9424TIP3   OH228214   3.121   4.168   3.030
 9424TIP3    H128215   3.078   4.141   2.949
 9424TIP3    H228216   3.185   4.234   3.003
 9425TIP3   OH228217   0.649   0.365   0.872
 9425TIP3    H128218   0.656   0.356   0.967
 9425TIP3    H228219   0.555   0.355   0.855
 9426TIP3   OH228220   7.729   7.291   3.866
 9426TIP3    H128221   7.801   7.344   3.832
 9426TIP3    H228222   7.650   7.335   3.834
 9427TIP3   OH228223   8.168   3.986   1.311
 9427TIP3    H128224   8.218   4.063   1.285
 9427TIP3    H228225   8.176   3.925   1.238
 9428TIP3   OH228226   7.025   2.743   4.551
 9428TIP3    H128227   6.958   2.785   4.605
 9428TIP3    H228228   7.053   2.667   4.602
 9429TIP3   OH228229   4.472   5.319   0.173
 9429TIP3    H128230   4.456   5.334   0.080
 9429TIP3    H228231   4.564   5.340   0.185
 9430TIP3   OH228232   0.838   6.063   0.410
 9430TIP3    H128233   0.920   6.014   0.422
 9430TIP3    H228234   0.864   6.155   0.418
 9431TIP3   OH228235   1.532   2.648   2.044
 9431TIP3    H128236   1.538   2.680   2.134
 9431TIP3    H228237   1.441   2.661   2.019
 9432TIP3   OH228238   0.218   2.972   0.995
 9432TIP3    H128239   0.249   2.974   1.086
 9432TIP3    H228240   0.278   3.030   0.948
 9433TIP3   OH228241   1.610   2.783   0.032
 9433TIP3    H128242   1.651   2.771   0.118
 9433TIP3    H228243   1.647   2.713  -0.022
 9434TIP3   OH228244   4.112   0.484   0.239
 9434TIP3    H128245   4.204   0.458   0.231
 9434TIP3    H228246   4.084   0.448   0.323
 9435TIP3   OH228247   5.936   6.734   6.202
 9435TIP3    H128248   5.895   6.701   6.122
 9435TIP3    H228249   5.890   6.689   6.273
 9436TIP3   OH228250   2.086   4.827   0.473
 9436TIP3    H128251   2.071   4.896   0.538
 9436TIP3    H228252   2.181   4.812   0.476
 9437TIP3   OH228253   3.989   1.917   1.369
 9437TIP3    H128254   4.001   1.904   1.275
 9437TIP3    H228255   3.937   1.843   1.398
 9438TIP3   OH228256   7.010   4.129   0.504
 9438TIP3    H128257   7.099   4.132   0.469
 9438TIP3    H228258   6.999   4.213   0.549
 9439TIP3   OH228259   6.018   3.001   2.889
 9439TIP3    H128260   6.080   2.929   2.902
 9439TIP3    H228261   6.018   3.048   2.972
 9440TIP3   OH228262   0.982   2.135   4.703
 9440TIP3    H128263   1.014   2.152   4.792
 9440TIP3    H228264   1.027   2.199   4.649
 9441TIP3   OH228265   2.022   7.548   0.828
 9441TIP3    H128266   1.932   7.556   0.860
 9441TIP3    H228267   2.076   7.562   0.906
 9442TIP3   OH228268   1.890   5.891   5.397
 9442TIP3    H128269   1.898   5.975   5.351
 9442TIP3    H228270   1.819   5.846   5.352
 9443TIP3   OH228271   0.237   7.688   4.056
 9443TIP3    H128272   0.215   7.733   3.974
 9443TIP3    H228273   0.264   7.601   4.029
 9444TIP3   OH228274   2.619   1.936   5.320
 9444TIP3    H128275   2.711   1.950   5.295
 9444TIP3    H228276   2.622   1.913   5.412
 9445TIP3   OH228277   3.244   3.422   4.273
 9445TIP3    H128278   3.320   3.399   4.327
 9445TIP3    H228279   3.169   3.382   4.318
 9446TIP3   OH228280   3.743   7.126   5.149
 9446TIP3    H128281   3.678   7.188   5.183
 9446TIP3    H228282   3.823   7.146   5.198
 9447TIP3   OH228283   0.036   7.201   5.948
 9447TIP3    H128284   0.032   7.159   6.034
 9447TIP3    H228285   0.129   7.202   5.926
 9448TIP3   OH228286   2.523   2.045   3.980
 9448TIP3    H128287   2.565   2.005   4.057
 9448TIP3    H228288   2.435   2.007   3.978
 9449TIP3   OH228289   8.307   0.285   6.455
 9449TIP3    H128290   8.279   0.271   6.365
 9449TIP3    H228291   8.401   0.302   6.449
 9450TIP3   OH228292   1.091   0.888   2.462
 9450TIP3    H128293   1.015   0.946   2.469
 9450TIP3    H228294   1.123   0.881   2.552
 9451TIP3   OH228295   1.854   5.195   2.270
 9451TIP3    H128296   1.833   5.177   2.362
 9451TIP3    H228297   1.838   5.288   2.259
 9452TIP3   OH228298   1.572   6.283   0.598
 9452TIP3    H128299   1.600   6.374   0.600
 9452TIP3    H228300   1.620   6.242   0.670
 9453TIP3   OH228301   6.675   3.932   3.139
 9453TIP3    H128302   6.588   3.971   3.136
 9453TIP3    H228303   6.682   3.894   3.226
 9454TIP3   OH228304   6.257   1.601   3.194
 9454TIP3    H128305   6.332   1.568   3.146
 9454TIP3    H228306   6.262   1.557   3.279
 9455TIP3   OH228307   2.289   1.146   2.673
 9455TIP3    H128308   2.287   1.086   2.598
 9455TIP3    H228309   2.260   1.092   2.747
 9456TIP3   OH228310   6.823   3.673   5.110
 9456TIP3    H128311   6.869   3.606   5.161
 9456TIP3    H228312   6.851   3.756   5.148
 9457TIP3   OH228313   3.287   4.963   3.884
 9457TIP3    H128314   3.354   4.955   3.952
 9457TIP3    H228315   3.243   5.046   3.904
 9458TIP3   OH228316   3.301   5.814   1.742
 9458TIP3    H128317   3.386   5.770   1.743
 9458TIP3    H228318   3.315   5.893   1.690
 9459TIP3   OH228319   3.835   1.116   2.604
 9459TIP3    H128320   3.854   1.143   2.694
 9459TIP3    H228321   3.744   1.143   2.589
 9460TIP3   OH228322   0.822   5.669   3.033
 9460TIP3    H128323   0.842   5.761   3.048
 9460TIP3    H228324   0.823   5.630   3.120
 9461TIP3   OH228325   7.746   3.496   2.666
 9461TIP3    H128326   7.676   3.539   2.714
 9461TIP3    H228327   7.720   3.404   2.661
 9462TIP3   OH228328   5.253   2.328   4.714
 9462TIP3    H128329   5.246   2.275   4.634
 9462TIP3    H228330   5.305   2.275   4.774
 9463TIP3   OH228331   3.316   1.060   2.535
 9463TIP3    H128332   3.363   0.997   2.590
 9463TIP3    H228333   3.233   1.017   2.515
 9464TIP3   OH228334   3.425   2.736   6.675
 9464TIP3    H128335   3.359   2.693   6.729
 9464TIP3    H228336   3.413   2.829   6.693
 9465TIP3   OH228337   2.987   2.756   1.551
 9465TIP3    H128338   3.054   2.819   1.524
 9465TIP3    H228339   2.998   2.749   1.646
 9466TIP3   OH228340   7.920   4.338   0.159
 9466TIP3    H128341   7.913   4.398   0.085
 9466TIP3    H228342   7.916   4.251   0.119
 9467TIP3   OH228343   7.728   6.154   1.178
 9467TIP3    H128344   7.708   6.103   1.256
 9467TIP3    H228345   7.759   6.238   1.211
 9468TIP3   OH228346   5.338   7.244   2.283
 9468TIP3    H128347   5.377   7.177   2.339
 9468TIP3    H228348   5.259   7.203   2.247
 9469TIP3   OH228349   1.725   1.582   2.992
 9469TIP3    H128350   1.690   1.498   2.963
 9469TIP3    H228351   1.815   1.562   3.019
 9470TIP3   OH228352   6.421   0.965   0.665
 9470TIP3    H128353   6.338   1.002   0.638
 9470TIP3    H228354   6.486   1.003   0.605
 9471TIP3   OH228355   3.865   7.346   6.249
 9471TIP3    H128356   3.897   7.298   6.325
 9471TIP3    H228357   3.867   7.438   6.276
 9472TIP3   OH228358   2.999   6.184   3.667
 9472TIP3    H128359   3.045   6.243   3.727
 9472TIP3    H228360   3.048   6.189   3.585
 9473TIP3   OH228361   7.766   7.033   4.934
 9473TIP3    H128362   7.717   6.964   4.890
 9473TIP3    H228363   7.771   7.104   4.870
 9474TIP3   OH228364   0.107   3.454   2.550
 9474TIP3    H128365   0.171   3.449   2.622
 9474TIP3    H228366   0.052   3.529   2.572
 9475TIP3   OH228367   0.539   3.438   1.792
 9475TIP3    H128368   0.613   3.397   1.837
 9475TIP3    H228369   0.465   3.381   1.811
 9476TIP3   OH228370   7.463   6.783   5.419
 9476TIP3    H128371   7.380   6.830   5.410
 9476TIP3    H228372   7.477   6.776   5.514
 9477TIP3   OH228373   3.233   1.362   5.536
 9477TIP3    H128374   3.177   1.358   5.614
 9477TIP3    H228375   3.300   1.295   5.552
 9478TIP3   OH228376   7.835   7.133   6.634
 9478TIP3    H128377   7.892   7.120   6.710
 9478TIP3    H228378   7.773   7.200   6.663
 9479TIP3   OH228379   3.141   5.204   3.956
 9479TIP3    H128380   3.171   5.292   3.933
 9479TIP3    H228381   3.063   5.190   3.902
 9480TIP3   OH228382   7.249   3.885   2.708
 9480TIP3    H128383   7.310   3.824   2.666
 9480TIP3    H228384   7.241   3.853   2.798
 9481TIP3   OH228385   0.844   6.681   6.670
 9481TIP3    H128386   0.754   6.678   6.702
 9481TIP3    H228387   0.865   6.591   6.647
 9482TIP3   OH228388   4.235   6.835   4.693
 9482TIP3    H128389   4.167   6.890   4.731
 9482TIP3    H228390   4.273   6.888   4.623
 9483TIP3   OH228391   0.153   0.977   6.763
 9483TIP3    H128392   0.124   1.021   6.843
 9483TIP3    H228393   0.082   0.915   6.743
 9484TIP3   OH228394   0.296   4.973   4.826
 9484TIP3    H128395   0.216   4.995   4.778
 9484TIP3    H228396   0.273   4.892   4.873
 9485TIP3   OH228397   5.305   7.864   2.165
 9485TIP3    H128398   5.266   7.807   2.099
 9485TIP3    H228399   5.343   7.804   2.229
 9486TIP3   OH228400   3.535   4.943   4.018
 9486TIP3    H128401   3.561   4.888   3.945
 9486TIP3    H228402   3.590   5.020   4.012
 9487TIP3   OH228403   3.083   3.565   6.727
 9487TIP3    H128404   3.115   3.530   6.644
 9487TIP3    H228405   2.991   3.585   6.711
 9488TIP3   OH228406   3.924   0.195   0.116
 9488TIP3    H128407   3.996   0.251   0.087
 9488TIP3    H228408   3.868   0.251   0.169
 9489TIP3   OH228409   4.250   2.414   5.646
 9489TIP3    H128410   4.265   2.322   5.626
 9489TIP3    H228411   4.332   2.457   5.619
 9490TIP3   OH228412   8.108   0.433   5.687
 9490TIP3    H128413   8.119   0.411   5.595
 9490TIP3    H228414   8.016   0.458   5.695
 9491TIP3   OH228415   0.898   4.849   2.288
 9491TIP3    H128416   0.814   4.807   2.307
 9491TIP3    H228417   0.963   4.792   2.331
 9492TIP3   OH228418   0.617   4.565   2.591
 9492TIP3    H128419   0.691   4.624   2.605
 9492TIP3    H228420   0.653   4.492   2.541
 9493TIP3   OH228421   4.621   6.871   1.038
 9493TIP3    H128422   4.635   6.964   1.024
 9493TIP3    H228423   4.573   6.842   0.960
 9494TIP3   OH228424   1.369   2.927   0.485
 9494TIP3    H128425   1.369   2.953   0.577
 9494TIP3    H228426   1.415   2.843   0.484
 9495TIP3   OH228427   4.942   5.774   3.216
 9495TIP3    H128428   4.969   5.693   3.171
 9495TIP3    H228429   5.024   5.821   3.231
 9496TIP3   OH228430   6.317   0.318   0.283
 9496TIP3    H128431   6.276   0.262   0.349
 9496TIP3    H228432   6.314   0.406   0.322
 9497TIP3   OH228433   6.162   6.309   1.388
 9497TIP3    H128434   6.255   6.333   1.389
 9497TIP3    H228435   6.140   6.292   1.479
 9498TIP3   OH228436   1.227   0.751   3.412
 9498TIP3    H128437   1.187   0.730   3.496
 9498TIP3    H228438   1.219   0.671   3.361
 9499TIP3   OH228439   5.093   6.451   1.788
 9499TIP3    H128440   5.004   6.459   1.823
 9499TIP3    H228441   5.148   6.487   1.857
 9500TIP3   OH228442   0.233   1.646   0.328
 9500TIP3    H128443   0.260   1.731   0.293
 9500TIP3    H228444   0.315   1.598   0.341
 9501TIP3   OH228445   1.675   6.553   4.797
 9501TIP3    H128446   1.763   6.573   4.767
 9501TIP3    H228447   1.619   6.612   4.746
 9502TIP3   OH228448   6.079   3.898   4.530
 9502TIP3    H128449   6.111   3.905   4.440
 9502TIP3    H228450   5.997   3.948   4.529
 9503TIP3   OH228451   3.075   4.291   6.396
 9503TIP3    H128452   2.985   4.299   6.427
 9503TIP3    H228453   3.099   4.201   6.416
 9504TIP3   OH228454   3.130   6.395   3.825
 9504TIP3    H128455   3.111   6.329   3.892
 9504TIP3    H228456   3.090   6.475   3.858
 9505TIP3   OH228457   5.160   1.691   1.531
 9505TIP3    H128458   5.234   1.745   1.558
 9505TIP3    H228459   5.089   1.753   1.516
 9506TIP3   OH228460   6.821   4.536   5.237
 9506TIP3    H128461   6.820   4.501   5.148
 9506TIP3    H228462   6.820   4.631   5.226
 9507TIP3   OH228463   2.643   3.886   6.540
 9507TIP3    H128464   2.595   3.965   6.564
 9507TIP3    H228465   2.717   3.883   6.602
 9508TIP3   OH228466   5.851   6.495   5.579
 9508TIP3    H128467   5.836   6.510   5.485
 9508TIP3    H228468   5.799   6.417   5.599
 9509TIP3   OH228469   0.731   1.461   4.145
 9509TIP3    H128470   0.806   1.479   4.202
 9509TIP3    H228471   0.710   1.546   4.107
 9510TIP3   OH228472   2.381   3.543   6.258
 9510TIP3    H128473   2.309   3.555   6.196
 9510TIP3    H228474   2.453   3.510   6.204
 9511TIP3   OH228475   0.272   6.955   0.365
 9511TIP3    H128476   0.234   6.890   0.425
 9511TIP3    H228477   0.355   6.917   0.337
 9512TIP3   OH228478   1.101   6.389   5.805
 9512TIP3    H128479   1.153   6.357   5.731
 9512TIP3    H228480   1.029   6.326   5.812
 9513TIP3   OH228481   7.077   1.198   5.192
 9513TIP3    H128482   7.145   1.261   5.216
 9513TIP3    H228483   7.049   1.225   5.105
 9514TIP3   OH228484   4.255   2.066   2.154
 9514TIP3    H128485   4.189   2.002   2.181
 9514TIP3    H228486   4.212   2.119   2.087
 9515TIP3   OH228487   2.861   0.318   1.910
 9515TIP3    H128488   2.904   0.375   1.974
 9515TIP3    H228489   2.783   0.367   1.884
 9516TIP3   OH228490   3.827   5.518   0.607
 9516TIP3    H128491   3.882   5.595   0.595
 9516TIP3    H228492   3.864   5.473   0.683
 9517TIP3   OH228493   5.005   1.882   6.350
 9517TIP3    H128494   4.924   1.873   6.401
 9517TIP3    H228495   5.055   1.950   6.395
 9518TIP3   OH228496   1.349   6.286   2.924
 9518TIP3    H128497   1.322   6.314   2.837
 9518TIP3    H228498   1.290   6.333   2.984
 9519TIP3   OH228499   3.269   1.055   4.242
 9519TIP3    H128500   3.250   1.109   4.165
 9519TIP3    H228501   3.199   0.990   4.243
 9520TIP3   OH228502   7.894   6.250   6.483
 9520TIP3    H128503   7.921   6.163   6.511
 9520TIP3    H228504   7.965   6.281   6.426
 9521TIP3   OH228505   3.837   7.618   4.714
 9521TIP3    H128506   3.884   7.566   4.780
 9521TIP3    H228507   3.886   7.605   4.633
 9522TIP3   OH228508   8.067   6.272   2.962
 9522TIP3    H128509   8.007   6.214   2.914
 9522TIP3    H228510   8.149   6.223   2.966
 9523TIP3   OH228511   7.925   3.413   1.243
 9523TIP3    H128512   7.883   3.435   1.326
 9523TIP3    H228513   8.018   3.401   1.265
 9524TIP3   OH228514   1.945   6.605   6.697
 9524TIP3    H128515   1.977   6.642   6.615
 9524TIP3    H228516   1.909   6.679   6.745
 9525TIP3   OH228517   3.184   6.291   4.470
 9525TIP3    H128518   3.189   6.371   4.521
 9525TIP3    H228519   3.092   6.285   4.442
 9526TIP3   OH228520   5.559   5.651   1.066
 9526TIP3    H128521   5.585   5.742   1.075
 9526TIP3    H228522   5.482   5.642   1.122
 9527TIP3   OH228523   6.964   3.498   6.523
 9527TIP3    H128524   6.925   3.425   6.473
 9527TIP3    H228525   7.017   3.545   6.458
 9528TIP3   OH228526   4.964   4.541   3.403
 9528TIP3    H128527   5.027   4.470   3.397
 9528TIP3    H228528   4.931   4.552   3.313
 9529TIP3   OH228529   2.614   3.445   5.100
 9529TIP3    H128530   2.549   3.376   5.083
 9529TIP3    H228531   2.570   3.504   5.161
 9530TIP3   OH228532   0.565   3.647   5.129
 9530TIP3    H128533   0.625   3.598   5.072
 9530TIP3    H228534   0.542   3.724   5.077
 9531TIP3   OH228535   7.619   3.613   6.444
 9531TIP3    H128536   7.549   3.585   6.503
 9531TIP3    H228537   7.593   3.579   6.358
 9532TIP3   OH228538   7.611   0.106   5.912
 9532TIP3    H128539   7.572   0.076   5.830
 9532TIP3    H228540   7.537   0.141   5.962
 9533TIP3   OH228541   6.145   4.253   1.150
 9533TIP3    H128542   6.068   4.267   1.204
 9533TIP3    H228543   6.181   4.341   1.136
 9534TIP3   OH228544   3.666   2.152   2.392
 9534TIP3    H128545   3.718   2.079   2.425
 9534TIP3    H228546   3.585   2.112   2.360
 9535TIP3   OH228547   1.386   2.064   0.047
 9535TIP3    H128548   1.379   1.972   0.071
 9535TIP3    H228549   1.444   2.065  -0.029
 9536TIP3   OH228550   7.361   4.303   4.464
 9536TIP3    H128551   7.432   4.251   4.501
 9536TIP3    H228552   7.399   4.345   4.387
 9537TIP3   OH228553   3.693   1.287   3.003
 9537TIP3    H128554   3.760   1.322   2.944
 9537TIP3    H228555   3.611   1.324   2.970
 9538TIP3   OH228556   6.473   0.980   1.151
 9538TIP3    H128557   6.505   1.059   1.107
 9538TIP3    H228558   6.410   0.942   1.090
 9539TIP3   OH228559   5.133   0.811   2.503
 9539TIP3    H128560   5.128   0.848   2.591
 9539TIP3    H228561   5.085   0.728   2.509
 9540TIP3   OH228562   4.227   1.104   4.975
 9540TIP3    H128563   4.277   1.182   5.000
 9540TIP3    H228564   4.274   1.032   5.016
 9541TIP3   OH228565   1.130   6.791   5.082
 9541TIP3    H128566   1.087   6.822   5.162
 9541TIP3    H228567   1.065   6.805   5.013
 9542TIP3   OH228568   5.119   7.161   3.197
 9542TIP3    H128569   5.210   7.188   3.200
 9542TIP3    H228570   5.070   7.236   3.230
 9543TIP3   OH228571   5.341   7.253   4.408
 9543TIP3    H128572   5.406   7.294   4.351
 9543TIP3    H228573   5.383   7.247   4.493
 9544TIP3   OH228574   6.008   6.705   2.700
 9544TIP3    H128575   6.043   6.618   2.715
 9544TIP3    H228576   5.915   6.691   2.683
 9545TIP3   OH228577   0.191   7.770   2.895
 9545TIP3    H128578   0.262   7.726   2.942
 9545TIP3    H228579   0.113   7.722   2.921
 9546TIP3   OH228580   3.030   4.788   2.654
 9546TIP3    H128581   2.985   4.714   2.615
 9546TIP3    H228582   3.043   4.849   2.580
 9547TIP3   OH228583   5.976   7.090   5.965
 9547TIP3    H128584   5.974   7.099   6.061
 9547TIP3    H228585   6.066   7.065   5.945
 9548TIP3   OH228586   1.224   5.115   4.284
 9548TIP3    H128587   1.237   5.204   4.251
 9548TIP3    H228588   1.130   5.108   4.297
 9549TIP3   OH228589   7.187   1.682   0.418
 9549TIP3    H128590   7.121   1.665   0.486
 9549TIP3    H228591   7.136   1.713   0.343
 9550TIP3   OH228592   1.689   3.021   3.853
 9550TIP3    H128593   1.646   3.057   3.775
 9550TIP3    H228594   1.697   2.928   3.834
 9551TIP3   OH228595   7.966   2.418   3.852
 9551TIP3    H128596   7.935   2.504   3.880
 9551TIP3    H228597   7.910   2.356   3.898
 9552TIP3   OH228598   4.857   0.092   5.442
 9552TIP3    H128599   4.930   0.030   5.452
 9552TIP3    H228600   4.780   0.037   5.428
 9553TIP3   OH228601   3.049   3.598   2.128
 9553TIP3    H128602   2.980   3.553   2.177
 9553TIP3    H228603   3.082   3.531   2.067
 9554TIP3   OH228604   4.147   6.052   3.545
 9554TIP3    H128605   4.175   6.041   3.454
 9554TIP3    H228606   4.055   6.026   3.545
 9555TIP3   OH228607   5.262   4.462   0.330
 9555TIP3    H128608   5.238   4.515   0.254
 9555TIP3    H228609   5.358   4.462   0.330
 9556TIP3   OH228610   1.210   2.313   6.201
 9556TIP3    H128611   1.276   2.254   6.236
 9556TIP3    H228612   1.236   2.327   6.110
 9557TIP3   OH228613   2.335   5.018   4.572
 9557TIP3    H128614   2.251   4.998   4.613
 9557TIP3    H228615   2.323   4.995   4.480
 9558TIP3   OH228616   3.015   0.467   5.944
 9558TIP3    H128617   2.962   0.544   5.968
 9558TIP3    H228618   3.098   0.504   5.914
 9559TIP3   OH228619   7.099   5.431   1.465
 9559TIP3    H128620   7.155   5.491   1.416
 9559TIP3    H228621   7.040   5.489   1.514
 9560TIP3   OH228622   0.317   7.181   0.637
 9560TIP3    H128623   0.385   7.233   0.680
 9560TIP3    H228624   0.290   7.117   0.702
 9561TIP3   OH228625   3.540   5.657   1.333
 9561TIP3    H128626   3.533   5.716   1.408
 9561TIP3    H228627   3.622   5.609   1.349
 9562TIP3   OH228628   5.523   7.431   5.731
 9562TIP3    H128629   5.557   7.394   5.650
 9562TIP3    H228630   5.480   7.513   5.704
 9563TIP3   OH228631   5.384   3.246   5.920
 9563TIP3    H128632   5.357   3.160   5.954
 9563TIP3    H228633   5.309   3.277   5.871
 9564TIP3   OH228634   5.991   0.219   3.484
 9564TIP3    H128635   6.040   0.295   3.453
 9564TIP3    H228636   6.010   0.215   3.578
 9565TIP3   OH228637   0.182   3.232   4.492
 9565TIP3    H128638   0.106   3.213   4.437
 9565TIP3    H228639   0.246   3.272   4.433
 9566TIP3   OH228640   6.061   1.954  -0.050
 9566TIP3    H128641   6.116   2.030  -0.070
 9566TIP3    H228642   6.033   1.967   0.040
 9567TIP3   OH228643   4.958   6.218   2.699
 9567TIP3    H128644   4.954   6.222   2.604
 9567TIP3    H228645   4.992   6.131   2.719
 9568TIP3   OH228646   1.956   1.168   5.766
 9568TIP3    H128647   1.939   1.095   5.705
 9568TIP3    H228648   1.869   1.200   5.788
 9569TIP3   OH228649   7.437   1.050   2.994
 9569TIP3    H128650   7.388   1.059   2.912
 9569TIP3    H228651   7.390   1.104   3.057
 9570TIP3   OH228652   6.990   0.615   0.598
 9570TIP3    H128653   6.933   0.632   0.673
 9570TIP3    H228654   7.023   0.702   0.573
 9571TIP3   OH228655   7.704   2.090   6.563
 9571TIP3    H128656   7.732   2.167   6.514
 9571TIP3    H228657   7.727   2.109   6.654
 9572TIP3   OH228658   2.410   3.288   4.937
 9572TIP3    H128659   2.423   3.194   4.946
 9572TIP3    H228660   2.319   3.302   4.960
 9573TIP3   OH228661   4.208   2.514   4.742
 9573TIP3    H128662   4.113   2.521   4.753
 9573TIP3    H228663   4.220   2.509   4.647
 9574TIP3   OH228664   1.457   5.764   6.700
 9574TIP3    H128665   1.482   5.769   6.608
 9574TIP3    H228666   1.367   5.731   6.698
 9575TIP3   OH228667   0.577   5.109   6.247
 9575TIP3    H128668   0.654   5.153   6.283
 9575TIP3    H228669   0.599   5.094   6.155
 9576TIP3   OH228670   6.239   0.044   3.826
 9576TIP3    H128671   6.164   0.096   3.855
 9576TIP3    H228672   6.298   0.108   3.785
 9577TIP3   OH228673   8.115   2.127   2.875
 9577TIP3    H128674   8.088   2.151   2.963
 9577TIP3    H228675   8.044   2.073   2.842
 9578TIP3   OH228676   7.274   3.626   5.989
 9578TIP3    H128677   7.291   3.571   5.913
 9578TIP3    H228678   7.207   3.688   5.961
 9579TIP3   OH228679   0.728   1.270   1.631
 9579TIP3    H128680   0.671   1.292   1.558
 9579TIP3    H228681   0.683   1.196   1.674
 9580TIP3   OH228682   5.376   4.729   5.640
 9580TIP3    H128683   5.460   4.736   5.594
 9580TIP3    H228684   5.333   4.813   5.623
 9581TIP3   OH228685   6.344   0.193   1.687
 9581TIP3    H128686   6.342   0.234   1.601
 9581TIP3    H228687   6.387   0.109   1.673
 9582TIP3   OH228688   1.467   7.462   1.371
 9582TIP3    H128689   1.465   7.525   1.299
 9582TIP3    H228690   1.379   7.424   1.373
 9583TIP3   OH228691   4.426   1.664   0.039
 9583TIP3    H128692   4.472   1.747   0.057
 9583TIP3    H228693   4.418   1.662  -0.056
 9584TIP3   OH228694   5.259   4.923   4.629
 9584TIP3    H128695   5.235   5.006   4.589
 9584TIP3    H228696   5.198   4.859   4.590
 9585TIP3   OH228697   0.644   0.246   5.157
 9585TIP3    H128698   0.703   0.306   5.202
 9585TIP3    H228699   0.656   0.264   5.064
 9586TIP3   OH228700   3.423   3.585   0.809
 9586TIP3    H128701   3.493   3.599   0.873
 9586TIP3    H228702   3.394   3.495   0.824
 9587TIP3   OH228703   5.855   6.821   6.532
 9587TIP3    H128704   5.892   6.907   6.554
 9587TIP3    H228705   5.924   6.759   6.556
 9588TIP3   OH228706   2.273   4.037   3.813
 9588TIP3    H128707   2.202   3.983   3.849
 9588TIP3    H228708   2.318   3.979   3.751
 9589TIP3   OH228709   3.468   3.601   2.482
 9589TIP3    H128710   3.556   3.628   2.455
 9589TIP3    H228711   3.449   3.656   2.558
 9590TIP3   OH228712   2.439   4.612   2.209
 9590TIP3    H128713   2.513   4.557   2.181
 9590TIP3    H228714   2.386   4.623   2.130
 9591TIP3   OH228715   6.693   2.325   2.681
 9591TIP3    H128716   6.732   2.294   2.763
 9591TIP3    H228717   6.613   2.370   2.709
 9592TIP3   OH228718   0.326   6.036   3.496
 9592TIP3    H128719   0.350   6.017   3.405
 9592TIP3    H228720   0.298   6.128   3.494
 9593TIP3   OH228721   5.155   5.712   5.112
 9593TIP3    H128722   5.131   5.620   5.121
 9593TIP3    H228723   5.126   5.736   5.024
 9594TIP3   OH228724   7.506   6.991   6.567
 9594TIP3    H128725   7.515   7.080   6.533
 9594TIP3    H228726   7.421   6.991   6.611
 9595TIP3   OH228727   1.504   6.817   3.161
 9595TIP3    H128728   1.480   6.731   3.129
 9595TIP3    H228729   1.595   6.828   3.132
 9596TIP3   OH228730   4.828   5.408   3.072
 9596TIP3    H128731   4.857   5.436   3.159
 9596TIP3    H228732   4.896   5.439   3.013
 9597TIP3   OH228733   6.934   7.792   5.919
 9597TIP3    H128734   6.997   7.764   5.986
 9597TIP3    H228735   6.970   7.874   5.884
 9598TIP3   OH228736   4.207   0.369   3.881
 9598TIP3    H128737   4.178   0.358   3.971
 9598TIP3    H228738   4.294   0.330   3.879
 9599TIP3   OH228739   6.161   6.803   1.097
 9599TIP3    H128740   6.149   6.713   1.067
 9599TIP3    H228741   6.153   6.797   1.193
 9600TIP3   OH228742   7.108  -0.003   1.466
 9600TIP3    H128743   7.160  -0.041   1.395
 9600TIP3    H228744   7.056   0.066   1.423
 9601TIP3   OH228745   6.038   3.642   4.508
 9601TIP3    H128746   5.999   3.707   4.449
 9601TIP3    H228747   6.051   3.690   4.590
 9602TIP3   OH228748   3.900   6.981   4.191
 9602TIP3    H128749   3.868   7.030   4.115
 9602TIP3    H228750   3.945   6.906   4.154
 9603TIP3   OH228751   1.992   7.194   1.097
 9603TIP3    H128752   1.931   7.226   1.031
 9603TIP3    H228753   1.965   7.239   1.178
 9604TIP3   OH228754   6.701   6.062   4.685
 9604TIP3    H128755   6.782   6.054   4.634
 9604TIP3    H228756   6.727   6.045   4.775
 9605TIP3   OH228757   7.559   6.394   0.703
 9605TIP3    H128758   7.500   6.461   0.739
 9605TIP3    H228759   7.569   6.418   0.611
 9606TIP3   OH228760   2.536   2.363   1.125
 9606TIP3    H128761   2.488   2.420   1.064
 9606TIP3    H228762   2.523   2.403   1.211
 9607TIP3   OH228763   3.858   5.178   2.345
 9607TIP3    H128764   3.877   5.092   2.382
 9607TIP3    H228765   3.868   5.239   2.418
 9608TIP3   OH228766   0.837   1.072   5.149
 9608TIP3    H128767   0.912   1.122   5.183
 9608TIP3    H228768   0.783   1.137   5.105
 9609TIP3   OH228769   4.369   1.714   1.506
 9609TIP3    H128770   4.360   1.652   1.578
 9609TIP3    H228771   4.346   1.663   1.428
 9610TIP3   OH228772   7.541   1.059   4.673
 9610TIP3    H128773   7.455   1.088   4.701
 9610TIP3    H228774   7.579   1.017   4.750
 9611TIP3   OH228775   6.927   2.508   1.810
 9611TIP3    H128776   6.895   2.423   1.839
 9611TIP3    H228777   6.933   2.560   1.889
 9612TIP3   OH228778   4.610   0.618   4.290
 9612TIP3    H128779   4.668   0.590   4.219
 9612TIP3    H228780   4.630   0.558   4.362
 9613TIP3   OH228781   4.320   5.622   3.770
 9613TIP3    H128782   4.390   5.578   3.818
 9613TIP3    H228783   4.254   5.554   3.757
 9614TIP3   OH228784   1.313   5.413   4.889
 9614TIP3    H128785   1.384   5.372   4.841
 9614TIP3    H228786   1.354   5.443   4.970
 9615TIP3   OH228787   6.304   7.267   3.893
 9615TIP3    H128788   6.267   7.181   3.916
 9615TIP3    H228789   6.251   7.330   3.942
 9616TIP3   OH228790   5.594   3.786   0.190
 9616TIP3    H128791   5.622   3.867   0.147
 9616TIP3    H228792   5.499   3.785   0.178
 9617TIP3   OH228793   8.127   3.543   2.007
 9617TIP3    H128794   8.155   3.617   1.954
 9617TIP3    H228795   8.091   3.583   2.087
 9618TIP3   OH228796   7.892   4.126   2.866
 9618TIP3    H128797   7.832   4.143   2.938
 9618TIP3    H228798   7.893   4.208   2.816
 9619TIP3   OH228799   0.534   4.121   6.475
 9619TIP3    H128800   0.589   4.158   6.406
 9619TIP3    H228801   0.455   4.175   6.474
 9620TIP3   OH228802   5.658   0.436   1.655
 9620TIP3    H128803   5.612   0.520   1.648
 9620TIP3    H228804   5.723   0.450   1.723
 9621TIP3   OH228805   1.543   6.598   5.895
 9621TIP3    H128806   1.582   6.580   5.809
 9621TIP3    H228807   1.555   6.517   5.944
 9622TIP3   OH228808   4.769   0.738   2.215
 9622TIP3    H128809   4.749   0.827   2.245
 9622TIP3    H228810   4.828   0.703   2.282
 9623TIP3   OH228811   2.354   3.598   2.408
 9623TIP3    H128812   2.445   3.574   2.391
 9623TIP3    H228813   2.349   3.690   2.382
 9624TIP3   OH228814   3.782   3.229   4.169
 9624TIP3    H128815   3.744   3.146   4.199
 9624TIP3    H228816   3.729   3.297   4.210
 9625TIP3   OH228817   1.947   6.849   3.869
 9625TIP3    H128818   1.870   6.852   3.812
 9625TIP3    H228819   1.918   6.887   3.952
 9626TIP3   OH228820   7.168   3.943   3.191
 9626TIP3    H128821   7.085   3.905   3.161
 9626TIP3    H228822   7.161   4.036   3.168
 9627TIP3   OH228823   6.998   2.509   5.567
 9627TIP3    H128824   7.025   2.547   5.483
 9627TIP3    H228825   6.981   2.584   5.623
 9628TIP3   OH228826   5.177   4.354   3.409
 9628TIP3    H128827   5.168   4.292   3.481
 9628TIP3    H228828   5.259   4.401   3.426
 9629TIP3   OH228829   7.742   0.959   2.511
 9629TIP3    H128830   7.683   0.890   2.479
 9629TIP3    H228831   7.764   1.009   2.433
 9630TIP3   OH228832   3.353   6.206   6.109
 9630TIP3    H128833   3.318   6.150   6.179
 9630TIP3    H228834   3.399   6.277   6.155
 9631TIP3   OH228835   7.777   2.154   1.128
 9631TIP3    H128836   7.843   2.094   1.091
 9631TIP3    H228837   7.695   2.105   1.124
 9632TIP3   OH228838   1.345   5.924   4.841
 9632TIP3    H128839   1.331   5.965   4.756
 9632TIP3    H228840   1.310   5.835   4.831
 9633TIP3   OH228841   0.570   2.819   4.660
 9633TIP3    H128842   0.503   2.885   4.643
 9633TIP3    H228843   0.637   2.836   4.594
 9634TIP3   OH228844   1.342   5.336   6.439
 9634TIP3    H128845   1.401   5.279   6.390
 9634TIP3    H228846   1.400   5.401   6.479
 9635TIP3   OH228847   2.128   0.305   3.409
 9635TIP3    H128848   2.202   0.344   3.362
 9635TIP3    H228849   2.091   0.242   3.348
 9636TIP3   OH228850   3.847   3.968   0.293
 9636TIP3    H128851   3.872   3.909   0.222
 9636TIP3    H228852   3.838   4.054   0.251
 9637TIP3   OH228853   2.903   4.018   4.276
 9637TIP3    H128854   2.939   3.931   4.259
 9637TIP3    H228855   2.878   4.016   4.368
 9638TIP3   OH228856   4.279   7.844   0.742
 9638TIP3    H128857   4.264   7.826   0.650
 9638TIP3    H228858   4.222   7.783   0.789
 9639TIP3   OH228859   4.726   4.673   5.046
 9639TIP3    H128860   4.756   4.743   5.104
 9639TIP3    H228861   4.803   4.650   4.995
 9640TIP3   OH228862   5.841   2.224   3.024
 9640TIP3    H128863   5.847   2.199   3.116
 9640TIP3    H228864   5.859   2.144   2.975
 9641TIP3   OH228865   2.033   4.022   5.429
 9641TIP3    H128866   1.956   3.967   5.416
 9641TIP3    H228867   2.043   4.027   5.524
 9642TIP3   OH228868   5.363   6.668   0.007
 9642TIP3    H128869   5.295   6.614  -0.032
 9642TIP3    H228870   5.432   6.606   0.031
 9643TIP3   OH228871   0.998   6.725   1.810
 9643TIP3    H128872   0.968   6.641   1.845
 9643TIP3    H228873   1.048   6.764   1.882
 9644TIP3   OH228874   2.417   5.061   2.344
 9644TIP3    H128875   2.505   5.088   2.371
 9644TIP3    H228876   2.428   5.029   2.254
 9645TIP3   OH228877   3.440   2.213   0.632
 9645TIP3    H128878   3.469   2.171   0.552
 9645TIP3    H228879   3.456   2.148   0.701
 9646TIP3   OH228880   7.035   0.479   4.086
 9646TIP3    H128881   6.987   0.435   4.156
 9646TIP3    H228882   6.968   0.525   4.036
 9647TIP3   OH228883   8.164   1.160   2.745
 9647TIP3    H128884   8.189   1.098   2.677
 9647TIP3    H228885   8.083   1.201   2.713
 9648TIP3   OH228886   1.438   6.052   5.360
 9648TIP3    H128887   1.511   6.113   5.354
 9648TIP3    H228888   1.434   6.010   5.274
 9649TIP3   OH228889   7.080   4.154   5.959
 9649TIP3    H128890   7.098   4.114   5.874
 9649TIP3    H228891   7.141   4.227   5.965
 9650TIP3   OH228892   4.459   1.993   1.770
 9650TIP3    H128893   4.456   2.073   1.823
 9650TIP3    H228894   4.370   1.959   1.774
 9651TIP3   OH228895   1.567   1.577   5.180
 9651TIP3    H128896   1.662   1.570   5.172
 9651TIP3    H228897   1.550   1.572   5.274
 9652TIP3   OH228898   0.412   3.068   0.814
 9652TIP3    H128899   0.403   3.163   0.807
 9652TIP3    H228900   0.370   3.033   0.736
 9653TIP3   OH228901   4.653   1.315   2.463
 9653TIP3    H128902   4.641   1.313   2.558
 9653TIP3    H228903   4.744   1.290   2.450
 9654TIP3   OH228904   3.050   4.264   4.261
 9654TIP3    H128905   2.982   4.198   4.245
 9654TIP3    H228906   3.099   4.269   4.179
 9655TIP3   OH228907   0.624   3.539   2.326
 9655TIP3    H128908   0.536   3.571   2.347
 9655TIP3    H228909   0.675   3.618   2.312
 9656TIP3   OH228910   2.029   0.403   0.662
 9656TIP3    H128911   1.961   0.427   0.725
 9656TIP3    H228912   1.985   0.403   0.577
 9657TIP3   OH228913   6.765   0.219   1.819
 9657TIP3    H128914   6.791   0.311   1.822
 9657TIP3    H228915   6.846   0.170   1.832
 9658TIP3   OH228916   5.267   0.203   5.334
 9658TIP3    H128917   5.194   0.250   5.375
 9658TIP3    H228918   5.260   0.114   5.369
 9659TIP3   OH228919   2.562   6.340   4.199
 9659TIP3    H128920   2.467   6.332   4.201
 9659TIP3    H228921   2.587   6.354   4.290
 9660TIP3   OH228922   4.280   7.256   4.341
 9660TIP3    H128923   4.301   7.186   4.279
 9660TIP3    H228924   4.365   7.284   4.376
 9661TIP3   OH228925   8.108   6.497   0.876
 9661TIP3    H128926   8.086   6.567   0.938
 9661TIP3    H228927   8.202   6.509   0.860
 9662TIP3   OH228928   6.512   7.736   4.348
 9662TIP3    H128929   6.506   7.831   4.359
 9662TIP3    H228930   6.422   7.706   4.357
 9663TIP3   OH228931   5.515   7.545   0.287
 9663TIP3    H128932   5.533   7.482   0.356
 9663TIP3    H228933   5.421   7.562   0.293
 9664TIP3   OH228934   3.860   2.939   1.827
 9664TIP3    H128935   3.901   2.985   1.755
 9664TIP3    H228936   3.776   2.909   1.792
 9665TIP3   OH228937   0.710   6.697   2.475
 9665TIP3    H128938   0.796   6.719   2.508
 9665TIP3    H228939   0.694   6.761   2.406
 9666TIP3   OH228940   1.293   4.850   0.429
 9666TIP3    H128941   1.204   4.878   0.407
 9666TIP3    H228942   1.301   4.867   0.523
 9667TIP3   OH228943   0.274   3.164   3.430
 9667TIP3    H128944   0.264   3.257   3.411
 9667TIP3    H228945   0.186   3.128   3.417
 9668TIP3   OH228946   0.244   2.174   4.282
 9668TIP3    H128947   0.189   2.252   4.279
 9668TIP3    H228948   0.255   2.148   4.190
 9669TIP3   OH228949   2.303   2.402   5.327
 9669TIP3    H128950   2.369   2.468   5.347
 9669TIP3    H228951   2.221   2.439   5.360
 9670TIP3   OH228952   1.299   1.979   3.149
 9670TIP3    H128953   1.239   1.917   3.191
 9670TIP3    H228954   1.370   1.990   3.213
 9671TIP3   OH228955   5.196   2.018   5.235
 9671TIP3    H128956   5.214   2.110   5.254
 9671TIP3    H228957   5.263   1.970   5.284
 9672TIP3   OH228958   6.845   1.824   2.698
 9672TIP3    H128959   6.877   1.793   2.782
 9672TIP3    H228960   6.766   1.874   2.720
 9673TIP3   OH228961   7.398   1.801   0.294
 9673TIP3    H128962   7.335   1.757   0.350
 9673TIP3    H228963   7.349   1.824   0.215
 9674TIP3   OH228964   0.028   6.008   2.905
 9674TIP3    H128965   0.026   5.913   2.909
 9674TIP3    H228966  -0.005   6.037   2.990
 9675TIP3   OH228967   6.220   7.022   3.983
 9675TIP3    H128968   6.222   6.954   4.051
 9675TIP3    H228969   6.139   7.006   3.935
 9676TIP3   OH228970   3.066   1.968   4.456
 9676TIP3    H128971   3.143   2.009   4.417
 9676TIP3    H228972   3.026   2.037   4.510
 9677TIP3   OH228973   1.508   2.502   1.377
 9677TIP3    H128974   1.562   2.425   1.362
 9677TIP3    H228975   1.471   2.489   1.464
 9678TIP3   OH228976   1.271   6.387   0.141
 9678TIP3    H128977   1.232   6.332   0.208
 9678TIP3    H228978   1.203   6.450   0.119
 9679TIP3   OH228979   4.596   3.808   3.407
 9679TIP3    H128980   4.628   3.760   3.331
 9679TIP3    H228981   4.642   3.892   3.403
 9680TIP3   OH228982   3.914   6.846   4.784
 9680TIP3    H128983   3.920   6.754   4.808
 9680TIP3    H228984   3.851   6.883   4.845
 9681TIP3   OH228985   3.705   0.410   5.334
 9681TIP3    H128986   3.621   0.366   5.345
 9681TIP3    H228987   3.760   0.375   5.404
 9682TIP3   OH228988   7.018   0.943   4.671
 9682TIP3    H128989   7.078   1.000   4.719
 9682TIP3    H228990   6.978   1.001   4.606
 9683TIP3   OH228991   0.557   5.982   0.893
 9683TIP3    H128992   0.496   6.038   0.844
 9683TIP3    H228993   0.626   6.042   0.922
 9684TIP3   OH228994   0.066   4.749   5.987
 9684TIP3    H128995   0.030   4.822   6.038
 9684TIP3    H228996   0.142   4.720   6.037
 9685TIP3   OH228997   7.867   6.614   3.614
 9685TIP3    H128998   7.775   6.617   3.587
 9685TIP3    H228999   7.895   6.706   3.615
 9686TIP3   OH229000   7.563   4.139   4.593
 9686TIP3    H129001   7.625   4.069   4.574
 9686TIP3    H229002   7.616   4.212   4.625
 9687TIP3   OH229003   7.358   7.043   4.562
 9687TIP3    H129004   7.386   7.043   4.470
 9687TIP3    H229005   7.439   7.031   4.612
 9688TIP3   OH229006   5.371   7.062   4.152
 9688TIP3    H129007   5.404   7.152   4.148
 9688TIP3    H229008   5.276   7.071   4.156
 9689TIP3   OH229009   5.102   1.346   4.658
 9689TIP3    H129010   5.010   1.371   4.654
 9689TIP3    H229011   5.126   1.356   4.750
 9690TIP3   OH229012   1.764   5.227   6.006
 9690TIP3    H129013   1.842   5.175   6.025
 9690TIP3    H229014   1.797   5.302   5.955
 9691TIP3   OH229015   1.833   0.191   2.284
 9691TIP3    H129016   1.820   0.248   2.208
 9691TIP3    H229017   1.745   0.181   2.321
 9692TIP3   OH229018   6.604   4.574   6.207
 9692TIP3    H129019   6.545   4.534   6.143
 9692TIP3    H229020   6.550   4.586   6.285
 9693TIP3   OH229021   3.172   6.318   2.099
 9693TIP3    H129022   3.164   6.243   2.039
 9693TIP3    H229023   3.082   6.339   2.123
 9694TIP3   OH229024   4.178   6.307   4.827
 9694TIP3    H129025   4.089   6.285   4.853
 9694TIP3    H229026   4.209   6.365   4.896
 9695TIP3   OH229027   2.404   2.728   5.644
 9695TIP3    H129028   2.355   2.740   5.725
 9695TIP3    H229029   2.369   2.795   5.585
 9696TIP3   OH229030   2.343   6.926   5.959
 9696TIP3    H129031   2.335   6.981   5.880
 9696TIP3    H229032   2.262   6.877   5.963
 9697TIP3   OH229033   0.951   1.219   4.568
 9697TIP3    H129034   0.930   1.157   4.638
 9697TIP3    H229035   1.024   1.178   4.521
 9698TIP3   OH229036   2.983   4.657   4.706
 9698TIP3    H129037   3.067   4.700   4.720
 9698TIP3    H229038   2.918   4.722   4.732
 9699TIP3   OH229039   1.928   2.854   2.505
 9699TIP3    H129040   1.995   2.908   2.547
 9699TIP3    H229041   1.861   2.916   2.479
 9700TIP3   OH229042   0.608   4.080   3.925
 9700TIP3    H129043   0.616   3.990   3.893
 9700TIP3    H229044   0.687   4.093   3.977
 9701TIP3   OH229045   6.725   0.778   4.105
 9701TIP3    H129046   6.776   0.843   4.153
 9701TIP3    H229047   6.778   0.758   4.028
 9702TIP3   OH229048   5.675   6.539   4.271
 9702TIP3    H129049   5.728   6.585   4.336
 9702TIP3    H229050   5.589   6.582   4.275
 9703TIP3   OH229051   7.908   5.063   0.063
 9703TIP3    H129052   7.873   5.057  -0.026
 9703TIP3    H229053   7.939   4.975   0.082
 9704TIP3   OH229054   2.698   3.186   5.941
 9704TIP3    H129055   2.661   3.213   5.857
 9704TIP3    H229056   2.656   3.101   5.959
 9705TIP3   OH229057   4.818   5.984   5.590
 9705TIP3    H129058   4.773   5.925   5.530
 9705TIP3    H229059   4.784   5.961   5.677
 9706TIP3   OH229060   0.971   6.574   5.318
 9706TIP3    H129061   0.908   6.582   5.390
 9706TIP3    H229062   0.918   6.558   5.241
 9707TIP3   OH229063   0.049   6.528   1.261
 9707TIP3    H129064   0.056   6.433   1.257
 9707TIP3    H229065  -0.014   6.544   1.331
 9708TIP3   OH229066   7.496   7.558   6.662
 9708TIP3    H129067   7.489   7.653   6.675
 9708TIP3    H229068   7.569   7.548   6.600
 9709TIP3   OH229069   7.918   4.319   3.857
 9709TIP3    H129070   7.887   4.274   3.779
 9709TIP3    H229071   7.841   4.329   3.912
 9710TIP3   OH229072   3.465   1.412   6.349
 9710TIP3    H129073   3.507   1.341   6.398
 9710TIP3    H229074   3.385   1.431   6.399
 9711TIP3   OH229075   7.562   1.975   4.065
 9711TIP3    H129076   7.537   2.050   4.012
 9711TIP3    H229077   7.656   1.966   4.052
 9712TIP3   OH229078   6.110   7.156   1.331
 9712TIP3    H129079   6.200   7.146   1.299
 9712TIP3    H229080   6.103   7.091   1.401
 9713TIP3   OH229081   1.661   7.297   2.491
 9713TIP3    H129082   1.667   7.344   2.407
 9713TIP3    H229083   1.652   7.366   2.556
 9714TIP3   OH229084   0.920   3.055   0.907
 9714TIP3    H129085   0.933   3.122   0.841
 9714TIP3    H229086   0.894   2.977   0.857
 9715TIP3   OH229087   4.729   1.079   4.787
 9715TIP3    H129088   4.703   1.137   4.716
 9715TIP3    H229089   4.823   1.068   4.776
 9716TIP3   OH229090   1.232   1.668   0.466
 9716TIP3    H129091   1.291   1.734   0.430
 9716TIP3    H229092   1.283   1.587   0.464
 9717TIP3   OH229093   2.170   4.503   3.523
 9717TIP3    H129094   2.203   4.468   3.605
 9717TIP3    H229095   2.248   4.513   3.468
 9718TIP3   OH229096   3.130   1.354   3.565
 9718TIP3    H129097   3.059   1.351   3.501
 9718TIP3    H229098   3.119   1.275   3.617
 9719TIP3   OH229099   8.247   0.214   0.461
 9719TIP3    H129100   8.242   0.127   0.500
 9719TIP3    H229101   8.259   0.273   0.535
 9720TIP3   OH229102   0.284   0.685   3.874
 9720TIP3    H129103   0.326   0.732   3.802
 9720TIP3    H229104   0.216   0.633   3.833
 9721TIP3   OH229105   4.776   1.655   6.673
 9721TIP3    H129106   4.748   1.574   6.631
 9721TIP3    H229107   4.868   1.640   6.694
 9722TIP3   OH229108   6.260   6.052   4.262
 9722TIP3    H129109   6.325   6.084   4.324
 9722TIP3    H229110   6.272   5.957   4.263
 9723TIP3   OH229111   7.299   6.826   3.063
 9723TIP3    H129112   7.235   6.822   3.135
 9723TIP3    H229113   7.344   6.909   3.075
 9724TIP3   OH229114   5.367   2.897   5.406
 9724TIP3    H129115   5.406   2.948   5.335
 9724TIP3    H229116   5.424   2.913   5.481
 9725TIP3   OH229117   4.489   1.757   2.671
 9725TIP3    H129118   4.463   1.811   2.745
 9725TIP3    H229119   4.584   1.768   2.665
 9726TIP3   OH229120   5.401   5.654   1.640
 9726TIP3    H129121   5.380   5.736   1.685
 9726TIP3    H229122   5.350   5.658   1.559
 9727TIP3   OH229123   2.394   1.904   3.017
 9727TIP3    H129124   2.360   1.943   3.098
 9727TIP3    H229125   2.450   1.832   3.046
 9728TIP3   OH229126   8.222   4.396   3.221
 9728TIP3    H129127   8.276   4.443   3.158
 9728TIP3    H229128   8.276   4.390   3.300
 9729TIP3   OH229129   4.442   1.476   2.644
 9729TIP3    H129130   4.434   1.569   2.665
 9729TIP3    H229131   4.367   1.458   2.588
 9730TIP3   OH229132   2.207   1.978   2.003
 9730TIP3    H129133   2.244   1.918   2.069
 9730TIP3    H229134   2.240   2.064   2.028
 9731TIP3   OH229135   5.574   1.406   1.039
 9731TIP3    H129136   5.590   1.399   0.945
 9731TIP3    H229137   5.496   1.353   1.054
 9732TIP3   OH229138   1.049   3.784   5.232
 9732TIP3    H129139   1.070   3.701   5.189
 9732TIP3    H229140   0.969   3.813   5.189
 9733TIP3   OH229141   1.446   5.302   1.607
 9733TIP3    H129142   1.477   5.292   1.517
 9733TIP3    H229143   1.454   5.396   1.625
 9734TIP3   OH229144   1.894   2.020   1.061
 9734TIP3    H129145   1.893   1.950   0.996
 9734TIP3    H229146   1.813   2.069   1.044
 9735TIP3   OH229147   0.876   4.572   1.827
 9735TIP3    H129148   0.790   4.557   1.867
 9735TIP3    H229149   0.924   4.622   1.892
 9736TIP3   OH229150   0.624   5.498   6.152
 9736TIP3    H129151   0.692   5.432   6.133
 9736TIP3    H229152   0.620   5.501   6.247
 9737TIP3   OH229153   5.912   0.929   1.218
 9737TIP3    H129154   5.964   1.004   1.247
 9737TIP3    H229155   5.828   0.939   1.262
 9738TIP3   OH229156   2.988   7.726   2.752
 9738TIP3    H129157   3.074   7.694   2.779
 9738TIP3    H229158   2.970   7.678   2.671
 9739TIP3   OH229159   8.005   6.257   4.770
 9739TIP3    H129160   7.960   6.184   4.729
 9739TIP3    H229161   8.090   6.261   4.725
 9740TIP3   OH229162   5.732   0.653   2.002
 9740TIP3    H129163   5.680   0.726   2.037
 9740TIP3    H229164   5.780   0.691   1.928
 9741TIP3   OH229165   3.402   1.406   1.724
 9741TIP3    H129166   3.325   1.461   1.711
 9741TIP3    H229167   3.409   1.355   1.643
 9742TIP3   OH229168   7.648   0.300   0.555
 9742TIP3    H129169   7.719   0.302   0.491
 9742TIP3    H229170   7.628   0.393   0.571
 9743TIP3   OH229171   0.564   0.024   1.075
 9743TIP3    H129172   0.545   0.117   1.077
 9743TIP3    H229173   0.589   0.002   1.165
 9744TIP3   OH229174   1.900   7.584   5.721
 9744TIP3    H129175   1.914   7.609   5.629
 9744TIP3    H229176   1.885   7.667   5.766
 9745TIP3   OH229177   8.198   0.817   5.292
 9745TIP3    H129178   8.148   0.745   5.254
 9745TIP3    H229179   8.186   0.808   5.386
 9746TIP3   OH229180   1.729   1.573   0.969
 9746TIP3    H129181   1.757   1.570   0.877
 9746TIP3    H229182   1.798   1.528   1.017
 9747TIP3   OH229183   2.891   5.406   5.538
 9747TIP3    H129184   2.981   5.438   5.546
 9747TIP3    H229185   2.842   5.481   5.502
 9748TIP3   OH229186   6.961   3.631   3.320
 9748TIP3    H129187   6.973   3.670   3.234
 9748TIP3    H229188   7.041   3.654   3.368
 9749TIP3   OH229189   3.584   0.559   3.583
 9749TIP3    H129190   3.528   0.632   3.609
 9749TIP3    H229191   3.564   0.543   3.491
 9750TIP3   OH229192   2.641   4.133   0.949
 9750TIP3    H129193   2.624   4.227   0.940
 9750TIP3    H229194   2.604   4.094   0.870
 9751TIP3   OH229195   0.479   6.141   1.566
 9751TIP3    H129196   0.476   6.068   1.629
 9751TIP3    H229197   0.504   6.100   1.483
 9752TIP3   OH229198   4.851   2.144   5.277
 9752TIP3    H129199   4.796   2.128   5.200
 9752TIP3    H229200   4.897   2.061   5.291
 9753TIP3   OH229201   2.410   5.624   6.044
 9753TIP3    H129202   2.444   5.708   6.075
 9753TIP3    H229203   2.450   5.613   5.957
 9754TIP3   OH229204   3.145   4.641   5.681
 9754TIP3    H129205   3.146   4.607   5.771
 9754TIP3    H229206   3.222   4.698   5.677
 9755TIP3   OH229207   1.530   1.433   5.646
 9755TIP3    H129208   1.451   1.453   5.697
 9755TIP3    H229209   1.503   1.364   5.586
 9756TIP3   OH229210   1.226   2.532   3.990
 9756TIP3    H129211   1.241   2.611   4.043
 9756TIP3    H229212   1.278   2.546   3.911
 9757TIP3   OH229213   5.229   4.355   4.198
 9757TIP3    H129214   5.183   4.281   4.159
 9757TIP3    H229215   5.159   4.412   4.230
 9758TIP3   OH229216   5.431   0.701   6.752
 9758TIP3    H129217   5.446   0.638   6.822
 9758TIP3    H229218   5.504   0.687   6.692
 9759TIP3   OH229219   3.924   6.292   5.540
 9759TIP3    H129220   3.942   6.386   5.529
 9759TIP3    H229221   3.847   6.290   5.598
 9760TIP3   OH229222   7.351   7.199   1.010
 9760TIP3    H129223   7.436   7.242   1.003
 9760TIP3    H229224   7.352   7.132   0.942
 9761TIP3   OH229225   2.222   3.270   0.354
 9761TIP3    H129226   2.187   3.350   0.315
 9761TIP3    H229227   2.261   3.222   0.281
 9762TIP3   OH229228   7.367   5.966   1.639
 9762TIP3    H129229   7.300   5.980   1.572
 9762TIP3    H229230   7.395   6.055   1.663
 9763TIP3   OH229231   7.148   0.276   0.285
 9763TIP3    H129232   7.225   0.234   0.246
 9763TIP3    H229233   7.107   0.207   0.337
 9764TIP3   OH229234   4.305   0.339   5.182
 9764TIP3    H129235   4.291   0.284   5.105
 9764TIP3    H229236   4.400   0.342   5.194
 9765TIP3   OH229237   5.401   5.706   0.851
 9765TIP3    H129238   5.438   5.753   0.777
 9765TIP3    H229239   5.476   5.682   0.905
 9766TIP3   OH229240   6.271   2.469   0.509
 9766TIP3    H129241   6.292   2.376   0.517
 9766TIP3    H229242   6.240   2.479   0.419
 9767TIP3   OH229243   5.701   0.166   4.250
 9767TIP3    H129244   5.703   0.134   4.340
 9767TIP3    H229245   5.784   0.137   4.212
 9768TIP3   OH229246   5.016   2.279   4.968
 9768TIP3    H129247   5.081   2.209   4.972
 9768TIP3    H229248   4.943   2.242   4.919
 9769TIP3   OH229249   4.216   6.476   1.318
 9769TIP3    H129250   4.226   6.381   1.319
 9769TIP3    H229251   4.301   6.510   1.343
 9770TIP3   OH229252   4.346   0.982   4.217
 9770TIP3    H129253   4.301   1.066   4.218
 9770TIP3    H229254   4.433   1.002   4.184
 9771TIP3   OH229255   3.652   7.461   5.730
 9771TIP3    H129256   3.720   7.458   5.797
 9771TIP3    H229257   3.658   7.377   5.685
 9772TIP3   OH229258   2.457   2.384   4.452
 9772TIP3    H129259   2.410   2.302   4.467
 9772TIP3    H229260   2.548   2.364   4.476
 9773TIP3   OH229261   5.288   0.158   2.755
 9773TIP3    H129262   5.229   0.103   2.704
 9773TIP3    H229263   5.369   0.108   2.761
 9774TIP3   OH229264   4.126   6.395   0.925
 9774TIP3    H129265   4.140   6.393   1.020
 9774TIP3    H229266   4.136   6.487   0.901
 9775TIP3   OH229267   1.159   7.228   0.827
 9775TIP3    H129268   1.116   7.295   0.881
 9775TIP3    H229269   1.253   7.249   0.833
 9776TIP3   OH229270   7.069   5.659   3.245
 9776TIP3    H129271   7.111   5.618   3.169
 9776TIP3    H229272   7.141   5.681   3.304
 9777TIP3   OH229273   0.193   1.082   5.299
 9777TIP3    H129274   0.166   1.057   5.387
 9777TIP3    H229275   0.288   1.090   5.305
 9778TIP3   OH229276   2.664   1.732   4.049
 9778TIP3    H129277   2.625   1.780   4.122
 9778TIP3    H229278   2.745   1.695   4.085
 9779TIP3   OH229279   7.562   0.292   2.153
 9779TIP3    H129280   7.647   0.253   2.170
 9779TIP3    H229281   7.574   0.385   2.172
 9780TIP3   OH229282   4.771   4.888   2.277
 9780TIP3    H129283   4.722   4.830   2.337
 9780TIP3    H229284   4.770   4.973   2.320
 9781TIP3   OH229285   5.678   6.882   2.835
 9781TIP3    H129286   5.724   6.842   2.761
 9781TIP3    H229287   5.608   6.820   2.856
 9782TIP3   OH229288   8.259   6.517   6.173
 9782TIP3    H129289   8.354   6.526   6.162
 9782TIP3    H229290   8.225   6.508   6.084
 9783TIP3   OH229291   1.974   7.335   1.338
 9783TIP3    H129292   1.914   7.404   1.366
 9783TIP3    H229293   2.022   7.312   1.418
 9784TIP3   OH229294   2.181   2.355   1.508
 9784TIP3    H129295   2.156   2.438   1.467
 9784TIP3    H229296   2.115   2.340   1.576
 9785TIP3   OH229297   4.349   3.275   4.075
 9785TIP3    H129298   4.290   3.243   4.007
 9785TIP3    H229299   4.294   3.331   4.130
 9786TIP3   OH229300   0.202   6.546   5.681
 9786TIP3    H129301   0.225   6.599   5.758
 9786TIP3    H229302   0.263   6.473   5.683
 9787TIP3   OH229303   2.884   2.078   1.631
 9787TIP3    H129304   2.857   1.987   1.639
 9787TIP3    H229305   2.812   2.128   1.670
 9788TIP3   OH229306   4.226   6.355   6.716
 9788TIP3    H129307   4.183   6.391   6.638
 9788TIP3    H229308   4.160   6.300   6.757
 9789TIP3   OH229309   2.757   0.200   1.397
 9789TIP3    H129310   2.713   0.185   1.480
 9789TIP3    H229311   2.705   0.268   1.354
 9790TIP3   OH229312   6.526   1.719   0.159
 9790TIP3    H129313   6.456   1.759   0.211
 9790TIP3    H229314   6.566   1.655   0.217
 9791TIP3   OH229315   7.594   6.493   6.533
 9791TIP3    H129316   7.507   6.532   6.534
 9791TIP3    H229317   7.600   6.445   6.615
 9792TIP3   OH229318   3.663   3.344   3.474
 9792TIP3    H129319   3.691   3.261   3.435
 9792TIP3    H229320   3.569   3.332   3.491
 9793TIP3   OH229321   0.881   3.829   1.679
 9793TIP3    H129322   0.816   3.776   1.727
 9793TIP3    H229323   0.963   3.816   1.726
 9794TIP3   OH229324   6.114   6.876   3.205
 9794TIP3    H129325   6.091   6.851   3.115
 9794TIP3    H229326   6.160   6.960   3.195
 9795TIP3   OH229327   0.541   4.268   3.572
 9795TIP3    H129328   0.496   4.298   3.493
 9795TIP3    H229329   0.538   4.172   3.566
 9796TIP3   OH229330   2.617   7.739   2.452
 9796TIP3    H129331   2.710   7.723   2.434
 9796TIP3    H229332   2.609   7.834   2.454
 9797TIP3   OH229333   1.231   6.277   4.073
 9797TIP3    H129334   1.230   6.206   4.008
 9797TIP3    H229335   1.244   6.356   4.020
 9798TIP3   OH229336   6.264   1.746   6.014
 9798TIP3    H129337   6.312   1.791   5.945
 9798TIP3    H229338   6.183   1.716   5.971
 9799TIP3   OH229339   5.008   5.682   0.516
 9799TIP3    H129340   5.081   5.728   0.475
 9799TIP3    H229341   5.043   5.650   0.599
 9800TIP3   OH229342   1.239   2.351   3.631
 9800TIP3    H129343   1.152   2.383   3.608
 9800TIP3    H229344   1.222   2.282   3.695
 9801TIP3   OH229345   4.513   4.917   1.775
 9801TIP3    H129346   4.580   4.871   1.726
 9801TIP3    H229347   4.557   4.945   1.855
 9802TIP3   OH229348   5.201   4.155   4.883
 9802TIP3    H129349   5.296   4.155   4.896
 9802TIP3    H229350   5.167   4.102   4.955
 9803TIP3   OH229351   5.955   0.989   3.627
 9803TIP3    H129352   5.878   0.932   3.629
 9803TIP3    H229353   5.956   1.031   3.713
 9804TIP3   OH229354   6.566   6.677   5.104
 9804TIP3    H129355   6.549   6.672   5.198
 9804TIP3    H229356   6.478   6.684   5.065
 9805TIP3   OH229357   6.262   0.571   2.014
 9805TIP3    H129358   6.291   0.651   2.058
 9805TIP3    H229359   6.221   0.519   2.084
 9806TIP3   OH229360   2.623   0.403   1.763
 9806TIP3    H129361   2.566   0.471   1.798
 9806TIP3    H229362   2.691   0.451   1.715
 9807TIP3   OH229363   4.776   1.861   6.483
 9807TIP3    H129364   4.761   1.775   6.524
 9807TIP3    H229365   4.747   1.924   6.548
 9808TIP3   OH229366   1.710   5.653   3.370
 9808TIP3    H129367   1.767   5.586   3.409
 9808TIP3    H229368   1.640   5.665   3.434
 9809TIP3   OH229369   6.747   2.263   2.152
 9809TIP3    H129370   6.671   2.215   2.186
 9809TIP3    H229371   6.714   2.350   2.133
 9810TIP3   OH229372   2.597   2.400   3.282
 9810TIP3    H129373   2.506   2.395   3.252
 9810TIP3    H229374   2.637   2.320   3.247
 9811TIP3   OH229375   7.558   0.245   2.799
 9811TIP3    H129376   7.540   0.335   2.771
 9811TIP3    H229377   7.516   0.238   2.885
 9812TIP3   OH229378   6.743   3.957   4.728
 9812TIP3    H129379   6.714   3.945   4.818
 9812TIP3    H229380   6.783   4.044   4.727
 9813TIP3   OH229381   4.430   7.777   4.160
 9813TIP3    H129382   4.442   7.838   4.233
 9813TIP3    H229383   4.358   7.721   4.189
 9814TIP3   OH229384   4.255   6.753   1.829
 9814TIP3    H129385   4.194   6.805   1.777
 9814TIP3    H229386   4.232   6.662   1.811
 9815TIP3   OH229387   7.096   6.417   4.282
 9815TIP3    H129388   7.138   6.395   4.365
 9815TIP3    H229389   7.120   6.508   4.267
 9816TIP3   OH229390   2.702   1.929   2.984
 9816TIP3    H129391   2.720   1.911   2.892
 9816TIP3    H229392   2.640   1.860   3.010
 9817TIP3   OH229393   7.676   6.256   3.064
 9817TIP3    H129394   7.715   6.181   3.018
 9817TIP3    H229395   7.750   6.297   3.108
 9818TIP3   OH229396   2.149   5.209   4.193
 9818TIP3    H129397   2.191   5.288   4.227
 9818TIP3    H229398   2.060   5.212   4.230
 9819TIP3   OH229399   4.985   5.352   1.762
 9819TIP3    H129400   4.976   5.376   1.670
 9819TIP3    H229401   5.032   5.268   1.760
 9820TIP3   OH229402   4.973   7.531   1.861
 9820TIP3    H129403   4.924   7.608   1.835
 9820TIP3    H229404   4.928   7.499   1.940
 9821TIP3   OH229405   4.713   2.647   1.816
 9821TIP3    H129406   4.713   2.689   1.902
 9821TIP3    H229407   4.798   2.605   1.809
 9822TIP3   OH229408   7.470   0.122   5.334
 9822TIP3    H129409   7.380   0.152   5.324
 9822TIP3    H229410   7.464   0.044   5.389
 9823TIP3   OH229411   6.215   0.562   1.125
 9823TIP3    H129412   6.173   0.645   1.105
 9823TIP3    H229413   6.144   0.498   1.124
 9824TIP3   OH229414   4.771   1.593   6.356
 9824TIP3    H129415   4.820   1.589   6.274
 9824TIP3    H229416   4.711   1.667   6.346
 9825TIP3   OH229417   4.411   4.353   6.213
 9825TIP3    H129418   4.391   4.289   6.281
 9825TIP3    H229419   4.467   4.417   6.256
 9826TIP3   OH229420   2.928   5.911   6.240
 9826TIP3    H129421   3.010   5.874   6.270
 9826TIP3    H229422   2.926   5.893   6.146
 9827TIP3   OH229423   3.272   6.569   6.526
 9827TIP3    H129424   3.216   6.499   6.494
 9827TIP3    H229425   3.255   6.573   6.620
 9828TIP3   OH229426   2.762   4.021   1.726
 9828TIP3    H129427   2.711   4.028   1.806
 9828TIP3    H229428   2.852   4.006   1.756
 9829TIP3   OH229429   0.298   2.797   5.935
 9829TIP3    H129430   0.203   2.810   5.943
 9829TIP3    H229431   0.310   2.756   5.850
 9830TIP3   OH229432   2.547   7.026   6.343
 9830TIP3    H129433   2.627   7.078   6.335
 9830TIP3    H229434   2.498   7.045   6.263
 9831TIP3   OH229435   2.137   5.187   1.504
 9831TIP3    H129436   2.216   5.240   1.518
 9831TIP3    H229437   2.169   5.107   1.461
 9832TIP3   OH229438   5.354   0.792   0.378
 9832TIP3    H129439   5.379   0.874   0.421
 9832TIP3    H229440   5.323   0.737   0.450
 9833TIP3   OH229441   0.821   7.326   3.265
 9833TIP3    H129442   0.748   7.383   3.242
 9833TIP3    H229443   0.896   7.386   3.274
 9834TIP3   OH229444   1.186   4.828   4.630
 9834TIP3    H129445   1.135   4.839   4.549
 9834TIP3    H229446   1.144   4.754   4.674
 9835TIP3   OH229447   0.556   6.264   5.900
 9835TIP3    H129448   0.613   6.314   5.959
 9835TIP3    H229449   0.592   6.175   5.901
 9836TIP3   OH229450   1.293   7.238   2.616
 9836TIP3    H129451   1.230   7.195   2.559
 9836TIP3    H229452   1.370   7.181   2.615
 9837TIP3   OH229453   7.518   0.523   2.767
 9837TIP3    H129454   7.481   0.489   2.849
 9837TIP3    H229455   7.593   0.576   2.795
 9838TIP3   OH229456   1.216   7.110   3.709
 9838TIP3    H129457   1.161   7.108   3.787
 9838TIP3    H229458   1.165   7.158   3.644
 9839TIP3   OH229459   5.165   4.852   3.521
 9839TIP3    H129460   5.243   4.804   3.492
 9839TIP3    H229461   5.104   4.844   3.448
 9840TIP3   OH229462   2.447   6.937   5.060
 9840TIP3    H129463   2.528   6.908   5.101
 9840TIP3    H229464   2.417   6.861   5.010
 9841TIP3   OH229465   6.011   1.445   0.492
 9841TIP3    H129466   6.048   1.373   0.543
 9841TIP3    H229467   5.927   1.464   0.533
 9842TIP3   OH229468   0.326   2.898   0.065
 9842TIP3    H129469   0.378   2.956   0.120
 9842TIP3    H229470   0.346   2.926  -0.025
 9843TIP3   OH229471   5.713   6.636   3.992
 9843TIP3    H129472   5.663   6.716   3.974
 9843TIP3    H229473   5.684   6.609   4.079
 9844TIP3   OH229474   0.378   0.773   0.888
 9844TIP3    H129475   0.344   0.795   0.801
 9844TIP3    H229476   0.424   0.690   0.875
 9845TIP3   OH229477   7.293   5.487   0.419
 9845TIP3    H129478   7.340   5.468   0.499
 9845TIP3    H229479   7.329   5.570   0.389
 9846TIP3   OH229480   6.010   5.627   2.056
 9846TIP3    H129481   6.096   5.666   2.046
 9846TIP3    H229482   6.027   5.533   2.069
 9847TIP3   OH229483   5.809   0.937   6.698
 9847TIP3    H129484   5.836   0.964   6.610
 9847TIP3    H229485   5.768   0.851   6.686
 9848TIP3   OH229486   1.892   0.672   5.845
 9848TIP3    H129487   1.818   0.629   5.888
 9848TIP3    H229488   1.865   0.763   5.834
 9849TIP3   OH229489   2.708   4.631   1.103
 9849TIP3    H129490   2.792   4.604   1.067
 9849TIP3    H229491   2.678   4.555   1.152
 9850TIP3   OH229492   2.942   5.464   0.057
 9850TIP3    H129493   2.978   5.394   0.111
 9850TIP3    H229494   2.999   5.465  -0.020
 9851TIP3   OH229495   3.931   2.669   5.056
 9851TIP3    H129496   4.018   2.705   5.036
 9851TIP3    H229497   3.925   2.673   5.151
 9852TIP3   OH229498   4.068   2.090   4.736
 9852TIP3    H129499   4.010   2.051   4.800
 9852TIP3    H229500   4.155   2.058   4.759
 9853TIP3   OH229501   3.020   4.820   1.055
 9853TIP3    H129502   3.088   4.840   0.990
 9853TIP3    H229503   3.016   4.725   1.057
 9854TIP3   OH229504   4.206   3.660   3.741
 9854TIP3    H129505   4.296   3.629   3.751
 9854TIP3    H229506   4.168   3.602   3.675
 9855TIP3   OH229507   2.818   6.264   3.437
 9855TIP3    H129508   2.852   6.232   3.354
 9855TIP3    H229509   2.880   6.230   3.502
 9856TIP3   OH229510   2.059   6.563   2.235
 9856TIP3    H129511   2.112   6.619   2.291
 9856TIP3    H229512   1.992   6.528   2.293
 9857TIP3   OH229513   4.752   1.164   4.483
 9857TIP3    H129514   4.790   1.202   4.404
 9857TIP3    H229515   4.704   1.087   4.453
 9858TIP3   OH229516   5.066   2.791   2.320
 9858TIP3    H129517   5.105   2.729   2.381
 9858TIP3    H229518   5.064   2.744   2.236
 9859TIP3   OH229519   4.589   2.606   5.186
 9859TIP3    H129520   4.617   2.526   5.142
 9859TIP3    H229521   4.499   2.620   5.158
 9860TIP3   OH229522   3.815   6.691   1.056
 9860TIP3    H129523   3.765   6.615   1.026
 9860TIP3    H229524   3.807   6.689   1.151
 9861TIP3   OH229525   3.585   1.824   2.388
 9861TIP3    H129526   3.660   1.857   2.437
 9861TIP3    H229527   3.509   1.861   2.433
 9862TIP3   OH229528   2.934   1.598   4.696
 9862TIP3    H129529   2.843   1.584   4.722
 9862TIP3    H229530   2.974   1.512   4.699
 9863TIP3   OH229531   3.703   2.149   3.238
 9863TIP3    H129532   3.713   2.219   3.174
 9863TIP3    H229533   3.609   2.147   3.257
 9864TIP3   OH229534   0.749   3.465   0.865
 9864TIP3    H129535   0.716   3.551   0.892
 9864TIP3    H229536   0.717   3.405   0.931
 9865TIP3   OH229537   5.276   7.543   1.200
 9865TIP3    H129538   5.219   7.467   1.192
 9865TIP3    H229539   5.310   7.538   1.289
 9866TIP3   OH229540   6.189   5.354   0.210
 9866TIP3    H129541   6.190   5.263   0.182
 9866TIP3    H229542   6.099   5.369   0.239
 9867TIP3   OH229543   7.591   1.719   2.383
 9867TIP3    H129544   7.537   1.798   2.391
 9867TIP3    H229545   7.533   1.648   2.411
 9868TIP3   OH229546   3.566   2.720   2.725
 9868TIP3    H129547   3.573   2.627   2.701
 9868TIP3    H229548   3.624   2.729   2.801
 9869TIP3   OH229549   0.267   7.706   1.120
 9869TIP3    H129550   0.256   7.716   1.026
 9869TIP3    H229551   0.278   7.795   1.153
 9870TIP3   OH229552   3.299   6.820   0.228
 9870TIP3    H129553   3.355   6.745   0.208
 9870TIP3    H229554   3.320   6.884   0.161
 9871TIP3   OH229555   4.028   7.759   6.074
 9871TIP3    H129556   3.995   7.834   6.026
 9871TIP3    H229557   4.097   7.795   6.131
 9872TIP3   OH229558   1.221   6.582   0.416
 9872TIP3    H129559   1.155   6.532   0.369
 9872TIP3    H229560   1.191   6.673   0.410
 9873TIP3   OH229561   7.883   0.104   3.895
 9873TIP3    H129562   7.787   0.106   3.897
 9873TIP3    H229563   7.906   0.013   3.915
 9874TIP3   OH229564   0.287   1.167   4.254
 9874TIP3    H129565   0.330   1.161   4.339
 9874TIP3    H229566   0.347   1.125   4.193
 9875TIP3   OH229567   6.045   5.068   1.162
 9875TIP3    H129568   6.066   4.976   1.176
 9875TIP3    H229569   5.950   5.073   1.168
 9876TIP3   OH229570   4.738   1.868   2.669
 9876TIP3    H129571   4.812   1.880   2.728
 9876TIP3    H229572   4.692   1.952   2.671
 9877TIP3   OH229573   5.916   2.948   1.349
 9877TIP3    H129574   5.863   2.956   1.428
 9877TIP3    H229575   5.942   3.037   1.327
 9878TIP3   OH229576   6.967   5.124   6.626
 9878TIP3    H129577   6.998   5.094   6.540
 9878TIP3    H229578   7.045   5.118   6.682
 9879TIP3   OH229579   3.929   3.004   0.385
 9879TIP3    H129580   3.916   2.930   0.444
 9879TIP3    H229581   3.959   2.966   0.303
 9880TIP3   OH229582   8.064   0.660   4.726
 9880TIP3    H129583   8.129   0.724   4.753
 9880TIP3    H229584   8.100   0.623   4.645
 9881TIP3   OH229585   6.712   4.791   1.384
 9881TIP3    H129586   6.663   4.812   1.464
 9881TIP3    H229587   6.798   4.829   1.399
 9882TIP3   OH229588   4.922   4.589   4.306
 9882TIP3    H129589   4.890   4.512   4.354
 9882TIP3    H229590   4.878   4.585   4.221
 9883TIP3   OH229591   2.650   5.629   3.058
 9883TIP3    H129592   2.588   5.556   3.064
 9883TIP3    H229593   2.595   5.707   3.056
 9884TIP3   OH229594   0.133   6.787   0.567
 9884TIP3    H129595   0.218   6.744   0.579
 9884TIP3    H229596   0.077   6.719   0.529
 9885TIP3   OH229597   3.471   1.322   0.470
 9885TIP3    H129598   3.414   1.247   0.451
 9885TIP3    H229599   3.413   1.398   0.462
 9886TIP3   OH229600   2.497   4.146   3.416
 9886TIP3    H129601   2.552   4.133   3.493
 9886TIP3    H229602   2.492   4.060   3.375
 9887TIP3   OH229603   1.434   6.138   1.858
 9887TIP3    H129604   1.508   6.196   1.875
 9887TIP3    H229605   1.406   6.160   1.769
 9888TIP3   OH229606   6.639   1.603   5.990
 9888TIP3    H129607   6.708   1.633   6.049
 9888TIP3    H229608   6.586   1.543   6.042
 9889TIP3   OH229609   7.013   1.327   1.790
 9889TIP3    H129610   6.949   1.282   1.845
 9889TIP3    H229611   7.003   1.287   1.704
 9890TIP3   OH229612   2.365   3.300   2.808
 9890TIP3    H129613   2.405   3.385   2.791
 9890TIP3    H229614   2.316   3.280   2.727
 9891TIP3   OH229615   7.214   2.321   5.463
 9891TIP3    H129616   7.175   2.387   5.521
 9891TIP3    H229617   7.144   2.296   5.404
 9892TIP3   OH229618   1.490   0.181   3.809
 9892TIP3    H129619   1.460   0.131   3.733
 9892TIP3    H229620   1.490   0.118   3.881
 9893TIP3   OH229621   0.814   7.193   0.476
 9893TIP3    H129622   0.785   7.174   0.565
 9893TIP3    H229623   0.872   7.269   0.485
 9894TIP3   OH229624   3.090   0.472   3.285
 9894TIP3    H129625   2.996   0.468   3.302
 9894TIP3    H229626   3.109   0.565   3.272
 9895TIP3   OH229627   3.852   5.045   0.820
 9895TIP3    H129628   3.855   5.050   0.724
 9895TIP3    H229629   3.762   5.070   0.842
 9896TIP3   OH229630   2.086   2.483   3.354
 9896TIP3    H129631   2.001   2.477   3.310
 9896TIP3    H229632   2.137   2.541   3.298
 9897TIP3   OH229633   6.997   0.085   4.722
 9897TIP3    H129634   6.977   0.095   4.815
 9897TIP3    H229635   7.074   0.140   4.707
 9898TIP3   OH229636   8.153   2.114   4.881
 9898TIP3    H129637   8.104   2.188   4.917
 9898TIP3    H229638   8.094   2.039   4.889
 9899TIP3   OH229639   7.253   3.697   0.859
 9899TIP3    H129640   7.327   3.757   0.863
 9899TIP3    H229641   7.196   3.724   0.931
 9900TIP3   OH229642   6.484   1.236   5.574
 9900TIP3    H129643   6.557   1.246   5.513
 9900TIP3    H229644   6.520   1.187   5.648
 9901TIP3   OH229645   5.456   0.906   1.821
 9901TIP3    H129646   5.396   0.977   1.843
 9901TIP3    H229647   5.543   0.945   1.830
 9902TIP3   OH229648   0.760   6.119   0.980
 9902TIP3    H129649   0.802   6.089   1.060
 9902TIP3    H229650   0.745   6.212   0.994
 9903TIP3   OH229651   1.885   5.587   5.158
 9903TIP3    H129652   1.964   5.534   5.145
 9903TIP3    H229653   1.913   5.676   5.138
 9904TIP3   OH229654   4.519   3.062   4.800
 9904TIP3    H129655   4.461   2.987   4.815
 9904TIP3    H229656   4.602   3.023   4.773
 9905TIP3   OH229657   2.291   7.692   0.988
 9905TIP3    H129658   2.369   7.745   0.970
 9905TIP3    H229659   2.306   7.658   1.076
 9906TIP3   OH229660   7.579   1.557   5.314
 9906TIP3    H129661   7.492   1.595   5.322
 9906TIP3    H229662   7.581   1.486   5.378
 9907TIP3   OH229663   4.589   5.887   3.130
 9907TIP3    H129664   4.597   5.818   3.065
 9907TIP3    H229665   4.503   5.872   3.171
 9908TIP3   OH229666   6.685   3.156   1.844
 9908TIP3    H129667   6.780   3.163   1.846
 9908TIP3    H229668   6.668   3.069   1.808
 9909TIP3   OH229669   2.880   7.768   2.247
 9909TIP3    H129670   2.927   7.839   2.289
 9909TIP3    H229671   2.840   7.808   2.170
 9910TIP3   OH229672   3.397   3.955   4.039
 9910TIP3    H129673   3.412   3.934   3.947
 9910TIP3    H229674   3.485   3.963   4.076
 9911TIP3   OH229675   3.240   0.006   6.667
 9911TIP3    H129676   3.153  -0.024   6.642
 9911TIP3    H229677   3.292   0.000   6.587
 9912TIP3   OH229678   6.255   1.118   1.675
 9912TIP3    H129679   6.344   1.084   1.680
 9912TIP3    H229680   6.265   1.213   1.677
 9913TIP3   OH229681   5.113   7.287   0.895
 9913TIP3    H129682   5.073   7.374   0.898
 9913TIP3    H229683   5.094   7.249   0.981
 9914TIP3   OH229684   4.673   3.024   5.959
 9914TIP3    H129685   4.581   3.001   5.948
 9914TIP3    H229686   4.688   3.016   6.053
 9915TIP3   OH229687   4.784   0.095   1.992
 9915TIP3    H129688   4.691   0.092   2.016
 9915TIP3    H229689   4.829   0.123   2.072
 9916TIP3   OH229690   1.763   4.038   5.492
 9916TIP3    H129691   1.711   4.010   5.567
 9916TIP3    H229692   1.722   3.995   5.417
 9917TIP3   OH229693   6.215   1.229   6.137
 9917TIP3    H129694   6.273   1.290   6.182
 9917TIP3    H229695   6.274   1.165   6.096
 9918TIP3   OH229696   7.271   7.362   0.255
 9918TIP3    H129697   7.225   7.417   0.193
 9918TIP3    H229698   7.234   7.274   0.242
 9919TIP3   OH229699   3.324   6.668   4.717
 9919TIP3    H129700   3.409   6.653   4.676
 9919TIP3    H229701   3.283   6.736   4.664
 9920TIP3   OH229702   7.983   7.385   5.378
 9920TIP3    H129703   8.033   7.418   5.303
 9920TIP3    H229704   8.019   7.433   5.453
 9921TIP3   OH229705   1.911   3.012   0.853
 9921TIP3    H129706   1.858   3.072   0.906
 9921TIP3    H229707   1.998   3.018   0.891
 9922TIP3   OH229708   5.734   3.137   5.395
 9922TIP3    H129709   5.826   3.160   5.379
 9922TIP3    H229710   5.704   3.199   5.461
 9923TIP3   OH229711   3.905   0.578   2.887
 9923TIP3    H129712   3.985   0.547   2.932
 9923TIP3    H229713   3.846   0.503   2.890
 9924TIP3   OH229714   0.418   3.480   6.345
 9924TIP3    H129715   0.403   3.459   6.252
 9924TIP3    H229716   0.479   3.414   6.375
 9925TIP3   OH229717   0.585   3.045   1.136
 9925TIP3    H129718   0.513   3.106   1.122
 9925TIP3    H229719   0.564   2.971   1.079
 9926TIP3   OH229720   8.022   4.108   1.987
 9926TIP3    H129721   7.935   4.148   1.985
 9926TIP3    H229722   8.043   4.093   1.895
 9927TIP3   OH229723   1.116   6.748   4.509
 9927TIP3    H129724   1.203   6.749   4.469
 9927TIP3    H229725   1.133   6.740   4.603
 9928TIP3   OH229726   2.263   5.946   5.969
 9928TIP3    H129727   2.336   6.008   5.962
 9928TIP3    H229728   2.255   5.909   5.882
 9929TIP3   OH229729   0.561   7.647   4.432
 9929TIP3    H129730   0.511   7.705   4.490
 9929TIP3    H229731   0.637   7.622   4.484
 9930TIP3   OH229732   3.117   4.139   3.708
 9930TIP3    H129733   3.093   4.120   3.799
 9930TIP3    H229734   3.081   4.066   3.658
 9931TIP3   OH229735  -0.004   5.014   5.058
 9931TIP3    H129736   0.072   4.960   5.036
 9931TIP3    H229737   0.033   5.100   5.081
 9932TIP3   OH229738   6.997   2.645   5.330
 9932TIP3    H129739   7.063   2.697   5.376
 9932TIP3    H229740   6.948   2.708   5.279
 9933TIP3   OH229741   3.396   5.496   5.096
 9933TIP3    H129742   3.396   5.532   5.185
 9933TIP3    H229743   3.475   5.442   5.092
 9934TIP3   OH229744   6.952   4.539   0.984
 9934TIP3    H129745   6.929   4.556   0.893
 9934TIP3    H229746   6.931   4.446   0.997
 9935TIP3   OH229747   7.604   5.382   1.855
 9935TIP3    H129748   7.620   5.287   1.849
 9935TIP3    H229749   7.656   5.420   1.784
 9936TIP3   OH229750   2.822   2.170   4.964
 9936TIP3    H129751   2.789   2.097   5.017
 9936TIP3    H229752   2.877   2.220   5.024
 9937TIP3   OH229753   7.628   5.816   0.061
 9937TIP3    H129754   7.657   5.733   0.023
 9937TIP3    H229755   7.538   5.827   0.031
 9938TIP3   OH229756   0.466   7.265   3.477
 9938TIP3    H129757   0.374   7.266   3.452
 9938TIP3    H229758   0.494   7.356   3.466
 9939TIP3   OH229759   3.893   3.440   4.505
 9939TIP3    H129760   3.852   3.434   4.419
 9939TIP3    H229761   3.840   3.385   4.562
 9940TIP3   OH229762   2.574   6.145   0.926
 9940TIP3    H129763   2.571   6.099   1.010
 9940TIP3    H229764   2.492   6.195   0.923
 9941TIP3   OH229765   8.179   2.683   2.920
 9941TIP3    H129766   8.228   2.613   2.963
 9941TIP3    H229767   8.106   2.639   2.876
 9942TIP3   OH229768   1.226   6.009   1.543
 9942TIP3    H129769   1.317   6.032   1.562
 9942TIP3    H229770   1.220   5.916   1.561
 9943TIP3   OH229771   6.000   0.725   1.428
 9943TIP3    H129772   5.937   0.780   1.381
 9943TIP3    H229773   6.052   0.786   1.479
 9944TIP3   OH229774   7.224   4.734   4.420
 9944TIP3    H129775   7.265   4.798   4.478
 9944TIP3    H229776   7.268   4.651   4.441
 9945TIP3   OH229777   3.089   7.473   0.899
 9945TIP3    H129778   3.114   7.504   0.812
 9945TIP3    H229779   3.032   7.398   0.881
 9946TIP3   OH229780   4.046   1.437   2.922
 9946TIP3    H129781   3.986   1.461   2.993
 9946TIP3    H229782   4.043   1.512   2.863
 9947TIP3   OH229783   7.845   2.028   1.715
 9947TIP3    H129784   7.802   2.090   1.656
 9947TIP3    H229785   7.780   2.013   1.784
 9948TIP3   OH229786   6.674   7.082   1.295
 9948TIP3    H129787   6.665   7.060   1.388
 9948TIP3    H229788   6.744   7.148   1.294
 9949TIP3   OH229789   1.761   4.788   2.392
 9949TIP3    H129790   1.715   4.801   2.309
 9949TIP3    H229791   1.692   4.761   2.454
 9950TIP3   OH229792   5.170   5.941   2.443
 9950TIP3    H129793   5.243   5.958   2.384
 9950TIP3    H229794   5.095   5.985   2.403
 9951TIP3   OH229795   5.547   6.584   5.498
 9951TIP3    H129796   5.461   6.605   5.534
 9951TIP3    H229797   5.529   6.519   5.430
 9952TIP3   OH229798   2.141   2.311   2.599
 9952TIP3    H129799   2.052   2.339   2.618
 9952TIP3    H229800   2.154   2.331   2.506
 9953TIP3   OH229801   6.426   4.065   4.816
 9953TIP3    H129802   6.404   4.147   4.772
 9953TIP3    H229803   6.515   4.044   4.786
 9954TIP3   OH229804   6.515   2.577   5.829
 9954TIP3    H129805   6.574   2.608   5.761
 9954TIP3    H229806   6.564   2.508   5.874
 9955TIP3   OH229807   3.558   2.986   5.092
 9955TIP3    H129808   3.589   2.900   5.118
 9955TIP3    H229809   3.500   2.970   5.018
 9956TIP3   OH229810   4.650   2.818   1.604
 9956TIP3    H129811   4.742   2.828   1.578
 9956TIP3    H229812   4.652   2.747   1.669
 9957TIP3   OH229813   7.361   2.515   2.709
 9957TIP3    H129814   7.390   2.485   2.623
 9957TIP3    H229815   7.391   2.447   2.769
 9958TIP3   OH229816   7.198   1.771   3.368
 9958TIP3    H129817   7.124   1.727   3.410
 9958TIP3    H229818   7.209   1.851   3.419
 9959TIP3   OH229819   4.661   3.160   2.064
 9959TIP3    H129820   4.691   3.142   1.975
 9959TIP3    H229821   4.711   3.099   2.119
 9960TIP3   OH229822   3.991   0.997   5.107
 9960TIP3    H129823   3.972   0.946   5.028
 9960TIP3    H229824   4.077   1.036   5.090
 9961TIP3   OH229825   6.657   0.642   5.822
 9961TIP3    H129826   6.660   0.598   5.737
 9961TIP3    H229827   6.593   0.712   5.811
 9962TIP3   OH229828   4.289   5.442   1.805
 9962TIP3    H129829   4.301   5.377   1.735
 9962TIP3    H229830   4.362   5.503   1.794
 9963TIP3   OH229831   7.167   4.801   2.195
 9963TIP3    H129832   7.193   4.711   2.214
 9963TIP3    H229833   7.096   4.819   2.256
 9964TIP3   OH229834   7.531   0.317   5.160
 9964TIP3    H129835   7.500   0.258   5.229
 9964TIP3    H229836   7.504   0.274   5.079
 9965TIP3   OH229837   6.431   6.691   0.914
 9965TIP3    H129838   6.524   6.690   0.889
 9965TIP3    H229839   6.423   6.766   0.973
 9966TIP3   OH229840   6.755   4.111   1.831
 9966TIP3    H129841   6.677   4.166   1.836
 9966TIP3    H229842   6.723   4.026   1.802
 9967TIP3   OH229843   7.632   3.691   4.927
 9967TIP3    H129844   7.608   3.751   4.997
 9967TIP3    H229845   7.723   3.712   4.907
 9968TIP3   OH229846   3.516   6.749   2.343
 9968TIP3    H129847   3.539   6.836   2.312
 9968TIP3    H229848   3.515   6.695   2.265
 9969TIP3   OH229849   4.222   2.742   5.423
 9969TIP3    H129850   4.168   2.676   5.380
 9969TIP3    H229851   4.296   2.693   5.459
 9970TIP3   OH229852   7.068   0.248   3.631
 9970TIP3    H129853   7.092   0.182   3.697
 9970TIP3    H229854   7.000   0.207   3.579
 9971TIP3   OH229855   0.887   0.568   6.346
 9971TIP3    H129856   0.976   0.534   6.347
 9971TIP3    H229857   0.857   0.559   6.437
 9972TIP3   OH229858   6.773   5.825   3.562
 9972TIP3    H129859   6.857   5.858   3.594
 9972TIP3    H229860   6.795   5.769   3.488
 9973TIP3   OH229861   7.488   5.649   0.315
 9973TIP3    H129862   7.459   5.713   0.251
 9973TIP3    H229863   7.558   5.692   0.364
 9974TIP3   OH229864   6.710   4.765   3.783
 9974TIP3    H129865   6.726   4.835   3.846
 9974TIP3    H229866   6.783   4.704   3.797
 9975TIP3   OH229867   2.724   1.466   1.663
 9975TIP3    H129868   2.740   1.492   1.754
 9975TIP3    H229869   2.642   1.508   1.639
 9976TIP3   OH229870   4.684   3.178   4.336
 9976TIP3    H129871   4.678   3.092   4.293
 9976TIP3    H229872   4.768   3.177   4.380
 9977TIP3   OH229873   6.070   1.680   1.724
 9977TIP3    H129874   6.012   1.613   1.689
 9977TIP3    H229875   6.106   1.723   1.646
 9978TIP3   OH229876   2.738   6.092   6.088
 9978TIP3    H129877   2.789   6.044   6.153
 9978TIP3    H229878   2.787   6.173   6.073
 9979TIP3   OH229879   5.205   6.864   5.305
 9979TIP3    H129880   5.279   6.926   5.310
 9979TIP3    H229881   5.129   6.916   5.332
 9980TIP3   OH229882   5.791   5.034   6.097
 9980TIP3    H129883   5.878   5.001   6.121
 9980TIP3    H229884   5.732   4.995   6.161
 9981TIP3   OH229885   2.513   4.131   0.513
 9981TIP3    H129886   2.593   4.172   0.548
 9981TIP3    H229887   2.442   4.176   0.558
 9982TIP3   OH229888   6.162   3.050   6.251
 9982TIP3    H129889   6.087   2.990   6.254
 9982TIP3    H229890   6.228   3.007   6.306
 9983TIP3   OH229891   1.860   4.475   6.171
 9983TIP3    H129892   1.853   4.389   6.212
 9983TIP3    H229893   1.804   4.469   6.094
 9984TIP3   OH229894   8.194   1.084   4.797
 9984TIP3    H129895   8.246   1.116   4.870
 9984TIP3    H229896   8.255   1.034   4.743
 9985TIP3   OH229897   6.565   3.618   6.134
 9985TIP3    H129898   6.579   3.579   6.221
 9985TIP3    H229899   6.593   3.709   6.144
 9986TIP3   OH229900   5.501   2.153   4.387
 9986TIP3    H129901   5.535   2.116   4.306
 9986TIP3    H229902   5.573   2.206   4.421
 9987TIP3   OH229903   1.086   7.503   0.847
 9987TIP3    H129904   1.115   7.582   0.892
 9987TIP3    H229905   1.119   7.513   0.757
 9988TIP3   OH229906   7.922   6.944   0.063
 9988TIP3    H129907   7.833   6.980   0.063
 9988TIP3    H229908   7.910   6.850   0.068
 9989TIP3   OH229909   2.208   5.673   6.330
 9989TIP3    H129910   2.288   5.715   6.362
 9989TIP3    H229911   2.239   5.606   6.269
 9990TIP3   OH229912   2.154   5.812   5.459
 9990TIP3    H129913   2.065   5.840   5.437
 9990TIP3    H229914   2.194   5.792   5.375
 9991TIP3   OH229915   2.447   4.242   4.031
 9991TIP3    H129916   2.525   4.186   4.029
 9991TIP3    H229917   2.374   4.181   4.038
 9992TIP3   OH229918   7.358   6.459   1.414
 9992TIP3    H129919   7.273   6.421   1.437
 9992TIP3    H229920   7.403   6.469   1.498
 9993TIP3   OH229921   3.003   4.133   2.782
 9993TIP3    H129922   3.085   4.163   2.744
 9993TIP3    H229923   2.994   4.042   2.753
 9994TIP3   OH229924   2.398   4.611   0.503
 9994TIP3    H129925   2.488   4.609   0.470
 9994TIP3    H229926   2.388   4.699   0.540
 9995TIP3   OH229927   3.260   1.043   3.907
 9995TIP3    H129928   3.271   0.949   3.922
 9995TIP3    H229929   3.285   1.057   3.816
 9996TIP3   OH229930   7.577   3.801   3.915
 9996TIP3    H129931   7.481   3.795   3.916
 9996TIP3    H229932   7.603   3.755   3.836
 9997TIP3   OH229933   0.516   0.566   3.963
 9997TIP3    H129934   0.431   0.606   3.947
 9997TIP3    H229935   0.550   0.545   3.876
 9998TIP3   OH229936   0.172   2.682   0.885
 9998TIP3    H129937   0.158   2.699   0.978
 9998TIP3    H229938   0.153   2.765   0.842
 9999TIP3   OH229939   5.236   7.515   5.523
 9999TIP3    H129940   5.176   7.588   5.541
 9999TIP3    H229941   5.302   7.522   5.591
10000TIP3   OH229942   1.302   6.972   4.359
10000TIP3    H129943   1.376   6.955   4.301
10000TIP3    H229944   1.230   6.920   4.322
10001TIP3   OH229945   7.842   7.261   2.202
10001TIP3    H129946   7.935   7.239   2.195
10001TIP3    H229947   7.798   7.177   2.212
10002TIP3   OH229948   5.741   7.303   0.769
10002TIP3    H129949   5.688   7.290   0.690
10002TIP3    H229950   5.829   7.323   0.736
10003TIP3   OH229951   2.434   1.511   2.168
10003TIP3    H129952   2.378   1.543   2.097
10003TIP3    H229953   2.421   1.416   2.168
10004TIP3   OH229954   7.149   3.415   6.235
10004TIP3    H129955   7.194   3.358   6.297
10004TIP3    H229956   7.172   3.504   6.261
10005TIP3   OH229957   8.149   5.535   2.855
10005TIP3    H129958   8.056   5.537   2.830
10005TIP3    H229959   8.170   5.441   2.857
10006TIP3   OH229960   7.288   5.944   2.268
10006TIP3    H129961   7.199   5.980   2.264
10006TIP3    H229962   7.277   5.857   2.306
10007TIP3   OH229963   4.901   1.545   1.633
10007TIP3    H129964   4.938   1.614   1.579
10007TIP3    H229965   4.973   1.483   1.647
10008TIP3   OH229966   8.187   6.907   5.545
10008TIP3    H129967   8.105   6.930   5.589
10008TIP3    H229968   8.183   6.954   5.462
10009TIP3   OH229969   7.664   6.797   1.751
10009TIP3    H129970   7.595   6.776   1.688
10009TIP3    H229971   7.696   6.883   1.725
10010TIP3   OH229972   7.978   1.535   0.346
10010TIP3    H129973   7.909   1.600   0.357
10010TIP3    H229974   8.054   1.571   0.391
10011TIP3   OH229975   1.153   1.140   1.240
10011TIP3    H129976   1.168   1.229   1.209
10011TIP3    H229977   1.058   1.128   1.231
10012TIP3   OH229978   8.182   7.328   3.584
10012TIP3    H129979   8.144   7.276   3.514
10012TIP3    H229980   8.271   7.293   3.595
10013TIP3   OH229981   7.501   4.403   4.900
10013TIP3    H129982   7.469   4.334   4.958
10013TIP3    H229983   7.449   4.480   4.924
10014TIP3   OH229984   5.957   1.426   3.207
10014TIP3    H129985   6.042   1.408   3.166
10014TIP3    H229986   5.972   1.411   3.300
10015TIP3   OH229987   6.158   5.922   1.376
10015TIP3    H129988   6.192   5.834   1.395
10015TIP3    H229989   6.236   5.977   1.374
10016TIP3   OH229990   6.660   7.592   6.126
10016TIP3    H129991   6.618   7.513   6.091
10016TIP3    H229992   6.592   7.659   6.123
10017TIP3   OH229993   4.069   4.105   2.827
10017TIP3    H129994   4.131   4.116   2.899
10017TIP3    H229995   4.007   4.039   2.859
10018TIP3   OH229996   1.175   4.750   5.258
10018TIP3    H129997   1.148   4.838   5.284
10018TIP3    H229998   1.238   4.724   5.326
10019TIP3   OH229999   7.212  -0.043   0.408
10019TIP3    H130000   7.284   0.011   0.441
10019TIP3    H230001   7.254  -0.125   0.382
10020TIP3   OH230002   2.052   7.212   4.589
10020TIP3    H130003   1.988   7.244   4.652
10020TIP3    H230004   2.000   7.170   4.520
10021TIP3   OH230005   0.700   3.243   1.928
10021TIP3    H130006   0.754   3.185   1.982
10021TIP3    H230007   0.658   3.302   1.991
10022TIP3   OH230008   4.287   5.109   0.170
10022TIP3    H130009   4.356   5.176   0.166
10022TIP3    H230010   4.213   5.149   0.124
10023TIP3   OH230011   7.265   0.912   2.794
10023TIP3    H130012   7.336   0.851   2.773
10023TIP3    H230013   7.231   0.940   2.709
10024TIP3   OH230014   6.374   5.489   4.152
10024TIP3    H130015   6.417   5.518   4.233
10024TIP3    H230016   6.336   5.568   4.116
10025TIP3   OH230017   1.108   3.937   3.248
10025TIP3    H130018   1.137   4.008   3.305
10025TIP3    H230019   1.133   3.965   3.160
10026TIP3   OH230020   0.914   6.917   0.696
10026TIP3    H130021   0.917   6.822   0.696
10026TIP3    H230022   0.821   6.939   0.687
10027TIP3   OH230023   6.933   3.362   5.860
10027TIP3    H130024   6.917   3.322   5.775
10027TIP3    H230025   6.849   3.357   5.905
10028TIP3   OH230026   4.075   6.647  -0.003
10028TIP3    H130027   4.060   6.591   0.073
10028TIP3    H230028   4.165   6.628  -0.030
10029TIP3   OH230029   5.653   4.453   1.424
10029TIP3    H130030   5.661   4.536   1.470
10029TIP3    H230031   5.588   4.470   1.356
10030TIP3   OH230032   6.491   1.790   0.730
10030TIP3    H130033   6.559   1.738   0.687
10030TIP3    H230034   6.445   1.727   0.786
10031TIP3   OH230035   7.469   3.321   2.576
10031TIP3    H130036   7.412   3.265   2.523
10031TIP3    H230037   7.547   3.333   2.522
10032TIP3   OH230038   7.803   2.313   6.454
10032TIP3    H130039   7.784   2.301   6.361
10032TIP3    H230040   7.854   2.393   6.458
10033TIP3   OH230041   5.920   2.446   0.539
10033TIP3    H130042   5.831   2.438   0.503
10033TIP3    H230043   5.950   2.356   0.548
10034TIP3   OH230044   1.287   7.414   1.788
10034TIP3    H130045   1.328   7.387   1.706
10034TIP3    H230046   1.361   7.439   1.845
10035TIP3   OH230047   4.150   5.479   0.203
10035TIP3    H130048   4.237   5.493   0.239
10035TIP3    H230049   4.156   5.512   0.113
10036TIP3   OH230050   4.159   0.829   6.707
10036TIP3    H130051   4.251   0.812   6.727
10036TIP3    H230052   4.137   0.766   6.638
10037TIP3   OH230053   5.466   6.093   0.913
10037TIP3    H130054   5.553   6.071   0.881
10037TIP3    H230055   5.481   6.158   0.981
10038TIP3   OH230056   1.004   6.672   2.523
10038TIP3    H130057   1.077   6.728   2.496
10038TIP3    H230058   1.000   6.603   2.457
10039TIP3   OH230059   1.930   6.093   5.586
10039TIP3    H130060   1.974   6.067   5.666
10039TIP3    H230061   1.912   6.010   5.541
10040TIP3   OH230062   2.940   6.643   4.229
10040TIP3    H130063   2.853   6.635   4.267
10040TIP3    H230064   2.967   6.733   4.247
10041TIP3   OH230065   7.468   2.444   4.599
10041TIP3    H130066   7.501   2.357   4.621
10041TIP3    H230067   7.458   2.442   4.504
10042TIP3   OH230068   3.579   1.698   3.126
10042TIP3    H130069   3.632   1.619   3.116
10042TIP3    H230070   3.593   1.747   3.045
10043TIP3   OH230071   1.251   0.787   6.341
10043TIP3    H130072   1.159   0.808   6.354
10043TIP3    H230073   1.271   0.722   6.408
10044TIP3   OH230074   4.025  -0.007   0.684
10044TIP3    H130075   4.066  -0.030   0.601
10044TIP3    H230076   4.074   0.069   0.714
10045TIP3   OH230077   7.959   4.101   1.445
10045TIP3    H130078   7.985   4.094   1.537
10045TIP3    H230079   8.025   4.052   1.397
10046TIP3   OH230080   7.036   4.683   6.636
10046TIP3    H130081   6.970   4.654   6.573
10046TIP3    H230082   6.987   4.731   6.702
10047TIP3   OH230083   3.061   0.834   2.772
10047TIP3    H130084   3.120   0.759   2.770
10047TIP3    H230085   3.064   0.868   2.683
10048TIP3   OH230086   2.185   3.336   1.678
10048TIP3    H130087   2.128   3.332   1.602
10048TIP3    H230088   2.225   3.250   1.683
10049TIP3   OH230089   7.068   3.829   5.912
10049TIP3    H130090   7.000   3.792   5.968
10049TIP3    H230091   7.029   3.907   5.874
10050TIP3   OH230092   4.959   4.160   2.010
10050TIP3    H130093   4.971   4.233   2.070
10050TIP3    H230094   4.915   4.198   1.934
10051TIP3   OH230095   7.111   4.378   2.564
10051TIP3    H130096   7.147   4.349   2.648
10051TIP3    H230097   7.091   4.471   2.578
10052TIP3   OH230098   0.148   1.397   2.533
10052TIP3    H130099   0.143   1.466   2.599
10052TIP3    H230100   0.240   1.371   2.532
10053TIP3   OH230101   0.773   3.331   3.344
10053TIP3    H130102   0.779   3.401   3.278
10053TIP3    H230103   0.807   3.371   3.424
10054TIP3   OH230104   5.474   6.651   2.725
10054TIP3    H130105   5.510   6.596   2.794
10054TIP3    H230106   5.427   6.591   2.667
10055TIP3   OH230107   2.636   6.825   1.020
10055TIP3    H130108   2.679   6.872   1.091
10055TIP3    H230109   2.554   6.872   1.006
10056TIP3   OH230110   2.974   4.447   2.328
10056TIP3    H130111   2.942   4.363   2.361
10056TIP3    H230112   3.062   4.429   2.296
10057TIP3   OH230113  -0.033   0.566   6.464
10057TIP3    H130114  -0.032   0.472   6.483
10057TIP3    H230115  -0.006   0.573   6.373
10058TIP3   OH230116   4.544   5.504   3.166
10058TIP3    H130117   4.630   5.466   3.184
10058TIP3    H230118   4.515   5.539   3.250
10059TIP3   OH230119   4.160   7.754   3.237
10059TIP3    H130120   4.234   7.806   3.270
10059TIP3    H230121   4.152   7.682   3.301
10060TIP3   OH230122   4.034   1.418   6.266
10060TIP3    H130123   3.949   1.393   6.303
10060TIP3    H230124   4.098   1.379   6.325
10061TIP3   OH230125   4.753   0.506   0.086
10061TIP3    H130126   4.782   0.597   0.095
10061TIP3    H230127   4.730   0.481   0.176
10062TIP3   OH230128   1.584   4.754   1.700
10062TIP3    H130129   1.502   4.799   1.678
10062TIP3    H230130   1.593   4.686   1.633
10063TIP3   OH230131   5.836   7.391   6.463
10063TIP3    H130132   5.783   7.430   6.394
10063TIP3    H230133   5.795   7.420   6.545
10064TIP3   OH230134   5.279   2.345   5.491
10064TIP3    H130135   5.213   2.323   5.425
10064TIP3    H230136   5.278   2.441   5.496
10065TIP3   OH230137   5.951   1.677   6.024
10065TIP3    H130138   5.949   1.634   6.109
10065TIP3    H230139   5.922   1.766   6.041
10066TIP3   OH230140   1.832   3.362   6.577
10066TIP3    H130141   1.765   3.358   6.646
10066TIP3    H230142   1.783   3.352   6.495
10067TIP3   OH230143   5.758   6.171   3.879
10067TIP3    H130144   5.725   6.235   3.943
10067TIP3    H230145   5.707   6.092   3.897
10068TIP3   OH230146   7.657   5.721   4.600
10068TIP3    H130147   7.631   5.813   4.610
10068TIP3    H230148   7.683   5.694   4.688
10069TIP3   OH230149   4.098   2.076   0.685
10069TIP3    H130150   4.137   2.073   0.598
10069TIP3    H230151   4.097   2.169   0.708
10070TIP3   OH230152   5.658   2.545   1.665
10070TIP3    H130153   5.727   2.607   1.638
10070TIP3    H230154   5.680   2.464   1.618
10071TIP3   OH230155   2.712   3.914   5.167
10071TIP3    H130156   2.786   3.957   5.211
10071TIP3    H230157   2.709   3.956   5.081
10072TIP3   OH230158   4.781   2.682   5.898
10072TIP3    H130159   4.765   2.769   5.935
10072TIP3    H230160   4.857   2.649   5.946
10073TIP3   OH230161   7.012   3.107   6.102
10073TIP3    H130162   7.081   3.169   6.080
10073TIP3    H230163   6.963   3.094   6.021
10074TIP3   OH230164   2.297   3.372   5.609
10074TIP3    H130165   2.321   3.409   5.694
10074TIP3    H230166   2.275   3.280   5.628
10075TIP3   OH230167   2.150   6.318   2.904
10075TIP3    H130168   2.176   6.228   2.923
10075TIP3    H230169   2.232   6.362   2.882
10076TIP3   OH230170   8.321   7.243   0.308
10076TIP3    H130171   8.311   7.334   0.280
10076TIP3    H230172   8.245   7.198   0.272
10077TIP3   OH230173   2.804   7.540   0.376
10077TIP3    H130174   2.853   7.621   0.389
10077TIP3    H230175   2.744   7.536   0.450
10078TIP3   OH230176   0.764   5.874   3.802
10078TIP3    H130177   0.721   5.954   3.831
10078TIP3    H230178   0.820   5.849   3.876
10079TIP3   OH230179   7.196   3.482   5.346
10079TIP3    H130180   7.268   3.497   5.284
10079TIP3    H230181   7.233   3.423   5.412
10080TIP3   OH230182   2.349   0.331   4.670
10080TIP3    H130183   2.415   0.397   4.688
10080TIP3    H230184   2.284   0.342   4.739
10081TIP3   OH230185   1.638   3.785   5.599
10081TIP3    H130186   1.612   3.807   5.509
10081TIP3    H230187   1.562   3.738   5.634
10082TIP3   OH230188   4.221   4.446   2.549
10082TIP3    H130189   4.130   4.416   2.549
10082TIP3    H230190   4.230   4.495   2.631
10083TIP3   OH230191   0.580   7.204   2.135
10083TIP3    H130192   0.552   7.185   2.225
10083TIP3    H230193   0.618   7.121   2.105
10084TIP3   OH230194   4.744   6.979   6.628
10084TIP3    H130195   4.793   6.978   6.546
10084TIP3    H230196   4.723   6.887   6.645
10085TIP3   OH230197   5.784   2.473   5.213
10085TIP3    H130198   5.825   2.395   5.174
10085TIP3    H230199   5.826   2.482   5.298
10086TIP3   OH230200   8.069   3.772   2.198
10086TIP3    H130201   8.162   3.788   2.180
10086TIP3    H230202   8.069   3.727   2.283
10087TIP3   OH230203   7.352   0.196   3.185
10087TIP3    H130204   7.424   0.201   3.248
10087TIP3    H230205   7.275   0.176   3.237
10088TIP3   OH230206   4.890   3.193   4.817
10088TIP3    H130207   4.884   3.230   4.729
10088TIP3    H230208   4.830   3.247   4.869
10089TIP3   OH230209   5.830   2.355   1.888
10089TIP3    H130210   5.761   2.294   1.863
10089TIP3    H230211   5.900   2.300   1.924
10090TIP3   OH230212   7.118   5.801   5.981
10090TIP3    H130213   7.179   5.804   5.908
10090TIP3    H230214   7.131   5.884   6.027
10091TIP3   OH230215   0.140   1.297   5.589
10091TIP3    H130216   0.133   1.315   5.683
10091TIP3    H230217   0.155   1.383   5.549
10092TIP3   OH230218   3.916   5.093   3.462
10092TIP3    H130219   3.826   5.121   3.476
10092TIP3    H230220   3.908   5.012   3.410
10093TIP3   OH230221   1.985   1.381   5.536
10093TIP3    H130222   1.932   1.349   5.463
10093TIP3    H230223   1.922   1.424   5.594
10094TIP3   OH230224   3.282   6.390   1.024
10094TIP3    H130225   3.210   6.372   1.084
10094TIP3    H230226   3.257   6.471   0.979
10095TIP3   OH230227   4.310   7.557   4.495
10095TIP3    H130228   4.380   7.525   4.438
10095TIP3    H230229   4.334   7.526   4.582
10096TIP3   OH230230   0.456   3.946   5.696
10096TIP3    H130231   0.434   3.901   5.778
10096TIP3    H230232   0.462   4.038   5.720
10097TIP3   OH230233   5.470   1.356   0.766
10097TIP3    H130234   5.378   1.334   0.751
10097TIP3    H230235   5.510   1.274   0.794
10098TIP3   OH230236   3.753   6.230   6.187
10098TIP3    H130237   3.754   6.147   6.139
10098TIP3    H230238   3.746   6.297   6.118
10099TIP3   OH230239   2.205   3.851   5.205
10099TIP3    H130240   2.227   3.828   5.295
10099TIP3    H230241   2.289   3.878   5.167
10100TIP3   OH230242   3.716   2.612   3.750
10100TIP3    H130243   3.668   2.569   3.679
10100TIP3    H230244   3.802   2.569   3.751
10101TIP3   OH230245   3.125   1.901   5.420
10101TIP3    H130246   3.085   1.932   5.501
10101TIP3    H230247   3.126   1.806   5.429
10102TIP3   OH230248   0.758   5.423   2.494
10102TIP3    H130249   0.740   5.517   2.502
10102TIP3    H230250   0.852   5.418   2.477
10103TIP3   OH230251   5.909   6.275   6.471
10103TIP3    H130252   5.823   6.263   6.431
10103TIP3    H230253   5.904   6.230   6.555
10104TIP3   OH230254   1.357   7.568   3.121
10104TIP3    H130255   1.350   7.574   3.216
10104TIP3    H230256   1.430   7.626   3.098
10105TIP3   OH230257   2.640   6.667   4.283
10105TIP3    H130258   2.595   6.731   4.228
10105TIP3    H230259   2.572   6.603   4.307
10106TIP3   OH230260   0.319   5.115   6.857
10106TIP3    H130261   0.386   5.144   6.795
10106TIP3    H230262   0.288   5.032   6.822
10107TIP3   OH230263   0.790   0.088   6.735
10107TIP3    H130264   0.821   0.002   6.709
10107TIP3    H230265   0.736   0.072   6.813
10108TIP3   OH230266   1.505   2.852   3.410
10108TIP3    H130267   1.569   2.793   3.450
10108TIP3    H230268   1.424   2.837   3.458
10109TIP3   OH230269   8.122   1.330   5.123
10109TIP3    H130270   8.201   1.329   5.177
10109TIP3    H230271   8.087   1.241   5.130
10110TIP3   OH230272   0.053   4.443   5.059
10110TIP3    H130273   0.007   4.498   4.996
10110TIP3    H230274   0.123   4.499   5.093
10111TIP3   OH230275   7.612   1.230   5.704
10111TIP3    H130276   7.566   1.312   5.723
10111TIP3    H230277   7.554   1.162   5.739
10112TIP3   OH230278   3.106   4.026   1.192
10112TIP3    H130279   3.031   3.995   1.242
10112TIP3    H230280   3.069   4.058   1.110
10113TIP3   OH230281   6.356   1.826   4.959
10113TIP3    H130282   6.382   1.820   4.866
10113TIP3    H230283   6.269   1.866   4.957
10114TIP3   OH230284   4.648   0.919   0.245
10114TIP3    H130285   4.571   0.906   0.299
10114TIP3    H230286   4.630   1.000   0.196
10115TIP3   OH230287   7.408   7.416   4.167
10115TIP3    H130288   7.403   7.493   4.111
10115TIP3    H230289   7.336   7.360   4.138
10116TIP3   OH230290   6.312   2.179   6.043
10116TIP3    H130291   6.322   2.143   6.131
10116TIP3    H230292   6.223   2.214   6.042
10117TIP3   OH230293   4.255   0.300   1.166
10117TIP3    H130294   4.295   0.343   1.090
10117TIP3    H230295   4.186   0.360   1.194
10118TIP3   OH230296   1.408   5.238   0.031
10118TIP3    H130297   1.372   5.289   0.104
10118TIP3    H230298   1.371   5.151   0.042
10119TIP3   OH230299   3.399   3.760   2.731
10119TIP3    H130300   3.354   3.843   2.711
10119TIP3    H230301   3.400   3.756   2.826
10120TIP3   OH230302   0.249   2.412   6.273
10120TIP3    H130303   0.265   2.504   6.252
10120TIP3    H230304   0.336   2.378   6.297
10121TIP3   OH230305   8.158   0.721   5.551
10121TIP3    H130306   8.209   0.665   5.611
10121TIP3    H230307   8.161   0.808   5.592
10122TIP3   OH230308   3.068   3.169   2.613
10122TIP3    H130309   3.000   3.178   2.546
10122TIP3    H230310   3.094   3.077   2.608
10123TIP3   OH230311   5.142   1.691   4.134
10123TIP3    H130312   5.238   1.692   4.136
10123TIP3    H230313   5.120   1.715   4.044
10124TIP3   OH230314   3.416   5.343   4.731
10124TIP3    H130315   3.474   5.390   4.791
10124TIP3    H230316   3.332   5.390   4.738
10125TIP3   OH230317   3.475   2.779   5.277
10125TIP3    H130318   3.557   2.754   5.234
10125TIP3    H230319   3.462   2.713   5.345
10126TIP3   OH230320   0.625   2.165   6.670
10126TIP3    H130321   0.561   2.147   6.738
10126TIP3    H230322   0.709   2.146   6.710
10127TIP3   OH230323   6.653   4.732   2.319
10127TIP3    H130324   6.621   4.642   2.327
10127TIP3    H230325   6.613   4.765   2.239
10128TIP3   OH230326   3.042   2.174   0.890
10128TIP3    H130327   3.106   2.168   0.820
10128TIP3    H230328   3.068   2.106   0.953
10129TIP3   OH230329   2.061   2.102   3.940
10129TIP3    H130330   2.101   2.180   3.900
10129TIP3    H230331   1.985   2.083   3.885
10130TIP3   OH230332   0.947   4.541   0.231
10130TIP3    H130333   0.941   4.631   0.200
10130TIP3    H230334   1.016   4.502   0.176
10131TIP3   OH230335   0.316   4.539   6.569
10131TIP3    H130336   0.305   4.444   6.568
10131TIP3    H230337   0.230   4.573   6.593
10132TIP3   OH230338   0.415   5.953   0.540
10132TIP3    H130339   0.335   5.901   0.541
10132TIP3    H230340   0.399   6.024   0.602
10133TIP3   OH230341   5.016   3.539   2.653
10133TIP3    H130342   4.972   3.495   2.580
10133TIP3    H230343   5.109   3.531   2.633
10134TIP3   OH230344   6.272   6.435   5.698
10134TIP3    H130345   6.227   6.513   5.666
10134TIP3    H230346   6.202   6.371   5.713
10135TIP3   OH230347   6.906   6.582   4.117
10135TIP3    H130348   6.981   6.586   4.057
10135TIP3    H230349   6.941   6.611   4.202
10136TIP3   OH230350   1.019   6.233   3.809
10136TIP3    H130351   1.011   6.320   3.770
10136TIP3    H230352   0.965   6.238   3.888
10137TIP3   OH230353   0.935   3.998   5.627
10137TIP3    H130354   0.941   3.915   5.675
10137TIP3    H230355   0.851   3.994   5.582
10138TIP3   OH230356   0.774   4.355   5.275
10138TIP3    H130357   0.860   4.398   5.277
10138TIP3    H230358   0.758   4.330   5.366
10139TIP3   OH230359   5.038   6.318   6.401
10139TIP3    H130360   4.977   6.251   6.432
10139TIP3    H230361   4.982   6.387   6.364
10140TIP3   OH230362   7.185   7.332   3.381
10140TIP3    H130363   7.105   7.281   3.392
10140TIP3    H230364   7.255   7.268   3.372
10141TIP3   OH230365   6.668   1.761   3.645
10141TIP3    H130366   6.702   1.676   3.670
10141TIP3    H230367   6.652   1.754   3.551
10142TIP3   OH230368   4.932   3.510   2.095
10142TIP3    H130369   4.918   3.599   2.128
10142TIP3    H230370   4.854   3.492   2.042
10143TIP3   OH230371   3.204   3.805   5.367
10143TIP3    H130372   3.207   3.896   5.338
10143TIP3    H230373   3.292   3.771   5.350
10144TIP3   OH230374   7.424   1.984   2.483
10144TIP3    H130375   7.343   2.012   2.524
10144TIP3    H230376   7.493   2.022   2.537
10145TIP3   OH230377   3.523   0.606   3.908
10145TIP3    H130378   3.560   0.583   3.823
10145TIP3    H230379   3.581   0.675   3.941
10146TIP3   OH230380   6.315   5.158   2.502
10146TIP3    H130381   6.404   5.181   2.529
10146TIP3    H230382   6.272   5.242   2.488
10147TIP3   OH230383   5.752   3.306   1.886
10147TIP3    H130384   5.818   3.356   1.838
10147TIP3    H230385   5.715   3.247   1.821
10148TIP3   OH230386   1.456   6.882   0.360
10148TIP3    H130387   1.532   6.909   0.310
10148TIP3    H230388   1.403   6.831   0.298
10149TIP3   OH230389   8.099   1.276   4.532
10149TIP3    H130390   8.066   1.237   4.452
10149TIP3    H230391   8.021   1.309   4.577
10150TIP3   OH230392   2.484   3.205   5.229
10150TIP3    H130393   2.567   3.156   5.226
10150TIP3    H230394   2.496   3.269   5.299
10151TIP3   OH230395   7.874   5.384   1.999
10151TIP3    H130396   7.918   5.326   1.937
10151TIP3    H230397   7.786   5.395   1.964
10152TIP3   OH230398   1.210   5.843   3.241
10152TIP3    H130399   1.234   5.850   3.333
10152TIP3    H230400   1.291   5.860   3.193
10153TIP3   OH230401   6.356   4.687   1.645
10153TIP3    H130402   6.440   4.726   1.622
10153TIP3    H230403   6.295   4.721   1.581
10154TIP3   OH230404   3.107   3.662   1.699
10154TIP3    H130405   3.159   3.720   1.755
10154TIP3    H230406   3.084   3.716   1.623
10155TIP3   OH230407   0.140   7.662   4.559
10155TIP3    H130408   0.194   7.716   4.501
10155TIP3    H230409   0.086   7.609   4.500
10156TIP3   OH230410   3.148   1.393   5.300
10156TIP3    H130411   3.215   1.441   5.250
10156TIP3    H230412   3.183   1.390   5.389
10157TIP3   OH230413   7.408   5.084   0.474
10157TIP3    H130414   7.372   4.995   0.472
10157TIP3    H230415   7.493   5.075   0.516
10158TIP3   OH230416   2.080   5.627   0.764
10158TIP3    H130417   2.143   5.564   0.800
10158TIP3    H230418   2.041   5.583   0.689
10159TIP3   OH230419   5.579   2.642   1.902
10159TIP3    H130420   5.489   2.672   1.900
10159TIP3    H230421   5.594   2.604   1.816
10160TIP3   OH230422   3.188   7.302   2.771
10160TIP3    H130423   3.110   7.344   2.807
10160TIP3    H230424   3.170   7.208   2.780
10161TIP3   OH230425   7.547   3.005   2.838
10161TIP3    H130426   7.460   3.004   2.876
10161TIP3    H230427   7.541   2.946   2.762
10162TIP3   OH230428   0.481   7.622   0.480
10162TIP3    H130429   0.513   7.545   0.433
10162TIP3    H230430   0.507   7.696   0.426
10163TIP3   OH230431   1.432   4.846   0.963
10163TIP3    H130432   1.453   4.894   0.883
10163TIP3    H230433   1.442   4.910   1.033
10164TIP3   OH230434   5.119   6.171   2.326
10164TIP3    H130435   5.121   6.263   2.301
10164TIP3    H230436   5.068   6.129   2.256
10165TIP3   OH230437   3.699   7.607   6.019
10165TIP3    H130438   3.708   7.595   6.114
10165TIP3    H230439   3.751   7.536   5.981
10166TIP3   OH230440   2.823   3.113   2.498
10166TIP3    H130441   2.743   3.165   2.489
10166TIP3    H230442   2.808   3.058   2.575
10167TIP3   OH230443   5.112   1.065   3.048
10167TIP3    H130444   5.134   1.072   3.141
10167TIP3    H230445   5.048   0.994   3.045
10168TIP3   OH230446   4.556   4.260   0.325
10168TIP3    H130447   4.558   4.277   0.231
10168TIP3    H230448   4.644   4.284   0.355
10169TIP3   OH230449   5.429   4.379   3.791
10169TIP3    H130450   5.465   4.297   3.760
10169TIP3    H230451   5.337   4.378   3.763
10170TIP3   OH230452   5.319   2.748   4.552
10170TIP3    H130453   5.275   2.753   4.637
10170TIP3    H230454   5.343   2.656   4.543
10171TIP3   OH230455   3.702   3.426   5.208
10171TIP3    H130456   3.708   3.435   5.113
10171TIP3    H230457   3.679   3.335   5.223
10172TIP3   OH230458   3.016   2.737   1.205
10172TIP3    H130459   2.958   2.797   1.252
10172TIP3    H230460   2.996   2.651   1.241
10173TIP3   OH230461   1.003   0.135   4.616
10173TIP3    H130462   0.963   0.049   4.606
10173TIP3    H230463   1.030   0.159   4.527
10174TIP3   OH230464   7.868   0.322   0.378
10174TIP3    H130465   7.853   0.374   0.299
10174TIP3    H230466   7.875   0.232   0.347
10175TIP3   OH230467   4.666   3.084   2.974
10175TIP3    H130468   4.667   3.009   2.914
10175TIP3    H230469   4.701   3.050   3.056
10176TIP3   OH230470   7.634   5.869   1.895
10176TIP3    H130471   7.572   5.880   1.824
10176TIP3    H230472   7.600   5.923   1.966
10177TIP3   OH230473   1.546   2.192   1.655
10177TIP3    H130474   1.532   2.119   1.715
10177TIP3    H230475   1.634   2.178   1.620
10178TIP3   OH230476   4.226   2.638   3.171
10178TIP3    H130477   4.268   2.671   3.250
10178TIP3    H230478   4.155   2.700   3.154
10179TIP3   OH230479   6.235   7.382   0.199
10179TIP3    H130480   6.307   7.434   0.236
10179TIP3    H230481   6.269   7.349   0.116
10180TIP3   OH230482   3.753   4.858   3.635
10180TIP3    H130483   3.772   4.794   3.567
10180TIP3    H230484   3.699   4.924   3.591
10181TIP3   OH230485   0.586   4.947   1.479
10181TIP3    H130486   0.550   4.985   1.558
10181TIP3    H230487   0.651   5.010   1.449
10182TIP3   OH230488   7.546  -0.025   2.774
10182TIP3    H130489   7.544   0.067   2.798
10182TIP3    H230490   7.456  -0.055   2.785
10183TIP3   OH230491   4.734   1.141   5.650
10183TIP3    H130492   4.665   1.116   5.589
10183TIP3    H230493   4.768   1.057   5.683
10184TIP3   OH230494   4.120   7.671   0.899
10184TIP3    H130495   4.133   7.590   0.849
10184TIP3    H230496   4.052   7.649   0.963
10185TIP3   OH230497   3.996   0.066   3.819
10185TIP3    H130498   3.941   0.120   3.876
10185TIP3    H230499   4.034   0.128   3.757
10186TIP3   OH230500   7.924   0.622  -0.025
10186TIP3    H130501   7.872   0.611   0.055
10186TIP3    H230502   7.928   0.535  -0.063
10187TIP3   OH230503   2.357   2.737   1.640
10187TIP3    H130504   2.272   2.762   1.604
10187TIP3    H230505   2.420   2.795   1.596
10188TIP3   OH230506   2.439   5.388   5.020
10188TIP3    H130507   2.388   5.311   5.044
10188TIP3    H230508   2.519   5.352   4.981
10189TIP3   OH230509   1.577   5.749   0.274
10189TIP3    H130510   1.553   5.657   0.259
10189TIP3    H230511   1.665   5.757   0.238
10190TIP3   OH230512   4.639   4.349   4.370
10190TIP3    H130513   4.708   4.282   4.369
10190TIP3    H230514   4.562   4.305   4.334
10191TIP3   OH230515   0.212   4.827   1.554
10191TIP3    H130516   0.276   4.761   1.580
10191TIP3    H230517   0.245   4.862   1.471
10192TIP3   OH230518   2.416   7.605   4.100
10192TIP3    H130519   2.384   7.567   4.018
10192TIP3    H230520   2.444   7.530   4.152
10193TIP3   OH230521   6.471   3.024   3.594
10193TIP3    H130522   6.394   3.021   3.537
10193TIP3    H230523   6.535   3.075   3.545
10194TIP3   OH230524   4.978   3.884   3.332
10194TIP3    H130525   4.920   3.810   3.312
10194TIP3    H230526   5.033   3.852   3.404
10195TIP3   OH230527   4.315   2.351   1.318
10195TIP3    H130528   4.287   2.295   1.391
10195TIP3    H230529   4.397   2.312   1.289
10196TIP3   OH230530   6.686   4.308   3.024
10196TIP3    H130531   6.608   4.336   2.975
10196TIP3    H230532   6.728   4.243   2.967
10197TIP3   OH230533   2.739   0.923   2.098
10197TIP3    H130534   2.693   0.864   2.157
10197TIP3    H230535   2.717   0.891   2.010
10198TIP3   OH230536   6.193   2.012   6.651
10198TIP3    H130537   6.276   2.049   6.620
10198TIP3    H230538   6.211   1.985   6.741
10199TIP3   OH230539   7.607   0.384   4.469
10199TIP3    H130540   7.650   0.385   4.383
10199TIP3    H230541   7.547   0.459   4.467
10200TIP3   OH230542   6.777   4.642   1.767
10200TIP3    H130543   6.787   4.549   1.789
10200TIP3    H230544   6.820   4.688   1.839
10201TIP3   OH230545   7.742   4.302   6.621
10201TIP3    H130546   7.755   4.289   6.527
10201TIP3    H230547   7.713   4.217   6.654
10202TIP3   OH230548   2.917   3.791   3.275
10202TIP3    H130549   2.895   3.782   3.367
10202TIP3    H230550   2.994   3.849   3.274
10203TIP3   OH230551   0.347   4.884   2.009
10203TIP3    H130552   0.303   4.805   2.040
10203TIP3    H230553   0.424   4.892   2.065
10204TIP3   OH230554   0.263   2.910   5.439
10204TIP3    H130555   0.346   2.926   5.395
10204TIP3    H230556   0.198   2.914   5.369
10205TIP3   OH230557   3.927   0.093   5.170
10205TIP3    H130558   3.964   0.042   5.098
10205TIP3    H230559   4.003   0.113   5.226
10206TIP3   OH230560   6.184   6.368   5.067
10206TIP3    H130561   6.178   6.461   5.048
10206TIP3    H230562   6.236   6.364   5.148
10207TIP3   OH230563   1.863   2.360   3.977
10207TIP3    H130564   1.914   2.417   4.034
10207TIP3    H230565   1.899   2.376   3.890
10208TIP3   OH230566   4.645   0.283   1.402
10208TIP3    H130567   4.695   0.216   1.355
10208TIP3    H230568   4.573   0.235   1.442
10209TIP3   OH230569   3.351   6.050   1.587
10209TIP3    H130570   3.398   6.133   1.587
10209TIP3    H230571   3.264   6.072   1.554
10210TIP3   OH230572   1.020   4.803   4.416
10210TIP3    H130573   1.000   4.895   4.398
10210TIP3    H230574   0.938   4.767   4.448
10211TIP3   OH230575   1.345   3.493   3.535
10211TIP3    H130576   1.424   3.499   3.589
10211TIP3    H230577   1.329   3.583   3.506
10212TIP3   OH230578   4.901   5.486   3.323
10212TIP3    H130579   4.890   5.552   3.390
10212TIP3    H230580   4.990   5.453   3.336
10213TIP3   OH230581   2.719   4.260   0.605
10213TIP3    H130582   2.782   4.319   0.563
10213TIP3    H230583   2.680   4.313   0.674
10214TIP3   OH230584   0.813   4.203   6.392
10214TIP3    H130585   0.871   4.240   6.325
10214TIP3    H230586   0.814   4.268   6.462
10215TIP3   OH230587   6.157   1.094   3.077
10215TIP3    H130588   6.241   1.050   3.088
10215TIP3    H230589   6.169   1.150   3.000
10216TIP3   OH230590   2.269   1.552   3.567
10216TIP3    H130591   2.254   1.537   3.661
10216TIP3    H230592   2.339   1.617   3.564
10217TIP3   OH230593   2.343   0.473   6.242
10217TIP3    H130594   2.253   0.472   6.275
10217TIP3    H230595   2.390   0.415   6.301
10218TIP3   OH230596   3.783   1.774   4.372
10218TIP3    H130597   3.766   1.728   4.454
10218TIP3    H230598   3.861   1.827   4.390
10219TIP3   OH230599   3.028   5.047   6.332
10219TIP3    H130600   2.988   4.998   6.260
10219TIP3    H230601   3.041   5.135   6.297
10220TIP3   OH230602   1.444   7.121   1.049
10220TIP3    H130603   1.503   7.175   1.101
10220TIP3    H230604   1.495   7.041   1.031
10221TIP3   OH230605   4.009   5.120   6.384
10221TIP3    H130606   3.995   5.030   6.354
10221TIP3    H230607   3.922   5.150   6.412
10222TIP3   OH230608   3.927   2.236   0.929
10222TIP3    H130609   4.011   2.264   0.891
10222TIP3    H230610   3.950   2.210   1.018
10223TIP3   OH230611   2.182   5.276   1.059
10223TIP3    H130612   2.246   5.207   1.077
10223TIP3    H230613   2.167   5.319   1.143
10224TIP3   OH230614   4.260   2.145   3.632
10224TIP3    H130615   4.230   2.186   3.713
10224TIP3    H230616   4.205   2.067   3.623
10225TIP3   OH230617   0.472   6.062   4.960
10225TIP3    H130618   0.565   6.072   4.977
10225TIP3    H230619   0.429   6.113   5.029
10226TIP3   OH230620   6.523   4.302   3.836
10226TIP3    H130621   6.530   4.303   3.931
10226TIP3    H230622   6.603   4.258   3.806
10227TIP3   OH230623   1.905   2.910   5.493
10227TIP3    H130624   1.929   2.951   5.410
10227TIP3    H230625   1.922   2.977   5.559
10228TIP3   OH230626   4.538   4.283   3.002
10228TIP3    H130627   4.561   4.359   2.949
10228TIP3    H230628   4.578   4.300   3.087
10229TIP3   OH230629   5.399   2.634   2.743
10229TIP3    H130630   5.428   2.647   2.833
10229TIP3    H230631   5.345   2.710   2.724
10230TIP3   OH230632   4.654   1.734   1.353
10230TIP3    H130633   4.646   1.639   1.368
10230TIP3    H230634   4.563   1.764   1.344
10231TIP3   OH230635   6.363   5.997   0.519
10231TIP3    H130636   6.337   5.970   0.431
10231TIP3    H230637   6.284   5.986   0.572
10232TIP3   OH230638   1.273   6.352   1.658
10232TIP3    H130639   1.216   6.414   1.610
10232TIP3    H230640   1.217   6.318   1.728
10233TIP3   OH230641   5.966   6.948   3.867
10233TIP3    H130642   5.891   6.935   3.925
10233TIP3    H230643   5.938   6.913   3.782
10234TIP3   OH230644   6.585   5.351   6.236
10234TIP3    H130645   6.513   5.400   6.276
10234TIP3    H230646   6.596   5.275   6.292
10235TIP3   OH230647   2.390   4.382   1.085
10235TIP3    H130648   2.400   4.473   1.057
10235TIP3    H230649   2.372   4.388   1.179
10236TIP3   OH230650   5.295   7.650   3.682
10236TIP3    H130651   5.296   7.567   3.730
10236TIP3    H230652   5.359   7.637   3.612
10237TIP3   OH230653   6.297   0.554   4.494
10237TIP3    H130654   6.392   0.555   4.484
10237TIP3    H230655   6.272   0.464   4.473
10238TIP3   OH230656   3.409   3.143   0.574
10238TIP3    H130657   3.403   3.048   0.558
10238TIP3    H230658   3.488   3.152   0.627
10239TIP3   OH230659   1.878   2.043   6.356
10239TIP3    H130660   1.877   2.131   6.393
10239TIP3    H230661   1.962   2.037   6.310
10240TIP3   OH230662   1.595   3.353   3.098
10240TIP3    H130663   1.577   3.264   3.070
10240TIP3    H230664   1.634   3.395   3.022
10241TIP3   OH230665   2.345   3.341   2.126
10241TIP3    H130666   2.433   3.362   2.095
10241TIP3    H230667   2.321   3.261   2.080
10242TIP3   OH230668   2.713   0.636   3.048
10242TIP3    H130669   2.802   0.669   3.046
10242TIP3    H230670   2.663   0.698   2.995
10243TIP3   OH230671   1.073   7.236   0.220
10243TIP3    H130672   1.107   7.265   0.135
10243TIP3    H230673   1.145   7.250   0.281
10244TIP3   OH230674   3.670   2.740   3.228
10244TIP3    H130675   3.636   2.681   3.295
10244TIP3    H230676   3.593   2.784   3.192
10245TIP3   OH230677   0.787   0.264   1.354
10245TIP3    H130678   0.828   0.184   1.387
10245TIP3    H230679   0.861   0.323   1.337
10246TIP3   OH230680   5.428   7.745   4.246
10246TIP3    H130681   5.442   7.831   4.285
10246TIP3    H230682   5.342   7.717   4.279
10247TIP3   OH230683   6.113   0.879   3.913
10247TIP3    H130684   6.196   0.897   3.868
10247TIP3    H230685   6.065   0.962   3.909
10248TIP3   OH230686   6.511   6.275   0.387
10248TIP3    H130687   6.442   6.306   0.445
10248TIP3    H230688   6.560   6.212   0.441
10249TIP3   OH230689   7.685   0.977   4.891
10249TIP3    H130690   7.755   1.028   4.850
10249TIP3    H230691   7.699   0.888   4.860
10250TIP3   OH230692   1.213   1.202   6.468
10250TIP3    H130693   1.292   1.157   6.498
10250TIP3    H230694   1.151   1.131   6.450
10251TIP3   OH230695   7.636   7.273   0.983
10251TIP3    H130696   7.648   7.367   0.999
10251TIP3    H230697   7.673   7.259   0.896
10252TIP3   OH230698   8.002   0.273   5.461
10252TIP3    H130699   8.086   0.294   5.420
10252TIP3    H230700   7.958   0.217   5.398
10253TIP3   OH230701   3.263   3.942   5.866
10253TIP3    H130702   3.256   3.918   5.774
10253TIP3    H230703   3.257   3.859   5.914
10254TIP3   OH230704   6.246   5.794   6.688
10254TIP3    H130705   6.289   5.879   6.695
10254TIP3    H230706   6.152   5.814   6.698
10255TIP3   OH230707   3.743   4.320   2.407
10255TIP3    H130708   3.709   4.409   2.410
10255TIP3    H230709   3.686   4.275   2.344
10256TIP3   OH230710   1.814   1.472   5.720
10256TIP3    H130711   1.810   1.386   5.760
10256TIP3    H230712   1.723   1.498   5.709
10257TIP3   OH230713   3.287   6.036   0.387
10257TIP3    H130714   3.351   6.095   0.347
10257TIP3    H230715   3.205   6.055   0.342
10258TIP3   OH230716   4.673   4.935   0.423
10258TIP3    H130717   4.742   4.995   0.396
10258TIP3    H230718   4.648   4.889   0.343
10259TIP3   OH230719   7.869   2.377   0.993
10259TIP3    H130720   7.810   2.314   1.032
10259TIP3    H230721   7.848   2.376   0.899
10260TIP3   OH230722   4.258   6.448   2.594
10260TIP3    H130723   4.259   6.473   2.686
10260TIP3    H230724   4.347   6.466   2.564
10261TIP3   OH230725   6.655   0.742   2.631
10261TIP3    H130726   6.666   0.761   2.724
10261TIP3    H230727   6.630   0.650   2.628
10262TIP3   OH230728   5.426   2.991   3.172
10262TIP3    H130729   5.405   3.084   3.157
10262TIP3    H230730   5.442   2.956   3.085
10263TIP3   OH230731   0.406   4.523   0.452
10263TIP3    H130732   0.471   4.594   0.447
10263TIP3    H230733   0.382   4.507   0.361
10264TIP3   OH230734   2.359   3.503   4.613
10264TIP3    H130735   2.395   3.529   4.698
10264TIP3    H230736   2.400   3.419   4.595
10265TIP3   OH230737   7.830   1.226   2.738
10265TIP3    H130738   7.755   1.277   2.769
10265TIP3    H230739   7.803   1.194   2.653
10266TIP3   OH230740   7.251   1.014   3.813
10266TIP3    H130741   7.326   0.965   3.777
10266TIP3    H230742   7.291   1.085   3.863
10267TIP3   OH230743   7.040   6.007   0.384
10267TIP3    H130744   7.020   5.917   0.358
10267TIP3    H230745   6.969   6.059   0.347
10268TIP3   OH230746   7.281   3.514   5.738
10268TIP3    H130747   7.218   3.574   5.698
10268TIP3    H230748   7.257   3.428   5.704
10269TIP3   OH230749   0.872   1.727   4.057
10269TIP3    H130750   0.959   1.688   4.046
10269TIP3    H230751   0.868   1.797   3.992
10270TIP3   OH230752   3.938   5.313   4.185
10270TIP3    H130753   3.869   5.375   4.162
10270TIP3    H230754   3.933   5.246   4.118
10271TIP3   OH230755   1.085   3.999   1.264
10271TIP3    H130756   1.032   3.947   1.203
10271TIP3    H230757   1.134   3.935   1.315
10272TIP3   OH230758   2.379   3.082   0.847
10272TIP3    H130759   2.417   3.121   0.925
10272TIP3    H230760   2.453   3.043   0.801
10273TIP3   OH230761   1.847   0.152   1.799
10273TIP3    H130762   1.886   0.181   1.716
10273TIP3    H230763   1.919   0.109   1.845
10274TIP3   OH230764   4.621   7.194   2.891
10274TIP3    H130765   4.568   7.166   2.966
10274TIP3    H230766   4.626   7.116   2.836
10275TIP3   OH230767   1.370   0.795   0.035
10275TIP3    H130768   1.310   0.723   0.019
10275TIP3    H230769   1.353   0.821   0.126
10276TIP3   OH230770   4.982   4.562   4.941
10276TIP3    H130771   4.936   4.519   4.868
10276TIP3    H230772   5.072   4.532   4.933
10277TIP3   OH230773   6.080   5.110   0.129
10277TIP3    H130774   6.017   5.041   0.107
10277TIP3    H230775   6.155   5.093   0.072
10278TIP3   OH230776   6.590   1.354   1.296
10278TIP3    H130777   6.573   1.330   1.387
10278TIP3    H230778   6.686   1.364   1.292
10279TIP3   OH230779   3.200   3.721   0.222
10279TIP3    H130780   3.123   3.771   0.248
10279TIP3    H230781   3.190   3.709   0.127
10280TIP3   OH230782   4.105   6.313   5.177
10280TIP3    H130783   4.126   6.339   5.267
10280TIP3    H230784   4.152   6.376   5.122
10281TIP3   OH230785   1.880   3.969   6.430
10281TIP3    H130786   1.800   3.954   6.379
10281TIP3    H230787   1.888   4.064   6.435
10282TIP3   OH230788   2.141   0.360   4.226
10282TIP3    H130789   2.201   0.286   4.235
10282TIP3    H230790   2.062   0.332   4.273
10283TIP3   OH230791   6.831   0.784   6.521
10283TIP3    H130792   6.818   0.784   6.616
10283TIP3    H230793   6.756   0.832   6.487
10284TIP3   OH230794   5.444   1.537   1.258
10284TIP3    H130795   5.497   1.515   1.182
10284TIP3    H230796   5.454   1.463   1.317
10285TIP3   OH230797   3.699   4.603   0.574
10285TIP3    H130798   3.624   4.662   0.582
10285TIP3    H230799   3.703   4.582   0.481
10286TIP3   OH230800   7.149   1.711   6.754
10286TIP3    H130801   7.138   1.660   6.674
10286TIP3    H230802   7.076   1.685   6.809
10287TIP3   OH230803   0.030   4.034   1.622
10287TIP3    H130804   0.047   3.941   1.634
10287TIP3    H230805   0.081   4.059   1.545
10288TIP3   OH230806   2.015   1.265   0.856
10288TIP3    H130807   2.051   1.184   0.893
10288TIP3    H230808   2.089   1.308   0.814
10289TIP3   OH230809   1.794   6.954   4.703
10289TIP3    H130810   1.830   6.928   4.618
10289TIP3    H230811   1.870   6.958   4.761
10290TIP3   OH230812   1.579   2.040   0.792
10290TIP3    H130813   1.511   1.984   0.756
10290TIP3    H230814   1.634   2.063   0.717
10291TIP3   OH230815   4.213   1.714   0.207
10291TIP3    H130816   4.296   1.698   0.163
10291TIP3    H230817   4.147   1.710   0.138
10292TIP3   OH230818   2.410   6.605   3.784
10292TIP3    H130819   2.384   6.517   3.757
10292TIP3    H230820   2.329   6.647   3.813
10293TIP3   OH230821   4.526   1.131   5.477
10293TIP3    H130822   4.492   1.218   5.458
10293TIP3    H230823   4.548   1.094   5.392
10294TIP3   OH230824   8.096   2.129   5.278
10294TIP3    H130825   8.050   2.124   5.195
10294TIP3    H230826   8.093   2.222   5.301
10295TIP3   OH230827   7.692   4.391   0.727
10295TIP3    H130828   7.616   4.423   0.777
10295TIP3    H230829   7.704   4.301   0.757
10296TIP3   OH230830   4.799   4.463   6.331
10296TIP3    H130831   4.712   4.490   6.362
10296TIP3    H230832   4.791   4.461   6.236
10297TIP3   OH230833   4.979   3.749   0.505
10297TIP3    H130834   4.984   3.838   0.470
10297TIP3    H230835   4.903   3.751   0.564
10298TIP3   OH230836   0.954   4.737   5.657
10298TIP3    H130837   1.002   4.733   5.574
10298TIP3    H230838   1.006   4.796   5.711
10299TIP3   OH230839   7.582   5.803   3.386
10299TIP3    H130840   7.665   5.758   3.372
10299TIP3    H230841   7.554   5.830   3.298
10300TIP3   OH230842   1.470   2.543   5.938
10300TIP3    H130843   1.482   2.454   5.904
10300TIP3    H230844   1.409   2.584   5.877
10301TIP3   OH230845   2.998   6.132   5.173
10301TIP3    H130846   2.968   6.066   5.110
10301TIP3    H230847   3.080   6.165   5.136
10302TIP3   OH230848   0.689   0.391   2.295
10302TIP3    H130849   0.626   0.424   2.359
10302TIP3    H230850   0.683   0.296   2.303
10303TIP3   OH230851   2.836   6.290   5.711
10303TIP3    H130852   2.807   6.280   5.621
10303TIP3    H230853   2.866   6.203   5.737
10304TIP3   OH230854   6.013   4.246   4.729
10304TIP3    H130855   6.016   4.159   4.770
10304TIP3    H230856   5.969   4.302   4.793
10305TIP3   OH230857   2.232   5.316   2.642
10305TIP3    H130858   2.252   5.224   2.621
10305TIP3    H230859   2.212   5.356   2.557
10306TIP3   OH230860   1.117   7.071   0.604
10306TIP3    H130861   1.134   7.142   0.667
10306TIP3    H230862   1.032   7.036   0.631
10307TIP3   OH230863   3.007   0.667   5.470
10307TIP3    H130864   2.986   0.574   5.470
10307TIP3    H230865   2.963   0.702   5.547
10308TIP3   OH230866   1.663   7.762   2.173
10308TIP3    H130867   1.717   7.816   2.116
10308TIP3    H230868   1.592   7.820   2.200
10309TIP3   OH230869   7.755   4.885   0.286
10309TIP3    H130870   7.697   4.961   0.276
10309TIP3    H230871   7.843   4.920   0.270
10310TIP3   OH230872   3.611   6.440   5.228
10310TIP3    H130873   3.626   6.456   5.321
10310TIP3    H230874   3.537   6.498   5.206
10311TIP3   OH230875   1.783   7.201   6.178
10311TIP3    H130876   1.775   7.146   6.100
10311TIP3    H230877   1.868   7.177   6.215
10312TIP3   OH230878   6.899   0.669   4.357
10312TIP3    H130879   6.874   0.657   4.265
10312TIP3    H230880   6.847   0.743   4.387
10313TIP3   OH230881   2.962   6.555   2.815
10313TIP3    H130882   2.955   6.644   2.850
10313TIP3    H230883   2.882   6.542   2.765
10314TIP3   OH230884   4.247   7.676   3.898
10314TIP3    H130885   4.288   7.602   3.853
10314TIP3    H230886   4.186   7.635   3.959
10315TIP3   OH230887   1.544   0.303   0.541
10315TIP3    H130888   1.453   0.292   0.517
10315TIP3    H230889   1.558   0.398   0.538
10316TIP3   OH230890   2.667   3.071   4.562
10316TIP3    H130891   2.643   2.995   4.509
10316TIP3    H230892   2.759   3.057   4.585
10317TIP3   OH230893   3.378   2.748   2.263
10317TIP3    H130894   3.448   2.789   2.314
10317TIP3    H230895   3.385   2.788   2.176
10318TIP3   OH230896   3.939   0.836   3.621
10318TIP3    H130897   3.895   0.912   3.658
10318TIP3    H230898   3.970   0.865   3.535
10319TIP3   OH230899   0.544   4.416   0.832
10319TIP3    H130900   0.461   4.370   0.824
10319TIP3    H230901   0.527   4.487   0.894
10320TIP3   OH230902   5.375   0.811   4.094
10320TIP3    H130903   5.304   0.747   4.096
10320TIP3    H230904   5.372   0.853   4.180
10321TIP3   OH230905   6.076   6.705   5.887
10321TIP3    H130906   6.157   6.735   5.929
10321TIP3    H230907   6.101   6.692   5.795
10322TIP3   OH230908   1.920   1.945   2.395
10322TIP3    H130909   1.914   1.937   2.299
10322TIP3    H230910   2.013   1.942   2.413
10323TIP3   OH230911   0.050   7.570   2.027
10323TIP3    H130912   0.016   7.658   2.007
10323TIP3    H230913   0.003   7.512   1.966
10324TIP3   OH230914   1.296   6.688   2.064
10324TIP3    H130915   1.365   6.653   2.008
10324TIP3    H230916   1.301   6.635   2.144
10325TIP3   OH230917   0.098   5.709   5.699
10325TIP3    H130918   0.141   5.686   5.782
10325TIP3    H230919   0.149   5.663   5.632
10326TIP3   OH230920   0.908   1.426   1.461
10326TIP3    H130921   0.860   1.363   1.516
10326TIP3    H230922   0.935   1.375   1.385
10327TIP3   OH230923   2.102   6.931   2.436
10327TIP3    H130924   2.080   6.937   2.343
10327TIP3    H230925   2.022   6.898   2.478
10328TIP3   OH230926   7.923   3.648   5.037
10328TIP3    H130927   7.915   3.595   4.957
10328TIP3    H230928   7.946   3.585   5.105
10329TIP3   OH230929   7.822   4.358   4.392
10329TIP3    H130930   7.781   4.313   4.319
10329TIP3    H230931   7.806   4.451   4.375
10330TIP3   OH230932   4.990   6.991   5.084
10330TIP3    H130933   5.011   6.989   4.991
10330TIP3    H230934   4.985   6.899   5.109
10331TIP3   OH230935   3.933   3.954   1.121
10331TIP3    H130936   3.853   3.930   1.074
10331TIP3    H230937   3.981   4.009   1.060
10332TIP3   OH230938   0.354   3.632   2.390
10332TIP3    H130939   0.330   3.576   2.464
10332TIP3    H230940   0.290   3.703   2.391
10333TIP3   OH230941   6.340   3.840   1.250
10333TIP3    H130942   6.270   3.807   1.307
10333TIP3    H230943   6.294   3.868   1.170
10334TIP3   OH230944   0.119   3.922   4.580
10334TIP3    H130945   0.102   4.000   4.527
10334TIP3    H230946   0.207   3.895   4.556
10335TIP3   OH230947   8.096   6.728   0.290
10335TIP3    H130948   8.054   6.771   0.365
10335TIP3    H230949   8.034   6.742   0.218
10336TIP3   OH230950   5.598   1.897   4.904
10336TIP3    H130951   5.541   1.912   4.829
10336TIP3    H230952   5.574   1.965   4.967
10337TIP3   OH230953   1.433   3.166   1.142
10337TIP3    H130954   1.454   3.127   1.058
10337TIP3    H230955   1.343   3.197   1.133
10338TIP3   OH230956   5.763   6.770   2.586
10338TIP3    H130957   5.678   6.797   2.551
10338TIP3    H230958   5.771   6.678   2.563
10339TIP3   OH230959   7.640   4.097   1.674
10339TIP3    H130960   7.636   4.009   1.634
10339TIP3    H230961   7.711   4.141   1.627
10340TIP3   OH230962   1.949   0.094   4.574
10340TIP3    H130963   1.917   0.091   4.483
10340TIP3    H230964   1.937   0.005   4.606
10341TIP3   OH230965   1.420   7.669   4.317
10341TIP3    H130966   1.331   7.636   4.325
10341TIP3    H230967   1.413   7.742   4.255
10342TIP3   OH230968   5.924   5.222   6.766
10342TIP3    H130969   5.988   5.207   6.835
10342TIP3    H230970   5.906   5.136   6.730
10343TIP3   OH230971   4.901   4.949   4.774
10343TIP3    H130972   4.958   5.024   4.763
10343TIP3    H230973   4.880   4.921   4.685
10344TIP3   OH230974   2.706   3.867   2.216
10344TIP3    H130975   2.757   3.843   2.139
10344TIP3    H230976   2.752   3.824   2.289
10345TIP3   OH230977   1.020   3.487   5.503
10345TIP3    H130978   1.023   3.396   5.530
10345TIP3    H230979   0.969   3.487   5.422
10346TIP3   OH230980   6.361   3.665   1.893
10346TIP3    H130981   6.365   3.687   1.800
10346TIP3    H230982   6.301   3.728   1.931
10347TIP3   OH230983   5.944   3.832   4.030
10347TIP3    H130984   6.026   3.822   3.982
10347TIP3    H230985   5.883   3.773   3.985
10348TIP3   OH230986   6.881   5.648   0.718
10348TIP3    H130987   6.878   5.740   0.745
10348TIP3    H230988   6.951   5.609   0.770
10349TIP3   OH230989   0.445   1.914   3.038
10349TIP3    H130990   0.497   1.836   3.053
10349TIP3    H230991   0.355   1.887   3.056
10350TIP3   OH230992   1.601   5.962   5.624
10350TIP3    H130993   1.612   5.989   5.533
10350TIP3    H230994   1.637   5.874   5.627
10351TIP3   OH230995   4.671   0.926   5.025
10351TIP3    H130996   4.696   0.992   4.961
10351TIP3    H230997   4.753   0.901   5.068
10352TIP3   OH230998   5.622   3.515   3.402
10352TIP3    H130999   5.580   3.438   3.362
10352TIP3    H231000   5.715   3.494   3.401
10353TIP3   OH231001   3.415   5.699   5.648
10353TIP3    H131002   3.455   5.625   5.693
10353TIP3    H231003   3.327   5.705   5.686
10354TIP3   OH231004   4.152   4.700   4.271
10354TIP3    H131005   4.075   4.741   4.232
10354TIP3    H231006   4.125   4.677   4.360
10355TIP3   OH231007   0.555   0.829   6.070
10355TIP3    H131008   0.642   0.828   6.111
10355TIP3    H231009   0.536   0.736   6.055
10356TIP3   OH231010   8.042   1.926   6.292
10356TIP3    H131011   7.995   1.859   6.243
10356TIP3    H231012   7.985   1.946   6.367
10357TIP3   OH231013   2.348   3.598   4.337
10357TIP3    H131014   2.438   3.628   4.343
10357TIP3    H231015   2.326   3.569   4.426
10358TIP3   OH231016   0.197   3.881   0.398
10358TIP3    H131017   0.115   3.845   0.365
10358TIP3    H231018   0.243   3.911   0.319
10359TIP3   OH231019   3.927   1.152   0.781
10359TIP3    H131020   3.977   1.227   0.813
10359TIP3    H231021   3.984   1.077   0.796
10360TIP3   OH231022   6.188   2.736   2.506
10360TIP3    H131023   6.236   2.654   2.505
10360TIP3    H231024   6.113   2.719   2.564
10361TIP3   OH231025   0.362   5.594   4.783
10361TIP3    H131026   0.346   5.544   4.703
10361TIP3    H231027   0.371   5.684   4.753
10362TIP3   OH231028   5.275   0.088   5.727
10362TIP3    H131029   5.192   0.114   5.688
10362TIP3    H231030   5.273   0.125   5.815
10363TIP3   OH231031   7.401   3.012   6.536
10363TIP3    H131032   7.394   2.970   6.451
10363TIP3    H231033   7.310   3.029   6.561
10364TIP3   OH231034   8.116   4.387   2.312
10364TIP3    H131035   8.103   4.292   2.313
10364TIP3    H231036   8.114   4.412   2.404
10365TIP3   OH231037   0.174   5.256   4.567
10365TIP3    H131038   0.168   5.347   4.540
10365TIP3    H231039   0.254   5.251   4.618
10366TIP3   OH231040   0.582   7.493   3.395
10366TIP3    H131041   0.582   7.586   3.417
10366TIP3    H231042   0.568   7.490   3.300
10367TIP3   OH231043   2.895   6.281   2.927
10367TIP3    H131044   2.943   6.360   2.901
10367TIP3    H231045   2.901   6.223   2.851
10368TIP3   OH231046   6.462   4.850   3.339
10368TIP3    H131047   6.485   4.843   3.247
10368TIP3    H231048   6.519   4.787   3.383
10369TIP3   OH231049   5.294  -0.020   0.924
10369TIP3    H131050   5.291   0.017   0.835
10369TIP3    H231051   5.353   0.038   0.972
10370TIP3   OH231052   0.551   3.288   6.483
10370TIP3    H131053   0.556   3.310   6.576
10370TIP3    H231054   0.637   3.251   6.463
10371TIP3   OH231055   1.726   7.404   5.962
10371TIP3    H131056   1.724   7.369   6.051
10371TIP3    H231057   1.793   7.473   5.966
10372TIP3   OH231058  -0.011   7.843   0.124
10372TIP3    H131059  -0.005   7.861   0.218
10372TIP3    H231060   0.052   7.772   0.110
10373TIP3   OH231061   1.425   3.468   6.677
10373TIP3    H131062   1.342   3.423   6.664
10373TIP3    H231063   1.434   3.475   6.772
10374TIP3   OH231064   7.129   0.585   3.790
10374TIP3    H131065   7.223   0.574   3.774
10374TIP3    H231066   7.096   0.496   3.802
10375TIP3   OH231067   0.563   1.889   3.681
10375TIP3    H131068   0.527   1.964   3.728
10375TIP3    H231069   0.536   1.813   3.733
10376TIP3   OH231070   6.231   0.305   6.605
10376TIP3    H131071   6.275   0.271   6.526
10376TIP3    H231072   6.267   0.253   6.676
10377TIP3   OH231073   1.000   7.662   3.159
10377TIP3    H131074   1.023   7.590   3.218
10377TIP3    H231075   0.930   7.708   3.205
10378TIP3   OH231076   2.592   6.862   3.804
10378TIP3    H131077   2.622   6.854   3.713
10378TIP3    H231078   2.613   6.778   3.844
10379TIP3   OH231079   0.156   1.220   6.547
10379TIP3    H131080   0.209   1.181   6.478
10379TIP3    H231081   0.169   1.163   6.623
10380TIP3   OH231082   5.091   6.974   2.446
10380TIP3    H131083   5.177   6.989   2.406
10380TIP3    H231084   5.050   7.061   2.448
10381TIP3   OH231085   0.229   6.655   1.584
10381TIP3    H131086   0.294   6.723   1.564
10381TIP3    H231087   0.260   6.578   1.537
10382TIP3   OH231088   2.718   4.287   6.181
10382TIP3    H131089   2.802   4.293   6.136
10382TIP3    H231090   2.665   4.231   6.124
10383TIP3   OH231091   5.832   2.476   2.733
10383TIP3    H131092   5.813   2.390   2.698
10383TIP3    H231093   5.774   2.485   2.809
10384TIP3   OH231094   6.586   6.147   6.456
10384TIP3    H131095   6.584   6.204   6.379
10384TIP3    H231096   6.652   6.081   6.436
10385TIP3   OH231097   6.465   6.043   4.483
10385TIP3    H131098   6.554   6.017   4.458
10385TIP3    H231099   6.476   6.100   4.559
10386TIP3   OH231100   2.124   6.128   6.524
10386TIP3    H131101   2.124   6.142   6.430
10386TIP3    H231102   2.032   6.132   6.550
10387TIP3   OH231103   8.100   4.422   4.735
10387TIP3    H131104   8.168   4.489   4.728
10387TIP3    H231105   8.075   4.423   4.828
10388TIP3   OH231106   3.694   3.546   0.502
10388TIP3    H131107   3.685   3.553   0.597
10388TIP3    H231108   3.748   3.467   0.490
10389TIP3   OH231109   1.436   7.262   5.105
10389TIP3    H131110   1.485   7.269   5.187
10389TIP3    H231111   1.361   7.206   5.126
10390TIP3   OH231112   1.818   1.205   3.353
10390TIP3    H131113   1.906   1.185   3.322
10390TIP3    H231114   1.800   1.139   3.420
10391TIP3   OH231115   6.434   4.136   0.426
10391TIP3    H131116   6.358   4.108   0.375
10391TIP3    H231117   6.503   4.074   0.402
10392TIP3   OH231118   0.371   4.012   1.054
10392TIP3    H131119   0.435   4.077   1.083
10392TIP3    H231120   0.350   3.962   1.133
10393TIP3   OH231121   2.187   4.573   4.381
10393TIP3    H131122   2.225   4.540   4.462
10393TIP3    H231123   2.165   4.494   4.331
10394TIP3   OH231124   4.744   0.160   6.212
10394TIP3    H131125   4.767   0.123   6.298
10394TIP3    H231126   4.797   0.109   6.150
10395TIP3   OH231127   7.719   6.765   0.667
10395TIP3    H131128   7.671   6.840   0.704
10395TIP3    H231129   7.704   6.771   0.573
10396TIP3   OH231130   5.255   0.570   2.087
10396TIP3    H131131   5.271   0.664   2.085
10396TIP3    H231132   5.276   0.544   2.177
10397TIP3   OH231133   4.701   6.126   6.411
10397TIP3    H131134   4.728   6.068   6.483
10397TIP3    H231135   4.610   6.101   6.393
10398TIP3   OH231136   7.575   6.880   2.647
10398TIP3    H131137   7.521   6.881   2.568
10398TIP3    H231138   7.664   6.891   2.616
10399TIP3   OH231139   6.805   4.313   1.519
10399TIP3    H131140   6.718   4.344   1.543
10399TIP3    H231141   6.798   4.217   1.522
10400TIP3   OH231142   6.547   4.327   1.887
10400TIP3    H131143   6.582   4.407   1.925
10400TIP3    H231144   6.500   4.284   1.959
10401TIP3   OH231145   3.157   4.007   1.510
10401TIP3    H131146   3.143   3.926   1.461
10401TIP3    H231147   3.250   4.004   1.536
10402TIP3   OH231148   2.031   4.242   3.902
10402TIP3    H131149   1.988   4.161   3.931
10402TIP3    H231150   2.117   4.239   3.944
10403TIP3   OH231151   3.043   1.701   5.745
10403TIP3    H131152   2.950   1.688   5.726
10403TIP3    H231153   3.088   1.666   5.669
10404TIP3   OH231154   6.932   6.766   3.867
10404TIP3    H131155   6.875   6.702   3.909
10404TIP3    H231156   7.016   6.720   3.858
10405TIP3   OH231157   2.846   4.769   3.323
10405TIP3    H131158   2.894   4.805   3.248
10405TIP3    H231159   2.797   4.844   3.357
10406TIP3   OH231160   3.710   4.667   0.042
10406TIP3    H131161   3.701   4.587  -0.010
10406TIP3    H231162   3.781   4.647   0.103
10407TIP3   OH231163   0.073   2.726   1.136
10407TIP3    H131164   0.114   2.805   1.172
10407TIP3    H231165  -0.004   2.759   1.090
10408TIP3   OH231166   6.621   1.625   4.414
10408TIP3    H131167   6.554   1.693   4.415
10408TIP3    H231168   6.696   1.666   4.369
10409TIP3   OH231169   1.166   7.752   1.688
10409TIP3    H131170   1.229   7.777   1.756
10409TIP3    H231171   1.125   7.672   1.721
10410TIP3   OH231172   7.129   0.134   3.343
10410TIP3    H131173   7.129   0.083   3.424
10410TIP3    H231174   7.042   0.171   3.338
10411TIP3   OH231175   5.725   1.673   5.212
10411TIP3    H131176   5.634   1.649   5.196
10411TIP3    H231177   5.771   1.652   5.130
10412TIP3   OH231178   0.329   4.906   2.799
10412TIP3    H131179   0.404   4.962   2.780
10412TIP3    H231180   0.260   4.938   2.741
10413TIP3   OH231181   8.113   1.207   4.060
10413TIP3    H131182   8.058   1.143   4.015
10413TIP3    H231183   8.201   1.171   4.055
10414TIP3   OH231184   2.648   1.588   3.413
10414TIP3    H131185   2.626   1.498   3.387
10414TIP3    H231186   2.665   1.582   3.507
10415TIP3   OH231187   6.120   2.486   5.988
10415TIP3    H131188   6.193   2.508   5.930
10415TIP3    H231189   6.138   2.535   6.068
10416TIP3   OH231190   1.730   1.408   6.662
10416TIP3    H131191   1.814   1.390   6.619
10416TIP3    H231192   1.664   1.376   6.601
10417TIP3   OH231193   1.220   2.721   1.085
10417TIP3    H131194   1.188   2.721   0.994
10417TIP3    H231195   1.148   2.685   1.136
10418TIP3   OH231196   7.366   1.144   5.866
10418TIP3    H131197   7.288   1.148   5.922
10418TIP3    H231198   7.379   1.235   5.837
10419TIP3   OH231199   3.603   4.294   1.521
10419TIP3    H131200   3.639   4.250   1.599
10419TIP3    H231201   3.592   4.223   1.457
10420TIP3   OH231202   5.890   5.058   0.523
10420TIP3    H131203   5.950   5.120   0.564
10420TIP3    H231204   5.946   5.002   0.470
10421TIP3   OH231205   0.189   4.511   6.318
10421TIP3    H131206   0.234   4.551   6.393
10421TIP3    H231207   0.234   4.547   6.241
10422TIP3   OH231208   7.282   6.622   4.718
10422TIP3    H131209   7.249   6.532   4.714
10422TIP3    H231210   7.370   6.617   4.681
10423TIP3   OH231211   2.509   3.176   1.887
10423TIP3    H131212   2.565   3.145   1.958
10423TIP3    H231213   2.568   3.228   1.832
10424TIP3   OH231214   3.242   7.634   4.514
10424TIP3    H131215   3.225   7.617   4.421
10424TIP3    H231216   3.162   7.608   4.558
10425TIP3   OH231217   7.631   7.336   5.170
10425TIP3    H131218   7.574   7.304   5.101
10425TIP3    H231219   7.584   7.410   5.208
10426TIP3   OH231220   3.357   2.287   3.314
10426TIP3    H131221   3.348   2.251   3.226
10426TIP3    H231222   3.281   2.344   3.325
10427TIP3   OH231223   1.768   5.693   1.035
10427TIP3    H131224   1.692   5.636   1.023
10427TIP3    H231225   1.745   5.774   0.989
10428TIP3   OH231226   1.538   7.061   2.405
10428TIP3    H131227   1.529   7.027   2.494
10428TIP3    H231228   1.564   7.152   2.416
10429TIP3   OH231229   4.818   5.118   3.978
10429TIP3    H131230   4.840   5.066   3.900
10429TIP3    H231231   4.820   5.054   4.049
10430TIP3   OH231232   8.249   1.757   4.978
10430TIP3    H131233   8.243   1.767   5.073
10430TIP3    H231234   8.159   1.770   4.947
10431TIP3   OH231235   0.969   4.483   0.905
10431TIP3    H131236   0.991   4.576   0.904
10431TIP3    H231237   0.933   4.466   0.818
10432TIP3   OH231238   2.059   4.324   3.328
10432TIP3    H131239   2.104   4.391   3.380
10432TIP3    H231240   2.105   4.243   3.348
10433TIP3   OH231241   4.362   0.441   0.955
10433TIP3    H131242   4.365   0.534   0.933
10433TIP3    H231243   4.410   0.398   0.883
10434TIP3   OH231244   6.014   6.130   0.486
10434TIP3    H131245   6.041   6.146   0.577
10434TIP3    H231246   5.919   6.144   0.486
10435TIP3   OH231247   1.981   7.651   3.184
10435TIP3    H131248   1.928   7.730   3.188
10435TIP3    H231249   2.040   7.658   3.259
10436TIP3   OH231250   0.962   2.487   2.431
10436TIP3    H131251   0.926   2.428   2.497
10436TIP3    H231252   0.910   2.567   2.441
10437TIP3   OH231253   3.183   2.033   0.681
10437TIP3    H131254   3.261   2.022   0.736
10437TIP3    H231255   3.216   2.074   0.601
10438TIP3   OH231256   3.171   0.625   4.436
10438TIP3    H131257   3.230   0.561   4.475
10438TIP3    H231258   3.160   0.596   4.345
10439TIP3   OH231259   2.915   4.557   2.579
10439TIP3    H131260   2.917   4.471   2.621
10439TIP3    H231261   2.937   4.540   2.487
10440TIP3   OH231262   0.242   7.649   5.711
10440TIP3    H131263   0.152   7.624   5.731
10440TIP3    H231264   0.275   7.688   5.792
10441TIP3   OH231265   0.368   4.337   1.207
10441TIP3    H131266   0.451   4.304   1.172
10441TIP3    H231267   0.393   4.413   1.260
10442TIP3   OH231268   7.144   4.084   4.363
10442TIP3    H131269   7.196   4.156   4.397
10442TIP3    H231270   7.199   4.043   4.296
10443TIP3   OH231271   1.327   5.830   6.044
10443TIP3    H131272   1.292   5.789   6.123
10443TIP3    H231273   1.250   5.845   5.989
10444TIP3   OH231274   3.042   3.644   0.637
10444TIP3    H131275   3.116   3.601   0.594
10444TIP3    H231276   3.039   3.732   0.600
10445TIP3   OH231277   7.483   1.954   2.971
10445TIP3    H131278   7.446   2.037   2.999
10445TIP3    H231279   7.442   1.888   3.027
10446TIP3   OH231280   4.783   1.496   0.091
10446TIP3    H131281   4.819   1.422   0.140
10446TIP3    H231282   4.695   1.507   0.126
10447TIP3   OH231283   3.691   6.237   3.559
10447TIP3    H131284   3.687   6.162   3.500
10447TIP3    H231285   3.601   6.268   3.566
10448TIP3   OH231286   6.747   5.675   2.003
10448TIP3    H131287   6.678   5.705   1.944
10448TIP3    H231288   6.823   5.663   1.946
10449TIP3   OH231289   6.811   0.413   3.705
10449TIP3    H131290   6.867   0.336   3.700
10449TIP3    H231291   6.755   0.397   3.782
10450TIP3   OH231292   5.487   1.635   4.907
10450TIP3    H131293   5.572   1.678   4.912
10450TIP3    H231294   5.489   1.588   4.823
10451TIP3   OH231295   3.669   4.940   1.098
10451TIP3    H131296   3.623   4.897   1.026
10451TIP3    H231297   3.733   4.875   1.127
10452TIP3   OH231298   1.495   0.085   5.336
10452TIP3    H131299   1.461   0.022   5.398
10452TIP3    H231300   1.441   0.163   5.348
10453TIP3   OH231301   3.702   5.071   4.909
10453TIP3    H131302   3.788   5.034   4.892
10453TIP3    H231303   3.666   5.090   4.823
10454TIP3   OH231304   4.310   4.591   5.572
10454TIP3    H131305   4.324   4.530   5.644
10454TIP3    H231306   4.305   4.536   5.494
10455TIP3   OH231307   2.536   0.380   6.447
10455TIP3    H131308   2.460   0.421   6.488
10455TIP3    H231309   2.571   0.321   6.514
10456TIP3   OH231310   2.776   5.159   6.040
10456TIP3    H131311   2.723   5.221   5.988
10456TIP3    H231312   2.804   5.210   6.116
10457TIP3   OH231313   0.247   4.388   4.732
10457TIP3    H131314   0.161   4.418   4.759
10457TIP3    H231315   0.277   4.332   4.803
10458TIP3   OH231316   2.768   1.622   0.722
10458TIP3    H131317   2.701   1.627   0.654
10458TIP3    H231318   2.733   1.559   0.785
10459TIP3   OH231319   3.050   6.049   0.268
10459TIP3    H131320   3.008   5.986   0.326
10459TIP3    H231321   3.013   6.134   0.294
10460TIP3   OH231322   0.252   5.863   2.668
10460TIP3    H131323   0.211   5.847   2.753
10460TIP3    H231324   0.310   5.788   2.655
10461TIP3   OH231325   4.163   0.763   0.383
10461TIP3    H131326   4.119   0.791   0.303
10461TIP3    H231327   4.102   0.786   0.453
10462TIP3   OH231328   3.650   2.022   4.317
10462TIP3    H131329   3.610   2.061   4.395
10462TIP3    H231330   3.677   1.935   4.345
10463TIP3   OH231331   0.851   6.664   0.357
10463TIP3    H131332   0.789   6.629   0.421
10463TIP3    H231333   0.911   6.718   0.409
10464TIP3   OH231334   7.377   7.025   0.218
10464TIP3    H131335   7.408   7.001   0.131
10464TIP3    H231336   7.300   6.970   0.233
10465TIP3   OH231337   7.678   7.405   4.281
10465TIP3    H131338   7.733   7.464   4.230
10465TIP3    H231339   7.589   7.428   4.257
10466TIP3   OH231340   5.929   4.097   6.416
10466TIP3    H131341   5.846   4.096   6.368
10466TIP3    H231342   5.913   4.042   6.493
10467TIP3   OH231343   7.746   5.957   4.884
10467TIP3    H131344   7.780   5.960   4.794
10467TIP3    H231345   7.819   5.923   4.936
10468TIP3   OH231346   3.435   0.393   1.754
10468TIP3    H131347   3.496   0.465   1.736
10468TIP3    H231348   3.488   0.314   1.746
10469TIP3   OH231349   2.846   4.382   2.777
10469TIP3    H131350   2.902   4.304   2.778
10469TIP3    H231351   2.836   4.405   2.870
10470TIP3   OH231352   4.723   4.740   3.032
10470TIP3    H131353   4.813   4.719   3.007
10470TIP3    H231354   4.712   4.832   3.008
10471TIP3   OH231355   6.202   1.030   0.541
10471TIP3    H131356   6.131   0.979   0.503
10471TIP3    H231357   6.165   1.118   0.553
10472TIP3   OH231358   3.451   6.427   4.302
10472TIP3    H131359   3.450   6.504   4.359
10472TIP3    H231360   3.388   6.366   4.341
10473TIP3   OH231361   6.525   4.330   4.150
10473TIP3    H131362   6.445   4.356   4.194
10473TIP3    H231363   6.574   4.411   4.139
10474TIP3   OH231364   7.990   5.139   6.619
10474TIP3    H131365   7.952   5.204   6.678
10474TIP3    H231366   8.084   5.139   6.641
10475TIP3   OH231367   5.804   0.647   4.048
10475TIP3    H131368   5.768   0.687   3.969
10475TIP3    H231369   5.899   0.661   4.041
10476TIP3   OH231370   3.332   6.566   1.515
10476TIP3    H131371   3.268   6.557   1.444
10476TIP3    H231372   3.355   6.476   1.538
10477TIP3   OH231373   6.211   4.501   2.210
10477TIP3    H131374   6.178   4.470   2.295
10477TIP3    H231375   6.142   4.477   2.148
10478TIP3   OH231376   1.875   5.482   2.216
10478TIP3    H131377   1.800   5.468   2.158
10478TIP3    H231378   1.861   5.569   2.254
10479TIP3   OH231379   1.213   5.850   5.351
10479TIP3    H131380   1.233   5.778   5.291
10479TIP3    H231381   1.286   5.911   5.342
10480TIP3   OH231382   5.876   6.536   5.992
10480TIP3    H131383   5.937   6.465   6.012
10480TIP3    H231384   5.930   6.607   5.959
10481TIP3   OH231385   7.038   1.859   0.773
10481TIP3    H131386   7.007   1.770   0.762
10481TIP3    H231387   6.975   1.913   0.726
10482TIP3   OH231388   2.127   1.884   4.273
10482TIP3    H131389   2.108   1.968   4.315
10482TIP3    H231390   2.104   1.818   4.339
10483TIP3   OH231391   7.112   5.373   3.589
10483TIP3    H131392   7.055   5.364   3.513
10483TIP3    H231393   7.144   5.284   3.605
10484TIP3   OH231394   6.220   0.868   3.601
10484TIP3    H131395   6.185   0.786   3.634
10484TIP3    H231396   6.143   0.926   3.595
10485TIP3   OH231397   2.323   7.000   0.734
10485TIP3    H131398   2.323   6.905   0.750
10485TIP3    H231399   2.336   7.038   0.821
10486TIP3   OH231400   8.265   4.119   4.759
10486TIP3    H131401   8.182   4.149   4.797
10486TIP3    H231402   8.316   4.087   4.834
10487TIP3   OH231403   4.800   5.095   0.180
10487TIP3    H131404   4.889   5.121   0.205
10487TIP3    H231405   4.748   5.175   0.187
10488TIP3   OH231406   4.566   5.373   3.652
10488TIP3    H131407   4.473   5.358   3.638
10488TIP3    H231408   4.605   5.372   3.564
10489TIP3   OH231409   1.758   1.148   0.873
10489TIP3    H131410   1.847   1.183   0.879
10489TIP3    H231411   1.765   1.076   0.810
10490TIP3   OH231412   6.606   0.850   3.270
10490TIP3    H131413   6.528   0.838   3.326
10490TIP3    H231414   6.653   0.767   3.278
10491TIP3   OH231415   3.498   0.112   2.171
10491TIP3    H131416   3.453   0.175   2.114
10491TIP3    H231417   3.586   0.105   2.135
10492TIP3   OH231418   2.911   1.355   0.891
10492TIP3    H131419   2.829   1.394   0.922
10492TIP3    H231420   2.932   1.289   0.957
10493TIP3   OH231421   7.265   1.558   1.714
10493TIP3    H131422   7.206   1.545   1.788
10493TIP3    H231423   7.258   1.477   1.664
10494TIP3   OH231424   1.735   4.483   5.931
10494TIP3    H131425   1.722   4.426   5.855
10494TIP3    H231426   1.648   4.520   5.949
10495TIP3   OH231427   0.226   1.158   0.545
10495TIP3    H131428   0.212   1.194   0.457
10495TIP3    H231429   0.300   1.208   0.580
10496TIP3   OH231430   3.026   4.970   4.545
10496TIP3    H131431   3.020   4.881   4.579
10496TIP3    H231432   3.065   5.021   4.617
10497TIP3   OH231433   7.339   2.655   0.777
10497TIP3    H131434   7.326   2.567   0.740
10497TIP3    H231435   7.268   2.665   0.840
10498TIP3   OH231436   1.616   1.966   6.482
10498TIP3    H131437   1.653   1.880   6.500
10498TIP3    H231438   1.528   1.962   6.518
10499TIP3   OH231439   3.509   7.589   3.840
10499TIP3    H131440   3.458   7.669   3.826
10499TIP3    H231441   3.483   7.532   3.767
10500TIP3   OH231442   7.527   1.853   3.783
10500TIP3    H131443   7.599   1.832   3.724
10500TIP3    H231444   7.569   1.894   3.859
10501TIP3   OH231445   7.757   6.296   0.086
10501TIP3    H131446   7.714   6.239   0.022
10501TIP3    H231447   7.798   6.364   0.033
10502TIP3   OH231448   3.507   2.716   1.082
10502TIP3    H131449   3.473   2.804   1.101
10502TIP3    H231450   3.496   2.706   0.988
10503TIP3   OH231451   1.377   4.662   2.520
10503TIP3    H131452   1.431   4.656   2.441
10503TIP3    H231453   1.332   4.577   2.526
10504TIP3   OH231454   6.474   3.520   6.741
10504TIP3    H131455   6.567   3.504   6.726
10504TIP3    H231456   6.441   3.548   6.655
10505TIP3   OH231457   0.323   1.987   4.058
10505TIP3    H131458   0.405   2.008   4.014
10505TIP3    H231459   0.258   2.045   4.018
10506TIP3   OH231460   1.568   5.356   1.374
10506TIP3    H131461   1.576   5.397   1.288
10506TIP3    H231462   1.647   5.303   1.384
10507TIP3   OH231463   4.495   4.998   2.720
10507TIP3    H131464   4.414   5.048   2.726
10507TIP3    H231465   4.539   5.032   2.643
10508TIP3   OH231466   5.417   4.620   0.164
10508TIP3    H131467   5.352   4.587   0.101
10508TIP3    H231468   5.498   4.627   0.113
10509TIP3   OH231469   7.396   4.068   3.873
10509TIP3    H131470   7.353   3.989   3.840
10509TIP3    H231471   7.485   4.063   3.838
10510TIP3   OH231472   3.887   4.129   4.207
10510TIP3    H131473   3.924   4.186   4.139
10510TIP3    H231474   3.961   4.077   4.237
10511TIP3   OH231475   4.196   6.128   4.158
10511TIP3    H131476   4.152   6.102   4.239
10511TIP3    H231477   4.141   6.090   4.089
10512TIP3   OH231478   1.948   7.087   4.365
10512TIP3    H131479   1.884   7.106   4.297
10512TIP3    H231480   2.028   7.065   4.317
10513TIP3   OH231481   5.127   0.917   3.847
10513TIP3    H131482   5.056   0.973   3.878
10513TIP3    H231483   5.114   0.834   3.895
10514TIP3   OH231484   2.678   2.808   1.160
10514TIP3    H131485   2.729   2.768   1.090
10514TIP3    H231486   2.634   2.734   1.203
10515TIP3   OH231487   0.265   4.619   2.119
10515TIP3    H131488   0.206   4.647   2.050
10515TIP3    H231489   0.224   4.542   2.157
10516TIP3   OH231490   7.115   7.444   4.070
10516TIP3    H131491   7.022   7.431   4.049
10516TIP3    H231492   7.138   7.367   4.122
10517TIP3   OH231493   2.711   2.162   3.124
10517TIP3    H131494   2.753   2.129   3.203
10517TIP3    H231495   2.684   2.083   3.077
10518TIP3   OH231496   8.193   3.805   4.696
10518TIP3    H131497   8.217   3.715   4.674
10518TIP3    H231498   8.261   3.859   4.656
10519TIP3   OH231499   7.854   6.527   0.707
10519TIP3    H131500   7.924   6.535   0.771
10519TIP3    H231501   7.812   6.613   0.706
10520TIP3   OH231502   7.129   0.941   1.869
10520TIP3    H131503   7.144   0.849   1.892
10520TIP3    H231504   7.104   0.983   1.951
10521TIP3   OH231505   5.299   4.076   5.445
10521TIP3    H131506   5.218   4.108   5.484
10521TIP3    H231507   5.349   4.156   5.425
10522TIP3   OH231508   1.398   1.253   5.470
10522TIP3    H131509   1.384   1.168   5.512
10522TIP3    H231510   1.379   1.238   5.377
10523TIP3   OH231511   5.308   2.102   0.283
10523TIP3    H131512   5.349   2.039   0.342
10523TIP3    H231513   5.364   2.180   0.288
10524TIP3   OH231514   7.412   1.043   5.361
10524TIP3    H131515   7.355   1.059   5.436
10524TIP3    H231516   7.399   0.951   5.340
10525TIP3   OH231517   0.639   3.300   5.208
10525TIP3    H131518   0.582   3.294   5.284
10525TIP3    H231519   0.583   3.276   5.134
10526TIP3   OH231520   3.798   6.565   6.588
10526TIP3    H131521   3.761   6.527   6.668
10526TIP3    H231522   3.724   6.572   6.528
10527TIP3   OH231523   5.468   7.469   2.448
10527TIP3    H131524   5.396   7.432   2.395
10527TIP3    H231525   5.452   7.435   2.536
10528TIP3   OH231526   4.841   1.633   6.079
10528TIP3    H131527   4.873   1.722   6.069
10528TIP3    H231528   4.910   1.578   6.041
10529TIP3   OH231529   6.593   1.545   2.155
10529TIP3    H131530   6.517   1.551   2.096
10529TIP3    H231531   6.618   1.453   2.152
10530TIP3   OH231532   1.824   1.051   1.398
10530TIP3    H131533   1.807   1.116   1.331
10530TIP3    H231534   1.917   1.031   1.390
10531TIP3   OH231535   7.744   0.157   0.989
10531TIP3    H131536   7.707   0.073   0.964
10531TIP3    H231537   7.785   0.190   0.909
10532TIP3   OH231538   2.252   2.544   6.265
10532TIP3    H131539   2.232   2.638   6.261
10532TIP3    H231540   2.169   2.503   6.290
10533TIP3   OH231541   6.853   1.365   6.266
10533TIP3    H131542   6.886   1.339   6.352
10533TIP3    H231543   6.876   1.457   6.258
10534TIP3   OH231544   2.584   3.626   0.823
10534TIP3    H131545   2.678   3.628   0.843
10534TIP3    H231546   2.546   3.692   0.881
10535TIP3   OH231547   5.760   2.157   4.498
10535TIP3    H131548   5.777   2.064   4.512
10535TIP3    H231549   5.745   2.192   4.586
10536TIP3   OH231550   1.538   0.263   5.781
10536TIP3    H131551   1.540   0.304   5.695
10536TIP3    H231552   1.582   0.179   5.768
10537TIP3   OH231553   6.496   5.353   4.968
10537TIP3    H131554   6.558   5.417   5.002
10537TIP3    H231555   6.418   5.403   4.947
10538TIP3   OH231556   7.238   1.510   1.081
10538TIP3    H131557   7.224   1.415   1.086
10538TIP3    H231558   7.331   1.519   1.062
10539TIP3   OH231559   4.638   6.923   5.712
10539TIP3    H131560   4.571   6.987   5.733
10539TIP3    H231561   4.634   6.914   5.617
10540TIP3   OH231562   0.782   5.765   5.868
10540TIP3    H131563   0.717   5.734   5.805
10540TIP3    H231564   0.765   5.715   5.947
10541TIP3   OH231565   4.399   1.986   1.394
10541TIP3    H131566   4.392   1.896   1.424
10541TIP3    H231567   4.323   2.030   1.432
10542TIP3   OH231568   6.632   7.610   3.043
10542TIP3    H131569   6.701   7.675   3.030
10542TIP3    H231570   6.660   7.560   3.120
10543TIP3   OH231571   3.698   5.367   2.090
10543TIP3    H131572   3.701   5.272   2.095
10543TIP3    H231573   3.671   5.385   1.999
10544TIP3   OH231574   4.952   0.949   5.098
10544TIP3    H131575   4.989   0.947   5.186
10544TIP3    H231576   5.028   0.949   5.040
10545TIP3   OH231577   5.445   5.592   3.322
10545TIP3    H131578   5.461   5.635   3.407
10545TIP3    H231579   5.434   5.500   3.344
10546TIP3   OH231580   4.928   7.538   5.415
10546TIP3    H131581   4.868   7.464   5.401
10546TIP3    H231582   4.993   7.505   5.477
10547TIP3   OH231583   6.707   1.618   2.453
10547TIP3    H131584   6.707   1.603   2.547
10547TIP3    H231585   6.669   1.705   2.442
10548TIP3   OH231586   7.619   0.718   5.785
10548TIP3    H131587   7.541   0.727   5.730
10548TIP3    H231588   7.598   0.768   5.864
10549TIP3   OH231589   0.094   1.192   1.875
10549TIP3    H131590   0.096   1.175   1.970
10549TIP3    H231591   0.112   1.286   1.867
10550TIP3   OH231592   2.793   1.689   3.213
10550TIP3    H131593   2.715   1.690   3.157
10550TIP3    H231594   2.766   1.639   3.290
10551TIP3   OH231595   5.782   1.619   4.920
10551TIP3    H131596   5.790   1.685   4.851
10551TIP3    H231597   5.866   1.573   4.919
10552TIP3   OH231598   2.219   4.825   1.832
10552TIP3    H131599   2.153   4.894   1.831
10552TIP3    H231600   2.290   4.859   1.777
10553TIP3   OH231601   7.838   4.475   5.544
10553TIP3    H131602   7.918   4.505   5.502
10553TIP3    H231603   7.866   4.406   5.604
10554TIP3   OH231604   0.044   7.055   0.535
10554TIP3    H131605   0.044   6.962   0.557
10554TIP3    H231606  -0.043   7.070   0.496
10555TIP3   OH231607   0.212   1.527   5.999
10555TIP3    H131608   0.239   1.610   5.960
10555TIP3    H231609   0.155   1.552   6.072
10556TIP3   OH231610   0.321   6.093   6.327
10556TIP3    H131611   0.354   6.004   6.317
10556TIP3    H231612   0.258   6.103   6.255
10557TIP3   OH231613   4.735   4.339   2.614
10557TIP3    H131614   4.649   4.300   2.599
10557TIP3    H231615   4.746   4.338   2.709
10558TIP3   OH231616   5.764   3.451   1.501
10558TIP3    H131617   5.686   3.505   1.512
10558TIP3    H231618   5.796   3.438   1.590
10559TIP3   OH231619   1.969   2.718   5.167
10559TIP3    H131620   1.895   2.733   5.107
10559TIP3    H231621   1.929   2.711   5.253
10560TIP3   OH231622   7.522   6.547   4.998
10560TIP3    H131623   7.563   6.503   5.072
10560TIP3    H231624   7.569   6.516   4.921
10561TIP3   OH231625   2.022   1.527   0.193
10561TIP3    H131626   2.087   1.564   0.133
10561TIP3    H231627   1.961   1.481   0.135
10562TIP3   OH231628   3.341   4.883   2.515
10562TIP3    H131629   3.303   4.971   2.520
10562TIP3    H231630   3.299   4.843   2.439
10563TIP3   OH231631   4.898   2.051   5.730
10563TIP3    H131632   4.853   1.967   5.725
10563TIP3    H231633   4.984   2.035   5.691
10564TIP3   OH231634   3.404   0.901   6.427
10564TIP3    H131635   3.477   0.961   6.408
10564TIP3    H231636   3.387   0.858   6.343
10565TIP3   OH231637   1.802   0.776   0.639
10565TIP3    H131638   1.715   0.810   0.658
10565TIP3    H231639   1.857   0.854   0.631
10566TIP3   OH231640   7.373   5.560   1.862
10566TIP3    H131641   7.318   5.506   1.919
10566TIP3    H231642   7.462   5.545   1.893
10567TIP3   OH231643   7.163   7.547   5.725
10567TIP3    H131644   7.205   7.515   5.646
10567TIP3    H231645   7.074   7.510   5.722
10568TIP3   OH231646   6.891   0.389   5.738
10568TIP3    H131647   6.900   0.471   5.689
10568TIP3    H231648   6.825   0.407   5.805
10569TIP3   OH231649   7.724   7.631   4.952
10569TIP3    H131650   7.723   7.537   4.964
10569TIP3    H231651   7.668   7.665   5.021
10570TIP3   OH231652   4.761   0.903   6.305
10570TIP3    H131653   4.768   0.878   6.398
10570TIP3    H231654   4.772   0.998   6.306
10571TIP3   OH231655   2.143   5.004   6.341
10571TIP3    H131656   2.085   4.946   6.390
10571TIP3    H231657   2.151   5.082   6.397
10572TIP3   OH231658   2.197   1.891   1.404
10572TIP3    H131659   2.284   1.899   1.366
10572TIP3    H231660   2.213   1.868   1.495
10573TIP3   OH231661   5.233   4.466   6.714
10573TIP3    H131662   5.159   4.405   6.721
10573TIP3    H231663   5.206   4.527   6.646
10574TIP3   OH231664   3.281   5.483   5.857
10574TIP3    H131665   3.371   5.452   5.866
10574TIP3    H231666   3.274   5.555   5.920
10575TIP3   OH231667   1.923   0.913   2.089
10575TIP3    H131668   1.869   0.988   2.112
10575TIP3    H231669   1.862   0.852   2.046
10576TIP3   OH231670   5.709   6.171   6.331
10576TIP3    H131671   5.716   6.102   6.397
10576TIP3    H231672   5.747   6.133   6.252
10577TIP3   OH231673   4.292   7.762   6.242
10577TIP3    H131674   4.236   7.774   6.319
10577TIP3    H231675   4.292   7.847   6.199
10578TIP3   OH231676   5.176   0.620   6.724
10578TIP3    H131677   5.126   0.693   6.686
10578TIP3    H231678   5.268   0.646   6.713
10579TIP3   OH231679   8.127   5.824   4.074
10579TIP3    H131680   8.172   5.775   4.143
10579TIP3    H231681   8.146   5.916   4.094
10580TIP3   OH231682   0.795   0.703   2.372
10580TIP3    H131683   0.764   0.612   2.375
10580TIP3    H231684   0.827   0.721   2.460
10581TIP3   OH231685   0.790   5.223   5.510
10581TIP3    H131686   0.707   5.250   5.551
10581TIP3    H231687   0.765   5.161   5.442
10582TIP3   OH231688   0.372   1.669   2.047
10582TIP3    H131689   0.453   1.716   2.065
10582TIP3    H231690   0.315   1.691   2.121
10583TIP3   OH231691   5.404   4.454   2.191
10583TIP3    H131692   5.334   4.519   2.183
10583TIP3    H231693   5.461   4.470   2.116
10584TIP3   OH231694   7.777   4.352   4.076
10584TIP3    H131695   7.864   4.336   4.111
10584TIP3    H231696   7.773   4.446   4.063
10585TIP3   OH231697   6.183   4.883   4.027
10585TIP3    H131698   6.165   4.801   3.982
10585TIP3    H231699   6.278   4.894   4.018
10586TIP3   OH231700   7.822   1.751   3.701
10586TIP3    H131701   7.835   1.742   3.606
10586TIP3    H231702   7.904   1.721   3.740
10587TIP3   OH231703   3.821   6.175   0.519
10587TIP3    H131704   3.839   6.250   0.575
10587TIP3    H231705   3.776   6.212   0.443
10588TIP3   OH231706   0.141   1.982   4.432
10588TIP3    H131707   0.200   2.036   4.379
10588TIP3    H231708   0.071   2.041   4.457
10589TIP3   OH231709   7.547   3.974   6.639
10589TIP3    H131710   7.618   3.999   6.698
10589TIP3    H231711   7.585   3.906   6.583
10590TIP3   OH231712   1.937   1.076   2.682
10590TIP3    H131713   1.930   1.161   2.724
10590TIP3    H231714   1.959   1.016   2.752
10591TIP3   OH231715   6.885   4.264   6.142
10591TIP3    H131716   6.937   4.218   6.076
10591TIP3    H231717   6.913   4.226   6.225
10592TIP3   OH231718   7.959   5.892   2.958
10592TIP3    H131719   7.972   5.909   2.865
10592TIP3    H231720   8.047   5.884   2.994
10593TIP3   OH231721   2.840   0.982   5.647
10593TIP3    H131722   2.755   0.952   5.613
10593TIP3    H231723   2.820   1.064   5.691
10594TIP3   OH231724   6.247   3.632   2.989
10594TIP3    H131725   6.230   3.596   2.903
10594TIP3    H231726   6.343   3.637   2.995
10595TIP3   OH231727   2.954   3.032   5.619
10595TIP3    H131728   3.035   3.028   5.568
10595TIP3    H231729   2.979   3.072   5.702
10596TIP3   OH231730   2.914   0.200   5.059
10596TIP3    H131731   2.933   0.270   4.996
10596TIP3    H231732   3.000   0.174   5.091
10597TIP3   OH231733   0.565   4.508   1.318
10597TIP3    H131734   0.607   4.570   1.378
10597TIP3    H231735   0.636   4.479   1.260
10598TIP3   OH231736   6.454   5.116   3.045
10598TIP3    H131737   6.493   5.039   3.005
10598TIP3    H231738   6.503   5.130   3.126
10599TIP3   OH231739   5.929   4.325   4.987
10599TIP3    H131740   5.895   4.384   5.054
10599TIP3    H231741   6.024   4.334   4.995
10600TIP3   OH231742   5.988   1.527   5.209
10600TIP3    H131743   6.059   1.585   5.237
10600TIP3    H231744   5.992   1.531   5.113
10601TIP3   OH231745   6.569   1.211   1.040
10601TIP3    H131746   6.659   1.213   1.007
10601TIP3    H231747   6.572   1.263   1.120
10602TIP3   OH231748   0.595   2.709   1.271
10602TIP3    H131749   0.546   2.734   1.192
10602TIP3    H231750   0.648   2.786   1.292
10603TIP3   OH231751   6.388   2.128   2.871
10603TIP3    H131752   6.338   2.130   2.790
10603TIP3    H231753   6.327   2.093   2.936
10604TIP3   OH231754   1.335   6.042   4.337
10604TIP3    H131755   1.430   6.042   4.349
10604TIP3    H231756   1.319   5.973   4.273
10605TIP3   OH231757   2.685   4.646   0.504
10605TIP3    H131758   2.758   4.585   0.495
10605TIP3    H231759   2.709   4.701   0.579
10606TIP3   OH231760   8.226   1.217   0.644
10606TIP3    H131761   8.217   1.122   0.643
10606TIP3    H231762   8.318   1.233   0.623
10607TIP3   OH231763   1.840   1.294   4.340
10607TIP3    H131764   1.785   1.370   4.358
10607TIP3    H231765   1.791   1.243   4.276
10608TIP3   OH231766   6.708   3.168   2.453
10608TIP3    H131767   6.746   3.253   2.476
10608TIP3    H231768   6.759   3.139   2.377
10609TIP3   OH231769   5.924   0.381   2.456
10609TIP3    H131770   5.992   0.446   2.440
10609TIP3    H231771   5.842   0.426   2.436
10610TIP3   OH231772   7.375   5.402   4.318
10610TIP3    H131773   7.328   5.385   4.399
10610TIP3    H231774   7.467   5.390   4.341
10611TIP3   OH231775   1.504   3.116   3.490
10611TIP3    H131776   1.515   3.032   3.445
10611TIP3    H231777   1.443   3.165   3.434
10612TIP3   OH231778   2.049   3.651   2.911
10612TIP3    H131779   1.986   3.640   2.982
10612TIP3    H231780   2.000   3.629   2.831
10613TIP3   OH231781   6.531   4.964   2.455
10613TIP3    H131782   6.557   4.875   2.431
10613TIP3    H231783   6.545   4.967   2.550
10614TIP3   OH231784   3.053   7.737   3.112
10614TIP3    H131785   3.073   7.778   3.196
10614TIP3    H231786   3.130   7.756   3.058
10615TIP3   OH231787   7.243   7.195   3.814
10615TIP3    H131788   7.187   7.124   3.782
10615TIP3    H231789   7.295   7.156   3.884
10616TIP3   OH231790   6.758   5.589   6.810
10616TIP3    H131791   6.745   5.497   6.789
10616TIP3    H231792   6.783   5.629   6.727
10617TIP3   OH231793   2.728   1.670   1.375
10617TIP3    H131794   2.713   1.708   1.289
10617TIP3    H231795   2.663   1.600   1.383
10618TIP3   OH231796   2.936   3.024   4.633
10618TIP3    H131797   2.983   2.950   4.595
10618TIP3    H231798   2.977   3.039   4.718
10619TIP3   OH231799   1.868   5.144   0.563
10619TIP3    H131800   1.922   5.126   0.486
10619TIP3    H231801   1.890   5.075   0.625
10620TIP3   OH231802   1.745   4.056   1.997
10620TIP3    H131803   1.755   3.975   2.047
10620TIP3    H231804   1.804   4.118   2.039
10621TIP3   OH231805   2.965   5.098   5.357
10621TIP3    H131806   2.991   5.140   5.439
10621TIP3    H231807   2.871   5.115   5.351
10622TIP3   OH231808   2.966   5.818   2.418
10622TIP3    H131809   3.021   5.769   2.357
10622TIP3    H231810   3.025   5.884   2.455
10623TIP3   OH231811   0.051   4.721   3.360
10623TIP3    H131812  -0.042   4.739   3.374
10623TIP3    H231813   0.059   4.709   3.265
10624TIP3   OH231814   6.052   7.642   3.864
10624TIP3    H131815   6.067   7.559   3.818
10624TIP3    H231816   5.964   7.632   3.901
10625TIP3   OH231817   2.997   3.294   5.490
10625TIP3    H131818   3.085   3.272   5.519
10625TIP3    H231819   3.009   3.366   5.429
10626TIP3   OH231820   7.730   2.735   3.137
10626TIP3    H131821   7.787   2.784   3.078
10626TIP3    H231822   7.706   2.656   3.088
10627TIP3   OH231823   1.634   5.523   2.763
10627TIP3    H131824   1.640   5.433   2.794
10627TIP3    H231825   1.721   5.559   2.779
10628TIP3   OH231826   7.577   1.976   4.995
10628TIP3    H131827   7.572   2.019   5.080
10628TIP3    H231828   7.486   1.973   4.964
10629TIP3   OH231829   3.737   7.566   2.675
10629TIP3    H131830   3.698   7.495   2.727
10629TIP3    H231831   3.749   7.528   2.588
10630TIP3   OH231832   7.035   1.208   5.693
10630TIP3    H131833   7.061   1.211   5.601
10630TIP3    H231834   7.051   1.296   5.726
10631TIP3   OH231835   3.944   0.547   3.932
10631TIP3    H131836   3.999   0.524   4.007
10631TIP3    H231837   3.994   0.519   3.856
10632TIP3   OH231838   5.113   4.019   1.603
10632TIP3    H131839   5.141   4.069   1.680
10632TIP3    H231840   5.193   3.976   1.572
10633TIP3   OH231841   7.352   5.635   3.343
10633TIP3    H131842   7.446   5.649   3.349
10633TIP3    H231843   7.319   5.653   3.431
10634TIP3   OH231844   6.028   7.030   4.300
10634TIP3    H131845   6.102   7.037   4.240
10634TIP3    H231846   6.012   6.936   4.308
10635TIP3   OH231847   1.049   6.796   5.787
10635TIP3    H131848   1.132   6.830   5.820
10635TIP3    H231849   1.071   6.761   5.701
10636TIP3   OH231850   7.140   0.125   6.547
10636TIP3    H131851   7.081   0.199   6.563
10636TIP3    H231852   7.224   0.154   6.583
10637TIP3   OH231853   8.125   3.228   5.884
10637TIP3    H131854   8.108   3.155   5.944
10637TIP3    H231855   8.123   3.306   5.939
10638TIP3   OH231856   4.312   1.329   1.804
10638TIP3    H131857   4.255   1.330   1.881
10638TIP3    H231858   4.321   1.236   1.782
10639TIP3   OH231859   1.633   4.472   6.805
10639TIP3    H131860   1.583   4.391   6.795
10639TIP3    H231861   1.701   4.468   6.738
10640TIP3   OH231862   4.309   1.657   3.012
10640TIP3    H131863   4.223   1.643   2.972
10640TIP3    H231864   4.305   1.611   3.095
10641TIP3   OH231865   5.677   0.282   3.285
10641TIP3    H131866   5.707   0.373   3.294
10641TIP3    H231867   5.631   0.264   3.367
10642TIP3   OH231868   6.486   5.684   6.180
10642TIP3    H131869   6.414   5.623   6.197
10642TIP3    H231870   6.490   5.690   6.084
10643TIP3   OH231871   3.759   5.440   1.267
10643TIP3    H131872   3.840   5.389   1.270
10643TIP3    H231873   3.760   5.483   1.182
10644TIP3   OH231874   3.419   6.997   3.227
10644TIP3    H131875   3.371   6.915   3.241
10644TIP3    H231876   3.464   6.984   3.143
10645TIP3   OH231877   0.606   1.874   3.381
10645TIP3    H131878   0.651   1.956   3.361
10645TIP3    H231879   0.608   1.867   3.476
10646TIP3   OH231880   3.376   7.240  -0.010
10646TIP3    H131881   3.355   7.154   0.024
10646TIP3    H231882   3.322   7.300   0.042
10647TIP3   OH231883   2.009   5.424   3.966
10647TIP3    H131884   2.017   5.515   3.994
10647TIP3    H231885   2.086   5.409   3.910
10648TIP3   OH231886   4.254   2.853   2.932
10648TIP3    H131887   4.192   2.787   2.900
10648TIP3    H231888   4.317   2.862   2.861
10649TIP3   OH231889   3.029   1.364   5.975
10649TIP3    H131890   3.051   1.349   5.883
10649TIP3    H231891   2.935   1.381   5.975
10650TIP3   OH231892   1.400   2.728   1.687
10650TIP3    H131893   1.381   2.635   1.690
10650TIP3    H231894   1.399   2.750   1.593
10651TIP3   OH231895   5.815   4.394   5.279
10651TIP3    H131896   5.796   4.345   5.359
10651TIP3    H231897   5.880   4.459   5.305
10652TIP3   OH231898   8.036   4.080   4.922
10652TIP3    H131899   7.941   4.086   4.928
10652TIP3    H231900   8.058   4.003   4.975
10653TIP3   OH231901   3.127   5.428   2.440
10653TIP3    H131902   3.205   5.480   2.421
10653TIP3    H231903   3.157   5.361   2.502
10654TIP3   OH231904   1.621   2.096   4.975
10654TIP3    H131905   1.597   2.041   4.900
10654TIP3    H231906   1.712   2.122   4.957
10655TIP3   OH231907   7.562   7.775   1.959
10655TIP3    H131908   7.530   7.740   2.042
10655TIP3    H231909   7.579   7.698   1.905
10656TIP3   OH231910   4.310   4.328   3.769
10656TIP3    H131911   4.219   4.309   3.746
10656TIP3    H231912   4.340   4.251   3.818
10657TIP3   OH231913   2.676   2.407   4.147
10657TIP3    H131914   2.734   2.482   4.133
10657TIP3    H231915   2.717   2.336   4.099
10658TIP3   OH231916  -0.008   5.443   6.417
10658TIP3    H131917   0.033   5.446   6.331
10658TIP3    H231918  -0.029   5.535   6.437
10659TIP3   OH231919   3.875   6.118   4.158
10659TIP3    H131920   3.796   6.115   4.213
10659TIP3    H231921   3.878   6.032   4.116
10660TIP3   OH231922   0.853   7.337   1.141
10660TIP3    H131923   0.823   7.357   1.052
10660TIP3    H231924   0.948   7.328   1.132
10661TIP3   OH231925   1.040   3.859   1.924
10661TIP3    H131926   0.954   3.854   1.963
10661TIP3    H231927   1.095   3.803   1.978
10662TIP3   OH231928   0.623   2.323   1.463
10662TIP3    H131929   0.555   2.364   1.517
10662TIP3    H231930   0.627   2.233   1.492
10663TIP3   OH231931   2.675   0.489   2.378
10663TIP3    H131932   2.681   0.410   2.325
10663TIP3    H231933   2.675   0.561   2.314
10664TIP3   OH231934   3.461   1.455   3.894
10664TIP3    H131935   3.446   1.418   3.807
10664TIP3    H231936   3.536   1.407   3.928
10665TIP3   OH231937   0.071   0.209   5.568
10665TIP3    H131938   0.137   0.277   5.581
10665TIP3    H231939  -0.005   0.255   5.533
10666TIP3   OH231940   2.256   0.983   3.158
10666TIP3    H131941   2.337   1.023   3.127
10666TIP3    H231942   2.273   0.964   3.251
10667TIP3   OH231943   5.629   7.087   3.854
10667TIP3    H131944   5.584   7.024   3.909
10667TIP3    H231945   5.687   7.134   3.914
10668TIP3   OH231946   7.835   1.705   3.078
10668TIP3    H131947   7.855   1.724   2.986
10668TIP3    H231948   7.746   1.669   3.076
10669TIP3   OH231949   7.868   5.642   2.963
10669TIP3    H131950   7.906   5.729   2.975
10669TIP3    H231951   7.810   5.651   2.887
10670TIP3   OH231952   1.645   2.905   4.343
10670TIP3    H131953   1.619   2.996   4.327
10670TIP3    H231954   1.706   2.910   4.416
10671TIP3   OH231955   3.475   4.608   2.929
10671TIP3    H131956   3.406   4.627   2.865
10671TIP3    H231957   3.556   4.637   2.887
10672TIP3   OH231958   6.159   4.128   4.019
10672TIP3    H131959   6.229   4.088   3.967
10672TIP3    H231960   6.179   4.222   4.016
10673TIP3   OH231961   1.557   7.144   1.954
10673TIP3    H131962   1.649   7.152   1.930
10673TIP3    H231963   1.510   7.145   1.871
10674TIP3   OH231964   3.495   1.361   5.008
10674TIP3    H131965   3.470   1.300   5.077
10674TIP3    H231966   3.463   1.320   4.927
10675TIP3   OH231967   5.480   3.842   5.588
10675TIP3    H131968   5.397   3.845   5.635
10675TIP3    H231969   5.541   3.801   5.649
10676TIP3   OH231970   1.735   3.669   1.790
10676TIP3    H131971   1.818   3.623   1.804
10676TIP3    H231972   1.719   3.714   1.873
10677TIP3   OH231973   5.600   0.406   5.710
10677TIP3    H131974   5.657   0.329   5.718
10677TIP3    H231975   5.568   0.403   5.620
10678TIP3   OH231976   5.383   6.017   5.400
10678TIP3    H131977   5.305   5.980   5.443
10678TIP3    H231978   5.358   6.022   5.308
10679TIP3   OH231979   4.794   2.614   4.694
10679TIP3    H131980   4.790   2.591   4.786
10679TIP3    H231981   4.713   2.579   4.657
10680TIP3   OH231982   7.621   4.748   1.619
10680TIP3    H131983   7.716   4.750   1.631
10680TIP3    H231984   7.608   4.752   1.524
10681TIP3   OH231985   4.180   3.144   3.900
10681TIP3    H131986   4.091   3.152   3.865
10681TIP3    H231987   4.167   3.120   3.992
10682TIP3   OH231988   6.077   6.861   5.455
10682TIP3    H131989   6.153   6.905   5.417
10682TIP3    H231990   6.051   6.917   5.528
10683TIP3   OH231991   5.977   3.225   0.966
10683TIP3    H131992   6.016   3.143   0.995
10683TIP3    H231993   5.954   3.210   0.874
10684TIP3   OH231994   1.961   4.302   2.782
10684TIP3    H131995   1.988   4.249   2.857
10684TIP3    H231996   2.023   4.375   2.782
10685TIP3   OH231997   7.992   5.211   4.448
10685TIP3    H131998   7.996   5.293   4.497
10685TIP3    H231999   8.082   5.196   4.419
10686TIP3   OH232000   6.926   3.524   5.334
10686TIP3    H132001   6.901   3.434   5.354
10686TIP3    H232002   7.021   3.525   5.345
10687TIP3   OH232003   5.100   4.115   2.376
10687TIP3    H132004   5.061   4.100   2.462
10687TIP3    H232005   5.186   4.073   2.381
10688TIP3   OH232006   1.504   2.900   4.060
10688TIP3    H132007   1.455   2.980   4.078
10688TIP3    H232008   1.568   2.925   3.993
10689TIP3   OH232009   6.086   7.752   0.458
10689TIP3    H132010   6.166   7.726   0.504
10689TIP3    H232011   6.076   7.687   0.389
10690TIP3   OH232012   5.413   5.200   5.515
10690TIP3    H132013   5.432   5.269   5.451
10690TIP3    H232014   5.498   5.161   5.534
10691TIP3   OH232015   0.885   3.495   6.160
10691TIP3    H132016   0.868   3.587   6.180
10691TIP3    H232017   0.824   3.447   6.216
10692TIP3   OH232018   2.558   5.183   3.267
10692TIP3    H132019   2.569   5.223   3.353
10692TIP3    H232020   2.562   5.089   3.283
10693TIP3   OH232021   5.375   4.006   4.060
10693TIP3    H132022   5.369   3.930   4.001
10693TIP3    H232023   5.318   3.985   4.133
10694TIP3   OH232024   7.010   7.179   0.994
10694TIP3    H132025   7.042   7.255   1.043
10694TIP3    H232026   6.915   7.187   0.998
10695TIP3   OH232027   1.786   2.480   6.096
10695TIP3    H132028   1.723   2.418   6.133
10695TIP3    H232029   1.815   2.532   6.171
10696TIP3   OH232030   3.968   4.573   5.017
10696TIP3    H132031   4.012   4.557   4.933
10696TIP3    H232032   3.934   4.663   5.009
10697TIP3   OH232033   2.989   6.738   0.218
10697TIP3    H132034   3.031   6.658   0.250
10697TIP3    H232035   3.060   6.801   0.210
10698TIP3   OH232036   5.550   3.228   3.936
10698TIP3    H132037   5.455   3.214   3.933
10698TIP3    H232038   5.588   3.140   3.937
10699TIP3   OH232039   7.629   5.027   3.293
10699TIP3    H132040   7.623   4.979   3.210
10699TIP3    H232041   7.544   5.015   3.334
10700TIP3   OH232042   6.661   5.301   1.555
10700TIP3    H132043   6.608   5.225   1.581
10700TIP3    H232044   6.680   5.346   1.637
10701TIP3   OH232045   0.946   5.354   4.330
10701TIP3    H132046   1.023   5.360   4.275
10701TIP3    H232047   0.937   5.442   4.368
10702TIP3   OH232048   1.527   2.206   3.647
10702TIP3    H132049   1.438   2.170   3.648
10702TIP3    H232050   1.540   2.242   3.734
10703TIP3   OH232051   4.811   6.098   0.930
10703TIP3    H132052   4.887   6.096   0.988
10703TIP3    H232053   4.820   6.018   0.878
10704TIP3   OH232054   8.219   2.134   2.277
10704TIP3    H132055   8.140   2.084   2.300
10704TIP3    H232056   8.193   2.186   2.202
10705TIP3   OH232057   6.965   3.086   1.137
10705TIP3    H132058   6.891   3.137   1.169
10705TIP3    H232059   7.041   3.143   1.151
10706TIP3   OH232060   3.891   4.239   3.934
10706TIP3    H132061   3.951   4.250   3.860
10706TIP3    H232062   3.810   4.208   3.895
10707TIP3   OH232063   0.168   5.854   1.832
10707TIP3    H132064   0.176   5.841   1.737
10707TIP3    H232065   0.216   5.935   1.849
10708TIP3   OH232066   2.489   4.658   3.877
10708TIP3    H132067   2.499   4.635   3.969
10708TIP3    H232068   2.573   4.697   3.853
10709TIP3   OH232069   0.802   2.806   3.794
10709TIP3    H132070   0.730   2.755   3.830
10709TIP3    H232071   0.875   2.744   3.787
10710TIP3   OH232072   4.981   2.857   2.929
10710TIP3    H132073   5.019   2.770   2.942
10710TIP3    H232074   4.887   2.843   2.931
10711TIP3   OH232075   3.484   0.242   5.371
10711TIP3    H132076   3.412   0.244   5.308
10711TIP3    H232077   3.538   0.167   5.344
10712TIP3   OH232078   2.081   4.503   3.805
10712TIP3    H132079   2.078   4.414   3.841
10712TIP3    H232080   2.079   4.560   3.882
10713TIP3   OH232081   4.036   6.733   4.179
10713TIP3    H132082   4.117   6.686   4.159
10713TIP3    H232083   3.978   6.667   4.217
10714TIP3   OH232084   4.821   5.700   2.483
10714TIP3    H132085   4.824   5.754   2.562
10714TIP3    H232086   4.910   5.703   2.449
10715TIP3   OH232087   0.784   7.386   2.184
10715TIP3    H132088   0.739   7.465   2.214
10715TIP3    H232089   0.713   7.325   2.162
10716TIP3   OH232090   8.155   2.199   3.880
10716TIP3    H132091   8.122   2.120   3.923
10716TIP3    H232092   8.082   2.261   3.885
10717TIP3   OH232093   7.069   6.336   3.415
10717TIP3    H132094   6.996   6.285   3.379
10717TIP3    H232095   7.140   6.273   3.426
10718TIP3   OH232096   2.277   1.558   2.999
10718TIP3    H132097   2.205   1.607   2.960
10718TIP3    H232098   2.346   1.558   2.932
10719TIP3   OH232099   4.628   5.607   5.929
10719TIP3    H132100   4.694   5.574   5.868
10719TIP3    H232101   4.582   5.674   5.880
10720TIP3   OH232102   6.301   5.038   1.726
10720TIP3    H132103   6.314   5.133   1.730
10720TIP3    H232104   6.245   5.026   1.650
10721TIP3   OH232105   6.725   1.950   4.019
10721TIP3    H132106   6.803   2.003   4.036
10721TIP3    H232107   6.659   1.985   4.079
10722TIP3   OH232108   2.664   4.895   1.179
10722TIP3    H132109   2.696   4.809   1.153
10722TIP3    H232110   2.578   4.879   1.217
10723TIP3   OH232111   2.986   2.480   4.966
10723TIP3    H132112   3.063   2.518   4.924
10723TIP3    H232113   2.936   2.556   4.997
10724TIP3   OH232114   5.977   2.420   3.664
10724TIP3    H132115   6.070   2.405   3.649
10724TIP3    H232116   5.939   2.426   3.576
10725TIP3   OH232117   7.748   6.872   6.532
10725TIP3    H132118   7.786   6.954   6.565
10725TIP3    H232119   7.656   6.876   6.558
10726TIP3   OH232120   2.297   3.147   6.007
10726TIP3    H132121   2.209   3.119   6.032
10726TIP3    H232122   2.344   3.065   5.992
10727TIP3   OH232123   4.247  -0.036   0.530
10727TIP3    H132124   4.204  -0.004   0.451
10727TIP3    H232125   4.291   0.040   0.566
10728TIP3   OH232126   3.033   5.082   2.777
10728TIP3    H132127   3.096   5.088   2.705
10728TIP3    H232128   3.007   5.172   2.794
10729TIP3   OH232129   5.922   1.292   2.246
10729TIP3    H132130   5.973   1.212   2.260
10729TIP3    H232131   5.962   1.357   2.304
10730TIP3   OH232132   8.202   3.654   2.612
10730TIP3    H132133   8.211   3.650   2.707
10730TIP3    H232134   8.193   3.748   2.592
10731TIP3   OH232135   4.409   7.422   1.816
10731TIP3    H132136   4.330   7.445   1.769
10731TIP3    H232137   4.432   7.335   1.784
10732TIP3   OH232138   6.354   0.741   3.363
10732TIP3    H132139   6.265   0.706   3.361
10732TIP3    H232140   6.360   0.785   3.448
10733TIP3   OH232141   2.500   2.787   2.527
10733TIP3    H132142   2.422   2.819   2.482
10733TIP3    H232143   2.478   2.697   2.552
10734TIP3   OH232144   0.837   1.830   6.592
10734TIP3    H132145   0.872   1.906   6.638
10734TIP3    H232146   0.901   1.761   6.608
10735TIP3   OH232147   0.926   4.753   0.813
10735TIP3    H132148   0.956   4.798   0.734
10735TIP3    H232149   0.834   4.731   0.794
10736TIP3   OH232150   7.690   6.754   5.271
10736TIP3    H132151   7.763   6.718   5.323
10736TIP3    H232152   7.612   6.733   5.323
10737TIP3   OH232153   3.021   0.432   2.960
10737TIP3    H132154   3.032   0.413   2.867
10737TIP3    H232155   3.016   0.528   2.964
10738TIP3   OH232156   7.582   3.765   0.607
10738TIP3    H132157   7.559   3.700   0.673
10738TIP3    H232158   7.672   3.742   0.581
10739TIP3   OH232159   2.877   5.795   3.183
10739TIP3    H132160   2.815   5.732   3.147
10739TIP3    H232161   2.824   5.869   3.211
10740TIP3   OH232162   4.837   4.932   4.168
10740TIP3    H132163   4.782   4.855   4.153
10740TIP3    H232164   4.914   4.917   4.114
10741TIP3   OH232165   5.557   4.176   2.482
10741TIP3    H132166   5.481   4.234   2.475
10741TIP3    H232167   5.604   4.208   2.559
10742TIP3   OH232168   2.804   6.164   1.473
10742TIP3    H132169   2.721   6.121   1.493
10742TIP3    H232170   2.848   6.104   1.413
10743TIP3   OH232171   0.930   0.100   1.511
10743TIP3    H132172   0.921   0.034   1.579
10743TIP3    H232173   0.917   0.183   1.556
10744TIP3   OH232174   1.629   3.581   5.269
10744TIP3    H132175   1.702   3.542   5.221
10744TIP3    H232176   1.635   3.543   5.357
10745TIP3   OH232177   6.870   2.270   1.915
10745TIP3    H132178   6.859   2.194   1.858
10745TIP3    H232179   6.844   2.239   2.001
10746TIP3   OH232180   1.415   0.893   6.116
10746TIP3    H132181   1.375   0.855   6.195
10746TIP3    H232182   1.482   0.830   6.090
10747TIP3   OH232183   0.194   1.732   4.289
10747TIP3    H132184   0.203   1.663   4.355
10747TIP3    H232185   0.181   1.812   4.340
10748TIP3   OH232186   2.509   5.566   4.632
10748TIP3    H132187   2.526   5.612   4.550
10748TIP3    H232188   2.414   5.573   4.643
10749TIP3   OH232189   5.430   5.753   3.583
10749TIP3    H132190   5.511   5.800   3.600
10749TIP3    H232191   5.362   5.821   3.581
10750TIP3   OH232192   8.088   2.371   0.829
10750TIP3    H132193   8.156   2.314   0.866
10750TIP3    H232194   8.033   2.394   0.904
10751TIP3   OH232195   2.378   6.629   5.829
10751TIP3    H132196   2.376   6.681   5.909
10751TIP3    H232197   2.397   6.692   5.760
10752TIP3   OH232198   1.977   3.114   4.033
10752TIP3    H132199   2.007   3.205   4.027
10752TIP3    H232200   1.946   3.094   3.944
10753TIP3   OH232201   6.234   5.933   4.602
10753TIP3    H132202   6.324   5.952   4.576
10753TIP3    H232203   6.180   5.989   4.546
10754TIP3   OH232204   5.912   4.779   5.553
10754TIP3    H132205   5.910   4.787   5.649
10754TIP3    H232206   5.933   4.867   5.523
10755TIP3   OH232207   7.050   4.452   4.302
10755TIP3    H132208   7.118   4.402   4.257
10755TIP3    H232209   7.055   4.539   4.262
10756TIP3   OH232210   7.071   3.981   0.738
10756TIP3    H132211   7.054   4.009   0.648
10756TIP3    H232212   7.167   3.976   0.744
10757TIP3   OH232213   5.216   7.725   0.733
10757TIP3    H132214   5.170   7.652   0.691
10757TIP3    H232215   5.241   7.691   0.819
10758TIP3   OH232216   3.038   2.139   0.129
10758TIP3    H132217   2.948   2.168   0.113
10758TIP3    H232218   3.068   2.191   0.203
10759TIP3   OH232219   7.574   3.959   2.004
10759TIP3    H132220   7.660   3.958   2.047
10759TIP3    H232221   7.525   3.889   2.048
10760TIP3   OH232222   0.461   3.203   2.321
10760TIP3    H132223   0.483   3.113   2.298
10760TIP3    H232224   0.496   3.256   2.250
10761TIP3   OH232225   2.230   1.862   4.640
10761TIP3    H132226   2.154   1.803   4.634
10761TIP3    H232227   2.200   1.931   4.700
10762TIP3   OH232228   1.057   1.522   0.353
10762TIP3    H132229   0.965   1.545   0.369
10762TIP3    H232230   1.107   1.577   0.413
10763TIP3   OH232231   2.653   5.723   0.282
10763TIP3    H132232   2.607   5.685   0.357
10763TIP3    H232233   2.583   5.759   0.227
10764TIP3   OH232234   1.167   0.720   2.267
10764TIP3    H132235   1.091   0.716   2.209
10764TIP3    H232236   1.142   0.784   2.334
10765TIP3   OH232237   3.094   1.683   1.830
10765TIP3    H132238   3.155   1.744   1.870
10765TIP3    H232239   3.141   1.650   1.753
10766TIP3   OH232240   4.783   1.690   1.015
10766TIP3    H132241   4.738   1.651   0.941
10766TIP3    H232242   4.874   1.660   1.007
10767TIP3   OH232243   5.929   6.173   3.047
10767TIP3    H132244   5.907   6.119   3.123
10767TIP3    H232245   5.959   6.110   2.981
10768TIP3   OH232246   5.621   5.363   5.346
10768TIP3    H132247   5.634   5.453   5.316
10768TIP3    H232248   5.608   5.312   5.266
10769TIP3   OH232249   7.885   1.857   6.496
10769TIP3    H132250   7.816   1.920   6.516
10769TIP3    H232251   7.844   1.771   6.508
10770TIP3   OH232252   8.020   6.706   5.374
10770TIP3    H132253   8.064   6.736   5.454
10770TIP3    H232254   8.035   6.612   5.372
10771TIP3   OH232255   1.853   3.138   4.565
10771TIP3    H132256   1.843   3.212   4.625
10771TIP3    H232257   1.886   3.177   4.484
10772TIP3   OH232258   1.404   0.455   6.208
10772TIP3    H132259   1.405   0.516   6.135
10772TIP3    H232260   1.474   0.484   6.265
10773TIP3   OH232261   5.257   2.965   2.203
10773TIP3    H132262   5.230   3.055   2.186
10773TIP3    H232263   5.178   2.922   2.234
10774TIP3   OH232264   6.655   1.615   4.036
10774TIP3    H132265   6.587   1.590   4.099
10774TIP3    H232266   6.666   1.709   4.050
10775TIP3   OH232267   4.663   5.971   6.680
10775TIP3    H132268   4.736   5.930   6.726
10775TIP3    H232269   4.588   5.960   6.738
10776TIP3   OH232270   2.585   2.341   2.185
10776TIP3    H132271   2.657   2.361   2.125
10776TIP3    H232272   2.513   2.314   2.128
10777TIP3   OH232273   6.746   0.451   0.071
10777TIP3    H132274   6.719   0.401  -0.006
10777TIP3    H232275   6.802   0.391   0.120
10778TIP3   OH232276   0.967   1.488   3.163
10778TIP3    H132277   0.927   1.416   3.114
10778TIP3    H232278   1.049   1.507   3.117
10779TIP3   OH232279   1.716   2.814   0.305
10779TIP3    H132280   1.741   2.905   0.322
10779TIP3    H232281   1.781   2.762   0.353
10780TIP3   OH232282   2.579   1.935   4.231
10780TIP3    H132283   2.660   1.955   4.279
10780TIP3    H232284   2.521   1.897   4.296
10781TIP3   OH232285   0.338   3.181   4.831
10781TIP3    H132286   0.269   3.247   4.835
10781TIP3    H232287   0.418   3.231   4.821
10782TIP3   OH232288   3.317   2.258   0.331
10782TIP3    H132289   3.304   2.344   0.290
10782TIP3    H232290   3.284   2.269   0.420
10783TIP3   OH232291   4.173   5.653   1.608
10783TIP3    H132292   4.200   5.580   1.665
10783TIP3    H232293   4.140   5.611   1.529
10784TIP3   OH232294   1.114   0.236   0.086
10784TIP3    H132295   1.048   0.212   0.151
10784TIP3    H232296   1.064   0.249   0.005
10785TIP3   OH232297   4.843   4.100   2.848
10785TIP3    H132298   4.848   4.163   2.920
10785TIP3    H232299   4.824   4.017   2.891
10786TIP3   OH232300   3.573   6.635   0.661
10786TIP3    H132301   3.619   6.553   0.680
10786TIP3    H232302   3.518   6.615   0.585
10787TIP3   OH232303   2.332   2.086   3.662
10787TIP3    H132304   2.424   2.065   3.649
10787TIP3    H232305   2.287   2.002   3.658
10788TIP3   OH232306   6.796   3.804   2.660
10788TIP3    H132307   6.743   3.807   2.580
10788TIP3    H232308   6.732   3.801   2.731
10789TIP3   OH232309   4.423   4.935   5.520
10789TIP3    H132310   4.412   4.865   5.455
10789TIP3    H232311   4.489   4.993   5.481
10790TIP3   OH232312   7.630   2.143   2.590
10790TIP3    H132313   7.664   2.206   2.653
10790TIP3    H232314   7.657   2.057   2.623
10791TIP3   OH232315   1.848   2.363   3.128
10791TIP3    H132316   1.754   2.368   3.146
10791TIP3    H232317   1.854   2.324   3.040
10792TIP3   OH232318   3.656   5.076   6.715
10792TIP3    H132319   3.666   5.084   6.621
10792TIP3    H232320   3.746   5.075   6.749
10793TIP3   OH232321   1.867   0.402   6.161
10793TIP3    H132322   1.801   0.453   6.208
10793TIP3    H232323   1.931   0.468   6.133
10794TIP3   OH232324   4.119   0.172   6.589
10794TIP3    H132325   4.169   0.109   6.536
10794TIP3    H232326   4.089   0.237   6.526
10795TIP3   OH232327   5.420   7.638   2.762
10795TIP3    H132328   5.358   7.685   2.707
10795TIP3    H232329   5.426   7.550   2.723
10796TIP3   OH232330   2.729   6.729   5.675
10796TIP3    H132331   2.795   6.663   5.654
10796TIP3    H232332   2.700   6.762   5.590
10797TIP3   OH232333   3.146   5.650   3.014
10797TIP3    H132334   3.055   5.624   3.026
10797TIP3    H232335   3.189   5.572   2.979
10798TIP3   OH232336   3.198   5.880   6.289
10798TIP3    H132337   3.260   5.835   6.346
10798TIP3    H232338   3.223   5.973   6.295
10799TIP3   OH232339   0.910   0.518   6.675
10799TIP3    H132340   0.955   0.436   6.693
10799TIP3    H232341   0.817   0.494   6.674
10800TIP3   OH232342   0.050   5.051   1.619
10800TIP3    H132343   0.132   5.000   1.619
10800TIP3    H232344  -0.016   4.988   1.590
10801TIP3   OH232345   4.082   7.238   2.778
10801TIP3    H132346   4.131   7.187   2.713
10801TIP3    H232347   4.096   7.329   2.752
10802TIP3   OH232348  -0.044   0.097   6.687
10802TIP3    H132349   0.045   0.097   6.722
10802TIP3    H232350  -0.049   0.175   6.632
10803TIP3   OH232351   5.572   3.731   6.557
10803TIP3    H132352   5.638   3.717   6.625
10803TIP3    H232353   5.490   3.705   6.598
10804TIP3   OH232354   3.113   5.794   0.619
10804TIP3    H132355   3.157   5.867   0.577
10804TIP3    H232356   3.054   5.834   0.683
10805TIP3   OH232357   5.370   3.691   6.732
10805TIP3    H132358   5.325   3.608   6.720
10805TIP3    H232359   5.302   3.752   6.759
10806TIP3   OH232360   3.700   5.144   0.045
10806TIP3    H132361   3.637   5.201   0.089
10806TIP3    H232362   3.782   5.192   0.048
10807TIP3   OH232363   0.546   7.615   4.938
10807TIP3    H132364   0.619   7.553   4.933
10807TIP3    H232365   0.468   7.559   4.939
10808TIP3   OH232366   6.402   4.128   6.179
10808TIP3    H132367   6.492   4.155   6.163
10808TIP3    H232368   6.392   4.047   6.129
10809TIP3   OH232369   1.717   5.432   3.138
10809TIP3    H132370   1.697   5.340   3.157
10809TIP3    H232371   1.757   5.465   3.218
10810TIP3   OH232372   4.015   5.850   4.826
10810TIP3    H132373   4.042   5.902   4.750
10810TIP3    H232374   3.929   5.886   4.850
10811TIP3   OH232375   6.775   5.379   5.306
10811TIP3    H132376   6.681   5.366   5.291
10811TIP3    H232377   6.780   5.462   5.355
10812TIP3   OH232378   6.633   1.735   1.052
10812TIP3    H132379   6.578   1.664   1.018
10812TIP3    H232380   6.615   1.809   0.994
10813TIP3   OH232381   4.370   5.400   1.284
10813TIP3    H132382   4.360   5.440   1.198
10813TIP3    H232383   4.405   5.313   1.266
10814TIP3   OH232384   3.747   3.652   4.654
10814TIP3    H132385   3.810   3.603   4.601
10814TIP3    H232386   3.663   3.635   4.612
10815TIP3   OH232387   3.140   6.916   2.282
10815TIP3    H132388   3.212   6.899   2.221
10815TIP3    H232389   3.072   6.855   2.256
10816TIP3   OH232390   0.870   1.547   0.860
10816TIP3    H132391   0.790   1.593   0.883
10816TIP3    H232392   0.918   1.540   0.943
10817TIP3   OH232393   5.035   1.365   4.067
10817TIP3    H132394   5.129   1.376   4.082
10817TIP3    H232395   5.008   1.446   4.024
10818TIP3   OH232396   0.059   3.463   5.516
10818TIP3    H132397   0.087   3.385   5.563
10818TIP3    H232398  -0.011   3.500   5.569
10819TIP3   OH232399   6.429   6.871   0.163
10819TIP3    H132400   6.337   6.848   0.175
10819TIP3    H232401   6.464   6.877   0.252
10820TIP3   OH232402  -0.020   2.695   1.795
10820TIP3    H132403   0.063   2.663   1.830
10820TIP3    H232404  -0.020   2.666   1.703
10821TIP3   OH232405   1.231   2.989   5.407
10821TIP3    H132406   1.198   2.903   5.434
10821TIP3    H232407   1.244   2.980   5.313
10822TIP3   OH232408   1.979   6.623   5.265
10822TIP3    H132409   2.068   6.649   5.242
10822TIP3    H232410   1.931   6.626   5.182
10823TIP3   OH232411   5.386   6.410   4.849
10823TIP3    H132412   5.300   6.383   4.880
10823TIP3    H232413   5.435   6.328   4.839
10824TIP3   OH232414   1.354   4.894   5.686
10824TIP3    H132415   1.377   4.955   5.616
10824TIP3    H232416   1.265   4.919   5.711
10825TIP3   OH232417   3.958   4.829   5.362
10825TIP3    H132418   3.944   4.890   5.290
10825TIP3    H232419   4.037   4.860   5.405
10826TIP3   OH232420   0.923   7.062   6.490
10826TIP3    H132421   0.923   6.967   6.477
10826TIP3    H232422   0.873   7.097   6.416
10827TIP3   OH232423   7.593   1.525   4.193
10827TIP3    H132424   7.687   1.520   4.211
10827TIP3    H232425   7.581   1.470   4.115
10828TIP3   OH232426   7.270   7.167   2.543
10828TIP3    H132427   7.316   7.113   2.608
10828TIP3    H232428   7.178   7.160   2.567
10829TIP3   OH232429   1.778   5.222   5.572
10829TIP3    H132430   1.704   5.282   5.583
10829TIP3    H232431   1.774   5.196   5.480
10830TIP3   OH232432   5.848   3.871   6.595
10830TIP3    H132433   5.912   3.848   6.662
10830TIP3    H232434   5.835   3.791   6.545
10831TIP3   OH232435   7.513   2.099   5.828
10831TIP3    H132436   7.447   2.116   5.760
10831TIP3    H232437   7.589   2.066   5.779
10832TIP3   OH232438   6.311   5.099   2.185
10832TIP3    H132439   6.281   5.039   2.117
10832TIP3    H232440   6.313   5.185   2.143
10833TIP3   OH232441   2.340   0.991   2.257
10833TIP3    H132442   2.311   0.909   2.218
10833TIP3    H232443   2.362   0.968   2.348
10834TIP3   OH232444   2.792   7.760   2.928
10834TIP3    H132445   2.730   7.708   2.877
10834TIP3    H232446   2.871   7.764   2.874
10835TIP3   OH232447   5.703   0.801   0.467
10835TIP3    H132448   5.751   0.878   0.437
10835TIP3    H232449   5.613   0.832   0.478
10836TIP3   OH232450   4.195   0.027   3.370
10836TIP3    H132451   4.104   0.018   3.343
10836TIP3    H232452   4.246   0.014   3.289
10837TIP3   OH232453   0.564   7.575   4.157
10837TIP3    H132454   0.488   7.518   4.170
10837TIP3    H232455   0.585   7.606   4.245
10838TIP3   OH232456   3.566   3.866   1.482
10838TIP3    H132457   3.531   3.916   1.408
10838TIP3    H232458   3.627   3.804   1.442
10839TIP3   OH232459   0.266   7.375   5.830
10839TIP3    H132460   0.327   7.301   5.834
10839TIP3    H232461   0.322   7.452   5.822
10840TIP3   OH232462   4.232   6.541   0.392
10840TIP3    H132463   4.164   6.473   0.390
10840TIP3    H232464   4.276   6.526   0.476
10841TIP3   OH232465   1.732   7.121   3.158
10841TIP3    H132466   1.729   7.035   3.116
10841TIP3    H232467   1.643   7.136   3.187
10842TIP3   OH232468   3.340   7.584   4.221
10842TIP3    H132469   3.384   7.616   4.143
10842TIP3    H232470   3.305   7.499   4.197
10843TIP3   OH232471   3.014   3.796   4.510
10843TIP3    H132472   2.970   3.841   4.582
10843TIP3    H232473   3.099   3.839   4.504
10844TIP3   OH232474   7.671   4.016   0.241
10844TIP3    H132475   7.671   4.042   0.333
10844TIP3    H232476   7.723   3.936   0.238
10845TIP3   OH232477   1.450   7.649   6.304
10845TIP3    H132478   1.481   7.558   6.310
10845TIP3    H232479   1.437   7.663   6.210
10846TIP3   OH232480   6.332   7.629   5.776
10846TIP3    H132481   6.248   7.668   5.753
10846TIP3    H232482   6.310   7.547   5.820
10847TIP3   OH232483   5.223   3.579   0.168
10847TIP3    H132484   5.284   3.630   0.221
10847TIP3    H232485   5.232   3.616   0.080
10848TIP3   OH232486   5.232   1.664   5.385
10848TIP3    H132487   5.252   1.616   5.305
10848TIP3    H232488   5.139   1.686   5.377
10849TIP3   OH232489   3.257   6.964   4.111
10849TIP3    H132490   3.302   7.021   4.173
10849TIP3    H232491   3.243   7.019   4.033
10850TIP3   OH232492   7.777   3.971   3.465
10850TIP3    H132493   7.834   3.934   3.533
10850TIP3    H232494   7.832   4.033   3.418
10851TIP3   OH232495   1.978   2.923   3.334
10851TIP3    H132496   2.070   2.899   3.342
10851TIP3    H232497   1.970   2.961   3.247
10852TIP3   OH232498   1.097   2.077   2.339
10852TIP3    H132499   1.106   2.171   2.325
10852TIP3    H232500   1.079   2.041   2.252
10853TIP3   OH232501   0.951   3.563   1.118
10853TIP3    H132502   1.042   3.540   1.137
10853TIP3    H232503   0.913   3.483   1.082
10854TIP3   OH232504   0.098   5.902   0.892
10854TIP3    H132505   0.013   5.937   0.921
10854TIP3    H232506   0.127   5.964   0.825
10855TIP3   OH232507   3.506   5.158   0.356
10855TIP3    H132508   3.547   5.192   0.436
10855TIP3    H232509   3.547   5.072   0.343
10856TIP3   OH232510   7.696   6.200   0.337
10856TIP3    H132511   7.612   6.234   0.366
10856TIP3    H232512   7.713   6.244   0.254
10857TIP3   OH232513   0.664   0.389   6.572
10857TIP3    H132514   0.619   0.405   6.489
10857TIP3    H232515   0.730   0.322   6.551
10858TIP3   OH232516   7.841   0.367   6.673
10858TIP3    H132517   7.788   0.446   6.690
10858TIP3    H232518   7.839   0.358   6.578
10859TIP3   OH232519   3.473   3.619   5.998
10859TIP3    H132520   3.562   3.649   6.016
10859TIP3    H232521   3.456   3.649   5.908
10860TIP3   OH232522   6.290   0.309   3.204
10860TIP3    H132523   6.223   0.342   3.265
10860TIP3    H232524   6.329   0.234   3.249
10861TIP3   OH232525   5.106   1.477   6.294
10861TIP3    H132526   5.193   1.512   6.275
10861TIP3    H232527   5.060   1.549   6.336
10862TIP3   OH232528   4.454   2.308   4.124
10862TIP3    H132529   4.389   2.272   4.184
10862TIP3    H232530   4.537   2.302   4.172
10863TIP3   OH232531   5.866   4.451   0.050
10863TIP3    H132532   5.832   4.430   0.137
10863TIP3    H232533   5.873   4.547   0.049
10864TIP3   OH232534   4.202   6.209   1.262
10864TIP3    H132535   4.205   6.122   1.303
10864TIP3    H232536   4.135   6.201   1.194
10865TIP3   OH232537   1.564   3.435   4.379
10865TIP3    H132538   1.568   3.523   4.341
10865TIP3    H232539   1.471   3.423   4.399
10866TIP3   OH232540   1.157   4.721   6.079
10866TIP3    H132541   1.071   4.725   6.120
10866TIP3    H232542   1.213   4.680   6.145
10867TIP3   OH232543   2.084   4.678   4.031
10867TIP3    H132544   2.127   4.719   4.106
10867TIP3    H232545   1.991   4.685   4.049
10868TIP3   OH232546   6.605   7.313   0.074
10868TIP3    H132547   6.533   7.362   0.113
10868TIP3    H232548   6.566   7.230   0.047
10869TIP3   OH232549   4.714   4.980   4.978
10869TIP3    H132550   4.770   4.971   4.901
10869TIP3    H232551   4.774   4.967   5.052
10870TIP3   OH232552   6.614   6.318   4.885
10870TIP3    H132553   6.700   6.321   4.843
10870TIP3    H232554   6.607   6.228   4.917
10871TIP3   OH232555   8.223   3.677   0.865
10871TIP3    H132556   8.254   3.748   0.921
10871TIP3    H232557   8.281   3.679   0.789
10872TIP3   OH232558   0.299   0.767   4.137
10872TIP3    H132559   0.283   0.723   4.053
10872TIP3    H232560   0.310   0.859   4.114
10873TIP3   OH232561   6.806   7.813   2.788
10873TIP3    H132562   6.864   7.737   2.780
10873TIP3    H232563   6.776   7.829   2.699
10874TIP3   OH232564   2.034   5.460   4.398
10874TIP3    H132565   2.009   5.548   4.427
10874TIP3    H232566   2.062   5.416   4.478
10875TIP3   OH232567   1.462   7.354   3.782
10875TIP3    H132568   1.485   7.316   3.867
10875TIP3    H232569   1.455   7.448   3.799
10876TIP3   OH232570   5.702   5.154   0.277
10876TIP3    H132571   5.639   5.114   0.338
10876TIP3    H232572   5.786   5.149   0.322
10877TIP3   OH232573   0.280   0.853   4.609
10877TIP3    H132574   0.328   0.817   4.684
10877TIP3    H232575   0.347   0.871   4.543
10878TIP3   OH232576   4.396   6.615   2.342
10878TIP3    H132577   4.409   6.586   2.252
10878TIP3    H232578   4.453   6.559   2.394
10879TIP3   OH232579   4.895   5.286   5.723
10879TIP3    H132580   4.835   5.230   5.675
10879TIP3    H232581   4.969   5.299   5.664
10880TIP3   OH232582   3.929   1.678   5.911
10880TIP3    H132583   3.989   1.722   5.850
10880TIP3    H232584   3.904   1.597   5.865
10881TIP3   OH232585   0.969   7.741   6.262
10881TIP3    H132586   1.027   7.808   6.298
10881TIP3    H232587   0.985   7.664   6.316
10882TIP3   OH232588   3.729   0.122   2.410
10882TIP3    H132589   3.744   0.115   2.316
10882TIP3    H232590   3.713   0.032   2.439
10883TIP3   OH232591   0.840   7.242   0.771
10883TIP3    H132592   0.816   7.327   0.807
10883TIP3    H232593   0.917   7.260   0.717
10884TIP3   OH232594   2.146   2.087   0.876
10884TIP3    H132595   2.166   1.998   0.905
10884TIP3    H232596   2.141   2.138   0.957
10885TIP3   OH232597   0.999   7.080   1.597
10885TIP3    H132598   0.952   7.116   1.673
10885TIP3    H232599   1.033   6.996   1.627
10886TIP3   OH232600   1.240   1.932   1.117
10886TIP3    H132601   1.322   1.960   1.157
10886TIP3    H232602   1.265   1.858   1.061
10887TIP3   OH232603   5.403   2.410   0.426
10887TIP3    H132604   5.355   2.373   0.500
10887TIP3    H232605   5.347   2.482   0.395
10888TIP3   OH232606   1.494   5.634   5.357
10888TIP3    H132607   1.559   5.569   5.384
10888TIP3    H232608   1.431   5.636   5.430
10889TIP3   OH232609   0.543   2.940   1.920
10889TIP3    H132610   0.532   2.847   1.901
10889TIP3    H232611   0.594   2.974   1.846
10890TIP3   OH232612   5.143   4.927   2.782
10890TIP3    H132613   5.149   5.015   2.820
10890TIP3    H232614   5.179   4.870   2.850
10891TIP3   OH232615   1.244   6.529   4.765
10891TIP3    H132616   1.152   6.510   4.784
10891TIP3    H232617   1.273   6.455   4.713
10892TIP3   OH232618   1.902   0.938   5.640
10892TIP3    H132619   1.812   0.926   5.612
10892TIP3    H232620   1.949   0.863   5.604
10893TIP3   OH232621   2.922   3.089   5.156
10893TIP3    H132622   2.929   3.174   5.113
10893TIP3    H232623   2.862   3.105   5.230
10894TIP3   OH232624   3.929   5.391   5.332
10894TIP3    H132625   3.914   5.298   5.312
10894TIP3    H232626   3.900   5.437   5.253
10895TIP3   OH232627   0.503   1.006   3.074
10895TIP3    H132628   0.543   0.952   3.142
10895TIP3    H232629   0.542   1.093   3.086
10896TIP3   OH232630   5.729   0.997   1.797
10896TIP3    H132631   5.810   0.997   1.848
10896TIP3    H232632   5.714   1.089   1.776
10897TIP3   OH232633   2.252   4.288   5.117
10897TIP3    H132634   2.159   4.277   5.095
10897TIP3    H232635   2.288   4.339   5.044
10898TIP3   OH232636   2.536   3.218   3.906
10898TIP3    H132637   2.564   3.210   3.815
10898TIP3    H232638   2.470   3.286   3.904
10899TIP3   OH232639   2.308   6.105   2.060
10899TIP3    H132640   2.259   6.131   1.982
10899TIP3    H232641   2.303   6.010   2.061
10900TIP3   OH232642   6.270   0.273   2.494
10900TIP3    H132643   6.297   0.301   2.407
10900TIP3    H232644   6.352   0.265   2.543
10901TIP3   OH232645   7.564   2.616   3.440
10901TIP3    H132646   7.476   2.589   3.466
10901TIP3    H232647   7.572   2.706   3.473
10902TIP3   OH232648   2.420   0.059   6.033
10902TIP3    H132649   2.434  -0.035   6.045
10902TIP3    H232650   2.505   0.098   6.055
10903TIP3   OH232651   6.796   7.687   4.522
10903TIP3    H132652   6.710   7.710   4.488
10903TIP3    H232653   6.778   7.616   4.584
10904TIP3   OH232654   4.963   2.510   0.151
10904TIP3    H132655   5.055   2.522   0.174
10904TIP3    H232656   4.965   2.469   0.065
10905TIP3   OH232657   0.693   0.947   0.984
10905TIP3    H132658   0.687   0.915   0.895
10905TIP3    H232659   0.738   1.031   0.977
10906TIP3   OH232660   1.780   0.606   5.263
10906TIP3    H132661   1.847   0.543   5.290
10906TIP3    H232662   1.822   0.691   5.271
10907TIP3   OH232663   6.610   3.496   6.379
10907TIP3    H132664   6.681   3.434   6.398
10907TIP3    H232665   6.531   3.449   6.404
10908TIP3   OH232666   6.076   5.097   0.882
10908TIP3    H132667   6.075   5.110   0.977
10908TIP3    H232668   6.004   5.152   0.850
10909TIP3   OH232669   3.925   5.634   6.648
10909TIP3    H132670   3.903   5.727   6.656
10909TIP3    H232671   3.934   5.604   6.739
10910TIP3   OH232672   6.061   4.625   4.883
10910TIP3    H132673   5.984   4.620   4.940
10910TIP3    H232674   6.128   4.573   4.928
10911TIP3   OH232675   5.470   1.939   0.887
10911TIP3    H132676   5.402   1.896   0.939
10911TIP3    H232677   5.552   1.899   0.916
10912TIP3   OH232678   4.091   5.908   5.448
10912TIP3    H132679   4.150   5.833   5.446
10912TIP3    H232680   4.149   5.984   5.453
10913TIP3   OH232681   7.579   4.433   5.802
10913TIP3    H132682   7.521   4.476   5.864
10913TIP3    H232683   7.556   4.472   5.717
10914TIP3   OH232684   4.068   5.613   2.429
10914TIP3    H132685   3.977   5.641   2.419
10914TIP3    H232686   4.119   5.682   2.386
10915TIP3   OH232687   3.342  -0.021   6.189
10915TIP3    H132688   3.333   0.065   6.231
10915TIP3    H232689   3.420  -0.012   6.134
10916TIP3   OH232690   0.783   3.095   3.238
10916TIP3    H132691   0.781   3.184   3.275
10916TIP3    H232692   0.702   3.089   3.188
10917TIP3   OH232693   3.079   5.510   0.907
10917TIP3    H132694   3.159   5.476   0.948
10917TIP3    H232695   3.008   5.470   0.956
10918TIP3   OH232696   0.166   5.493   6.054
10918TIP3    H132697   0.184   5.583   6.029
10918TIP3    H232698   0.082   5.473   6.014
10919TIP3   OH232699   6.930   2.341   0.960
10919TIP3    H132700   6.996   2.311   1.023
10919TIP3    H232701   6.893   2.260   0.924
10920TIP3   OH232702   8.360   0.365   4.128
10920TIP3    H132703   8.397   0.290   4.176
10920TIP3    H232704   8.357   0.335   4.037
10921TIP3   OH232705   6.769   3.045   0.668
10921TIP3    H132706   6.696   3.091   0.708
10921TIP3    H232707   6.760   3.062   0.575
10922TIP3   OH232708   4.263   3.903   0.389
10922TIP3    H132709   4.352   3.934   0.373
10922TIP3    H232710   4.247   3.837   0.321
10923TIP3   OH232711   3.906   5.327   3.142
10923TIP3    H132712   3.973   5.373   3.091
10923TIP3    H232713   3.956   5.280   3.210
10924TIP3   OH232714   3.728   4.260   6.613
10924TIP3    H132715   3.747   4.183   6.560
10924TIP3    H232716   3.633   4.259   6.623
10925TIP3   OH232717   4.211   0.514   3.639
10925TIP3    H132718   4.294   0.555   3.663
10925TIP3    H232719   4.188   0.460   3.715
10926TIP3   OH232720   1.062   6.843   0.430
10926TIP3    H132721   1.127   6.879   0.491
10926TIP3    H232722   1.097   6.863   0.344
10927TIP3   OH232723   1.773   6.562   3.483
10927TIP3    H132724   1.692   6.613   3.486
10927TIP3    H232725   1.835   6.619   3.438
10928TIP3   OH232726   1.608   1.812   0.499
10928TIP3    H132727   1.654   1.835   0.418
10928TIP3    H232728   1.522   1.854   0.490
10929TIP3   OH232729   3.060   2.746   0.685
10929TIP3    H132730   3.115   2.825   0.687
10929TIP3    H232731   3.099   2.688   0.750
10930TIP3   OH232732   2.970   6.534   5.632
10930TIP3    H132733   2.962   6.451   5.678
10930TIP3    H232734   2.978   6.599   5.702
10931TIP3   OH232735   3.189   7.717   3.960
10931TIP3    H132736   3.102   7.731   3.997
10931TIP3    H232737   3.194   7.623   3.946
10932TIP3   OH232738   3.461   4.886   5.248
10932TIP3    H132739   3.367   4.889   5.265
10932TIP3    H232740   3.487   4.978   5.242
10933TIP3   OH232741   0.534   0.447   5.732
10933TIP3    H132742   0.561   0.504   5.660
10933TIP3    H232743   0.600   0.378   5.734
10934TIP3   OH232744   7.412   3.710   4.388
10934TIP3    H132745   7.412   3.759   4.306
10934TIP3    H232746   7.339   3.648   4.379
10935TIP3   OH232747   7.663   5.310   5.022
10935TIP3    H132748   7.616   5.291   5.103
10935TIP3    H232749   7.755   5.305   5.046
10936TIP3   OH232750   6.448   2.382   2.980
10936TIP3    H132751   6.534   2.388   3.021
10936TIP3    H232752   6.448   2.296   2.938
10937TIP3   OH232753   7.766   3.075   0.484
10937TIP3    H132754   7.770   2.994   0.433
10937TIP3    H232755   7.797   3.050   0.571
10938TIP3   OH232756   7.990   5.277   1.760
10938TIP3    H132757   8.050   5.314   1.695
10938TIP3    H232758   7.971   5.189   1.726
10939TIP3   OH232759   7.334   5.893   6.603
10939TIP3    H132760   7.322   5.922   6.513
10939TIP3    H232761   7.378   5.808   6.596
10940TIP3   OH232762   3.924   2.587   4.514
10940TIP3    H132763   3.928   2.615   4.606
10940TIP3    H232764   3.929   2.492   4.517
10941TIP3   OH232765   5.966   3.151   6.751
10941TIP3    H132766   5.961   3.063   6.714
10941TIP3    H232767   5.876   3.183   6.747
10942TIP3   OH232768   2.955   1.560   1.547
10942TIP3    H132769   2.926   1.529   1.633
10942TIP3    H232770   2.894   1.520   1.486
10943TIP3   OH232771   2.021   3.538   1.786
10943TIP3    H132772   2.081   3.608   1.759
10943TIP3    H232773   2.070   3.457   1.773
10944TIP3   OH232774   2.665   6.220   0.178
10944TIP3    H132775   2.666   6.271   0.097
10944TIP3    H232776   2.579   6.239   0.217
10945TIP3   OH232777   3.526   3.090   3.715
10945TIP3    H132778   3.506   3.081   3.622
10945TIP3    H232779   3.563   3.178   3.723
10946TIP3   OH232780   4.808   6.695   3.244
10946TIP3    H132781   4.849   6.780   3.228
10946TIP3    H232782   4.871   6.631   3.210
10947TIP3   OH232783   2.365   0.709   2.250
10947TIP3    H132784   2.280   0.725   2.210
10947TIP3    H232785   2.353   0.632   2.304
10948TIP3   OH232786   0.286   3.449   3.026
10948TIP3    H132787   0.376   3.446   2.995
10948TIP3    H232788   0.235   3.410   2.955
10949TIP3   OH232789   0.376   1.204   4.589
10949TIP3    H132790   0.410   1.259   4.659
10949TIP3    H232791   0.286   1.184   4.616
10950TIP3   OH232792   0.381   6.344   5.708
10950TIP3    H132793   0.462   6.330   5.758
10950TIP3    H232794   0.352   6.256   5.683
10951TIP3   OH232795   7.646   5.998   2.722
10951TIP3    H132796   7.571   5.957   2.680
10951TIP3    H232797   7.620   6.090   2.733
10952TIP3   OH232798   7.838   1.058   2.270
10952TIP3    H132799   7.931   1.066   2.247
10952TIP3    H232800   7.809   0.980   2.223
10953TIP3   OH232801   5.990   4.626   2.387
10953TIP3    H132802   5.975   4.719   2.370
10953TIP3    H232803   5.932   4.581   2.326
10954TIP3   OH232804   5.778   5.845   6.347
10954TIP3    H132805   5.845   5.903   6.311
10954TIP3    H232806   5.695   5.883   6.319
10955TIP3   OH232807   6.978   2.795   0.207
10955TIP3    H132808   7.006   2.828   0.122
10955TIP3    H232809   6.882   2.798   0.203
10956TIP3   OH232810   3.743   7.454   0.703
10956TIP3    H132811   3.659   7.486   0.737
10956TIP3    H232812   3.761   7.510   0.627
10957TIP3   OH232813   7.910   1.473   5.263
10957TIP3    H132814   7.956   1.391   5.243
10957TIP3    H232815   7.883   1.464   5.354
10958TIP3   OH232816   4.050   1.416   0.800
10958TIP3    H132817   4.134   1.434   0.758
10958TIP3    H232818   4.010   1.502   0.812
10959TIP3   OH232819   6.916   2.641   0.547
10959TIP3    H132820   6.841   2.687   0.584
10959TIP3    H232821   6.925   2.562   0.600
10960TIP3   OH232822   7.921   6.864   4.441
10960TIP3    H132823   7.907   6.822   4.356
10960TIP3    H232824   7.833   6.891   4.469
10961TIP3   OH232825   0.320   6.115   0.308
10961TIP3    H132826   0.346   6.066   0.386
10961TIP3    H232827   0.392   6.177   0.293
10962TIP3   OH232828   8.166   2.217   4.538
10962TIP3    H132829   8.192   2.156   4.607
10962TIP3    H232830   8.089   2.261   4.573
10963TIP3   OH232831   8.136   4.841   4.924
10963TIP3    H132832   8.180   4.919   4.959
10963TIP3    H232833   8.203   4.773   4.928
10964TIP3   OH232834   6.886   2.689   2.049
10964TIP3    H132835   6.800   2.725   2.029
10964TIP3    H232836   6.945   2.764   2.048
10965TIP3   OH232837   7.549   4.091   3.604
10965TIP3    H132838   7.497   4.127   3.533
10965TIP3    H232839   7.614   4.036   3.562
10966TIP3   OH232840   2.072   1.205   3.203
10966TIP3    H132841   2.104   1.117   3.180
10966TIP3    H232842   2.141   1.241   3.259
10967TIP3   OH232843   0.277   4.356   0.816
10967TIP3    H132844   0.228   4.438   0.809
10967TIP3    H232845   0.240   4.313   0.894
10968TIP3   OH232846   7.041   4.971   4.124
10968TIP3    H132847   7.117   4.939   4.171
10968TIP3    H232848   7.076   5.030   4.057
10969TIP3   OH232849   2.569   3.768   0.093
10969TIP3    H132850   2.601   3.768   0.184
10969TIP3    H232851   2.600   3.851   0.057
10970TIP3   OH232852   0.566   0.604   5.233
10970TIP3    H132853   0.563   0.670   5.164
10970TIP3    H232854   0.555   0.653   5.315
10971TIP3   OH232855   7.877   6.090   2.096
10971TIP3    H132856   7.940   6.020   2.081
10971TIP3    H232857   7.851   6.119   2.008
10972TIP3   OH232858   5.868   6.578   4.513
10972TIP3    H132859   5.789   6.626   4.538
10972TIP3    H232860   5.929   6.594   4.585
10973TIP3   OH232861   5.221   2.105   5.659
10973TIP3    H132862   5.297   2.049   5.640
10973TIP3    H232863   5.248   2.192   5.630
10974TIP3   OH232864   2.761   7.326   4.482
10974TIP3    H132865   2.703   7.399   4.462
10974TIP3    H232866   2.758   7.319   4.578
10975TIP3   OH232867   6.576   6.403   4.596
10975TIP3    H132868   6.615   6.477   4.550
10975TIP3    H232869   6.638   6.331   4.582
10976TIP3   OH232870   7.694   0.731   4.499
10976TIP3    H132871   7.764   0.768   4.552
10976TIP3    H232872   7.628   0.702   4.562
10977TIP3   OH232873   4.955   3.620   5.254
10977TIP3    H132874   4.880   3.570   5.223
10977TIP3    H232875   4.917   3.685   5.314
10978TIP3   OH232876   7.151   1.774   6.332
10978TIP3    H132877   7.242   1.782   6.305
10978TIP3    H232878   7.112   1.859   6.313
10979TIP3   OH232879   3.799   2.437   6.685
10979TIP3    H132880   3.884   2.394   6.695
10979TIP3    H232881   3.754   2.423   6.768
10980TIP3   OH232882   2.480   5.476   3.868
10980TIP3    H132883   2.536   5.414   3.914
10980TIP3    H232884   2.422   5.422   3.815
10981TIP3   OH232885   3.023   1.819   3.136
10981TIP3    H132886   3.087   1.785   3.199
10981TIP3    H232887   2.945   1.764   3.150
10982TIP3   OH232888   4.443   4.605   1.491
10982TIP3    H132889   4.355   4.615   1.457
10982TIP3    H232890   4.438   4.531   1.552
10983TIP3   OH232891   6.097   6.087   5.198
10983TIP3    H132892   6.003   6.068   5.196
10983TIP3    H232893   6.103   6.178   5.170
10984TIP3   OH232894   2.332   4.428   1.348
10984TIP3    H132895   2.398   4.478   1.396
10984TIP3    H232896   2.252   4.438   1.399
10985TIP3   OH232897   4.904   3.368   4.571
10985TIP3    H132898   4.819   3.399   4.539
10985TIP3    H232899   4.941   3.444   4.616
10986TIP3   OH232900   4.190   1.824   1.697
10986TIP3    H132901   4.186   1.729   1.693
10986TIP3    H232902   4.216   1.851   1.609
10987TIP3   OH232903   5.786   0.161   5.948
10987TIP3    H132904   5.699   0.122   5.960
10987TIP3    H232905   5.806   0.146   5.855
10988TIP3   OH232906   2.730   4.236   5.393
10988TIP3    H132907   2.717   4.252   5.300
10988TIP3    H232908   2.683   4.155   5.411
10989TIP3   OH232909   5.649   5.176   6.598
10989TIP3    H132910   5.685   5.187   6.686
10989TIP3    H232911   5.583   5.246   6.591
10990TIP3   OH232912   5.246   0.420   0.512
10990TIP3    H132913   5.284   0.363   0.445
10990TIP3    H232914   5.202   0.360   0.572
10991TIP3   OH232915   6.644   1.615   0.610
10991TIP3    H132916   6.623   1.535   0.658
10991TIP3    H232917   6.638   1.589   0.517
10992TIP3   OH232918   1.140   2.746   5.498
10992TIP3    H132919   1.118   2.662   5.457
10992TIP3    H232920   1.087   2.749   5.577
10993TIP3   OH232921   6.292   4.818   5.472
10993TIP3    H132922   6.255   4.742   5.517
10993TIP3    H232923   6.218   4.855   5.423
10994TIP3   OH232924   3.862   7.259   2.208
10994TIP3    H132925   3.890   7.168   2.217
10994TIP3    H232926   3.908   7.290   2.130
10995TIP3   OH232927   5.402   6.178   2.473
10995TIP3    H132928   5.438   6.123   2.542
10995TIP3    H232929   5.325   6.132   2.442
10996TIP3   OH232930   5.934   3.236   1.356
10996TIP3    H132931   6.009   3.231   1.415
10996TIP3    H232932   5.899   3.324   1.369
10997TIP3   OH232933   6.940   7.397   0.303
10997TIP3    H132934   6.981   7.311   0.308
10997TIP3    H232935   6.871   7.396   0.369
10998TIP3   OH232936   6.130   3.537   6.003
10998TIP3    H132937   6.184   3.531   6.082
10998TIP3    H232938   6.099   3.628   6.003
10999TIP3   OH232939   5.771   6.803   0.134
10999TIP3    H132940   5.738   6.759   0.213
10999TIP3    H232941   5.762   6.896   0.154
11000TIP3   OH232942   0.786   4.894   0.463
11000TIP3    H132943   0.739   4.919   0.542
11000TIP3    H232944   0.719   4.892   0.395
11001TIP3   OH232945   3.148   1.501   1.150
11001TIP3    H132946   3.108   1.422   1.112
11001TIP3    H232947   3.191   1.543   1.075
11002TIP3   OH232948   7.314   3.834   6.461
11002TIP3    H132949   7.291   3.783   6.383
11002TIP3    H232950   7.405   3.859   6.446
11003TIP3   OH232951   0.975   4.109   5.367
11003TIP3    H132952   0.987   4.048   5.440
11003TIP3    H232953   1.021   4.188   5.394
11004TIP3   OH232954   3.914   2.836   5.479
11004TIP3    H132955   3.973   2.768   5.447
11004TIP3    H232956   3.945   2.855   5.568
11005TIP3   OH232957   4.927   5.029   4.442
11005TIP3    H132958   4.872   5.005   4.367
11005TIP3    H232959   4.953   4.945   4.480
11006TIP3   OH232960   6.489   7.502   0.228
11006TIP3    H132961   6.504   7.594   0.206
11006TIP3    H232962   6.521   7.493   0.318
11007TIP3   OH232963   5.061   2.294   3.143
11007TIP3    H132964   5.085   2.202   3.134
11007TIP3    H232965   4.968   2.292   3.164
11008TIP3   OH232966   2.590   1.586   0.511
11008TIP3    H132967   2.526   1.656   0.499
11008TIP3    H232968   2.540   1.514   0.550
11009TIP3   OH232969   4.755   6.610   3.500
11009TIP3    H132970   4.721   6.639   3.415
11009TIP3    H232971   4.841   6.652   3.507
11010TIP3   OH232972   7.420   6.853   4.184
11010TIP3    H132973   7.373   6.883   4.106
11010TIP3    H232974   7.511   6.874   4.167
11011TIP3   OH232975   6.329   3.280   3.210
11011TIP3    H132976   6.319   3.338   3.135
11011TIP3    H232977   6.315   3.192   3.174
11012TIP3   OH232978   7.818   4.972   5.004
11012TIP3    H132979   7.830   5.062   4.975
11012TIP3    H232980   7.902   4.929   4.988
11013TIP3   OH232981   7.529   7.860   4.867
11013TIP3    H132982   7.624   7.862   4.857
11013TIP3    H232983   7.500   7.793   4.805
11014TIP3   OH232984   1.957   3.293   2.895
11014TIP3    H132985   1.927   3.379   2.924
11014TIP3    H232986   1.878   3.249   2.863
11015TIP3   OH232987   2.209   3.736   1.680
11015TIP3    H132988   2.218   3.819   1.634
11015TIP3    H232989   2.237   3.670   1.616
11016TIP3   OH232990   2.190   7.655   5.829
11016TIP3    H132991   2.245   7.693   5.760
11016TIP3    H232992   2.101   7.668   5.798
11017TIP3   OH232993   2.001   1.672   4.913
11017TIP3    H132994   1.976   1.761   4.937
11017TIP3    H232995   1.920   1.630   4.884
11018TIP3   OH232996   8.257   3.784   0.305
11018TIP3    H132997   8.221   3.839   0.235
11018TIP3    H232998   8.182   3.765   0.361
11019TIP3   OH232999   7.617   4.879   6.509
11019TIP3    H133000   7.562   4.811   6.548
11019TIP3    H233001   7.679   4.832   6.454
11020TIP3   OH233002   7.827   5.191   2.785
11020TIP3    H133003   7.808   5.262   2.846
11020TIP3    H233004   7.773   5.118   2.815
11021TIP3   OH233005   1.591   6.054   6.579
11021TIP3    H133006   1.525   6.034   6.646
11021TIP3    H233007   1.596   5.974   6.527
11022TIP3   OH233008   7.114   7.365   4.926
11022TIP3    H133009   7.051   7.438   4.922
11022TIP3    H233010   7.163   7.371   4.844
11023TIP3   OH233011   7.160   3.643   1.711
11023TIP3    H133012   7.155   3.638   1.615
11023TIP3    H233013   7.252   3.630   1.731
11024TIP3   OH233014   3.487   6.939   6.277
11024TIP3    H133015   3.446   7.023   6.256
11024TIP3    H233016   3.490   6.937   6.373
11025TIP3   OH233017   7.063   0.346   3.005
11025TIP3    H133018   7.101   0.411   2.946
11025TIP3    H233019   7.076   0.262   2.961
11026TIP3   OH233020   8.065   6.855   3.189
11026TIP3    H133021   8.126   6.789   3.222
11026TIP3    H233022   8.121   6.918   3.143
11027TIP3   OH233023   1.155   1.481   3.619
11027TIP3    H133024   1.120   1.568   3.600
11027TIP3    H233025   1.239   1.479   3.573
11028TIP3   OH233026   0.753   1.688   1.369
11028TIP3    H133027   0.720   1.753   1.430
11028TIP3    H233028   0.732   1.604   1.409
11029TIP3   OH233029   4.202   6.946   5.777
11029TIP3    H133030   4.227   6.854   5.787
11029TIP3    H233031   4.161   6.969   5.860
11030TIP3   OH233032   1.512   2.201   5.831
11030TIP3    H133033   1.587   2.146   5.856
11030TIP3    H233034   1.548   2.264   5.769
11031TIP3   OH233035   0.038   1.405   4.066
11031TIP3    H133036   0.036   1.434   4.158
11031TIP3    H233037   0.088   1.323   4.068
11032TIP3   OH233038   0.243   3.214   1.290
11032TIP3    H133039   0.303   3.258   1.350
11032TIP3    H233040   0.156   3.248   1.314
11033TIP3   OH233041   2.001   4.560   0.512
11033TIP3    H133042   2.082   4.540   0.558
11033TIP3    H233043   2.005   4.654   0.495
11034TIP3   OH233044   5.030   3.327   3.524
11034TIP3    H133045   4.983   3.258   3.572
11034TIP3    H233046   4.969   3.401   3.522
11035TIP3   OH233047   4.297   3.306   3.211
11035TIP3    H133048   4.339   3.238   3.159
11035TIP3    H233049   4.276   3.376   3.149
11036TIP3   OH233050   0.721   2.067   5.777
11036TIP3    H133051   0.698   1.989   5.727
11036TIP3    H233052   0.641   2.090   5.824
11037TIP3   OH233053   7.453   6.778   1.589
11037TIP3    H133054   7.459   6.842   1.518
11037TIP3    H233055   7.360   6.772   1.608
11038TIP3   OH233056   5.796   7.458   4.921
11038TIP3    H133057   5.860   7.452   4.992
11038TIP3    H233058   5.772   7.368   4.902
11039TIP3   OH233059   7.755   0.530   1.622
11039TIP3    H133060   7.707   0.497   1.547
11039TIP3    H233061   7.697   0.517   1.697
11040TIP3   OH233062   7.869   5.767   1.931
11040TIP3    H133063   7.859   5.706   1.858
11040TIP3    H233064   7.792   5.824   1.925
11041TIP3   OH233065   1.013   4.348   2.238
11041TIP3    H133066   1.003   4.272   2.181
11041TIP3    H233067   0.945   4.409   2.211
11042TIP3   OH233068   4.649   5.666   4.762
11042TIP3    H133069   4.620   5.635   4.676
11042TIP3    H233070   4.709   5.598   4.793
11043TIP3   OH233071   4.378   1.114   4.483
11043TIP3    H133072   4.419   1.056   4.421
11043TIP3    H233073   4.329   1.056   4.542
11044TIP3   OH233074   3.393   6.607   0.460
11044TIP3    H133075   3.302   6.578   0.453
11044TIP3    H233076   3.428   6.601   0.371
11045TIP3   OH233077   7.740   3.733   1.281
11045TIP3    H133078   7.678   3.677   1.234
11045TIP3    H233079   7.826   3.707   1.246
11046TIP3   OH233080   4.009   2.942   6.384
11046TIP3    H133081   3.960   3.003   6.439
11046TIP3    H233082   3.943   2.894   6.336
11047TIP3   OH233083   5.960   2.070   5.161
11047TIP3    H133084   5.885   2.124   5.186
11047TIP3    H233085   5.922   1.997   5.113
11048TIP3   OH233086   2.114   1.184   0.174
11048TIP3    H133087   2.107   1.124   0.099
11048TIP3    H233088   2.143   1.267   0.135
11049TIP3   OH233089   2.454   4.943   0.943
11049TIP3    H133090   2.537   4.922   0.986
11049TIP3    H233091   2.479   4.966   0.853
11050TIP3   OH233092   1.406   6.938   6.186
11050TIP3    H133093   1.322   6.916   6.227
11050TIP3    H233094   1.383   6.993   6.111
11051TIP3   OH233095   5.034   2.617   3.423
11051TIP3    H133096   5.123   2.644   3.398
11051TIP3    H233097   4.977   2.658   3.357
11052TIP3   OH233098   7.994   1.266   2.453
11052TIP3    H133099   8.071   1.209   2.458
11052TIP3    H233100   8.027   1.353   2.477
11053TIP3   OH233101   8.223   3.856   5.454
11053TIP3    H133102   8.301   3.807   5.478
11053TIP3    H233103   8.226   3.861   5.359
11054TIP3   OH233104   0.497   2.695   0.541
11054TIP3    H133105   0.524   2.613   0.500
11054TIP3    H233106   0.546   2.763   0.495
11055TIP3   OH233107   7.675   1.947   0.992
11055TIP3    H133108   7.666   1.935   0.898
11055TIP3    H233109   7.739   1.881   1.019
11056TIP3   OH233110   6.458   2.368   6.457
11056TIP3    H133111   6.531   2.319   6.496
11056TIP3    H233112   6.399   2.302   6.423
11057TIP3   OH233113   3.215   5.141   1.201
11057TIP3    H133114   3.227   5.179   1.288
11057TIP3    H233115   3.135   5.180   1.169
11058TIP3   OH233116   5.278   1.351   4.442
11058TIP3    H133117   5.236   1.410   4.380
11058TIP3    H233118   5.221   1.354   4.520
11059TIP3   OH233119   6.629   3.110   5.192
11059TIP3    H133120   6.671   3.107   5.106
11059TIP3    H233121   6.596   3.199   5.199
11060TIP3   OH233122   3.242   6.714   3.472
11060TIP3    H133123   3.259   6.625   3.503
11060TIP3    H233124   3.320   6.737   3.420
11061TIP3   OH233125   0.247   7.078   6.416
11061TIP3    H133126   0.249   7.056   6.509
11061TIP3    H233127   0.306   7.015   6.375
11062TIP3   OH233128   1.501   3.997   4.927
11062TIP3    H133129   1.537   4.080   4.958
11062TIP3    H233130   1.427   3.979   4.984
11063TIP3   OH233131   4.457   3.093   1.082
11063TIP3    H133132   4.501   3.178   1.071
11063TIP3    H233133   4.526   3.035   1.114
11064TIP3   OH233134   8.222   5.674   4.618
11064TIP3    H133135   8.141   5.644   4.661
11064TIP3    H233136   8.236   5.762   4.653
11065TIP3   OH233137   1.524   1.163   6.101
11065TIP3    H133138   1.612   1.128   6.090
11065TIP3    H233139   1.466   1.091   6.077
11066TIP3   OH233140   0.282   5.007   1.772
11066TIP3    H133141   0.298   4.964   1.856
11066TIP3    H233142   0.281   4.935   1.708
11067TIP3   OH233143   5.300   5.187   6.096
11067TIP3    H133144   5.241   5.252   6.058
11067TIP3    H233145   5.319   5.127   6.024
11068TIP3   OH233146   3.960   3.733   2.355
11068TIP3    H133147   3.923   3.675   2.289
11068TIP3    H233148   3.890   3.743   2.420
11069TIP3   OH233149   5.203   4.615   0.915
11069TIP3    H133150   5.251   4.696   0.937
11069TIP3    H233151   5.122   4.645   0.874
11070TIP3   OH233152   1.963   0.699   3.043
11070TIP3    H133153   2.017   0.655   3.109
11070TIP3    H233154   1.888   0.732   3.092
11071TIP3   OH233155   3.165   1.040   6.444
11071TIP3    H133156   3.228   0.978   6.407
11071TIP3    H233157   3.095   1.044   6.379
11072TIP3   OH233158   4.708   5.243   0.535
11072TIP3    H133159   4.684   5.202   0.618
11072TIP3    H233160   4.625   5.272   0.498
11073TIP3   OH233161   4.522   1.311   3.729
11073TIP3    H133162   4.476   1.356   3.658
11073TIP3    H233163   4.468   1.326   3.807
11074TIP3   OH233164   6.059   0.782   1.041
11074TIP3    H133165   6.006   0.725   0.986
11074TIP3    H233166   5.997   0.821   1.102
11075TIP3   OH233167   6.011   5.073   3.920
11075TIP3    H133168   6.073   5.036   3.983
11075TIP3    H233169   5.932   5.020   3.930
11076TIP3   OH233170   3.747   0.910   0.514
11076TIP3    H133171   3.690   0.930   0.588
11076TIP3    H233172   3.773   0.819   0.528
11077TIP3   OH233173   5.562   3.457   5.175
11077TIP3    H133174   5.488   3.412   5.215
11077TIP3    H233175   5.625   3.468   5.247
11078TIP3   OH233176   2.189   4.725   2.397
11078TIP3    H133177   2.260   4.729   2.333
11078TIP3    H233178   2.228   4.683   2.474
11079TIP3   OH233179   3.519   3.193   5.826
11079TIP3    H133180   3.604   3.155   5.804
11079TIP3    H233181   3.480   3.130   5.887
11080TIP3   OH233182   8.115   2.184   6.184
11080TIP3    H133183   8.108   2.117   6.252
11080TIP3    H233184   8.161   2.257   6.227
11081TIP3   OH233185   4.418   6.652   4.336
11081TIP3    H133186   4.327   6.631   4.354
11081TIP3    H233187   4.433   6.619   4.247
11082TIP3   OH233188   8.030   3.727   4.043
11082TIP3    H133189   7.934   3.718   4.038
11082TIP3    H233190   8.045   3.774   4.124
11083TIP3   OH233191   0.288   0.885   5.053
11083TIP3    H133192   0.216   0.858   5.110
11083TIP3    H233193   0.339   0.946   5.106
11084TIP3   OH233194   4.118   1.876   5.161
11084TIP3    H133195   4.064   1.837   5.091
11084TIP3    H233196   4.056   1.889   5.233
11085TIP3   OH233197   7.566   0.942   1.894
11085TIP3    H133198   7.520   0.981   1.819
11085TIP3    H233199   7.512   0.963   1.969
11086TIP3   OH233200   5.074   1.239   6.173
11086TIP3    H133201   5.039   1.196   6.251
11086TIP3    H233202   5.087   1.331   6.200
11087TIP3   OH233203   2.265   3.573   1.476
11087TIP3    H133204   2.344   3.614   1.438
11087TIP3    H233205   2.251   3.495   1.422
11088TIP3   OH233206   6.424   4.905   5.048
11088TIP3    H133207   6.493   4.966   5.073
11088TIP3    H233208   6.406   4.925   4.956
11089TIP3   OH233209   5.862   5.649   1.580
11089TIP3    H133210   5.855   5.661   1.675
11089TIP3    H233211   5.809   5.571   1.563
11090TIP3   OH233212   1.859   4.377   4.069
11090TIP3    H133213   1.848   4.466   4.036
11090TIP3    H233214   1.930   4.340   4.017
11091TIP3   OH233215   6.491   3.721   4.847
11091TIP3    H133216   6.407   3.723   4.803
11091TIP3    H233217   6.546   3.665   4.792
11092TIP3   OH233218   5.585   5.576   2.542
11092TIP3    H133219   5.652   5.579   2.475
11092TIP3    H233220   5.600   5.493   2.588
11093TIP3   OH233221   5.293   0.436   4.433
11093TIP3    H133222   5.370   0.388   4.402
11093TIP3    H233223   5.219   0.393   4.389
11094TIP3   OH233224   1.512   3.913   0.957
11094TIP3    H133225   1.574   3.875   0.895
11094TIP3    H233226   1.566   3.966   1.016
11095TIP3   OH233227   4.354   7.428   2.559
11095TIP3    H133228   4.375   7.480   2.637
11095TIP3    H233229   4.259   7.416   2.563
11096TIP3   OH233230   0.487   1.339   2.801
11096TIP3    H133231   0.400   1.312   2.832
11096TIP3    H233232   0.496   1.429   2.830
11097TIP3   OH233233   5.522   0.805   1.412
11097TIP3    H133234   5.467   0.731   1.388
11097TIP3    H233235   5.492   0.877   1.357
11098TIP3   OH233236   4.508   4.530   6.402
11098TIP3    H133237   4.413   4.540   6.397
11098TIP3    H233238   4.537   4.600   6.460
11099TIP3   OH233239   7.659   7.286   6.746
11099TIP3    H133240   7.624   7.248   6.826
11099TIP3    H233241   7.618   7.372   6.741
11100TIP3   OH233242   1.938   3.400   0.418
11100TIP3    H133243   1.998   3.424   0.488
11100TIP3    H233244   1.952   3.467   0.350
11101TIP3   OH233245   2.280   5.448   5.381
11101TIP3    H133246   2.252   5.438   5.472
11101TIP3    H233247   2.235   5.378   5.334
11102TIP3   OH233248   8.051   2.000   1.282
11102TIP3    H133249   8.052   2.000   1.186
11102TIP3    H233250   8.004   1.920   1.305
11103TIP3   OH233251   5.608   5.941   1.157
11103TIP3    H133252   5.633   5.916   1.246
11103TIP3    H233253   5.573   6.030   1.166
11104TIP3   OH233254   2.456   4.484   5.320
11104TIP3    H133255   2.481   4.408   5.372
11104TIP3    H233256   2.361   4.491   5.331
11105TIP3   OH233257   1.894   0.640   4.666
11105TIP3    H133258   1.919   0.560   4.712
11105TIP3    H233259   1.861   0.609   4.582
11106TIP3   OH233260   6.193   5.924   2.764
11106TIP3    H133261   6.102   5.897   2.752
11106TIP3    H233262   6.189   5.995   2.828
11107TIP3   OH233263   3.246   1.815   1.310
11107TIP3    H133264   3.272   1.895   1.355
11107TIP3    H233265   3.152   1.824   1.295
11108TIP3   OH233266   3.443   7.650   5.942
11108TIP3    H133267   3.521   7.603   5.972
11108TIP3    H233268   3.448   7.735   5.986
11109TIP3   OH233269   7.788   0.192   2.655
11109TIP3    H133270   7.777   0.236   2.570
11109TIP3    H233271   7.705   0.205   2.700
11110TIP3   OH233272   2.910   5.039   0.568
11110TIP3    H133273   2.981   5.093   0.604
11110TIP3    H233274   2.938   4.949   0.585
11111TIP3   OH233275   7.568   0.420   1.162
11111TIP3    H133276   7.533   0.396   1.076
11111TIP3    H233277   7.645   0.473   1.143
11112TIP3   OH233278   3.633   2.474   4.419
11112TIP3    H133279   3.704   2.429   4.374
11112TIP3    H233280   3.576   2.505   4.348
11113TIP3   OH233281   2.857   6.757   3.566
11113TIP3    H133282   2.763   6.740   3.558
11113TIP3    H233283   2.893   6.676   3.601
11114TIP3   OH233284   0.351   3.142   2.954
11114TIP3    H133285   0.434   3.179   2.986
11114TIP3    H233286   0.288   3.213   2.964
11115TIP3   OH233287   4.675   7.704   0.246
11115TIP3    H133288   4.679   7.635   0.312
11115TIP3    H233289   4.738   7.770   0.277
11116TIP3   OH233290   7.723   5.347   3.783
11116TIP3    H133291   7.743   5.436   3.812
11116TIP3    H233292   7.741   5.347   3.689
11117TIP3   OH233293   4.101   6.143   2.829
11117TIP3    H133294   4.151   6.148   2.747
11117TIP3    H233295   4.167   6.138   2.898
11118TIP3   OH233296   1.635   5.182   3.110
11118TIP3    H133297   1.673   5.130   3.181
11118TIP3    H233298   1.594   5.117   3.053
11119TIP3   OH233299   3.406   6.177   5.285
11119TIP3    H133300   3.334   6.114   5.292
11119TIP3    H233301   3.443   6.181   5.373
11120TIP3   OH233302   6.541   0.942   3.032
11120TIP3    H133303   6.449   0.947   3.059
11120TIP3    H233304   6.590   0.942   3.115
11121TIP3   OH233305   4.770   1.029   2.932
11121TIP3    H133306   4.787   0.935   2.940
11121TIP3    H233307   4.815   1.055   2.852
11122TIP3   OH233308   4.354   1.897   6.522
11122TIP3    H133309   4.361   1.804   6.502
11122TIP3    H233310   4.260   1.914   6.526
11123TIP3   OH233311   2.242   6.976   2.661
11123TIP3    H133312   2.175   6.997   2.726
11123TIP3    H233313   2.199   6.989   2.576
11124TIP3   OH233314   5.981   7.356   5.076
11124TIP3    H133315   6.058   7.413   5.081
11124TIP3    H233316   6.016   7.268   5.093
11125TIP3   OH233317   3.613   4.362   2.093
11125TIP3    H133318   3.588   4.285   2.144
11125TIP3    H233319   3.546   4.369   2.025
11126TIP3   OH233320   3.057   0.908   4.140
11126TIP3    H133321   3.006   0.844   4.090
11126TIP3    H233322   3.031   0.893   4.231
11127TIP3   OH233323   1.634   5.101   3.814
11127TIP3    H133324   1.579   5.033   3.773
11127TIP3    H233325   1.621   5.178   3.759
11128TIP3   OH233326   7.970   6.452   1.568
11128TIP3    H133327   8.026   6.376   1.551
11128TIP3    H233328   7.885   6.428   1.529
11129TIP3   OH233329   5.247   4.797   2.989
11129TIP3    H133330   5.267   4.853   3.064
11129TIP3    H233331   5.294   4.716   3.006
11130TIP3   OH233332   6.951   5.342   3.364
11130TIP3    H133333   6.945   5.332   3.269
11130TIP3    H233334   6.862   5.364   3.391
11131TIP3   OH233335   4.107   1.224   4.497
11131TIP3    H133336   4.084   1.163   4.567
11131TIP3    H233337   4.200   1.209   4.482
11132TIP3   OH233338   1.951   7.260   3.041
11132TIP3    H133339   1.974   7.286   3.130
11132TIP3    H233340   1.875   7.202   3.052
11133TIP3   OH233341   1.875   7.378   0.256
11133TIP3    H133342   1.902   7.287   0.249
11133TIP3    H233343   1.889   7.400   0.348
11134TIP3   OH233344   6.598   2.422   4.760
11134TIP3    H133345   6.677   2.476   4.761
11134TIP3    H233346   6.540   2.464   4.697
11135TIP3   OH233347   7.594   1.523   3.491
11135TIP3    H133348   7.515   1.578   3.492
11135TIP3    H233349   7.621   1.519   3.583
11136TIP3   OH233350   3.061   7.535   3.479
11136TIP3    H133351   2.980   7.583   3.464
11136TIP3    H233352   3.048   7.493   3.564
11137TIP3   OH233353   7.568   5.362   0.332
11137TIP3    H133354   7.518   5.357   0.413
11137TIP3    H233355   7.529   5.434   0.283
11138TIP3   OH233356   4.036   7.679   1.275
11138TIP3    H133357   4.034   7.704   1.368
11138TIP3    H233358   4.034   7.763   1.228
11139TIP3   OH233359   5.589   5.130   2.661
11139TIP3    H133360   5.609   5.038   2.645
11139TIP3    H233361   5.566   5.165   2.575
11140TIP3   OH233362   4.946   6.145   4.522
11140TIP3    H133363   4.965   6.068   4.469
11140TIP3    H233364   5.030   6.189   4.532
11141TIP3   OH233365   4.282   7.468   4.161
11141TIP3    H133366   4.361   7.429   4.124
11141TIP3    H233367   4.257   7.408   4.231
11142TIP3   OH233368   6.350   6.398   2.956
11142TIP3    H133369   6.311   6.462   3.016
11142TIP3    H233370   6.404   6.342   3.011
11143TIP3   OH233371   2.810   1.597   4.236
11143TIP3    H133372   2.853   1.656   4.298
11143TIP3    H233373   2.846   1.511   4.255
11144TIP3   OH233374   4.403   3.862   0.629
11144TIP3    H133375   4.370   3.877   0.540
11144TIP3    H233376   4.338   3.903   0.686
11145TIP3   OH233377   1.610   5.841   3.733
11145TIP3    H133378   1.649   5.766   3.778
11145TIP3    H233379   1.657   5.917   3.767
11146TIP3   OH233380   1.893   4.278   2.117
11146TIP3    H133381   1.895   4.373   2.128
11146TIP3    H233382   1.984   4.250   2.125
11147TIP3   OH233383   1.140   1.411   4.877
11147TIP3    H133384   1.223   1.391   4.834
11147TIP3    H233385   1.165   1.452   4.959
11148TIP3   OH233386   1.861   3.874   4.328
11148TIP3    H133387   1.787   3.916   4.372
11148TIP3    H233388   1.820   3.817   4.263
11149TIP3   OH233389   7.362   0.477   0.494
11149TIP3    H133390   7.328   0.529   0.421
11149TIP3    H233391   7.284   0.456   0.546
11150TIP3   OH233392   5.880   1.837   5.398
11150TIP3    H133393   5.822   1.787   5.340
11150TIP3    H233394   5.943   1.772   5.430
11151TIP3   OH233395   1.918   1.454   3.508
11151TIP3    H133396   1.923   1.384   3.573
11151TIP3    H233397   1.868   1.417   3.436
11152TIP3   OH233398   6.135   1.305   0.713
11152TIP3    H133399   6.167   1.297   0.802
11152TIP3    H233400   6.175   1.386   0.680
11153TIP3   OH233401   4.935   7.746   5.228
11153TIP3    H133402   4.916   7.685   5.300
11153TIP3    H233403   5.018   7.786   5.253
11154TIP3   OH233404   5.144   2.397   0.802
11154TIP3    H133405   5.107   2.481   0.829
11154TIP3    H233406   5.102   2.333   0.860
11155TIP3   OH233407   1.679   0.765   5.575
11155TIP3    H133408   1.697   0.791   5.485
11155TIP3    H233409   1.719   0.678   5.584
11156TIP3   OH233410   8.207   3.587   5.726
11156TIP3    H133411   8.128   3.588   5.780
11156TIP3    H233412   8.262   3.656   5.764
11157TIP3   OH233413   6.612   4.104   2.714
11157TIP3    H133414   6.697   4.134   2.684
11157TIP3    H233415   6.559   4.100   2.634
11158TIP3   OH233416   4.402   1.984   2.834
11158TIP3    H133417   4.350   2.020   2.762
11158TIP3    H233418   4.353   2.008   2.913
11159TIP3   OH233419   0.726   4.304   5.535
11159TIP3    H133420   0.631   4.308   5.540
11159TIP3    H233421   0.756   4.376   5.591
11160TIP3   OH233422   7.189   5.630   3.628
11160TIP3    H133423   7.276   5.608   3.662
11160TIP3    H233424   7.146   5.546   3.617
11161TIP3   OH233425   0.718   1.615   5.014
11161TIP3    H133426   0.778   1.657   5.075
11161TIP3    H233427   0.707   1.526   5.048
11162TIP3   OH233428   5.613   1.344   5.991
11162TIP3    H133429   5.547   1.404   5.955
11162TIP3    H233430   5.571   1.257   5.986
11163TIP3   OH233431   6.200   7.566   2.774
11163TIP3    H133432   6.285   7.587   2.813
11163TIP3    H233433   6.162   7.651   2.753
11164TIP3   OH233434   3.849   3.683   4.269
11164TIP3    H133435   3.816   3.772   4.276
11164TIP3    H233436   3.940   3.693   4.240
11165TIP3   OH233437   6.082   2.723   3.890
11165TIP3    H133438   6.030   2.745   3.812
11165TIP3    H233439   6.173   2.726   3.860
11166TIP3   OH233440   4.033   2.268   1.198
11166TIP3    H133441   4.105   2.251   1.259
11166TIP3    H233442   3.955   2.237   1.243
11167TIP3   OH233443   8.120   2.853   1.638
11167TIP3    H133444   8.040   2.800   1.638
11167TIP3    H233445   8.156   2.842   1.726
11168TIP3   OH233446   0.806   3.916   2.073
11168TIP3    H133447   0.790   3.832   2.116
11168TIP3    H233448   0.726   3.967   2.089
11169TIP3   OH233449   7.888   0.940   4.203
11169TIP3    H133450   7.951   0.951   4.131
11169TIP3    H233451   7.852   0.852   4.191
11170TIP3   OH233452   7.158   0.848   0.473
11170TIP3    H133453   7.114   0.924   0.435
11170TIP3    H233454   7.195   0.802   0.398
11171TIP3   OH233455   2.935   6.829   5.300
11171TIP3    H133456   2.930   6.848   5.206
11171TIP3    H233457   2.898   6.741   5.309
11172TIP3   OH233458   1.080   6.338   5.258
11172TIP3    H133459   1.007   6.294   5.302
11172TIP3    H233460   1.073   6.429   5.286
11173TIP3   OH233461   0.680   4.573   3.991
11173TIP3    H133462   0.681   4.543   3.900
11173TIP3    H233463   0.725   4.503   4.039
11174TIP3   OH233464   7.724   0.498   3.745
11174TIP3    H133465   7.676   0.415   3.752
11174TIP3    H233466   7.780   0.487   3.669
11175TIP3   OH233467   3.633   0.729   2.242
11175TIP3    H133468   3.553   0.677   2.249
11175TIP3    H233469   3.630   0.788   2.317
11176TIP3   OH233470   1.884   4.847   5.712
11176TIP3    H133471   1.789   4.844   5.705
11176TIP3    H233472   1.907   4.768   5.761
11177TIP3   OH233473   2.523   4.737   2.893
11177TIP3    H133474   2.583   4.719   2.966
11177TIP3    H233475   2.578   4.738   2.815
11178TIP3   OH233476   0.706   3.681   5.406
11178TIP3    H133477   0.800   3.664   5.400
11178TIP3    H233478   0.672   3.658   5.319
11179TIP3   OH233479   5.585   3.261   2.576
11179TIP3    H133480   5.648   3.262   2.649
11179TIP3    H233481   5.540   3.345   2.582
11180TIP3   OH233482   0.535   4.022   6.134
11180TIP3    H133483   0.448   3.982   6.135
11180TIP3    H233484   0.583   3.976   6.203
11181TIP3   OH233485   0.385   1.222   1.844
11181TIP3    H133486   0.297   1.193   1.865
11181TIP3    H233487   0.410   1.278   1.918
11182TIP3   OH233488   1.108   5.928   0.458
11182TIP3    H133489   1.163   5.933   0.380
11182TIP3    H233490   1.103   5.834   0.477
11183TIP3   OH233491   7.155   4.056   2.441
11183TIP3    H133492   7.171   4.054   2.535
11183TIP3    H233493   7.215   3.990   2.404
11184TIP3   OH233494   0.871   2.262   6.483
11184TIP3    H133495   0.820   2.325   6.431
11184TIP3    H233496   0.837   2.271   6.572
11185TIP3   OH233497   1.129   1.245   0.315
11185TIP3    H133498   1.101   1.336   0.327
11185TIP3    H233499   1.047   1.197   0.300
11186TIP3   OH233500   4.681   4.866   0.068
11186TIP3    H133501   4.725   4.942   0.106
11186TIP3    H233502   4.599   4.900   0.034
11187TIP3   OH233503   2.713   1.434   2.271
11187TIP3    H133504   2.706   1.340   2.285
11187TIP3    H233505   2.623   1.465   2.272
11188TIP3   OH233506   2.934   6.338   4.305
11188TIP3    H133507   2.884   6.307   4.229
11188TIP3    H233508   3.019   6.362   4.270
11189TIP3   OH233509   7.092   7.849   4.057
11189TIP3    H133510   7.162   7.870   4.118
11189TIP3    H233511   7.031   7.796   4.107
11190TIP3   OH233512   5.217   4.371   1.047
11190TIP3    H133513   5.231   4.458   1.009
11190TIP3    H233514   5.122   4.362   1.051
11191TIP3   OH233515   5.677   1.295   5.544
11191TIP3    H133516   5.751   1.325   5.597
11191TIP3    H233517   5.699   1.323   5.455
11192TIP3   OH233518   5.001   2.586   6.462
11192TIP3    H133519   4.936   2.620   6.401
11192TIP3    H233520   4.978   2.494   6.473
11193TIP3   OH233521   2.314   3.514   0.211
11193TIP3    H133522   2.389   3.460   0.236
11193TIP3    H233523   2.332   3.599   0.250
11194TIP3   OH233524   7.253   3.137   0.426
11194TIP3    H133525   7.296   3.145   0.511
11194TIP3    H233526   7.210   3.221   0.413
11195TIP3   OH233527   5.554   7.286   0.565
11195TIP3    H133528   5.472   7.324   0.597
11195TIP3    H233529   5.553   7.196   0.598
11196TIP3   OH233530   3.825   1.649   2.684
11196TIP3    H133531   3.839   1.568   2.636
11196TIP3    H233532   3.908   1.666   2.728
11197TIP3   OH233533   7.182   4.644   0.100
11197TIP3    H133534   7.176   4.555   0.135
11197TIP3    H233535   7.260   4.644   0.045
11198TIP3   OH233536   7.020   2.935   5.051
11198TIP3    H133537   7.092   2.966   5.106
11198TIP3    H233538   7.044   2.846   5.027
11199TIP3   OH233539   4.927   4.233   3.829
11199TIP3    H133540   4.877   4.264   3.905
11199TIP3    H233541   4.862   4.188   3.775
11200TIP3   OH233542   6.586   5.790   4.606
11200TIP3    H133543   6.682   5.791   4.599
11200TIP3    H233544   6.566   5.856   4.672
11201TIP3   OH233545   3.728   1.362   0.362
11201TIP3    H133546   3.637   1.347   0.388
11201TIP3    H233547   3.780   1.325   0.433
11202TIP3   OH233548   3.117   1.217   0.653
11202TIP3    H133549   3.190   1.173   0.696
11202TIP3    H233550   3.117   1.305   0.690
11203TIP3   OH233551   7.535   4.193   5.570
11203TIP3    H133552   7.469   4.229   5.511
11203TIP3    H233553   7.593   4.142   5.514
11204TIP3   OH233554   7.852   7.706   1.776
11204TIP3    H133555   7.919   7.681   1.839
11204TIP3    H233556   7.828   7.624   1.733
11205TIP3   OH233557   2.918   3.614   2.479
11205TIP3    H133558   2.876   3.552   2.539
11205TIP3    H233559   3.011   3.607   2.499
11206TIP3   OH233560   5.616   1.260   1.779
11206TIP3    H133561   5.681   1.290   1.843
11206TIP3    H233562   5.538   1.311   1.800
11207TIP3   OH233563   7.703   3.657   3.688
11207TIP3    H133564   7.772   3.591   3.679
11207TIP3    H233565   7.748   3.733   3.725
11208TIP3   OH233566   2.507   5.598   0.475
11208TIP3    H133567   2.438   5.642   0.525
11208TIP3    H233568   2.529   5.521   0.526
11209TIP3   OH233569   7.824   3.225   5.979
11209TIP3    H133570   7.882   3.295   6.008
11209TIP3    H233571   7.762   3.268   5.920
11210TIP3   OH233572   7.708   5.937   4.319
11210TIP3    H133573   7.746   5.927   4.406
11210TIP3    H233574   7.728   5.854   4.274
11211TIP3   OH233575   8.171   4.740   5.648
11211TIP3    H133576   8.252   4.780   5.680
11211TIP3    H233577   8.174   4.650   5.682
11212TIP3   OH233578   1.463   3.609   5.017
11212TIP3    H133579   1.497   3.523   4.991
11212TIP3    H233580   1.536   3.650   5.064
11213TIP3   OH233581   3.474   7.847   1.171
11213TIP3    H133582   3.420   7.769   1.157
11213TIP3    H233583   3.491   7.880   1.083
11214TIP3   OH233584   2.677   0.145   5.222
11214TIP3    H133585   2.602   0.103   5.180
11214TIP3    H233586   2.750   0.128   5.162
11215TIP3   OH233587   1.241   4.427   0.294
11215TIP3    H133588   1.293   4.504   0.274
11215TIP3    H233589   1.250   4.416   0.388
11216TIP3   OH233590   3.199   1.572   4.108
11216TIP3    H133591   3.194   1.651   4.162
11216TIP3    H233592   3.289   1.543   4.117
11217TIP3   OH233593   0.278   7.699   2.551
11217TIP3    H133594   0.205   7.729   2.605
11217TIP3    H233595   0.264   7.604   2.544
11218TIP3   OH233596   6.507   3.982   3.573
11218TIP3    H133597   6.476   3.893   3.557
11218TIP3    H233598   6.561   4.002   3.496
11219TIP3   OH233599   5.148   1.337   3.064
11219TIP3    H133600   5.157   1.242   3.055
11219TIP3    H233601   5.197   1.373   2.990
11220TIP3   OH233602   1.191   3.560   2.604
11220TIP3    H133603   1.123   3.556   2.538
11220TIP3    H233604   1.146   3.540   2.686
11221TIP3   OH233605   4.789   7.149   1.402
11221TIP3    H133606   4.853   7.083   1.430
11221TIP3    H233607   4.752   7.183   1.484
11222TIP3   OH233608   3.425   3.155   3.207
11222TIP3    H133609   3.440   3.095   3.281
11222TIP3    H233610   3.334   3.139   3.183
11223TIP3   OH233611   7.414   3.798   1.628
11223TIP3    H133612   7.421   3.720   1.684
11223TIP3    H233613   7.363   3.860   1.680
11224TIP3   OH233614   2.783   3.531   1.437
11224TIP3    H133615   2.845   3.516   1.508
11224TIP3    H233616   2.718   3.590   1.474
11225TIP3   OH233617   7.092   6.805   2.475
11225TIP3    H133618   7.097   6.718   2.516
11225TIP3    H233619   7.183   6.835   2.471
11226TIP3   OH233620   1.011   3.905   3.852
11226TIP3    H133621   1.004   3.994   3.888
11226TIP3    H233622   0.934   3.860   3.885
11227TIP3   OH233623   1.298   0.399   4.983
11227TIP3    H133624   1.314   0.312   5.020
11227TIP3    H233625   1.202   0.402   4.973
11228TIP3   OH233626   3.395   0.657   1.371
11228TIP3    H133627   3.464   0.617   1.425
11228TIP3    H233628   3.328   0.683   1.434
11229TIP3   OH233629   4.816   1.997   2.261
11229TIP3    H133630   4.785   1.946   2.187
11229TIP3    H233631   4.795   2.087   2.239
11230TIP3   OH233632   3.721   7.467   2.064
11230TIP3    H133633   3.795   7.415   2.095
11230TIP3    H233634   3.680   7.501   2.143
11231TIP3   OH233635   4.166   3.506   4.740
11231TIP3    H133636   4.131   3.553   4.664
11231TIP3    H233637   4.176   3.415   4.710
11232TIP3   OH233638   3.502   7.039   3.715
11232TIP3    H133639   3.443   7.067   3.644
11232TIP3    H233640   3.443   7.013   3.786
11233TIP3   OH233641   7.861   6.565   2.600
11233TIP3    H133642   7.867   6.476   2.633
11233TIP3    H233643   7.918   6.616   2.657
11234TIP3   OH233644   5.315   4.479   4.576
11234TIP3    H133645   5.366   4.407   4.540
11234TIP3    H233646   5.326   4.550   4.513
11235TIP3   OH233647   4.183   5.815   6.523
11235TIP3    H133648   4.193   5.810   6.428
11235TIP3    H233649   4.191   5.908   6.543
11236TIP3   OH233650   5.014   5.407   2.326
11236TIP3    H133651   4.945   5.380   2.386
11236TIP3    H233652   4.998   5.500   2.312
11237TIP3   OH233653   3.068   1.209   6.628
11237TIP3    H133654   3.121   1.146   6.578
11237TIP3    H233655   3.001   1.237   6.566
11238TIP3   OH233656   7.356   4.559   5.955
11238TIP3    H133657   7.286   4.557   5.890
11238TIP3    H233658   7.328   4.500   6.024
11239TIP3   OH233659   7.737   3.047   2.245
11239TIP3    H133660   7.817   2.994   2.238
11239TIP3    H233661   7.751   3.120   2.185
11240TIP3   OH233662   6.049   7.533   3.014
11240TIP3    H133663   6.090   7.536   2.928
11240TIP3    H233664   6.120   7.509   3.074
11241TIP3   OH233665   4.126   0.030   5.893
11241TIP3    H133666   4.110   0.041   5.799
11241TIP3    H233667   4.192   0.096   5.914
11242TIP3   OH233668   3.400   1.599   6.637
11242TIP3    H133669   3.309   1.587   6.610
11242TIP3    H233670   3.430   1.511   6.659
11243TIP3   OH233671   5.991   2.113   1.531
11243TIP3    H133672   5.952   2.176   1.470
11243TIP3    H233673   6.068   2.157   1.566
11244TIP3   OH233674   5.080   2.540   4.826
11244TIP3    H133675   5.140   2.488   4.772
11244TIP3    H233676   5.044   2.477   4.888
11245TIP3   OH233677   5.201   6.645   5.940
11245TIP3    H133678   5.147   6.676   5.867
11245TIP3    H233679   5.241   6.564   5.907
11246TIP3   OH233680   2.904   1.510   0.455
11246TIP3    H133681   2.906   1.520   0.551
11246TIP3    H233682   2.911   1.416   0.441
11247TIP3   OH233683   2.298   3.867   6.211
11247TIP3    H133684   2.232   3.798   6.210
11247TIP3    H233685   2.370   3.831   6.262
11248TIP3   OH233686   4.333   7.046   3.337
11248TIP3    H133687   4.255   7.095   3.311
11248TIP3    H233688   4.302   6.982   3.400
11249TIP3   OH233689   8.265   3.132   0.328
11249TIP3    H133690   8.341   3.111   0.274
11249TIP3    H233691   8.190   3.111   0.272
11250TIP3   OH233692   5.191   2.567   6.758
11250TIP3    H133693   5.284   2.591   6.765
11250TIP3    H233694   5.155   2.629   6.694
11251TIP3   OH233695   3.716   5.271   2.920
11251TIP3    H133696   3.764   5.247   3.000
11251TIP3    H233697   3.767   5.343   2.883
11252TIP3   OH233698   0.136   7.439   0.545
11252TIP3    H133699   0.079   7.485   0.484
11252TIP3    H233700   0.177   7.508   0.597
11253TIP3   OH233701   2.817   1.834   0.026
11253TIP3    H133702   2.876   1.817   0.100
11253TIP3    H233703   2.824   1.756  -0.029
11254TIP3   OH233704   4.364   1.631   2.393
11254TIP3    H133705   4.432   1.699   2.391
11254TIP3    H233706   4.283   1.678   2.376
11255TIP3   OH233707   1.678   6.944   0.180
11255TIP3    H133708   1.724   6.877   0.130
11255TIP3    H233709   1.667   7.017   0.118
11256TIP3   OH233710   2.349   7.279   1.392
11256TIP3    H133711   2.324   7.268   1.484
11256TIP3    H233712   2.267   7.304   1.348
11257TIP3   OH233713   5.234   7.163   5.284
11257TIP3    H133714   5.147   7.168   5.244
11257TIP3    H233715   5.294   7.178   5.211
11258TIP3   OH233716   6.715   7.534   5.164
11258TIP3    H133717   6.697   7.589   5.240
11258TIP3    H233718   6.652   7.564   5.098
11259TIP3   OH233719   5.870   3.025   6.452
11259TIP3    H133720   5.806   2.991   6.515
11259TIP3    H233721   5.889   2.951   6.395
11260TIP3   OH233722   2.686   4.272   4.501
11260TIP3    H133723   2.621   4.325   4.455
11260TIP3    H233724   2.765   4.326   4.500
11261TIP3   OH233725   4.082   7.863   5.220
11261TIP3    H133726   4.023   7.787   5.216
11261TIP3    H233727   4.078   7.891   5.312
11262TIP3   OH233728   1.072   3.656   3.676
11262TIP3    H133729   1.085   3.580   3.733
11262TIP3    H233730   1.141   3.717   3.700
11263TIP3   OH233731   0.617   0.417   4.913
11263TIP3    H133732   0.669   0.360   4.856
11263TIP3    H233733   0.652   0.505   4.897
11264TIP3   OH233734   7.994   0.232   4.128
11264TIP3    H133735   8.051   0.296   4.087
11264TIP3    H233736   7.934   0.204   4.058
11265TIP3   OH233737   7.438   2.179   6.279
11265TIP3    H133738   7.418   2.123   6.204
11265TIP3    H233739   7.528   2.209   6.265
11266TIP3   OH233740   4.115   6.774   6.281
11266TIP3    H133741   4.190   6.730   6.322
11266TIP3    H233742   4.045   6.767   6.346
11267TIP3   OH233743   0.258   2.466   6.629
11267TIP3    H133744   0.251   2.398   6.696
11267TIP3    H233745   0.288   2.419   6.550
11268TIP3   OH233746   2.706   3.501   1.151
11268TIP3    H133747   2.790   3.524   1.111
11268TIP3    H233748   2.725   3.490   1.244
11269TIP3   OH233749   1.004   5.429   0.519
11269TIP3    H133750   1.054   5.377   0.456
11269TIP3    H233751   0.913   5.416   0.493
11270TIP3   OH233752   0.601   5.989   2.939
11270TIP3    H133753   0.510   6.018   2.932
11270TIP3    H233754   0.652   6.070   2.942
11271TIP3   OH233755   5.357   4.993   5.904
11271TIP3    H133756   5.310   5.025   5.827
11271TIP3    H233757   5.355   4.898   5.895
11272TIP3   OH233758   7.685   4.153   6.299
11272TIP3    H133759   7.715   4.236   6.263
11272TIP3    H233760   7.660   4.101   6.223
11273TIP3   OH233761   4.119   7.155   5.571
11273TIP3    H133762   4.181   7.095   5.531
11273TIP3    H233763   4.172   7.229   5.599
11274TIP3   OH233764   1.282   7.741   1.449
11274TIP3    H133765   1.267   7.726   1.542
11274TIP3    H233766   1.342   7.671   1.423
11275TIP3   OH233767   2.820   4.843   4.794
11275TIP3    H133768   2.757   4.890   4.739
11275TIP3    H233769   2.791   4.861   4.884
11276TIP3   OH233770   5.153   7.303   6.020
11276TIP3    H133771   5.233   7.355   6.006
11276TIP3    H233772   5.082   7.365   6.004
11277TIP3   OH233773   2.786   4.104   6.681
11277TIP3    H133774   2.842   4.081   6.754
11277TIP3    H233775   2.700   4.121   6.720
11278TIP3   OH233776   5.695   1.526   4.626
11278TIP3    H133777   5.622   1.466   4.639
11278TIP3    H233778   5.773   1.476   4.651
11279TIP3   OH233779   0.791   7.326   4.466
11279TIP3    H133780   0.711   7.281   4.438
11279TIP3    H233781   0.861   7.280   4.420
11280TIP3   OH233782   5.429   0.776   3.619
11280TIP3    H133783   5.422   0.782   3.714
11280TIP3    H233784   5.342   0.800   3.587
11281TIP3   OH233785   6.483   7.497   4.905
11281TIP3    H133786   6.387   7.492   4.902
11281TIP3    H233787   6.511   7.408   4.923
11282TIP3   OH233788   8.205   1.522   0.712
11282TIP3    H133789   8.125   1.476   0.687
11282TIP3    H233790   8.267   1.503   0.642
11283TIP3   OH233791   6.896   6.640   5.393
11283TIP3    H133792   6.926   6.553   5.367
11283TIP3    H233793   6.802   6.630   5.407
11284TIP3   OH233794   8.086   1.792   2.311
11284TIP3    H133795   8.110   1.722   2.371
11284TIP3    H233796   8.051   1.861   2.368
11285TIP3   OH233797   5.141   1.814   2.216
11285TIP3    H133798   5.161   1.838   2.125
11285TIP3    H233799   5.182   1.729   2.228
11286TIP3   OH233800   2.904   7.018   4.809
11286TIP3    H133801   2.978   6.987   4.757
11286TIP3    H233802   2.832   6.958   4.788
11287TIP3   OH233803   1.784   1.478   4.045
11287TIP3    H133804   1.752   1.518   3.964
11287TIP3    H233805   1.842   1.544   4.083
11288TIP3   OH233806   3.466   3.600   0.144
11288TIP3    H133807   3.552   3.559   0.152
11288TIP3    H233808   3.485   3.688   0.111
11289TIP3   OH233809   1.263   0.444   3.644
11289TIP3    H133810   1.272   0.365   3.697
11289TIP3    H233811   1.352   0.460   3.611
11290TIP3   OH233812   7.254   6.528   5.028
11290TIP3    H133813   7.347   6.540   5.010
11290TIP3    H233814   7.240   6.571   5.113
11291TIP3   OH233815   1.996   4.106   2.975
11291TIP3    H133816   1.983   4.037   2.910
11291TIP3    H233817   1.917   4.103   3.029
11292TIP3   OH233818   5.251   1.180   0.669
11292TIP3    H133819   5.233   1.148   0.581
11292TIP3    H233820   5.201   1.262   0.675
11293TIP3   OH233821   6.543   1.962   0.931
11293TIP3    H133822   6.540   1.920   0.845
11293TIP3    H233823   6.464   2.016   0.934
11294TIP3   OH233824   2.311   7.731   4.491
11294TIP3    H133825   2.252   7.803   4.515
11294TIP3    H233826   2.395   7.756   4.528
11295TIP3   OH233827   5.382   5.930   2.274
11295TIP3    H133828   5.368   5.877   2.196
11295TIP3    H233829   5.472   5.910   2.300
11296TIP3   OH233830   2.708   5.152   2.934
11296TIP3    H133831   2.617   5.126   2.950
11296TIP3    H233832   2.749   5.152   3.020
11297TIP3   OH233833   5.938   5.368   6.123
11297TIP3    H133834   6.026   5.331   6.128
11297TIP3    H233835   5.910   5.376   6.214
11298TIP3   OH233836   0.702   3.706   1.823
11298TIP3    H133837   0.661   3.638   1.769
11298TIP3    H233838   0.654   3.704   1.905
11299TIP3   OH233839   7.575   2.452   2.122
11299TIP3    H133840   7.603   2.390   2.189
11299TIP3    H233841   7.496   2.414   2.085
11300TIP3   OH233842   0.430   1.323   2.529
11300TIP3    H133843   0.416   1.235   2.495
11300TIP3    H233844   0.470   1.308   2.615
11301TIP3   OH233845   1.113   0.720   5.718
11301TIP3    H133846   1.037   0.669   5.745
11301TIP3    H233847   1.086   0.811   5.730
11302TIP3   OH233848   6.026   0.199   4.898
11302TIP3    H133849   6.071   0.253   4.833
11302TIP3    H233850   6.096   0.155   4.946
11303TIP3   OH233851   3.850   3.624   3.235
11303TIP3    H133852   3.918   3.686   3.208
11303TIP3    H233853   3.770   3.676   3.238
11304TIP3   OH233854   4.889   4.239   1.441
11304TIP3    H133855   4.882   4.284   1.525
11304TIP3    H233856   4.813   4.269   1.391
11305TIP3   OH233857   5.058   4.566   6.428
11305TIP3    H133858   4.981   4.512   6.447
11305TIP3    H233859   5.027   4.656   6.437
11306TIP3   OH233860   4.934   4.666   2.552
11306TIP3    H133861   4.917   4.737   2.614
11306TIP3    H233862   4.857   4.665   2.495
11307TIP3   OH233863   5.858   7.526   1.787
11307TIP3    H133864   5.795   7.589   1.823
11307TIP3    H233865   5.809   7.479   1.719
11308TIP3   OH233866   2.645   6.555   2.378
11308TIP3    H133867   2.684   6.530   2.294
11308TIP3    H233868   2.563   6.505   2.382
11309TIP3   OH233869   2.457   3.317   1.601
11309TIP3    H133870   2.526   3.322   1.667
11309TIP3    H233871   2.386   3.371   1.637
11310TIP3   OH233872   5.843   1.872   4.187
11310TIP3    H133873   5.788   1.794   4.188
11310TIP3    H233874   5.813   1.922   4.112
11311TIP3   OH233875   5.952   4.087   0.138
11311TIP3    H133876   5.924   4.100   0.047
11311TIP3    H233877   5.935   3.994   0.155
11312TIP3   OH233878   7.396   2.810   4.089
11312TIP3    H133879   7.417   2.827   3.997
11312TIP3    H233880   7.479   2.785   4.128
11313TIP3   OH233881   5.444   3.029   2.792
11313TIP3    H133882   5.449   2.962   2.723
11313TIP3    H233883   5.523   3.015   2.844
11314TIP3   OH233884   2.811   6.360   5.998
11314TIP3    H133885   2.881   6.348   5.934
11314TIP3    H233886   2.735   6.384   5.945
11315TIP3   OH233887   6.029   2.058   4.321
11315TIP3    H133888   5.962   2.126   4.314
11315TIP3    H233889   5.988   1.980   4.284
11316TIP3   OH233890   4.913   3.005   2.676
11316TIP3    H133891   4.981   2.998   2.608
11316TIP3    H233892   4.958   2.980   2.757
11317TIP3   OH233893   4.506   5.514   5.664
11317TIP3    H133894   4.583   5.560   5.631
11317TIP3    H233895   4.481   5.454   5.594
11318TIP3   OH233896   7.088   6.563   2.602
11318TIP3    H133897   7.129   6.587   2.685
11318TIP3    H233898   7.034   6.486   2.624
11319TIP3   OH233899   7.128   5.060   3.135
11319TIP3    H133900   7.121   5.112   3.055
11319TIP3    H233901   7.176   5.115   3.197
11320TIP3   OH233902   8.257   2.894   1.405
11320TIP3    H133903   8.206   2.970   1.378
11320TIP3    H233904   8.237   2.883   1.498
11321TIP3   OH233905   6.799   3.131   4.988
11321TIP3    H133906   6.845   3.049   5.001
11321TIP3    H233907   6.864   3.199   5.005
11322TIP3   OH233908   1.959   7.455   4.693
11322TIP3    H133909   1.882   7.504   4.666
11322TIP3    H233910   1.946   7.439   4.787
11323TIP3   OH233911   1.029   2.783   4.921
11323TIP3    H133912   1.047   2.720   4.991
11323TIP3    H233913   0.934   2.776   4.907
11324TIP3   OH233914   8.075   5.325   5.698
11324TIP3    H133915   8.101   5.262   5.766
11324TIP3    H233916   7.980   5.330   5.705
11325TIP3   OH233917   6.527   4.809   5.627
11325TIP3    H133918   6.537   4.903   5.636
11325TIP3    H233919   6.456   4.798   5.563
11326TIP3   OH233920   7.654   3.347   4.735
11326TIP3    H133921   7.640   3.258   4.769
11326TIP3    H233922   7.599   3.402   4.791
11327TIP3   OH233923   3.287   2.094   3.929
11327TIP3    H133924   3.282   2.132   4.017
11327TIP3    H233925   3.375   2.056   3.925
11328TIP3   OH233926   0.455   1.499   2.328
11328TIP3    H133927   0.475   1.421   2.379
11328TIP3    H233928   0.436   1.567   2.392
11329TIP3   OH233929   7.895   4.995   0.693
11329TIP3    H133930   7.968   5.031   0.644
11329TIP3    H233931   7.930   4.978   0.781
11330TIP3   OH233932   4.734   1.841   4.271
11330TIP3    H133933   4.666   1.812   4.209
11330TIP3    H233934   4.715   1.792   4.351
11331TIP3   OH233935   2.985   1.732   1.261
11331TIP3    H133936   2.915   1.714   1.323
11331TIP3    H233937   3.017   1.646   1.235
11332TIP3   OH233938   0.297   4.823   4.030
11332TIP3    H133939   0.330   4.740   3.994
11332TIP3    H233940   0.356   4.844   4.102
11333TIP3   OH233941   5.065   2.068   3.991
11333TIP3    H133942   5.126   2.106   4.054
11333TIP3    H233943   4.985   2.051   4.042
11334TIP3   OH233944   5.253   1.858   3.610
11334TIP3    H133945   5.217   1.822   3.529
11334TIP3    H233946   5.244   1.953   3.600
11335TIP3   OH233947   3.348   7.753   0.647
11335TIP3    H133948   3.309   7.697   0.580
11335TIP3    H233949   3.273   7.791   0.693
11336TIP3   OH233950   7.444   6.252   2.336
11336TIP3    H133951   7.442   6.322   2.402
11336TIP3    H233952   7.355   6.217   2.338
11337TIP3   OH233953   5.209   6.280   1.189
11337TIP3    H133954   5.114   6.281   1.199
11337TIP3    H233955   5.229   6.190   1.161
11338TIP3   OH233956   0.707   0.671   4.812
11338TIP3    H133957   0.724   0.762   4.836
11338TIP3    H233958   0.692   0.672   4.718
11339TIP3   OH233959   2.728   0.086   5.757
11339TIP3    H133960   2.795   0.140   5.800
11339TIP3    H233961   2.734   0.001   5.801
11340TIP3   OH233962   6.921   0.764   5.141
11340TIP3    H133963   6.827   0.774   5.157
11340TIP3    H233964   6.961   0.835   5.192
11341TIP3   OH233965   5.194   7.404   1.998
11341TIP3    H133966   5.232   7.317   1.988
11341TIP3    H233967   5.134   7.413   1.923
11342TIP3   OH233968   2.883   1.016   1.239
11342TIP3    H133969   2.943   1.088   1.257
11342TIP3    H233970   2.904   0.950   1.306
11343TIP3   OH233971   4.620   4.708   4.805
11343TIP3    H133972   4.631   4.735   4.896
11343TIP3    H233973   4.682   4.636   4.794
11344TIP3   OH233974   1.603   1.159   3.045
11344TIP3    H133975   1.678   1.144   2.988
11344TIP3    H233976   1.624   1.111   3.125
11345TIP3   OH233977   6.901   5.039   1.338
11345TIP3    H133978   6.983   5.079   1.310
11345TIP3    H233979   6.896   5.058   1.432
11346TIP3   OH233980   4.517   4.157   5.333
11346TIP3    H133981   4.513   4.090   5.402
11346TIP3    H233982   4.596   4.208   5.354
11347TIP3   OH233983   4.797   1.291   1.294
11347TIP3    H133984   4.799   1.366   1.354
11347TIP3    H233985   4.709   1.294   1.256
11348TIP3   OH233986   1.083   5.127   1.535
11348TIP3    H133987   1.043   5.048   1.498
11348TIP3    H233988   1.061   5.124   1.628
11349TIP3   OH233989   3.451   6.320   1.584
11349TIP3    H133990   3.534   6.328   1.537
11349TIP3    H233991   3.476   6.330   1.676
11350TIP3   OH233992   0.008   4.978   6.206
11350TIP3    H133993   0.049   5.060   6.180
11350TIP3    H233994   0.028   4.970   6.300
11351TIP3   OH233995   2.433   6.380   5.605
11351TIP3    H133996   2.383   6.306   5.570
11351TIP3    H233997   2.483   6.413   5.531
11352TIP3   OH233998   6.023   4.318   6.032
11352TIP3    H133999   6.101   4.336   6.084
11352TIP3    H234000   5.951   4.319   6.095
11353TIP3   OH234001   0.841   1.887   6.011
11353TIP3    H134002   0.748   1.882   5.987
11353TIP3    H234003   0.841   1.894   6.106
11354TIP3   OH234004   3.397   1.279   0.134
11354TIP3    H134005   3.493   1.273   0.128
11354TIP3    H234006   3.374   1.218   0.204
11355TIP3   OH234007   3.215   3.767   1.128
11355TIP3    H134008   3.258   3.720   1.199
11355TIP3    H234009   3.205   3.856   1.161
11356TIP3   OH234010   8.103   3.420   0.894
11356TIP3    H134011   8.116   3.514   0.886
11356TIP3    H234012   8.034   3.400   0.831
11357TIP3   OH234013   7.668   2.693   4.734
11357TIP3    H134014   7.652   2.764   4.672
11357TIP3    H234015   7.602   2.705   4.802
11358TIP3   OH234016   6.369   0.859   6.234
11358TIP3    H134017   6.396   0.923   6.168
11358TIP3    H234018   6.326   0.789   6.184
11359TIP3   OH234019   2.006   1.031   1.050
11359TIP3    H134020   2.029   1.053   1.140
11359TIP3    H234021   1.995   0.936   1.051
11360TIP3   OH234022   5.352   6.153   4.475
11360TIP3    H134023   5.316   6.097   4.544
11360TIP3    H234024   5.359   6.239   4.516
11361TIP3   OH234025   3.536   6.047   2.315
11361TIP3    H134026   3.468   6.114   2.328
11361TIP3    H234027   3.557   6.017   2.404
11362TIP3   OH234028   2.513   1.354   4.094
11362TIP3    H134029   2.538   1.272   4.136
11362TIP3    H234030   2.554   1.422   4.147
11363TIP3   OH234031   7.313   2.801   1.949
11363TIP3    H134032   7.354   2.879   1.911
11363TIP3    H234033   7.345   2.728   1.895
11364TIP3   OH234034   6.727   3.835   3.379
11364TIP3    H134035   6.788   3.771   3.341
11364TIP3    H234036   6.709   3.801   3.467
11365TIP3   OH234037   2.604   5.950   1.499
11365TIP3    H134038   2.559   5.955   1.414
11365TIP3    H234039   2.652   5.867   1.495
11366TIP3   OH234040   4.466   4.787   3.172
11366TIP3    H134041   4.554   4.790   3.135
11366TIP3    H234042   4.409   4.771   3.097
11367TIP3   OH234043   2.696   3.675   1.787
11367TIP3    H134044   2.712   3.730   1.710
11367TIP3    H234045   2.747   3.716   1.856
11368TIP3   OH234046   8.106   3.965   2.941
11368TIP3    H134047   8.120   4.030   3.010
11368TIP3    H234048   8.032   4.000   2.891
11369TIP3   OH234049   2.040   4.933   5.031
11369TIP3    H134050   2.064   4.983   5.109
11369TIP3    H234051   1.946   4.947   5.021
11370TIP3   OH234052   6.975   3.552   2.919
11370TIP3    H134053   6.945   3.467   2.886
11370TIP3    H234054   7.069   3.540   2.933
11371TIP3   OH234055   1.695   2.060   2.142
11371TIP3    H134056   1.756   1.990   2.119
11371TIP3    H234057   1.740   2.110   2.209
11372TIP3   OH234058   7.452   1.756   1.381
11372TIP3    H134059   7.437   1.680   1.438
11372TIP3    H234060   7.428   1.726   1.294
11373TIP3   OH234061   1.999   2.241   2.041
11373TIP3    H134062   1.909   2.263   2.064
11373TIP3    H234063   2.001   2.247   1.945
11374TIP3   OH234064   2.044   5.223   2.835
11374TIP3    H134065   2.076   5.233   2.745
11374TIP3    H234066   2.053   5.311   2.872
11375TIP3   OH234067   6.401   3.172   5.827
11375TIP3    H134068   6.400   3.267   5.829
11375TIP3    H234069   6.319   3.146   5.868
11376TIP3   OH234070   7.910   4.118   5.898
11376TIP3    H134071   7.940   4.037   5.857
11376TIP3    H234072   7.853   4.158   5.832
11377TIP3   OH234073   4.881   0.121   2.801
11377TIP3    H134074   4.861   0.100   2.710
11377TIP3    H234075   4.906   0.037   2.840
11378TIP3   OH234076   5.792   1.983   2.778
11378TIP3    H134077   5.760   1.939   2.699
11378TIP3    H234078   5.756   1.932   2.850
11379TIP3   OH234079   6.597   7.732   0.157
11379TIP3    H134080   6.568   7.810   0.205
11379TIP3    H234081   6.609   7.763   0.067
11380TIP3   OH234082   6.410   7.601   0.964
11380TIP3    H134083   6.425   7.523   1.017
11380TIP3    H234084   6.339   7.576   0.905
11381TIP3   OH234085   3.120   3.961   3.229
11381TIP3    H134086   3.186   3.974   3.298
11381TIP3    H234087   3.102   4.049   3.196
11382TIP3   OH234088   6.107   5.198   3.507
11382TIP3    H134089   6.158   5.225   3.584
11382TIP3    H234090   6.163   5.137   3.461
11383TIP3   OH234091   0.830   5.003   6.696
11383TIP3    H134092   0.838   5.087   6.741
11383TIP3    H234093   0.913   4.958   6.713
11384TIP3   OH234094   8.097   5.023   3.640
11384TIP3    H134095   8.019   5.037   3.586
11384TIP3    H234096   8.069   5.042   3.729
11385TIP3   OH234097   7.630   3.546   0.775
11385TIP3    H134098   7.587   3.469   0.738
11385TIP3    H234099   7.644   3.524   0.867
11386TIP3   OH234100   5.507   3.989   6.607
11386TIP3    H134101   5.534   3.899   6.590
11386TIP3    H234102   5.502   3.995   6.702
11387TIP3   OH234103   2.690   3.308   2.919
11387TIP3    H134104   2.637   3.228   2.911
11387TIP3    H234105   2.780   3.277   2.913
11388TIP3   OH234106   1.871   7.723   4.444
11388TIP3    H134107   1.801   7.686   4.497
11388TIP3    H234108   1.939   7.746   4.507
11389TIP3   OH234109   7.781   7.557   2.650
11389TIP3    H134110   7.717   7.518   2.591
11389TIP3    H234111   7.823   7.625   2.597
11390TIP3   OH234112   1.130   6.173   6.124
11390TIP3    H134113   1.170   6.152   6.208
11390TIP3    H234114   1.156   6.102   6.066
11391TIP3   OH234115   4.135   2.056   2.452
11391TIP3    H134116   4.218   2.093   2.421
11391TIP3    H234117   4.103   2.119   2.516
11392TIP3   OH234118   7.179   6.438   3.169
11392TIP3    H134119   7.136   6.523   3.160
11392TIP3    H234120   7.120   6.387   3.225
11393TIP3   OH234121   6.588   5.123   6.352
11393TIP3    H134122   6.587   5.082   6.265
11393TIP3    H234123   6.505   5.097   6.392
11394TIP3   OH234124   5.084   5.493   2.696
11394TIP3    H134125   5.089   5.577   2.650
11394TIP3    H234126   5.013   5.446   2.653
11395TIP3   OH234127   4.058   0.969   3.392
11395TIP3    H134128   4.112   0.963   3.314
11395TIP3    H234129   3.970   0.942   3.363
11396TIP3   OH234130   6.437   0.074   0.680
11396TIP3    H134131   6.477   0.161   0.675
11396TIP3    H234132   6.509   0.017   0.706
11397TIP3   OH234133   5.408   2.706   0.991
11397TIP3    H134134   5.343   2.773   0.972
11397TIP3    H234135   5.357   2.631   1.022
11398TIP3   OH234136   6.071   3.219   4.611
11398TIP3    H134137   5.991   3.184   4.650
11398TIP3    H234138   6.046   3.307   4.581
11399TIP3   OH234139   2.903   4.368   3.069
11399TIP3    H134140   2.943   4.289   3.104
11399TIP3    H234141   2.953   4.440   3.109
11400TIP3   OH234142   5.873   5.347   1.829
11400TIP3    H134143   5.837   5.436   1.826
11400TIP3    H234144   5.942   5.346   1.763
11401TIP3   OH234145   4.515   5.176   0.843
11401TIP3    H134146   4.534   5.175   0.937
11401TIP3    H234147   4.517   5.268   0.818
11402TIP3   OH234148   7.753   4.481   1.967
11402TIP3    H134149   7.679   4.485   1.907
11402TIP3    H234150   7.805   4.559   1.947
11403TIP3   OH234151   3.021   5.359   5.930
11403TIP3    H134152   3.100   5.410   5.911
11403TIP3    H234153   3.044   5.270   5.905
11404TIP3   OH234154   1.903   6.652   4.185
11404TIP3    H134155   1.852   6.637   4.265
11404TIP3    H234156   1.898   6.746   4.170
11405TIP3   OH234157   4.684   0.689   3.875
11405TIP3    H134158   4.756   0.664   3.818
11405TIP3    H234159   4.724   0.742   3.944
11406TIP3   OH234160   6.792   6.656   1.219
11406TIP3    H134161   6.716   6.599   1.225
11406TIP3    H234162   6.756   6.740   1.189
11407TIP3   OH234163   2.950   4.002   6.484
11407TIP3    H134164   3.017   3.985   6.550
11407TIP3    H234165   2.877   4.041   6.533
11408TIP3   OH234166   0.074   3.137   5.299
11408TIP3    H134167  -0.001   3.082   5.322
11408TIP3    H234168   0.117   3.091   5.227
11409TIP3   OH234169   2.659   2.437   1.930
11409TIP3    H134170   2.731   2.495   1.906
11409TIP3    H234171   2.585   2.496   1.946
11410TIP3   OH234172   3.157   5.943   3.971
11410TIP3    H134173   3.249   5.962   3.989
11410TIP3    H234174   3.151   5.848   3.971
11411TIP3   OH234175   8.234   6.651   5.646
11411TIP3    H134176   8.197   6.739   5.643
11411TIP3    H234177   8.291   6.645   5.570
11412TIP3   OH234178   1.505   2.428   1.912
11412TIP3    H134179   1.567   2.360   1.934
11412TIP3    H234180   1.538   2.507   1.956
11413TIP3   OH234181   5.676   0.086   3.713
11413TIP3    H134182   5.623   0.007   3.704
11413TIP3    H234183   5.766   0.055   3.720
11414TIP3   OH234184   2.341   4.298   3.755
11414TIP3    H134185   2.287   4.220   3.747
11414TIP3    H234186   2.384   4.289   3.840
11415TIP3   OH234187   7.084   7.083   2.282
11415TIP3    H134188   7.088   7.048   2.371
11415TIP3    H234189   7.174   7.074   2.249
11416TIP3   OH234190   3.728   4.589   1.882
11416TIP3    H134191   3.686   4.672   1.861
11416TIP3    H234192   3.674   4.551   1.951
11417TIP3   OH234193   1.672   5.043   6.232
11417TIP3    H134194   1.698   4.961   6.190
11417TIP3    H234195   1.669   5.022   6.325
11418TIP3   OH234196   7.790   1.636   4.013
11418TIP3    H134197   7.869   1.582   4.005
11418TIP3    H234198   7.764   1.626   4.105
11419TIP3   OH234199   0.388   0.339   0.788
11419TIP3    H134200   0.321   0.315   0.852
11419TIP3    H234201   0.366   0.290   0.710
11420TIP3   OH234202   0.202   0.227   0.981
11420TIP3    H134203   0.177   0.135   0.988
11420TIP3    H234204   0.131   0.274   1.024
11421TIP3   OH234205   2.611   6.937   5.807
11421TIP3    H134206   2.537   6.883   5.834
11421TIP3    H234207   2.668   6.877   5.759
11422TIP3   OH234208   1.371   2.793   3.850
11422TIP3    H134209   1.393   2.821   3.939
11422TIP3    H234210   1.430   2.720   3.831
11423TIP3   OH234211   0.506   1.681   5.985
11423TIP3    H134212   0.468   1.708   5.902
11423TIP3    H234213   0.460   1.732   6.051
11424TIP3   OH234214   4.427   4.948   0.676
11424TIP3    H134215   4.452   5.036   0.703
11424TIP3    H234216   4.396   4.959   0.586
11425TIP3   OH234217   2.221   1.647   0.054
11425TIP3    H134218   2.303   1.683   0.088
11425TIP3    H234219   2.194   1.709  -0.013
11426TIP3   OH234220   0.869   0.317   1.651
11426TIP3    H134221   0.800   0.375   1.619
11426TIP3    H234222   0.906   0.363   1.726
11427TIP3   OH234223   1.033   2.586   1.777
11427TIP3    H134224   1.019   2.602   1.684
11427TIP3    H234225   1.000   2.497   1.791
11428TIP3   OH234226   8.211   1.686   0.388
11428TIP3    H134227   8.276   1.725   0.447
11428TIP3    H234228   8.247   1.700   0.300
11429TIP3   OH234229   3.588   1.780   0.693
11429TIP3    H134230   3.621   1.792   0.782
11429TIP3    H234231   3.587   1.868   0.656
11430TIP3   OH234232   0.318   0.935   1.538
11430TIP3    H134233   0.307   0.921   1.632
11430TIP3    H234234   0.402   0.895   1.518
11431TIP3   OH234235   0.923   7.651   0.314
11431TIP3    H134236   0.884   7.573   0.275
11431TIP3    H234237   0.881   7.658   0.400
11432TIP3   OH234238   6.402   2.202   3.875
11432TIP3    H134239   6.464   2.215   3.803
11432TIP3    H234240   6.445   2.139   3.932
11433TIP3   OH234241   1.578   5.221   1.844
11433TIP3    H134242   1.630   5.151   1.804
11433TIP3    H234243   1.528   5.258   1.771
11434TIP3   OH234244   0.937   6.092   5.136
11434TIP3    H134245   0.930   6.109   5.230
11434TIP3    H234246   1.015   6.038   5.127
11435TIP3   OH234247   5.382   4.714   5.907
11435TIP3    H134248   5.374   4.728   5.813
11435TIP3    H234249   5.474   4.691   5.920
11436TIP3   OH234250   6.839   3.167   3.808
11436TIP3    H134251   6.839   3.094   3.746
11436TIP3    H234252   6.771   3.145   3.871
11437TIP3   OH234253   7.883   5.817   1.331
11437TIP3    H134254   7.887   5.853   1.242
11437TIP3    H234255   7.790   5.795   1.343
11438TIP3   OH234256   5.577   0.861   2.954
11438TIP3    H134257   5.605   0.772   2.977
11438TIP3    H234258   5.515   0.885   3.023
11439TIP3   OH234259   0.475   1.733   0.509
11439TIP3    H134260   0.558   1.686   0.495
11439TIP3    H234261   0.483   1.811   0.454
11440TIP3   OH234262   8.061   7.260   4.174
11440TIP3    H134263   8.104   7.252   4.260
11440TIP3    H234264   8.108   7.198   4.118
11441TIP3   OH234265   3.061   0.069   2.352
11441TIP3    H134266   3.036   0.010   2.423
11441TIP3    H234267   3.101   0.012   2.286
11442TIP3   OH234268   1.383   4.218   5.388
11442TIP3    H134269   1.422   4.199   5.474
11442TIP3    H234270   1.293   4.240   5.407
11443TIP3   OH234271   4.666   5.201   2.252
11443TIP3    H134272   4.753   5.241   2.240
11443TIP3    H234273   4.621   5.216   2.169
11444TIP3   OH234274   4.704   2.544   0.811
11444TIP3    H134275   4.723   2.632   0.842
11444TIP3    H234276   4.692   2.553   0.717
11445TIP3   OH234277   8.102   2.134   4.266
11445TIP3    H134278   8.134   2.195   4.333
11445TIP3    H234279   8.176   2.076   4.249
11446TIP3   OH234280   3.517   5.095   6.453
11446TIP3    H134281   3.471   5.015   6.428
11446TIP3    H234282   3.459   5.166   6.425
11447TIP3   OH234283   5.419   2.915   3.689
11447TIP3    H134284   5.335   2.940   3.650
11447TIP3    H234285   5.480   2.983   3.660
11448TIP3   OH234286   0.166   2.049   2.606
11448TIP3    H134287   0.255   2.034   2.638
11448TIP3    H234288   0.179   2.094   2.522
11449TIP3   OH234289   0.995   7.700   3.491
11449TIP3    H134290   0.932   7.766   3.462
11449TIP3    H234291   0.975   7.686   3.584
11450TIP3   OH234292   4.923   7.868   3.607
11450TIP3    H134293   4.983   7.823   3.547
11450TIP3    H234294   4.889   7.800   3.664
11451TIP3   OH234295   7.042   6.057   6.191
11451TIP3    H134296   7.009   6.093   6.108
11451TIP3    H234297   7.104   6.123   6.222
11452TIP3   OH234298   6.747   1.368   4.782
11452TIP3    H134299   6.712   1.295   4.833
11452TIP3    H234300   6.826   1.394   4.829
11453TIP3   OH234301   3.006   4.369   6.123
11453TIP3    H134302   3.039   4.284   6.097
11453TIP3    H234303   3.005   4.367   6.219
11454TIP3   OH234304   0.222   0.199   3.058
11454TIP3    H134305   0.217   0.107   3.084
11454TIP3    H234306   0.261   0.243   3.134
11455TIP3   OH234307   1.061   3.480   5.925
11455TIP3    H134308   1.133   3.525   5.969
11455TIP3    H234309   0.986   3.490   5.983
11456TIP3   OH234310   4.069   7.156   4.491
11456TIP3    H134311   4.150   7.184   4.448
11456TIP3    H234312   4.016   7.120   4.420
11457TIP3   OH234313   1.341   3.677   5.577
11457TIP3    H134314   1.348   3.613   5.506
11457TIP3    H234315   1.283   3.745   5.542
11458TIP3   OH234316   3.385   4.943   3.617
11458TIP3    H134317   3.363   4.924   3.708
11458TIP3    H234318   3.310   4.991   3.583
11459TIP3   OH234319   4.209   1.221   4.179
11459TIP3    H134320   4.115   1.204   4.178
11459TIP3    H234321   4.234   1.220   4.087
11460TIP3   OH234322   1.665   7.458   2.261
11460TIP3    H134323   1.672   7.394   2.191
11460TIP3    H234324   1.624   7.535   2.220
11461TIP3   OH234325   1.968   1.583   0.680
11461TIP3    H134326   1.943   1.522   0.611
11461TIP3    H234327   1.885   1.621   0.710
11462TIP3   OH234328   1.226   2.289   3.039
11462TIP3    H134329   1.166   2.273   2.966
11462TIP3    H234330   1.266   2.204   3.055
11463TIP3   OH234331   4.899   1.816   1.493
11463TIP3    H134332   4.855   1.782   1.415
11463TIP3    H234333   4.857   1.900   1.509
11464TIP3   OH234334   4.173   3.122   0.964
11464TIP3    H134335   4.192   3.077   1.047
11464TIP3    H234336   4.132   3.055   0.909
11465TIP3   OH234337   1.322   3.190   2.274
11465TIP3    H134338   1.336   3.264   2.333
11465TIP3    H234339   1.235   3.156   2.297
11466TIP3   OH234340   6.101   1.378   2.031
11466TIP3    H134341   6.034   1.349   2.092
11466TIP3    H234342   6.063   1.453   1.987
11467TIP3   OH234343   7.874   5.747   4.179
11467TIP3    H134344   7.925   5.826   4.194
11467TIP3    H234345   7.910   5.683   4.241
11468TIP3   OH234346   7.096   0.748   2.183
11468TIP3    H134347   7.088   0.727   2.090
11468TIP3    H234348   7.074   0.666   2.228
11469TIP3   OH234349   3.247   5.290   0.378
11469TIP3    H134350   3.297   5.210   0.396
11469TIP3    H234351   3.230   5.287   0.283
11470TIP3   OH234352   2.335   1.342   0.534
11470TIP3    H134353   2.352   1.342   0.440
11470TIP3    H234354   2.341   1.250   0.559
11471TIP3   OH234355   1.968   6.042   4.407
11471TIP3    H134356   1.951   6.115   4.466
11471TIP3    H234357   2.041   6.071   4.353
11472TIP3   OH234358   6.106   7.566   6.556
11472TIP3    H134359   6.130   7.640   6.501
11472TIP3    H234360   6.026   7.594   6.600
11473TIP3   OH234361   5.610   6.701   6.596
11473TIP3    H134362   5.592   6.772   6.658
11473TIP3    H234363   5.688   6.730   6.548
11474TIP3   OH234364   4.415   5.167   1.814
11474TIP3    H134365   4.458   5.086   1.786
11474TIP3    H234366   4.391   5.211   1.733
11475TIP3   OH234367   0.171   7.274   1.753
11475TIP3    H134368   0.094   7.320   1.785
11475TIP3    H234369   0.136   7.194   1.713
11476TIP3   OH234370   0.892   3.490   3.498
11476TIP3    H134371   0.975   3.475   3.544
11476TIP3    H234372   0.877   3.584   3.505
11477TIP3   OH234373   5.854   0.694   1.746
11477TIP3    H134374   5.923   0.722   1.685
11477TIP3    H234375   5.773   0.730   1.709
11478TIP3   OH234376   6.795   3.711   2.059
11478TIP3    H134377   6.821   3.634   2.109
11478TIP3    H234378   6.815   3.689   1.968
11479TIP3   OH234379   5.802   5.791   2.186
11479TIP3    H134380   5.873   5.740   2.148
11479TIP3    H234381   5.731   5.785   2.121
11480TIP3   OH234382   2.117   5.684   3.332
11480TIP3    H134383   2.125   5.612   3.395
11480TIP3    H234384   2.170   5.657   3.257
11481TIP3   OH234385   0.989   5.526   4.030
11481TIP3    H134386   0.934   5.604   4.024
11481TIP3    H234387   1.078   5.560   4.042
11482TIP3   OH234388   4.979   6.265   5.812
11482TIP3    H134389   4.884   6.269   5.817
11482TIP3    H234390   5.006   6.355   5.791
11483TIP3   OH234391   3.477   1.400   5.795
11483TIP3    H134392   3.462   1.428   5.705
11483TIP3    H234393   3.446   1.474   5.848
11484TIP3   OH234394   2.291   0.295   2.022
11484TIP3    H134395   2.383   0.310   2.043
11484TIP3    H234396   2.243   0.352   2.082
11485TIP3   OH234397   6.107   3.650   3.699
11485TIP3    H134398   6.137   3.726   3.749
11485TIP3    H234399   6.050   3.686   3.631
11486TIP3   OH234400   1.486   1.622   1.226
11486TIP3    H134401   1.462   1.624   1.133
11486TIP3    H234402   1.570   1.668   1.230
11487TIP3   OH234403   6.590   4.633   5.016
11487TIP3    H134404   6.661   4.684   5.054
11487TIP3    H234405   6.526   4.625   5.087
11488TIP3   OH234406   7.550   5.427   3.301
11488TIP3    H134407   7.556   5.334   3.279
11488TIP3    H234408   7.504   5.466   3.227
11489TIP3   OH234409   7.522   7.710   3.108
11489TIP3    H134410   7.440   7.740   3.146
11489TIP3    H234411   7.520   7.615   3.116
11490TIP3   OH234412   4.691   6.910   1.758
11490TIP3    H134413   4.768   6.965   1.769
11490TIP3    H234414   4.674   6.874   1.845
11491TIP3   OH234415   7.939   1.420   6.320
11491TIP3    H134416   7.940   1.398   6.413
11491TIP3    H234417   8.004   1.490   6.312
11492TIP3   OH234418   3.784   5.553   3.242
11492TIP3    H134419   3.819   5.468   3.216
11492TIP3    H234420   3.729   5.580   3.169
11493TIP3   OH234421   3.288   2.323   4.685
11493TIP3    H134422   3.337   2.246   4.715
11493TIP3    H234423   3.292   2.384   4.759
11494TIP3   OH234424   1.786   6.611   0.203
11494TIP3    H134425   1.802   6.663   0.124
11494TIP3    H234426   1.707   6.560   0.182
11495TIP3   OH234427   3.965   6.369   3.514
11495TIP3    H134428   3.983   6.355   3.607
11495TIP3    H234429   3.876   6.336   3.502
11496TIP3   OH234430   1.051   3.109   3.207
11496TIP3    H134431   1.063   3.169   3.133
11496TIP3    H234432   0.957   3.099   3.215
11497TIP3   OH234433   3.922   1.650   0.806
11497TIP3    H134434   3.960   1.723   0.757
11497TIP3    H234435   3.851   1.690   0.857
11498TIP3   OH234436   4.690   4.501   6.046
11498TIP3    H134437   4.719   4.446   5.973
11498TIP3    H234438   4.604   4.532   6.019
11499TIP3   OH234439   3.822   1.421   2.284
11499TIP3    H134440   3.910   1.422   2.248
11499TIP3    H234441   3.834   1.430   2.378
11500TIP3   OH234442   7.160   3.846   4.802
11500TIP3    H134443   7.165   3.935   4.836
11500TIP3    H234444   7.246   3.829   4.764
11501TIP3   OH234445   6.939   0.158   1.298
11501TIP3    H134446   6.937   0.150   1.202
11501TIP3    H234447   6.882   0.232   1.317
11502TIP3   OH234448   6.648   1.843   6.622
11502TIP3    H134449   6.700   1.766   6.597
11502TIP3    H234450   6.611   1.819   6.707
11503TIP3   OH234451   5.760   7.502   2.991
11503TIP3    H134452   5.724   7.559   2.923
11503TIP3    H234453   5.852   7.527   2.998
11504TIP3   OH234454   1.098   6.233   2.190
11504TIP3    H134455   1.025   6.171   2.192
11504TIP3    H234456   1.175   6.179   2.173
11505TIP3   OH234457   2.785   4.349   3.745
11505TIP3    H134458   2.848   4.378   3.678
11505TIP3    H234459   2.817   4.263   3.772
11506TIP3   OH234460   0.260   7.078   6.691
11506TIP3    H134461   0.235   7.159   6.735
11506TIP3    H234462   0.207   7.010   6.733
11507TIP3   OH234463   4.587   5.265   4.262
11507TIP3    H134464   4.637   5.231   4.336
11507TIP3    H234465   4.576   5.190   4.204
11508TIP3   OH234466   8.086   6.820   2.795
11508TIP3    H134467   8.032   6.786   2.866
11508TIP3    H234468   8.049   6.906   2.775
11509TIP3   OH234469   3.799   1.336   5.004
11509TIP3    H134470   3.793   1.244   5.028
11509TIP3    H234471   3.838   1.379   5.080
11510TIP3   OH234472   1.882   5.263   4.879
11510TIP3    H134473   1.923   5.316   4.948
11510TIP3    H234474   1.940   5.275   4.803
11511TIP3   OH234475   7.859   5.100   5.655
11511TIP3    H134476   7.875   5.129   5.745
11511TIP3    H234477   7.945   5.074   5.622
11512TIP3   OH234478   3.571   0.794   5.724
11512TIP3    H134479   3.664   0.799   5.749
11512TIP3    H234480   3.562   0.861   5.656
11513TIP3   OH234481   5.076   0.772   3.050
11513TIP3    H134482   5.162   0.733   3.033
11513TIP3    H234483   5.037   0.716   3.117
11514TIP3   OH234484   5.398   2.697   2.136
11514TIP3    H134485   5.396   2.701   2.040
11514TIP3    H234486   5.322   2.748   2.164
11515TIP3   OH234487   2.542   3.088   2.926
11515TIP3    H134488   2.516   3.001   2.898
11515TIP3    H234489   2.466   3.143   2.909
11516TIP3   OH234490   7.791   2.129   3.323
11516TIP3    H134491   7.859   2.159   3.383
11516TIP3    H234492   7.836   2.072   3.262
11517TIP3   OH234493   2.700   6.343   1.128
11517TIP3    H134494   2.722   6.421   1.077
11517TIP3    H234495   2.607   6.352   1.148
11518TIP3   OH234496   8.218   2.312   1.364
11518TIP3    H134497   8.299   2.347   1.402
11518TIP3    H234498   8.233   2.218   1.357
11519TIP3   OH234499   7.043   1.928   4.888
11519TIP3    H134500   6.955   1.891   4.894
11519TIP3    H234501   7.042   1.978   4.806
11520TIP3   OH234502   8.333   1.165   2.444
11520TIP3    H134503   8.342   1.107   2.519
11520TIP3    H234504   8.388   1.241   2.465
11521TIP3   OH234505   5.071   7.345   3.430
11521TIP3    H134506   5.029   7.363   3.514
11521TIP3    H234507   5.127   7.269   3.447
11522TIP3   OH234508   6.898   5.393  -0.054
11522TIP3    H134509   6.936   5.354   0.024
11522TIP3    H234510   6.875   5.482  -0.027
11523TIP3   OH234511   4.091   5.983   4.355
11523TIP3    H134512   4.008   6.005   4.312
11523TIP3    H234513   4.094   5.888   4.354
11524TIP3   OH234514   3.550   2.457   0.225
11524TIP3    H134515   3.638   2.465   0.187
11524TIP3    H234516   3.520   2.371   0.196
11525TIP3   OH234517   5.298   5.195   6.381
11525TIP3    H134518   5.327   5.164   6.295
11525TIP3    H234519   5.227   5.136   6.406
11526TIP3   OH234520   4.993   2.962   5.876
11526TIP3    H134521   5.063   2.903   5.850
11526TIP3    H234522   4.914   2.908   5.873
11527TIP3   OH234523   1.981   6.055   5.880
11527TIP3    H134524   2.041   5.992   5.921
11527TIP3    H234525   2.020   6.140   5.897
11528TIP3   OH234526   0.690   7.103   4.755
11528TIP3    H134527   0.751   7.098   4.829
11528TIP3    H234528   0.606   7.126   4.795
11529TIP3   OH234529   6.478   2.668   6.407
11529TIP3    H134530   6.437   2.609   6.471
11529TIP3    H234531   6.523   2.610   6.346
11530TIP3   OH234532   1.010   0.858   6.437
11530TIP3    H134533   0.980   0.919   6.505
11530TIP3    H234534   0.935   0.800   6.423
11531TIP3   OH234535   4.594   0.028   5.338
11531TIP3    H134536   4.638   0.000   5.258
11531TIP3    H234537   4.501   0.029   5.316
11532TIP3   OH234538   0.457   5.731   3.827
11532TIP3    H134539   0.462   5.659   3.890
11532TIP3    H234540   0.373   5.774   3.847
11533TIP3   OH234541   0.653   4.870   2.041
11533TIP3    H134542   0.633   4.915   2.122
11533TIP3    H234543   0.628   4.779   2.057
11534TIP3   OH234544   0.144   2.174   4.725
11534TIP3    H134545   0.110   2.095   4.766
11534TIP3    H234546   0.072   2.237   4.731
11535TIP3   OH234547   2.266   0.466   0.352
11535TIP3    H134548   2.269   0.382   0.307
11535TIP3    H234549   2.174   0.492   0.350
11536TIP3   OH234550   4.896   5.916   2.920
11536TIP3    H134551   4.874   5.904   2.828
11536TIP3    H234552   4.829   5.865   2.967
11537TIP3   OH234553   1.121   3.192   5.560
11537TIP3    H134554   1.054   3.135   5.597
11537TIP3    H234555   1.167   3.137   5.496
11538TIP3   OH234556   5.993   2.830   6.224
11538TIP3    H134557   5.914   2.807   6.174
11538TIP3    H234558   6.035   2.747   6.244
11539TIP3   OH234559   5.557   3.879   2.909
11539TIP3    H134560   5.616   3.809   2.939
11539TIP3    H234561   5.518   3.914   2.989
11540TIP3   OH234562   0.707   2.089   4.808
11540TIP3    H134563   0.773   2.158   4.819
11540TIP3    H234564   0.740   2.035   4.737
11541TIP3   OH234565   4.569  -0.020   3.297
11541TIP3    H134566   4.568   0.029   3.379
11541TIP3    H234567   4.508  -0.092   3.310
11542TIP3   OH234568   6.492   4.659   4.024
11542TIP3    H134569   6.584   4.640   4.046
11542TIP3    H234570   6.451   4.677   4.108
11543TIP3   OH234571   1.802   3.693   4.987
11543TIP3    H134572   1.780   3.750   4.914
11543TIP3    H234573   1.850   3.749   5.048
11544TIP3   OH234574   6.432   2.251   2.444
11544TIP3    H134575   6.433   2.282   2.353
11544TIP3    H234576   6.524   2.241   2.467
11545TIP3   OH234577   2.378   2.933   1.322
11545TIP3    H134578   2.394   2.981   1.403
11545TIP3    H234579   2.435   2.857   1.327
11546TIP3   OH234580   0.765   5.292   3.237
11546TIP3    H134581   0.748   5.202   3.208
11546TIP3    H234582   0.718   5.300   3.320
11547TIP3   OH234583   5.004   1.066   1.278
11547TIP3    H134584   4.928   1.124   1.268
11547TIP3    H234585   4.987   1.019   1.360
11548TIP3   OH234586   7.491   0.923   4.346
11548TIP3    H134587   7.445   0.839   4.339
11548TIP3    H234588   7.509   0.933   4.439
11549TIP3   OH234589   4.725   1.511   5.012
11549TIP3    H134590   4.654   1.549   5.063
11549TIP3    H234591   4.800   1.513   5.071
11550TIP3   OH234592   3.360   4.963   1.047
11550TIP3    H134593   3.436   4.950   1.104
11550TIP3    H234594   3.292   4.997   1.105
11551TIP3   OH234595   2.081   0.265   2.903
11551TIP3    H134596   2.000   0.258   2.853
11551TIP3    H234597   2.114   0.175   2.909
11552TIP3   OH234598   1.670   5.606   3.938
11552TIP3    H134599   1.699   5.517   3.954
11552TIP3    H234600   1.576   5.605   3.957
11553TIP3   OH234601   6.816   3.126   0.405
11553TIP3    H134602   6.906   3.110   0.377
11553TIP3    H234603   6.762   3.094   0.332
11554TIP3   OH234604   3.367   1.897   3.332
11554TIP3    H134605   3.382   1.968   3.394
11554TIP3    H234606   3.384   1.936   3.246
11555TIP3   OH234607   4.723   1.838   4.911
11555TIP3    H134608   4.754   1.814   4.998
11555TIP3    H234609   4.636   1.799   4.905
11556TIP3   OH234610   5.301   5.454   5.273
11556TIP3    H134611   5.226   5.462   5.214
11556TIP3    H234612   5.278   5.508   5.349
11557TIP3   OH234613   5.435   7.812   0.580
11557TIP3    H134614   5.362   7.750   0.582
11557TIP3    H234615   5.467   7.815   0.670
11558TIP3   OH234616   3.491   5.583   4.268
11558TIP3    H134617   3.556   5.591   4.338
11558TIP3    H234618   3.419   5.534   4.307
11559TIP3   OH234619   6.467   1.258   3.739
11559TIP3    H134620   6.467   1.321   3.810
11559TIP3    H234621   6.498   1.307   3.663
11560TIP3   OH234622   1.468   1.120   6.557
11560TIP3    H134623   1.538   1.065   6.591
11560TIP3    H234624   1.512   1.183   6.500
11561TIP3   OH234625   3.581   5.759   4.075
11561TIP3    H134626   3.516   5.705   4.032
11561TIP3    H234627   3.586   5.724   4.164
11562TIP3   OH234628   5.110   5.002   5.146
11562TIP3    H134629   5.096   4.939   5.076
11562TIP3    H234630   5.022   5.029   5.173
11563TIP3   OH234631   5.273   5.208   4.555
11563TIP3    H134632   5.265   5.268   4.629
11563TIP3    H234633   5.218   5.245   4.487
11564TIP3   OH234634   4.018   0.205   1.927
11564TIP3    H134635   3.927   0.232   1.917
11564TIP3    H234636   4.064   0.285   1.955
11565TIP3   OH234637   3.862   5.593   4.245
11565TIP3    H134638   3.795   5.535   4.209
11565TIP3    H234639   3.945   5.556   4.215
11566TIP3   OH234640   6.752   1.049   2.232
11566TIP3    H134641   6.703   1.122   2.195
11566TIP3    H234642   6.686   0.992   2.272
11567TIP3   OH234643   2.062   0.313   1.275
11567TIP3    H134644   1.977   0.278   1.248
11567TIP3    H234645   2.042   0.398   1.313
11568TIP3   OH234646   1.585   2.719   6.159
11568TIP3    H134647   1.546   2.650   6.212
11568TIP3    H234648   1.579   2.687   6.069
11569TIP3   OH234649   4.426   1.029   1.159
11569TIP3    H134650   4.371   1.098   1.195
11569TIP3    H234651   4.489   1.010   1.228
11570TIP3   OH234652   6.569   4.296   5.455
11570TIP3    H134653   6.477   4.317   5.442
11570TIP3    H234654   6.612   4.382   5.463
11571TIP3   OH234655   4.088   3.594   0.011
11571TIP3    H134656   4.006   3.549  -0.011
11571TIP3    H234657   4.122   3.546   0.086
11572TIP3   OH234658   8.205   3.413   1.250
11572TIP3    H134659   8.260   3.434   1.175
11572TIP3    H234660   8.267   3.400   1.322
11573TIP3   OH234661   1.671   7.784   6.071
11573TIP3    H134662   1.596   7.751   6.022
11573TIP3    H234663   1.635   7.855   6.125
11574TIP3   OH234664   3.625   2.738   1.403
11574TIP3    H134665   3.684   2.663   1.408
11574TIP3    H234666   3.538   2.701   1.419
11575TIP3   OH234667   7.331   7.627   0.533
11575TIP3    H134668   7.384   7.571   0.477
11575TIP3    H234669   7.389   7.650   0.607
11576TIP3   OH234670   7.489   6.383   3.642
11576TIP3    H134671   7.495   6.468   3.598
11576TIP3    H234672   7.512   6.319   3.574
11577TIP3   OH234673   3.864   6.985   2.501
11577TIP3    H134674   3.901   6.927   2.435
11577TIP3    H234675   3.932   6.992   2.568
11578TIP3   OH234676   1.283   0.525   1.537
11578TIP3    H134677   1.225   0.507   1.464
11578TIP3    H234678   1.356   0.463   1.526
11579TIP3   OH234679   2.715   0.065   3.333
11579TIP3    H134680   2.663   0.032   3.261
11579TIP3    H234681   2.790   0.107   3.291
11580TIP3   OH234682   4.325   2.705   5.801
11580TIP3    H134683   4.334   2.792   5.840
11580TIP3    H234684   4.238   2.705   5.761
11581TIP3   OH234685   0.717   4.681   3.522
11581TIP3    H134686   0.670   4.675   3.439
11581TIP3    H234687   0.716   4.774   3.543
11582TIP3   OH234688   5.724   6.551   2.033
11582TIP3    H134689   5.717   6.644   2.056
11582TIP3    H234690   5.723   6.506   2.117
11583TIP3   OH234691   5.612   7.349   5.474
11583TIP3    H134692   5.598   7.371   5.382
11583TIP3    H234693   5.698   7.306   5.475
11584TIP3   OH234694   4.769   4.307   5.311
11584TIP3    H134695   4.814   4.383   5.349
11584TIP3    H234696   4.839   4.258   5.266
11585TIP3   OH234697   8.163   1.165   2.211
11585TIP3    H134698   8.115   1.239   2.173
11585TIP3    H234699   8.204   1.201   2.290
11586TIP3   OH234700   5.880   3.197   3.376
11586TIP3    H134701   5.888   3.188   3.281
11586TIP3    H234702   5.969   3.214   3.407
11587TIP3   OH234703   1.929   0.191   3.686
11587TIP3    H134704   1.872   0.123   3.650
11587TIP3    H234705   1.943   0.164   3.777
11588TIP3   OH234706   1.948   3.718   0.990
11588TIP3    H134707   1.985   3.689   0.906
11588TIP3    H234708   1.876   3.657   1.006
11589TIP3   OH234709   1.184   4.116   5.592
11589TIP3    H134710   1.106   4.080   5.634
11589TIP3    H234711   1.202   4.055   5.520
11590TIP3   OH234712   2.869   7.039   6.000
11590TIP3    H134713   2.908   7.024   5.914
11590TIP3    H234714   2.785   7.081   5.982
11591TIP3   OH234715   0.508   2.489   4.390
11591TIP3    H134716   0.512   2.395   4.405
11591TIP3    H234717   0.421   2.504   4.354
11592TIP3   OH234718   2.020   6.572   0.698
11592TIP3    H134719   1.978   6.491   0.725
11592TIP3    H234720   1.967   6.604   0.625
11593TIP3   OH234721   7.272   1.142   0.850
11593TIP3    H134722   7.239   1.076   0.789
11593TIP3    H234723   7.334   1.193   0.798
11594TIP3   OH234724   3.150   2.487   3.407
11594TIP3    H134725   3.089   2.418   3.434
11594TIP3    H234726   3.213   2.492   3.479
11595TIP3   OH234727   3.159   6.022   0.019
11595TIP3    H134728   3.148   6.110   0.055
11595TIP3    H234729   3.126   5.964   0.086
11596TIP3   OH234730   8.163   1.487   4.893
11596TIP3    H134731   8.153   1.444   4.978
11596TIP3    H234732   8.094   1.449   4.838
11597TIP3   OH234733   0.082   2.782   6.289
11597TIP3    H134734   0.172   2.769   6.260
11597TIP3    H234735   0.054   2.696   6.321
11598TIP3   OH234736   2.544   6.589   1.757
11598TIP3    H134737   2.485   6.596   1.832
11598TIP3    H234738   2.563   6.495   1.750
11599TIP3   OH234739   1.476   7.482   2.640
11599TIP3    H134740   1.407   7.416   2.634
11599TIP3    H234741   1.448   7.552   2.581
11600TIP3   OH234742   3.870   7.024   0.523
11600TIP3    H134743   3.964   7.006   0.515
11600TIP3    H234744   3.862   7.076   0.603
11601TIP3   OH234745   2.261   1.634   6.656
11601TIP3    H134746   2.300   1.696   6.718
11601TIP3    H234747   2.175   1.671   6.636
11602TIP3   OH234748   3.653   0.124   3.458
11602TIP3    H134749   3.731   0.158   3.502
11602TIP3    H234750   3.662   0.154   3.367
11603TIP3   OH234751   4.350   0.392   4.204
11603TIP3    H134752   4.388   0.393   4.292
11603TIP3    H234753   4.416   0.348   4.150
11604TIP3   OH234754   5.987   1.586   5.504
11604TIP3    H134755   5.977   1.505   5.554
11604TIP3    H234756   6.044   1.561   5.430
11605TIP3   OH234757   4.201   2.428   2.491
11605TIP3    H134758   4.124   2.385   2.529
11605TIP3    H234759   4.238   2.478   2.563
11606TIP3   OH234760   4.521   6.458   2.529
11606TIP3    H134761   4.569   6.509   2.594
11606TIP3    H234762   4.572   6.378   2.518
11607TIP3   OH234763   3.668   0.495   0.967
11607TIP3    H134764   3.706   0.528   0.885
11607TIP3    H234765   3.654   0.574   1.019
11608TIP3   OH234766   6.200   4.930   1.982
11608TIP3    H134767   6.265   4.955   1.916
11608TIP3    H234768   6.194   4.835   1.975
11609TIP3   OH234769   2.264   7.603   5.436
11609TIP3    H134770   2.264   7.510   5.412
11609TIP3    H234771   2.349   7.635   5.407
11610TIP3   OH234772   5.673   6.081   6.583
11610TIP3    H134773   5.667   5.989   6.609
11610TIP3    H234774   5.601   6.123   6.629
11611TIP3   OH234775   6.094   0.358   2.064
11611TIP3    H134776   6.158   0.293   2.034
11611TIP3    H234777   6.011   0.330   2.027
11612TIP3   OH234778   7.715   3.883   4.499
11612TIP3    H134779   7.706   3.790   4.478
11612TIP3    H234780   7.784   3.887   4.565
11613TIP3   OH234781   5.888   6.646   2.310
11613TIP3    H134782   5.839   6.565   2.300
11613TIP3    H234783   5.830   6.714   2.276
11614TIP3   OH234784   6.972   5.605   2.924
11614TIP3    H134785   6.908   5.599   2.994
11614TIP3    H234786   7.010   5.692   2.933
11615TIP3   OH234787   0.727   3.080   6.509
11615TIP3    H134788   0.656   3.031   6.550
11615TIP3    H234789   0.800   3.018   6.503
11616TIP3   OH234790   2.194   1.546   5.591
11616TIP3    H134791   2.135   1.574   5.661
11616TIP3    H234792   2.144   1.482   5.541
11617TIP3   OH234793   1.866   6.150   6.578
11617TIP3    H134794   1.782   6.116   6.549
11617TIP3    H234795   1.846   6.205   6.653
11618TIP3   OH234796   8.135   0.516   1.191
11618TIP3    H134797   8.095   0.524   1.104
11618TIP3    H234798   8.162   0.605   1.213
11619TIP3   OH234799   2.161   6.494   1.210
11619TIP3    H134800   2.215   6.493   1.289
11619TIP3    H234801   2.157   6.586   1.185
11620TIP3   OH234802   3.219   5.737   6.736
11620TIP3    H134803   3.184   5.740   6.825
11620TIP3    H234804   3.148   5.771   6.681
11621TIP3   OH234805   7.530   2.612   6.302
11621TIP3    H134806   7.470   2.685   6.318
11621TIP3    H234807   7.617   2.646   6.323
11622TIP3   OH234808   0.272   5.268   0.206
11622TIP3    H134809   0.267   5.202   0.136
11622TIP3    H234810   0.350   5.244   0.255
11623TIP3   OH234811   7.716   1.633   5.756
11623TIP3    H134812   7.727   1.613   5.849
11623TIP3    H234813   7.741   1.725   5.749
11624TIP3   OH234814   6.626   3.574   3.151
11624TIP3    H134815   6.716   3.545   3.139
11624TIP3    H234816   6.602   3.612   3.066
11625TIP3   OH234817   7.245   0.685   5.107
11625TIP3    H134818   7.164   0.667   5.059
11625TIP3    H234819   7.298   0.735   5.045
11626TIP3   OH234820   6.859   7.365   5.381
11626TIP3    H134821   6.834   7.390   5.292
11626TIP3    H234822   6.952   7.390   5.388
11627TIP3   OH234823   1.780   1.308   5.364
11627TIP3    H134824   1.759   1.242   5.430
11627TIP3    H234825   1.812   1.258   5.289
11628TIP3   OH234826   8.178   0.097   6.119
11628TIP3    H134827   8.212   0.186   6.117
11628TIP3    H234828   8.092   0.103   6.077
11629TIP3   OH234829   2.357   1.833   2.485
11629TIP3    H134830   2.304   1.850   2.562
11629TIP3    H234831   2.402   1.750   2.504
11630TIP3   OH234832   0.818   6.534   5.531
11630TIP3    H134833   0.821   6.539   5.626
11630TIP3    H234834   0.732   6.497   5.511
11631TIP3   OH234835   3.058   3.755   4.944
11631TIP3    H134836   3.139   3.710   4.922
11631TIP3    H234837   2.989   3.689   4.935
11632TIP3   OH234838   7.048   4.577   3.225
11632TIP3    H134839   7.025   4.537   3.142
11632TIP3    H234840   7.099   4.654   3.201
11633TIP3   OH234841   2.748   3.880   1.042
11633TIP3    H134842   2.728   3.969   1.014
11633TIP3    H234843   2.820   3.853   0.984
11634TIP3   OH234844   4.886   2.455   2.467
11634TIP3    H134845   4.945   2.381   2.454
11634TIP3    H234846   4.941   2.532   2.459
11635TIP3   OH234847   1.711   5.259   2.767
11635TIP3    H134848   1.772   5.265   2.841
11635TIP3    H234849   1.766   5.239   2.692
11636TIP3   OH234850   2.171   0.897   4.869
11636TIP3    H134851   2.193   0.869   4.958
11636TIP3    H234852   2.080   0.869   4.856
11637TIP3   OH234853   0.848   4.971   3.804
11637TIP3    H134854   0.877   5.062   3.813
11637TIP3    H234855   0.845   4.939   3.894
11638TIP3   OH234856   3.126   2.433   0.180
11638TIP3    H134857   3.146   2.509   0.126
11638TIP3    H234858   3.105   2.470   0.266
11639TIP3   OH234859   3.325   7.706   3.226
11639TIP3    H134860   3.405   7.656   3.208
11639TIP3    H234861   3.323   7.773   3.158
11640TIP3   OH234862   1.566   4.365   0.480
11640TIP3    H134863   1.504   4.333   0.545
11640TIP3    H234864   1.608   4.440   0.522
11641TIP3   OH234865   5.693   5.300   2.098
11641TIP3    H134866   5.647   5.355   2.034
11641TIP3    H234867   5.723   5.225   2.047
11642TIP3   OH234868   5.989   0.928   5.764
11642TIP3    H134869   5.939   0.876   5.827
11642TIP3    H234870   5.946   0.912   5.680
11643TIP3   OH234871   0.694   7.341   6.530
11643TIP3    H134872   0.633   7.281   6.574
11643TIP3    H234873   0.775   7.335   6.581
11644TIP3   OH234874   2.094   0.176   2.241
11644TIP3    H134875   1.999   0.164   2.239
11644TIP3    H234876   2.107   0.267   2.216
11645TIP3   OH234877   4.805   5.621   4.372
11645TIP3    H134878   4.750   5.574   4.434
11645TIP3    H234879   4.888   5.573   4.372
11646TIP3   OH234880   6.745   0.245   3.262
11646TIP3    H134881   6.823   0.301   3.268
11646TIP3    H234882   6.686   0.292   3.204
11647TIP3   OH234883   1.564   4.961   0.390
11647TIP3    H134884   1.485   4.907   0.388
11647TIP3    H234885   1.633   4.901   0.419
11648TIP3   OH234886   4.049   2.842   3.146
11648TIP3    H134887   4.083   2.871   3.062
11648TIP3    H234888   3.985   2.909   3.171
11649TIP3   OH234889   1.727   3.902   6.658
11649TIP3    H134890   1.635   3.896   6.632
11649TIP3    H234891   1.776   3.901   6.576
11650TIP3   OH234892   0.083   7.268   4.236
11650TIP3    H134893   0.089   7.287   4.143
11650TIP3    H234894   0.053   7.177   4.240
11651TIP3   OH234895   2.639   2.506   2.811
11651TIP3    H134896   2.623   2.506   2.717
11651TIP3    H234897   2.665   2.416   2.832
11652TIP3   OH234898   0.252   4.500   3.709
11652TIP3    H134899   0.317   4.562   3.741
11652TIP3    H234900   0.182   4.555   3.673
11653TIP3   OH234901   3.150   4.361   1.884
11653TIP3    H134902   3.150   4.454   1.905
11653TIP3    H234903   3.079   4.350   1.821
11654TIP3   OH234904   4.626   7.315   4.917
11654TIP3    H134905   4.664   7.398   4.945
11654TIP3    H234906   4.701   7.264   4.885
11655TIP3   OH234907   4.956   0.144   3.876
11655TIP3    H134908   4.862   0.151   3.857
11655TIP3    H234909   4.973   0.050   3.877
11656TIP3   OH234910   0.130   5.141   0.554
11656TIP3    H134911   0.191   5.211   0.577
11656TIP3    H234912   0.174   5.060   0.581
11657TIP3   OH234913   2.942   6.622   4.657
11657TIP3    H134914   3.010   6.690   4.659
11657TIP3    H234915   2.867   6.666   4.618
11658TIP3   OH234916   3.436   7.435   2.680
11658TIP3    H134917   3.496   7.395   2.743
11658TIP3    H234918   3.353   7.387   2.692
11659TIP3   OH234919   0.069   0.659   1.321
11659TIP3    H134920   0.124   0.590   1.284
11659TIP3    H234921   0.117   0.740   1.304
11660TIP3   OH234922   0.106   4.226   4.548
11660TIP3    H134923   0.063   4.184   4.623
11660TIP3    H234924   0.141   4.308   4.583
11661TIP3   OH234925   4.545   1.384   2.037
11661TIP3    H134926   4.476   1.331   1.996
11661TIP3    H234927   4.509   1.408   2.122
11662TIP3   OH234928   6.009   6.005   6.340
11662TIP3    H134929   6.039   6.085   6.384
11662TIP3    H234930   6.079   5.984   6.279
11663TIP3   OH234931   1.519   2.444   2.355
11663TIP3    H134932   1.432   2.410   2.337
11663TIP3    H234933   1.552   2.391   2.427
11664TIP3   OH234934   6.501   7.782   5.553
11664TIP3    H134935   6.506   7.807   5.645
11664TIP3    H234936   6.441   7.707   5.552
11665TIP3   OH234937   0.237   5.474   1.109
11665TIP3    H134938   0.254   5.556   1.062
11665TIP3    H234939   0.155   5.442   1.073
11666TIP3   OH234940   7.843   6.417   1.065
11666TIP3    H134941   7.881   6.501   1.037
11666TIP3    H234942   7.831   6.369   0.983
11667TIP3   OH234943   5.500   3.261   4.988
11667TIP3    H134944   5.412   3.230   4.970
11667TIP3    H234945   5.488   3.348   5.026
11668TIP3   OH234946   2.704   7.365   5.444
11668TIP3    H134947   2.671   7.371   5.354
11668TIP3    H234948   2.751   7.447   5.458
11669TIP3   OH234949   1.903   0.308   4.769
11669TIP3    H134950   1.809   0.292   4.777
11669TIP3    H234951   1.940   0.223   4.746
11670TIP3   OH234952   1.737   4.272   1.046
11670TIP3    H134953   1.795   4.246   1.117
11670TIP3    H234954   1.783   4.345   1.003
11671TIP3   OH234955   2.563   5.988   2.374
11671TIP3    H134956   2.594   6.019   2.459
11671TIP3    H234957   2.517   6.063   2.336
11672TIP3   OH234958   1.750   3.521   3.954
11672TIP3    H134959   1.724   3.430   3.971
11672TIP3    H234960   1.754   3.527   3.858
11673TIP3   OH234961   1.136   6.280   0.791
11673TIP3    H134962   1.202   6.298   0.723
11673TIP3    H234963   1.111   6.189   0.776
11674TIP3   OH234964   2.355   2.226   4.756
11674TIP3    H134965   2.448   2.246   4.754
11674TIP3    H234966   2.312   2.304   4.720
11675TIP3   OH234967   0.383   6.978   1.097
11675TIP3    H134968   0.449   6.912   1.075
11675TIP3    H234969   0.401   7.000   1.188
11676TIP3   OH234970   0.534   1.542   6.221
11676TIP3    H134971   0.543   1.533   6.126
11676TIP3    H234972   0.622   1.566   6.250
11677TIP3   OH234973   3.199   4.328   2.659
11677TIP3    H134974   3.227   4.324   2.568
11677TIP3    H234975   3.131   4.396   2.660
11678TIP3   OH234976   1.278   0.826   0.401
11678TIP3    H134977   1.238   0.874   0.329
11678TIP3    H234978   1.220   0.843   0.476
11679TIP3   OH234979   4.570   5.294   5.861
11679TIP3    H134980   4.563   5.389   5.858
11679TIP3    H234981   4.587   5.268   5.771
11680TIP3   OH234982   2.036   4.343   5.631
11680TIP3    H134983   1.966   4.332   5.695
11680TIP3    H234984   2.109   4.380   5.680
11681TIP3   OH234985   3.252   6.537   1.936
11681TIP3    H134986   3.184   6.593   1.974
11681TIP3    H234987   3.243   6.454   1.982
11682TIP3   OH234988   0.885   0.251   6.518
11682TIP3    H134989   0.878   0.177   6.579
11682TIP3    H234990   0.966   0.234   6.470
11683TIP3   OH234991   6.849   5.735   4.635
11683TIP3    H134992   6.837   5.644   4.607
11683TIP3    H234993   6.918   5.769   4.577
11684TIP3   OH234994   4.476   7.335   0.636
11684TIP3    H134995   4.458   7.263   0.575
11684TIP3    H234996   4.409   7.325   0.704
11685TIP3   OH234997   5.923   6.201   0.041
11685TIP3    H134998   5.971   6.156   0.111
11685TIP3    H234999   5.991   6.240  -0.013
11686TIP3   OH235000   7.540   3.582   1.060
11686TIP3    H135001   7.518   3.674   1.042
11686TIP3    H235002   7.465   3.548   1.108
11687TIP3   OH235003   1.102   5.029   3.439
11687TIP3    H135004   1.012   4.998   3.432
11687TIP3    H235005   1.138   5.021   3.351
11688TIP3   OH235006   4.726   4.976   0.699
11688TIP3    H135007   4.703   4.950   0.610
11688TIP3    H235008   4.647   4.957   0.750
11689TIP3   OH235009   0.065   4.454   2.612
11689TIP3    H135010  -0.010   4.394   2.609
11689TIP3    H235011   0.049   4.516   2.540
11690TIP3   OH235012   3.756   6.953   4.536
11690TIP3    H135013   3.801   6.872   4.558
11690TIP3    H235014   3.692   6.928   4.469
11691TIP3   OH235015   5.112   2.010   3.141
11691TIP3    H135016   5.117   1.965   3.057
11691TIP3    H235017   5.036   1.971   3.184
11692TIP3   OH235018   1.952   4.595   2.433
11692TIP3    H135019   2.034   4.642   2.420
11692TIP3    H235020   1.888   4.664   2.454
11693TIP3   OH235021   4.527   2.146   1.222
11693TIP3    H135022   4.623   2.139   1.228
11693TIP3    H235023   4.496   2.122   1.309
11694TIP3   OH235024   0.405   4.780   0.850
11694TIP3    H135025   0.440   4.725   0.919
11694TIP3    H235026   0.360   4.850   0.896
11695TIP3   OH235027   5.406   7.224   3.191
11695TIP3    H135028   5.485   7.179   3.161
11695TIP3    H235029   5.388   7.289   3.123
11696TIP3   OH235030   3.143   6.886   3.103
11696TIP3    H135031   3.091   6.885   3.183
11696TIP3    H235032   3.183   6.800   3.099
11697TIP3   OH235033   0.791   5.804   1.187
11697TIP3    H135034   0.750   5.792   1.101
11697TIP3    H235035   0.825   5.893   1.185
11698TIP3   OH235036   0.649   5.517   2.896
11698TIP3    H135037   0.606   5.578   2.837
11698TIP3    H235038   0.701   5.572   2.954
11699TIP3   OH235039   1.465   7.173   2.887
11699TIP3    H135040   1.447   7.226   2.964
11699TIP3    H235041   1.437   7.084   2.912
11700TIP3   OH235042   4.446   2.800   1.938
11700TIP3    H135043   4.503   2.758   2.002
11700TIP3    H235044   4.405   2.728   1.890
11701TIP3   OH235045   4.072   3.838   3.435
11701TIP3    H135046   4.161   3.804   3.429
11701TIP3    H235047   4.045   3.817   3.525
11702TIP3   OH235048   0.923   3.904   2.658
11702TIP3    H135049   0.962   3.902   2.570
11702TIP3    H235050   0.965   3.832   2.704
11703TIP3   OH235051   1.574   0.219   4.323
11703TIP3    H135052   1.511   0.159   4.362
11703TIP3    H235053   1.547   0.305   4.355
11704TIP3   OH235054   5.663   4.083   4.002
11704TIP3    H135055   5.580   4.037   4.018
11704TIP3    H235056   5.717   4.018   3.957
11705TIP3   OH235057   6.667   6.575   0.592
11705TIP3    H135058   6.705   6.487   0.592
11705TIP3    H235059   6.607   6.575   0.517
11706TIP3   OH235060   2.857   3.012   3.016
11706TIP3    H135061   2.857   3.093   3.067
11706TIP3    H235062   2.853   2.942   3.081
11707TIP3   OH235063   7.277   5.977   5.307
11707TIP3    H135064   7.244   5.912   5.245
11707TIP3    H235065   7.282   5.931   5.390
11708TIP3   OH235066   3.801   7.729   5.032
11708TIP3    H135067   3.889   7.691   5.036
11708TIP3    H235068   3.797   7.790   5.105
11709TIP3   OH235069   1.666   1.031   0.312
11709TIP3    H135070   1.733   1.071   0.368
11709TIP3    H235071   1.643   1.099   0.249
11710TIP3   OH235072   2.030   0.721   5.531
11710TIP3    H135073   2.092   0.747   5.462
11710TIP3    H235074   2.086   0.685   5.601
11711TIP3   OH235075   2.165   3.556   6.045
11711TIP3    H135076   2.077   3.523   6.024
11711TIP3    H235077   2.178   3.628   5.983
11712TIP3   OH235078   6.392   1.437   5.134
11712TIP3    H135079   6.433   1.522   5.120
11712TIP3    H235080   6.373   1.405   5.046
11713TIP3   OH235081   0.726   1.371   0.645
11713TIP3    H135082   0.777   1.407   0.717
11713TIP3    H235083   0.635   1.382   0.671
11714TIP3   OH235084   4.229   3.175   5.092
11714TIP3    H135085   4.236   3.121   5.170
11714TIP3    H235086   4.256   3.118   5.020
11715TIP3   OH235087   3.667   4.708   2.771
11715TIP3    H135088   3.646   4.727   2.680
11715TIP3    H235089   3.729   4.776   2.796
11716TIP3   OH235090   1.955   3.209   4.928
11716TIP3    H135091   2.014   3.247   4.993
11716TIP3    H235092   1.936   3.280   4.867
11717TIP3   OH235093   0.713   7.214   2.671
11717TIP3    H135094   0.746   7.215   2.761
11717TIP3    H235095   0.787   7.182   2.619
11718TIP3   OH235096   7.551   0.726   6.393
11718TIP3    H135097   7.602   0.659   6.438
11718TIP3    H235098   7.471   0.680   6.367
11719TIP3   OH235099   2.038   0.806   3.495
11719TIP3    H135100   2.059   0.899   3.484
11719TIP3    H235101   1.951   0.797   3.456
11720TIP3   OH235102   6.873   6.705   5.118
11720TIP3    H135103   6.887   6.703   5.213
11720TIP3    H235104   6.781   6.683   5.107
11721TIP3   OH235105   8.054   5.894   2.106
11721TIP3    H135106   8.025   5.814   2.063
11721TIP3    H235107   8.089   5.866   2.190
11722TIP3   OH235108   5.109   5.552   6.014
11722TIP3    H135109   5.201   5.579   6.013
11722TIP3    H235110   5.112   5.457   6.024
11723TIP3   OH235111   2.632   1.387   0.163
11723TIP3    H135112   2.666   1.474   0.181
11723TIP3    H235113   2.634   1.380   0.067
11724TIP3   OH235114   5.244   6.534   3.065
11724TIP3    H135115   5.162   6.488   3.048
11724TIP3    H235116   5.217   6.620   3.098
11725TIP3   OH235117   1.079   5.313   3.475
11725TIP3    H135118   1.132   5.237   3.449
11725TIP3    H235119   1.142   5.385   3.480
11726TIP3   OH235120   3.930   3.298   6.363
11726TIP3    H135121   3.875   3.373   6.341
11726TIP3    H235122   3.977   3.325   6.442
11727TIP3   OH235123   7.649   3.825   5.754
11727TIP3    H135124   7.691   3.814   5.840
11727TIP3    H235125   7.558   3.846   5.774
11728TIP3   OH235126   2.400   6.705   1.340
11728TIP3    H135127   2.487   6.681   1.307
11728TIP3    H235128   2.376   6.635   1.400
11729TIP3   OH235129   8.129   2.232   2.024
11729TIP3    H135130   8.058   2.170   2.007
11729TIP3    H235131   8.092   2.318   2.004
11730TIP3   OH235132   8.309   1.545   6.223
11730TIP3    H135133   8.284   1.456   6.199
11730TIP3    H235134   8.235   1.577   6.275
11731TIP3   OH235135   0.959   0.417   1.024
11731TIP3    H135136   0.872   0.376   1.017
11731TIP3    H235137   0.964   0.474   0.948
11732TIP3   OH235138   6.905   5.780   0.270
11732TIP3    H135139   6.854   5.745   0.197
11732TIP3    H235140   6.922   5.705   0.326
11733TIP3   OH235141   2.052   1.729   2.942
11733TIP3    H135142   1.980   1.726   2.880
11733TIP3    H235143   2.045   1.648   2.992
11734TIP3   OH235144   2.595   0.645   1.088
11734TIP3    H135145   2.631   0.692   1.163
11734TIP3    H235146   2.517   0.694   1.064
11735TIP3   OH235147   8.176   2.942   3.053
11735TIP3    H135148   8.126   2.900   3.123
11735TIP3    H235149   8.207   2.869   2.998
11736TIP3   OH235150   6.186   3.288   2.947
11736TIP3    H135151   6.237   3.317   2.872
11736TIP3    H235152   6.218   3.199   2.965
11737TIP3   OH235153   1.097   2.775   5.804
11737TIP3    H135154   1.053   2.850   5.763
11737TIP3    H235155   1.174   2.813   5.847
11738TIP3   OH235156   4.792   7.467   5.060
11738TIP3    H135157   4.808   7.555   5.027
11738TIP3    H235158   4.772   7.479   5.153
11739TIP3   OH235159   3.020   0.167   1.536
11739TIP3    H135160   3.055   0.120   1.460
11739TIP3    H235161   2.952   0.224   1.499
11740TIP3   OH235162   7.946   6.336   3.525
11740TIP3    H135163   7.864   6.295   3.553
11740TIP3    H235164   7.951   6.416   3.577
11741TIP3   OH235165   6.794   2.557   4.579
11741TIP3    H135166   6.818   2.622   4.645
11741TIP3    H235167   6.839   2.477   4.606
11742TIP3   OH235168   6.140   0.870   6.665
11742TIP3    H135169   6.092   0.788   6.673
11742TIP3    H235170   6.107   0.911   6.586
11743TIP3   OH235171   0.811   4.613   4.566
11743TIP3    H135172   0.738   4.554   4.586
11743TIP3    H235173   0.791   4.692   4.615
11744TIP3   OH235174   1.428   6.274   4.667
11744TIP3    H135175   1.357   6.216   4.695
11744TIP3    H235176   1.398   6.311   4.584
11745TIP3   OH235177   3.047   0.507   5.124
11745TIP3    H135178   3.008   0.491   5.210
11745TIP3    H235179   3.116   0.441   5.115
11746TIP3   OH235180   7.109   5.064   4.448
11746TIP3    H135181   7.157   5.017   4.517
11746TIP3    H235182   7.174   5.077   4.379
11747TIP3   OH235183   1.781   6.673   0.544
11747TIP3    H135184   1.831   6.738   0.495
11747TIP3    H235185   1.697   6.668   0.499
11748TIP3   OH235186   6.545   3.451   5.637
11748TIP3    H135187   6.625   3.502   5.647
11748TIP3    H235188   6.499   3.462   5.720
11749TIP3   OH235189   3.213   6.060   5.598
11749TIP3    H135190   3.297   6.103   5.584
11749TIP3    H235191   3.189   6.024   5.512
11750TIP3   OH235192   7.049   3.328   3.963
11750TIP3    H135193   7.112   3.297   3.898
11750TIP3    H235194   6.965   3.291   3.936
11751TIP3   OH235195   1.459   1.797   1.533
11751TIP3    H135196   1.414   1.880   1.517
11751TIP3    H235197   1.401   1.730   1.498
11752TIP3   OH235198   0.207   7.633   0.105
11752TIP3    H135199   0.288   7.683   0.098
11752TIP3    H235200   0.229   7.546   0.070
11753TIP3   OH235201   2.298   5.644   4.369
11753TIP3    H135202   2.296   5.559   4.415
11753TIP3    H235203   2.361   5.631   4.298
11754TIP3   OH235204   3.805   6.050   2.228
11754TIP3    H135205   3.717   6.031   2.261
11754TIP3    H235206   3.834   6.126   2.278
11755TIP3   OH235207   1.871   7.102   5.057
11755TIP3    H135208   1.908   7.036   4.999
11755TIP3    H235209   1.776   7.086   5.054
11756TIP3   OH235210   0.558   5.997   4.577
11756TIP3    H135211   0.642   6.027   4.542
11756TIP3    H235212   0.507   5.972   4.501
11757TIP3   OH235213   7.404   6.178   3.097
11757TIP3    H135214   7.371   6.234   3.167
11757TIP3    H235215   7.489   6.214   3.074
11758TIP3   OH235216   8.135   0.166   1.510
11758TIP3    H135217   8.053   0.129   1.543
11758TIP3    H235218   8.107   0.232   1.446
11759TIP3   OH235219   5.337   6.800   2.890
11759TIP3    H135220   5.379   6.771   2.971
11759TIP3    H235221   5.368   6.738   2.823
11760TIP3   OH235222   1.192   4.636   6.736
11760TIP3    H135223   1.097   4.628   6.740
11760TIP3    H235224   1.225   4.565   6.791
11761TIP3   OH235225   4.290   3.542   0.519
11761TIP3    H135226   4.219   3.578   0.573
11761TIP3    H235227   4.370   3.566   0.566
11762TIP3   OH235228   5.452   4.466   0.846
11762TIP3    H135229   5.489   4.407   0.912
11762TIP3    H235230   5.479   4.554   0.875
11763TIP3   OH235231   1.167   5.266   2.726
11763TIP3    H135232   1.149   5.253   2.633
11763TIP3    H235233   1.259   5.292   2.730
11764TIP3   OH235234   6.640   6.416   1.522
11764TIP3    H135235   6.682   6.492   1.560
11764TIP3    H235236   6.561   6.450   1.479
11765TIP3   OH235237   6.596   1.231   2.984
11765TIP3    H135238   6.531   1.203   2.919
11765TIP3    H235239   6.622   1.150   3.028
11766TIP3   OH235240   3.604   5.653   6.073
11766TIP3    H135241   3.579   5.566   6.102
11766TIP3    H235242   3.651   5.691   6.147
11767TIP3   OH235243   6.984   6.116   3.089
11767TIP3    H135244   6.982   6.131   3.183
11767TIP3    H235245   6.922   6.180   3.053
11768TIP3   OH235246   3.739   4.785   4.528
11768TIP3    H135247   3.805   4.853   4.538
11768TIP3    H235248   3.684   4.815   4.456
11769TIP3   OH235249   1.322   7.299   3.057
11769TIP3    H135250   1.310   7.387   3.093
11769TIP3    H235251   1.255   7.291   2.989
11770TIP3   OH235252   2.588   4.060   6.097
11770TIP3    H135253   2.582   3.976   6.142
11770TIP3    H235254   2.638   4.041   6.017
11771TIP3   OH235255   8.243   3.334   3.627
11771TIP3    H135256   8.233   3.353   3.534
11771TIP3    H235257   8.280   3.246   3.630
11772TIP3   OH235258   2.354   3.266   6.254
11772TIP3    H135259   2.324   3.346   6.297
11772TIP3    H235260   2.276   3.231   6.211
11773TIP3   OH235261   5.945   5.028   5.051
11773TIP3    H135262   6.029   5.022   5.005
11773TIP3    H235263   5.880   5.015   4.983
11774TIP3   OH235264   0.017   0.039   5.778
11774TIP3    H135265   0.010   0.116   5.835
11774TIP3    H235266   0.054   0.073   5.696
11775TIP3   OH235267   3.772   3.427   4.918
11775TIP3    H135268   3.787   3.336   4.944
11775TIP3    H235269   3.778   3.427   4.823
11776TIP3   OH235270   8.104   2.991   4.934
11776TIP3    H135271   8.145   3.021   5.016
11776TIP3    H235272   8.046   2.920   4.961
11777TIP3   OH235273   2.220   0.507   2.914
11777TIP3    H135274   2.214   0.534   3.005
11777TIP3    H235275   2.169   0.427   2.909
11778TIP3   OH235276   5.789   2.866   5.312
11778TIP3    H135277   5.805   2.839   5.403
11778TIP3    H235278   5.759   2.956   5.320
11779TIP3   OH235279   4.809   5.850   0.762
11779TIP3    H135280   4.840   5.829   0.674
11779TIP3    H235281   4.823   5.769   0.812
11780TIP3   OH235282   3.780   2.133   1.310
11780TIP3    H135283   3.798   2.039   1.322
11780TIP3    H235284   3.713   2.136   1.242
11781TIP3   OH235285   8.116   5.716   5.720
11781TIP3    H135286   8.102   5.659   5.644
11781TIP3    H235287   8.212   5.720   5.729
11782TIP3   OH235288   5.549   4.839   3.601
11782TIP3    H135289   5.564   4.894   3.678
11782TIP3    H235290   5.479   4.779   3.627
11783TIP3   OH235291   7.779   5.970   0.237
11783TIP3    H135292   7.712   5.927   0.184
11783TIP3    H235293   7.732   6.041   0.281
11784TIP3   OH235294   1.355   3.408   2.463
11784TIP3    H135295   1.381   3.446   2.379
11784TIP3    H235296   1.305   3.477   2.506
11785TIP3   OH235297   8.202   6.244   0.674
11785TIP3    H135298   8.122   6.297   0.666
11785TIP3    H235299   8.266   6.289   0.619
11786TIP3   OH235300   7.494   7.422   4.518
11786TIP3    H135301   7.434   7.474   4.464
11786TIP3    H235302   7.581   7.445   4.486
11787TIP3   OH235303   8.317   5.478   2.202
11787TIP3    H135304   8.325   5.559   2.151
11787TIP3    H235305   8.228   5.447   2.186
11788TIP3   OH235306   7.044   5.727   2.207
11788TIP3    H135307   7.112   5.691   2.264
11788TIP3    H235308   6.962   5.707   2.252
11789TIP3   OH235309   0.098   5.296   5.650
11789TIP3    H135310   0.087   5.279   5.744
11789TIP3    H235311   0.150   5.222   5.618
11790TIP3   OH235312   8.249   4.396   0.996
11790TIP3    H135313   8.247   4.357   0.909
11790TIP3    H235314   8.333   4.440   1.001
11791TIP3   OH235315   8.253   4.473   0.560
11791TIP3    H135316   8.299   4.389   0.566
11791TIP3    H235317   8.306   4.525   0.499
11792TIP3   OH235318   4.577   3.817   4.011
11792TIP3    H135319   4.628   3.753   3.961
11792TIP3    H235320   4.611   3.811   4.100
11793TIP3   OH235321   4.588   0.728   5.559
11793TIP3    H135322   4.496   0.744   5.580
11793TIP3    H235323   4.635   0.802   5.597
11794TIP3   OH235324   4.606   0.960   2.644
11794TIP3    H135325   4.648   0.918   2.570
11794TIP3    H235326   4.533   0.901   2.666
11795TIP3   OH235327   7.431   5.041   0.147
11795TIP3    H135328   7.372   5.109   0.179
11795TIP3    H235329   7.518   5.071   0.174
11796TIP3   OH235330   4.285   1.129   6.233
11796TIP3    H135331   4.361   1.126   6.291
11796TIP3    H235332   4.269   1.222   6.218
11797TIP3   OH235333   0.755  -0.001   2.871
11797TIP3    H135334   0.673   0.005   2.920
11797TIP3    H235335   0.795   0.085   2.880
11798TIP3   OH235336   1.088   5.242   4.917
11798TIP3    H135337   1.163   5.300   4.921
11798TIP3    H235338   1.016   5.298   4.888
11799TIP3   OH235339   7.661   4.941   5.559
11799TIP3    H135340   7.703   4.861   5.526
11799TIP3    H235341   7.731   4.989   5.603
11800TIP3   OH235342   0.213   4.468   4.164
11800TIP3    H135343   0.216   4.383   4.120
11800TIP3    H235344   0.210   4.532   4.093
11801TIP3   OH235345   4.116   4.060   4.344
11801TIP3    H135346   4.179   4.024   4.282
11801TIP3    H235347   4.129   4.155   4.340
11802TIP3   OH235348   6.465   0.430   1.811
11802TIP3    H135349   6.415   0.361   1.768
11802TIP3    H235350   6.415   0.450   1.891
11803TIP3   OH235351   5.439   2.898   4.894
11803TIP3    H135352   5.363   2.924   4.946
11803TIP3    H235353   5.447   2.804   4.910
11804TIP3   OH235354   2.991   1.193   2.656
11804TIP3    H135355   3.075   1.240   2.656
11804TIP3    H235356   3.004   1.122   2.593
11805TIP3   OH235357   5.963   3.860   2.111
11805TIP3    H135358   5.926   3.774   2.094
11805TIP3    H235359   5.891   3.921   2.098
11806TIP3   OH235360   8.198   4.803   0.539
11806TIP3    H135361   8.286   4.766   0.528
11806TIP3    H235362   8.172   4.776   0.628
11807TIP3   OH235363   6.628   0.782   5.169
11807TIP3    H135364   6.563   0.721   5.134
11807TIP3    H235365   6.580   0.865   5.179
11808TIP3   OH235366   3.768   1.237   6.073
11808TIP3    H135367   3.803   1.204   6.156
11808TIP3    H235368   3.717   1.314   6.097
11809TIP3   OH235369   3.692   1.450   0.741
11809TIP3    H135370   3.785   1.454   0.718
11809TIP3    H235371   3.647   1.464   0.658
11810TIP3   OH235372   3.574   5.936   5.028
11810TIP3    H135373   3.581   6.029   5.051
11810TIP3    H235374   3.480   5.921   5.018
11811TIP3   OH235375   7.720   5.456   4.087
11811TIP3    H135376   7.774   5.475   4.010
11811TIP3    H235377   7.783   5.443   4.158
11812TIP3   OH235378   6.439   1.139   2.727
11812TIP3    H135379   6.417   1.049   2.702
11812TIP3    H235380   6.498   1.169   2.658
11813TIP3   OH235381   4.908   3.602   2.911
11813TIP3    H135382   4.945   3.581   2.825
11813TIP3    H235383   4.851   3.527   2.931
11814TIP3   OH235384   2.399   6.643   2.000
11814TIP3    H135385   2.454   6.569   2.026
11814TIP3    H235386   2.400   6.702   2.075
11815TIP3   OH235387   1.895   4.572   2.156
11815TIP3    H135388   1.919   4.555   2.247
11815TIP3    H235389   1.947   4.648   2.130
11816TIP3   OH235390   5.483   3.833   3.809
11816TIP3    H135391   5.578   3.822   3.812
11816TIP3    H235392   5.452   3.757   3.759
11817TIP3   OH235393   3.272   2.878   4.032
11817TIP3    H135394   3.357   2.914   4.058
11817TIP3    H235395   3.249   2.927   3.953
11818TIP3   OH235396   0.931   0.955   2.765
11818TIP3    H135397   0.859   1.016   2.748
11818TIP3    H235398   0.888   0.871   2.778
11819TIP3   OH235399   5.303   5.319   5.752
11819TIP3    H135400   5.322   5.403   5.709
11819TIP3    H235401   5.368   5.258   5.715
11820TIP3   OH235402   7.657   7.799   2.891
11820TIP3    H135403   7.596   7.777   2.820
11820TIP3    H235404   7.616   7.763   2.969
11821TIP3   OH235405   6.370   3.077   5.260
11821TIP3    H135406   6.406   3.155   5.218
11821TIP3    H235407   6.357   3.014   5.189
11822TIP3   OH235408   0.564   0.548   5.997
11822TIP3    H135409   0.658   0.542   6.013
11822TIP3    H235410   0.551   0.506   5.912
11823TIP3   OH235411   6.671   1.258   3.312
11823TIP3    H135412   6.585   1.225   3.289
11823TIP3    H235413   6.732   1.193   3.276
11824TIP3   OH235414   3.878   6.538   4.263
11824TIP3    H135415   3.925   6.459   4.290
11824TIP3    H235416   3.804   6.506   4.211
11825TIP3   OH235417   7.697   4.892   3.532
11825TIP3    H135418   7.674   4.799   3.535
11825TIP3    H235419   7.675   4.919   3.442
11826TIP3   OH235420   5.827   0.363   1.939
11826TIP3    H135421   5.748   0.310   1.953
11826TIP3    H235422   5.796   0.453   1.945
11827TIP3   OH235423   6.748   1.750   5.756
11827TIP3    H135424   6.797   1.806   5.696
11827TIP3    H235425   6.799   1.750   5.837
11828TIP3   OH235426   2.758   7.535   5.779
11828TIP3    H135427   2.682   7.554   5.724
11828TIP3    H235428   2.724   7.483   5.851
11829TIP3   OH235429   2.539   6.758   6.151
11829TIP3    H135430   2.486   6.836   6.134
11829TIP3    H235431   2.476   6.686   6.152
11830TIP3   OH235432   5.605   4.718   0.590
11830TIP3    H135433   5.675   4.774   0.624
11830TIP3    H235434   5.550   4.778   0.539
11831TIP3   OH235435   6.167   5.224   4.877
11831TIP3    H135436   6.139   5.255   4.791
11831TIP3    H235437   6.217   5.144   4.859
11832TIP3   OH235438   1.969   2.120   5.950
11832TIP3    H135439   1.980   2.213   5.929
11832TIP3    H235440   2.027   2.105   6.025
11833TIP3   OH235441   4.178   3.838   6.642
11833TIP3    H135442   4.099   3.892   6.636
11833TIP3    H235443   4.182   3.812   6.734
11834TIP3   OH235444   3.371   1.588   3.308
11834TIP3    H135445   3.393   1.665   3.256
11834TIP3    H235446   3.280   1.602   3.336
11835TIP3   OH235447   2.143   2.188   3.017
11835TIP3    H135448   2.054   2.205   2.988
11835TIP3    H235449   2.135   2.114   3.077
11836TIP3   OH235450   0.853   6.494   1.894
11836TIP3    H135451   0.776   6.475   1.841
11836TIP3    H235452   0.827   6.471   1.983
11837TIP3   OH235453   0.156   1.798   2.346
11837TIP3    H135454   0.218   1.872   2.344
11837TIP3    H235455   0.086   1.827   2.404
11838TIP3   OH235456   5.292   6.764   0.766
11838TIP3    H135457   5.205   6.723   0.764
11838TIP3    H235458   5.349   6.696   0.801
11839TIP3   OH235459   0.435   0.359   5.292
11839TIP3    H135460   0.453   0.446   5.256
11839TIP3    H235461   0.516   0.310   5.278
11840TIP3   OH235462   3.320   0.426   4.566
11840TIP3    H135463   3.238   0.391   4.602
11840TIP3    H235464   3.386   0.362   4.590
11841TIP3   OH235465   7.198   6.858   6.724
11841TIP3    H135466   7.198   6.929   6.789
11841TIP3    H235467   7.130   6.798   6.755
11842TIP3   OH235468   6.997   2.697   3.063
11842TIP3    H135469   7.088   2.715   3.088
11842TIP3    H235470   7.000   2.608   3.028
11843TIP3   OH235471   7.456   3.605   5.541
11843TIP3    H135472   7.401   3.568   5.611
11843TIP3    H235473   7.433   3.698   5.540
11844TIP3   OH235474   3.099   1.059   5.171
11844TIP3    H135475   3.173   1.054   5.232
11844TIP3    H235476   3.132   1.109   5.097
11845TIP3   OH235477   5.623   7.033   4.725
11845TIP3    H135478   5.573   7.028   4.644
11845TIP3    H235479   5.582   6.969   4.783
11846TIP3   OH235480   0.465   6.827   0.796
11846TIP3    H135481   0.461   6.922   0.792
11846TIP3    H235482   0.552   6.805   0.763
11847TIP3   OH235483   1.279   0.286   2.570
11847TIP3    H135484   1.327   0.205   2.583
11847TIP3    H235485   1.342   0.346   2.531
11848TIP3   OH235486   6.342   4.578   2.770
11848TIP3    H135487   6.246   4.576   2.766
11848TIP3    H235488   6.362   4.662   2.811
11849TIP3   OH235489   6.325   4.761   2.221
11849TIP3    H135490   6.289   4.673   2.218
11849TIP3    H235491   6.379   4.767   2.142
11850TIP3   OH235492   0.054   2.151   3.702
11850TIP3    H135493   0.098   2.215   3.646
11850TIP3    H235494  -0.027   2.196   3.730
11851TIP3   OH235495   6.356   0.705   1.306
11851TIP3    H135496   6.325   0.688   1.217
11851TIP3    H235497   6.295   0.656   1.362
11852TIP3   OH235498   2.504   0.946   4.773
11852TIP3    H135499   2.591   0.950   4.813
11852TIP3    H235500   2.446   0.986   4.837
11853TIP3   OH235501   1.306   2.683   4.550
11853TIP3    H135502   1.276   2.770   4.524
11853TIP3    H235503   1.396   2.697   4.581
11854TIP3   OH235504   7.262   2.962   3.667
11854TIP3    H135505   7.226   2.996   3.585
11854TIP3    H235506   7.187   2.953   3.725
11855TIP3   OH235507   5.893   5.669   0.852
11855TIP3    H135508   5.890   5.648   0.758
11855TIP3    H235509   5.964   5.613   0.886
11856TIP3   OH235510   5.547   5.271   0.102
11856TIP3    H135511   5.594   5.199   0.145
11856TIP3    H235512   5.611   5.342   0.099
11857TIP3   OH235513   2.811   2.176   5.686
11857TIP3    H135514   2.867   2.193   5.762
11857TIP3    H235515   2.813   2.258   5.636
11858TIP3   OH235516   2.009   3.904   2.798
11858TIP3    H135517   1.961   3.835   2.844
11858TIP3    H235518   2.050   3.859   2.724
11859TIP3   OH235519   2.839   2.007   0.619
11859TIP3    H135520   2.906   2.020   0.552
11859TIP3    H235521   2.813   1.915   0.609
11860TIP3   OH235522   4.824   1.155   0.400
11860TIP3    H135523   4.767   1.232   0.397
11860TIP3    H235524   4.775   1.091   0.451
11861TIP3   OH235525   2.077   7.240   2.166
11861TIP3    H135526   2.167   7.238   2.200
11861TIP3    H235527   2.032   7.303   2.223
11862TIP3   OH235528   4.493   6.103   2.703
11862TIP3    H135529   4.455   6.147   2.628
11862TIP3    H235530   4.457   6.015   2.702
11863TIP3   OH235531   6.646   6.874   5.919
11863TIP3    H135532   6.656   6.937   5.848
11863TIP3    H235533   6.683   6.918   5.995
11864TIP3   OH235534   2.244   6.777   4.871
11864TIP3    H135535   2.297   6.772   4.792
11864TIP3    H235536   2.291   6.722   4.935
11865TIP3   OH235537   7.738   6.285   1.530
11865TIP3    H135538   7.692   6.325   1.456
11865TIP3    H235539   7.705   6.195   1.533
11866TIP3   OH235540   1.115   1.760   3.580
11866TIP3    H135541   1.189   1.762   3.641
11866TIP3    H235542   1.046   1.807   3.626
11867TIP3   OH235543   6.447   4.602   3.112
11867TIP3    H135544   6.451   4.515   3.071
11867TIP3    H235545   6.384   4.592   3.183
11868TIP3   OH235546   1.856   2.558   0.130
11868TIP3    H135547   1.773   2.511   0.139
11868TIP3    H235548   1.898   2.549   0.216
11869TIP3   OH235549   2.365   2.590   6.649
11869TIP3    H135550   2.350   2.655   6.581
11869TIP3    H235551   2.361   2.506   6.604
11870TIP3   OH235552   6.406   6.743   3.937
11870TIP3    H135553   6.405   6.814   3.873
11870TIP3    H235554   6.498   6.732   3.960
11871TIP3   OH235555   1.598   5.927   1.395
11871TIP3    H135556   1.579   5.917   1.489
11871TIP3    H235557   1.624   6.018   1.385
11872TIP3   OH235558   2.133   5.235   5.253
11872TIP3    H135559   2.184   5.171   5.204
11872TIP3    H235560   2.057   5.186   5.284
11873TIP3   OH235561   4.696   5.582   2.733
11873TIP3    H135562   4.649   5.601   2.652
11873TIP3    H235563   4.752   5.507   2.711
11874TIP3   OH235564   3.898   3.470   3.453
11874TIP3    H135565   3.818   3.423   3.477
11874TIP3    H235566   3.876   3.519   3.374
11875TIP3   OH235567   5.490   0.315   2.495
11875TIP3    H135568   5.565   0.366   2.527
11875TIP3    H235569   5.499   0.230   2.537
11876TIP3   OH235570   1.138   6.162   0.308
11876TIP3    H135571   1.047   6.191   0.315
11876TIP3    H235572   1.179   6.195   0.388
11877TIP3   OH235573   4.654   4.333   1.317
11877TIP3    H135574   4.674   4.426   1.309
11877TIP3    H235575   4.563   4.330   1.348
11878TIP3   OH235576   6.228   6.177   2.875
11878TIP3    H135577   6.317   6.170   2.840
11878TIP3    H235578   6.222   6.268   2.905
11879TIP3   OH235579   0.846   3.764   6.151
11879TIP3    H135580   0.788   3.813   6.210
11879TIP3    H235581   0.918   3.824   6.133
11880TIP3   OH235582   3.059   5.726   4.485
11880TIP3    H135583   3.133   5.768   4.441
11880TIP3    H235584   3.051   5.641   4.443
11881TIP3   OH235585   2.743   6.548   0.963
11881TIP3    H135586   2.714   6.636   0.940
11881TIP3    H235587   2.818   6.532   0.906
11882TIP3   OH235588   0.916   1.704   5.697
11882TIP3    H135589   0.957   1.770   5.752
11882TIP3    H235590   0.989   1.666   5.647
11883TIP3   OH235591   5.822   0.108   4.497
11883TIP3    H135592   5.905   0.060   4.509
11883TIP3    H235593   5.835   0.191   4.542
11884TIP3   OH235594   2.248   3.273   3.725
11884TIP3    H135595   2.202   3.243   3.647
11884TIP3    H235596   2.181   3.279   3.792
11885TIP3   OH235597   3.129   2.546   5.218
11885TIP3    H135598   3.200   2.516   5.161
11885TIP3    H235599   3.108   2.469   5.272
11886TIP3   OH235600   3.094   6.951   6.119
11886TIP3    H135601   3.146   7.023   6.154
11886TIP3    H235602   3.012   6.992   6.090
11887TIP3   OH235603   8.275   2.840   3.462
11887TIP3    H135604   8.363   2.855   3.427
11887TIP3    H235605   8.229   2.792   3.393
11888TIP3   OH235606   1.882   2.078   3.299
11888TIP3    H135607   1.822   2.116   3.235
11888TIP3    H235608   1.941   2.023   3.246
11889TIP3   OH235609   4.507   5.862   1.731
11889TIP3    H135610   4.484   5.770   1.719
11889TIP3    H235611   4.432   5.900   1.776
11890TIP3   OH235612   2.900   6.755   2.215
11890TIP3    H135613   2.866   6.706   2.290
11890TIP3    H235614   2.821   6.785   2.169
11891TIP3   OH235615   0.317   0.613   3.189
11891TIP3    H135616   0.360   0.610   3.274
11891TIP3    H235617   0.383   0.651   3.130
11892TIP3   OH235618   0.601   6.609   3.872
11892TIP3    H135619   0.575   6.542   3.934
11892TIP3    H235620   0.539   6.599   3.799
11893TIP3   OH235621   4.418   2.250   4.533
11893TIP3    H135622   4.431   2.220   4.443
11893TIP3    H235623   4.348   2.314   4.527
11894TIP3   OH235624   6.174   2.081   3.783
11894TIP3    H135625   6.231   2.152   3.812
11894TIP3    H235626   6.201   2.006   3.836
11895TIP3   OH235627   3.259   0.094   4.306
11895TIP3    H135628   3.329   0.146   4.345
11895TIP3    H235629   3.290   0.003   4.312
11896TIP3   OH235630   1.612   0.874   2.816
11896TIP3    H135631   1.607   0.942   2.749
11896TIP3    H235632   1.530   0.881   2.864
11897TIP3   OH235633   5.597   4.697   5.074
11897TIP3    H135634   5.528   4.708   5.009
11897TIP3    H235635   5.621   4.786   5.099
11898TIP3   OH235636   1.440   5.498   3.112
11898TIP3    H135637   1.523   5.455   3.092
11898TIP3    H235638   1.431   5.566   3.045
11899TIP3   OH235639   5.143   6.305   4.598
11899TIP3    H135640   5.226   6.350   4.583
11899TIP3    H235641   5.076   6.369   4.573
11900TIP3   OH235642   4.819   4.219   6.428
11900TIP3    H135643   4.770   4.236   6.508
11900TIP3    H235644   4.826   4.305   6.385
11901TIP3   OH235645   7.258   2.958   5.191
11901TIP3    H135646   7.317   2.925   5.259
11901TIP3    H235647   7.315   3.005   5.130
11902TIP3   OH235648   0.023   1.719   4.612
11902TIP3    H135649  -0.031   1.797   4.600
11902TIP3    H235650   0.113   1.753   4.611
11903TIP3   OH235651   7.873   1.852   4.622
11903TIP3    H135652   7.837   1.841   4.534
11903TIP3    H235653   7.799   1.832   4.680
11904TIP3   OH235654   2.468   5.817   3.028
11904TIP3    H135655   2.456   5.909   3.005
11904TIP3    H235656   2.448   5.768   2.948
11905TIP3   OH235657   4.226   5.085   5.166
11905TIP3    H135658   4.312   5.090   5.125
11905TIP3    H235659   4.225   5.157   5.229
11906TIP3   OH235660   7.484   3.137   1.962
11906TIP3    H135661   7.499   3.118   2.055
11906TIP3    H235662   7.534   3.069   1.916
11907TIP3   OH235663   1.206   0.151   3.709
11907TIP3    H135664   1.266   0.094   3.662
11907TIP3    H235665   1.167   0.096   3.777
11908TIP3   OH235666   2.789   6.896   6.527
11908TIP3    H135667   2.711   6.912   6.580
11908TIP3    H235668   2.757   6.853   6.448
11909TIP3   OH235669   0.712   7.082   3.378
11909TIP3    H135670   0.727   7.176   3.371
11909TIP3    H235671   0.660   7.072   3.458
11910TIP3   OH235672   6.523   1.579   5.525
11910TIP3    H135673   6.429   1.561   5.512
11910TIP3    H235674   6.567   1.502   5.489
11911TIP3   OH235675   2.843   6.299   5.352
11911TIP3    H135676   2.900   6.247   5.295
11911TIP3    H235677   2.789   6.234   5.398
11912TIP3   OH235678   2.872   7.351   3.929
11912TIP3    H135679   2.895   7.304   4.010
11912TIP3    H235680   2.776   7.345   3.925
11913TIP3   OH235681   7.222   4.490   1.281
11913TIP3    H135682   7.173   4.571   1.263
11913TIP3    H235683   7.232   4.489   1.376
11914TIP3   OH235684   4.584   1.342   3.129
11914TIP3    H135685   4.520   1.367   3.062
11914TIP3    H235686   4.546   1.375   3.211
11915TIP3   OH235687   2.614   0.177   4.818
11915TIP3    H135688   2.643   0.103   4.871
11915TIP3    H235689   2.520   0.164   4.808
11916TIP3   OH235690   2.424   5.536   3.581
11916TIP3    H135691   2.456   5.589   3.508
11916TIP3    H235692   2.330   5.555   3.585
11917TIP3   OH235693   6.505   5.356   5.974
11917TIP3    H135694   6.595   5.369   5.944
11917TIP3    H235695   6.512   5.361   6.070
11918TIP3   OH235696   2.907   2.769   6.672
11918TIP3    H135697   2.856   2.837   6.629
11918TIP3    H235698   2.952   2.813   6.743
11919TIP3   OH235699   2.324   5.399   2.274
11919TIP3    H135700   2.314   5.306   2.292
11919TIP3    H235701   2.408   5.422   2.314
11920TIP3   OH235702   0.662   1.601   5.628
11920TIP3    H135703   0.757   1.603   5.638
11920TIP3    H235704   0.635   1.522   5.676
11921TIP3   OH235705   1.349   5.783   4.519
11921TIP3    H135706   1.423   5.749   4.569
11921TIP3    H235707   1.344   5.875   4.544
11922TIP3   OH235708   5.031   2.348   1.132
11922TIP3    H135709   4.997   2.409   1.198
11922TIP3    H235710   4.978   2.365   1.054
11923TIP3   OH235711   7.781   2.482   4.596
11923TIP3    H135712   7.743   2.533   4.668
11923TIP3    H235713   7.718   2.411   4.582
11924TIP3   OH235714   7.369   4.739   2.742
11924TIP3    H135715   7.455   4.704   2.769
11924TIP3    H235716   7.338   4.677   2.676
11925TIP3   OH235717   1.142   2.799   0.578
11925TIP3    H135718   1.205   2.836   0.516
11925TIP3    H235719   1.193   2.784   0.657
11926TIP3   OH235720   0.906   1.249   3.033
11926TIP3    H135721   0.861   1.239   2.949
11926TIP3    H235722   0.999   1.240   3.011
11927TIP3   OH235723   3.606   0.857   6.681
11927TIP3    H135724   3.658   0.923   6.726
11927TIP3    H235725   3.536   0.906   6.637
11928TIP3   OH235726   1.104   1.689   6.419
11928TIP3    H135727   1.111   1.686   6.324
11928TIP3    H235728   1.107   1.783   6.440
11929TIP3   OH235729   2.906   5.744   4.730
11929TIP3    H135730   2.941   5.734   4.641
11929TIP3    H235731   2.857   5.663   4.745
11930TIP3   OH235732   4.695   0.478   1.668
11930TIP3    H135733   4.751   0.437   1.734
11930TIP3    H235734   4.645   0.405   1.632
11931TIP3   OH235735   2.156   6.199   2.390
11931TIP3    H135736   2.213   6.125   2.365
11931TIP3    H235737   2.122   6.232   2.306
11932TIP3   OH235738   0.516   4.818   6.150
11932TIP3    H135739   0.519   4.912   6.168
11932TIP3    H235740   0.508   4.778   6.237
11933TIP3   OH235741   2.022   5.528   4.760
11933TIP3    H135742   2.052   5.447   4.720
11933TIP3    H235743   1.942   5.550   4.713
11934TIP3   OH235744   3.719   5.484   1.535
11934TIP3    H135745   3.647   5.424   1.555
11934TIP3    H235746   3.757   5.450   1.454
11935TIP3   OH235747   0.435   2.091   0.576
11935TIP3    H135748   0.386   2.044   0.644
11935TIP3    H235749   0.368   2.134   0.524
11936TIP3   OH235750   6.947   3.764   3.103
11936TIP3    H135751   6.931   3.707   3.028
11936TIP3    H235752   6.901   3.845   3.081
11937TIP3   OH235753   4.192   1.543   1.655
11937TIP3    H135754   4.148   1.492   1.588
11937TIP3    H235755   4.224   1.479   1.718
11938TIP3   OH235756   0.740   0.827   6.280
11938TIP3    H135757   0.744   0.922   6.293
11938TIP3    H235758   0.670   0.798   6.338
11939TIP3   OH235759   0.979   5.496   2.711
11939TIP3    H135760   1.061   5.537   2.681
11939TIP3    H235761   1.008   5.428   2.772
11940TIP3   OH235762   0.483   1.681   1.165
11940TIP3    H135763   0.424   1.630   1.220
11940TIP3    H235764   0.550   1.713   1.224
11941TIP3   OH235765   2.397   7.255   4.821
11941TIP3    H135766   2.438   7.328   4.867
11941TIP3    H235767   2.305   7.257   4.850
11942TIP3   OH235768   5.418   6.394   1.577
11942TIP3    H135769   5.449   6.304   1.566
11942TIP3    H235770   5.324   6.386   1.587
11943TIP3   OH235771   6.885   4.204   2.584
11943TIP3    H135772   6.954   4.268   2.570
11943TIP3    H235773   6.924   4.120   2.562
11944TIP3   OH235774   0.397   5.249   1.090
11944TIP3    H135775   0.327   5.312   1.104
11944TIP3    H235776   0.475   5.292   1.127
11945TIP3   OH235777   0.909   4.050   0.923
11945TIP3    H135778   0.984   4.056   0.981
11945TIP3    H235779   0.864   4.134   0.934
11946TIP3   OH235780   5.912   4.443   2.105
11946TIP3    H135781   5.860   4.411   2.179
11946TIP3    H235782   5.972   4.372   2.086
11947TIP3   OH235783   1.247   0.671   5.018
11947TIP3    H135784   1.227   0.699   4.929
11947TIP3    H235785   1.282   0.583   5.007
11948TIP3   OH235786   3.022   6.752   0.649
11948TIP3    H135787   3.058   6.802   0.722
11948TIP3    H235788   3.074   6.781   0.573
11949TIP3   OH235789   5.692   4.101   2.749
11949TIP3    H135790   5.666   4.009   2.753
11949TIP3    H235791   5.701   4.127   2.840
11950TIP3   OH235792   4.849   0.479   6.588
11950TIP3    H135793   4.758   0.452   6.579
11950TIP3    H235794   4.861   0.492   6.682
11951TIP3   OH235795   7.444   2.860   1.704
11951TIP3    H135796   7.523   2.908   1.679
11951TIP3    H235797   7.415   2.819   1.622
11952TIP3   OH235798   3.751   0.335   1.216
11952TIP3    H135799   3.732   0.372   1.130
11952TIP3    H235800   3.768   0.242   1.199
11953TIP3   OH235801   5.680   5.122   5.606
11953TIP3    H135802   5.654   5.035   5.637
11953TIP3    H235803   5.734   5.157   5.676
11954TIP3   OH235804   3.106   1.245   5.754
11954TIP3    H135805   3.046   1.185   5.797
11954TIP3    H235806   3.191   1.201   5.757
11955TIP3   OH235807   5.420   1.087   6.595
11955TIP3    H135808   5.451   1.041   6.517
11955TIP3    H235809   5.439   1.028   6.667
11956TIP3   OH235810   1.082   1.244   5.186
11956TIP3    H135811   1.023   1.309   5.224
11956TIP3    H235812   1.073   1.256   5.091
11957TIP3   OH235813   5.342   2.053   2.628
11957TIP3    H135814   5.258   2.086   2.660
11957TIP3    H235815   5.323   1.966   2.594
11958TIP3   OH235816   4.906   1.262   4.286
11958TIP3    H135817   4.977   1.321   4.311
11958TIP3    H235818   4.888   1.283   4.195
11959TIP3   OH235819   2.218   7.382   0.097
11959TIP3    H135820   2.161   7.458   0.103
11959TIP3    H235821   2.193   7.339   0.015
11960TIP3   OH235822   2.196   4.165   3.559
11960TIP3    H135823   2.209   4.101   3.489
11960TIP3    H235824   2.284   4.181   3.593
11961TIP3   OH235825   7.452   6.856   1.033
11961TIP3    H135826   7.469   6.765   1.057
11961TIP3    H235827   7.440   6.901   1.117
11962TIP3   OH235828   6.811   1.537   3.285
11962TIP3    H135829   6.766   1.454   3.302
11962TIP3    H235830   6.874   1.517   3.216
11963TIP3   OH235831   1.140   5.248   5.269
11963TIP3    H135832   1.133   5.309   5.343
11963TIP3    H235833   1.102   5.296   5.195
11964TIP3   OH235834   4.301   0.057   6.421
11964TIP3    H135835   4.327   0.107   6.344
11964TIP3    H235836   4.252  -0.018   6.386
11965TIP3   OH235837   6.901   7.657   2.180
11965TIP3    H135838   6.872   7.612   2.260
11965TIP3    H235839   6.965   7.721   2.211
11966TIP3   OH235840   1.068   2.717   0.868
11966TIP3    H135841   1.028   2.746   0.786
11966TIP3    H235842   0.997   2.673   0.916
11967TIP3   OH235843   7.041   2.871   0.687
11967TIP3    H135844   7.110   2.917   0.640
11967TIP3    H235845   7.030   2.789   0.640
11968TIP3   OH235846   1.765   0.607   4.395
11968TIP3    H135847   1.790   0.684   4.344
11968TIP3    H235848   1.817   0.536   4.358
11969TIP3   OH235849   0.615   2.166   0.017
11969TIP3    H135850   0.627   2.245  -0.037
11969TIP3    H235851   0.534   2.127  -0.014
11970TIP3   OH235852   6.783   4.794   5.144
11970TIP3    H135853   6.818   4.814   5.057
11970TIP3    H235854   6.719   4.863   5.161
11971TIP3   OH235855   6.113   6.887   1.742
11971TIP3    H135856   6.099   6.800   1.780
11971TIP3    H235857   6.035   6.936   1.765
11972TIP3   OH235858   3.689   2.644   5.444
11972TIP3    H135859   3.756   2.712   5.447
11972TIP3    H235860   3.738   2.562   5.439
11973TIP3   OH235861   2.422   5.943   4.247
11973TIP3    H135862   2.387   5.932   4.159
11973TIP3    H235863   2.516   5.954   4.235
11974TIP3   OH235864   6.830   7.310   6.215
11974TIP3    H135865   6.755   7.330   6.270
11974TIP3    H235866   6.856   7.222   6.241
11975TIP3   OH235867   5.484   4.907   6.637
11975TIP3    H135868   5.471   4.934   6.729
11975TIP3    H235869   5.533   4.979   6.598
11976TIP3   OH235870   2.944   3.662   3.547
11976TIP3    H135871   2.892   3.640   3.624
11976TIP3    H235872   2.963   3.578   3.506
11977TIP3   OH235873   2.579   5.905   5.077
11977TIP3    H135874   2.560   5.818   5.041
11977TIP3    H235875   2.515   5.963   5.036
11978TIP3   OH235876   0.060   3.182   2.604
11978TIP3    H135877   0.093   3.261   2.561
11978TIP3    H235878   0.121   3.113   2.578
11979TIP3   OH235879   1.100   0.756   1.206
11979TIP3    H135880   1.131   0.730   1.119
11979TIP3    H235881   1.005   0.766   1.196
11980TIP3   OH235882   4.794   0.784   0.042
11980TIP3    H135883   4.750   0.814   0.122
11980TIP3    H235884   4.735   0.809  -0.028
11981TIP3   OH235885   1.522   6.241   5.092
11981TIP3    H135886   1.512   6.251   5.186
11981TIP3    H235887   1.514   6.330   5.058
11982TIP3   OH235888   5.344   4.146   0.270
11982TIP3    H135889   5.340   4.190   0.355
11982TIP3    H235890   5.426   4.174   0.231
11983TIP3   OH235891   1.325   6.631   5.202
11983TIP3    H135892   1.258   6.680   5.154
11983TIP3    H235893   1.393   6.613   5.136
11984TIP3   OH235894   6.953   3.600   2.640
11984TIP3    H135895   6.885   3.667   2.631
11984TIP3    H235896   6.974   3.600   2.733
11985TIP3   OH235897   2.395   5.024   1.452
11985TIP3    H135898   2.417   5.117   1.454
11985TIP3    H235899   2.411   4.994   1.541
11986TIP3   OH235900   2.404   3.144   3.439
11986TIP3    H135901   2.409   3.124   3.346
11986TIP3    H235902   2.311   3.140   3.460
11987TIP3   OH235903   7.716   3.776   1.829
11987TIP3    H135904   7.705   3.830   1.907
11987TIP3    H235905   7.671   3.825   1.760
11988TIP3   OH235906   0.644   1.358   5.777
11988TIP3    H135907   0.670   1.351   5.869
11988TIP3    H235908   0.698   1.294   5.732
11989TIP3   OH235909   7.016   0.954   5.297
11989TIP3    H135910   6.965   0.993   5.368
11989TIP3    H235911   7.030   1.026   5.235
11990TIP3   OH235912   6.523   1.469   0.853
11990TIP3    H135913   6.475   1.461   0.771
11990TIP3    H235914   6.456   1.490   0.918
11991TIP3   OH235915   3.124   4.396   3.584
11991TIP3    H135916   3.144   4.393   3.490
11991TIP3    H235917   3.098   4.307   3.606
11992TIP3   OH235918   4.028   2.188   3.212
11992TIP3    H135919   4.100   2.236   3.171
11992TIP3    H235920   3.952   2.244   3.201
11993TIP3   OH235921   5.541   0.704   5.696
11993TIP3    H135922   5.591   0.629   5.730
11993TIP3    H235923   5.606   0.757   5.650
11994TIP3   OH235924   8.089   3.087   1.332
11994TIP3    H135925   8.089   3.112   1.240
11994TIP3    H235926   7.997   3.073   1.353
11995TIP3   OH235927   5.777   1.701   3.384
11995TIP3    H135928   5.699   1.749   3.355
11995TIP3    H235929   5.840   1.769   3.406
11996TIP3   OH235930   0.149   4.280   6.071
11996TIP3    H135931   0.124   4.197   6.031
11996TIP3    H235932   0.106   4.347   6.017
11997TIP3   OH235933   6.850   7.191   5.781
11997TIP3    H135934   6.880   7.159   5.696
11997TIP3    H235935   6.929   7.192   5.835
11998TIP3   OH235936   2.700   5.267   5.732
11998TIP3    H135937   2.777   5.312   5.698
11998TIP3    H235938   2.672   5.321   5.807
11999TIP3   OH235939   5.047   6.214   4.032
11999TIP3    H135940   5.044   6.248   3.942
11999TIP3    H235941   5.045   6.119   4.022
12000TIP3   OH235942   5.076   0.436   4.926
12000TIP3    H135943   5.121   0.410   5.007
12000TIP3    H235944   5.026   0.514   4.950
12001TIP3   OH235945   0.611   6.448   3.292
12001TIP3    H135946   0.524   6.452   3.252
12001TIP3    H235947   0.671   6.441   3.218
12002TIP3   OH235948   0.447   7.148   5.792
12002TIP3    H135949   0.454   7.053   5.785
12002TIP3    H235950   0.457   7.167   5.885
12003TIP3   OH235951   0.507   7.128   2.392
12003TIP3    H135952   0.466   7.189   2.453
12003TIP3    H235953   0.448   7.053   2.390
12004TIP3   OH235954   3.134   4.158   0.761
12004TIP3    H135955   3.156   4.167   0.668
12004TIP3    H235956   3.216   4.132   0.803
12005TIP3   OH235957   3.115   4.147   6.033
12005TIP3    H135958   3.106   4.138   5.938
12005TIP3    H235959   3.045   4.092   6.069
12006TIP3   OH235960   0.788   4.996   2.669
12006TIP3    H135961   0.786   5.032   2.580
12006TIP3    H235962   0.873   5.024   2.704
12007TIP3   OH235963   6.416   6.652   6.229
12007TIP3    H135964   6.434   6.647   6.136
12007TIP3    H235965   6.325   6.621   6.238
12008TIP3   OH235966   5.316   3.238   4.564
12008TIP3    H135967   5.276   3.286   4.638
12008TIP3    H235968   5.284   3.148   4.574
12009TIP3   OH235969   5.623   2.678   4.038
12009TIP3    H135970   5.635   2.587   4.065
12009TIP3    H235971   5.566   2.716   4.104
12010TIP3   OH235972   3.426   2.663   0.814
12010TIP3    H135973   3.351   2.649   0.873
12010TIP3    H235974   3.433   2.581   0.764
12011TIP3   OH235975   4.916   4.268   3.059
12011TIP3    H135976   4.918   4.227   3.145
12011TIP3    H235977   4.919   4.362   3.076
12012TIP3   OH235978   1.887   6.389   5.089
12012TIP3    H135979   1.938   6.347   5.158
12012TIP3    H235980   1.942   6.381   5.011
12013TIP3   OH235981   2.894   5.277   5.142
12013TIP3    H135982   2.951   5.354   5.134
12013TIP3    H235983   2.938   5.222   5.207
12014TIP3   OH235984   1.274   0.597   1.019
12014TIP3    H135985   1.259   0.524   1.079
12014TIP3    H235986   1.356   0.575   0.975
12015TIP3   OH235987   3.028   2.017   4.820
12015TIP3    H135988   3.020   2.042   4.728
12015TIP3    H235989   2.969   2.076   4.867
12016TIP3   OH235990   2.621   4.782   1.795
12016TIP3    H135991   2.693   4.808   1.739
12016TIP3    H235992   2.598   4.693   1.766
12017TIP3   OH235993   2.752   3.329   4.473
12017TIP3    H135994   2.697   3.260   4.510
12017TIP3    H235995   2.785   3.377   4.549
12018TIP3   OH235996   3.521   7.715   2.770
12018TIP3    H135997   3.598   7.659   2.768
12018TIP3    H235998   3.516   7.747   2.860
12019TIP3   OH235999   6.571   6.175   5.549
12019TIP3    H136000   6.659   6.192   5.582
12019TIP3    H236001   6.549   6.089   5.585
12020TIP3   OH236002   5.465   5.339   4.829
12020TIP3    H136003   5.450   5.364   4.738
12020TIP3    H236004   5.466   5.423   4.877
12021TIP3   OH236005   4.774   0.650   5.949
12021TIP3    H136006   4.835   0.593   5.901
12021TIP3    H236007   4.693   0.646   5.899
12022TIP3   OH236008   3.984   5.047   1.248
12022TIP3    H136009   4.021   4.991   1.180
12022TIP3    H236010   3.981   4.991   1.326
12023TIP3   OH236011   1.321   6.078   2.120
12023TIP3    H136012   1.391   6.038   2.172
12023TIP3    H236013   1.361   6.092   2.034
12024TIP3   OH236014   6.287   4.135   3.641
12024TIP3    H136015   6.332   4.196   3.699
12024TIP3    H236016   6.357   4.080   3.605
12025TIP3   OH236017   4.431   4.530   5.267
12025TIP3    H136018   4.381   4.611   5.266
12025TIP3    H236019   4.514   4.553   5.307
12026TIP3   OH236020   7.098   2.505   4.108
12026TIP3    H136021   7.061   2.528   4.193
12026TIP3    H236022   7.139   2.419   4.121
12027TIP3   OH236023   4.684   4.816   2.535
12027TIP3    H136024   4.655   4.820   2.626
12027TIP3    H236025   4.692   4.908   2.509
12028TIP3   OH236026   6.702  -0.006   0.752
12028TIP3    H136027   6.759   0.063   0.717
12028TIP3    H236028   6.761  -0.068   0.793
12029TIP3   OH236029   0.457   0.806   3.705
12029TIP3    H136030   0.527   0.752   3.666
12029TIP3    H236031   0.502   0.885   3.734
12030TIP3   OH236032   3.752   6.763   3.191
12030TIP3    H136033   3.730   6.775   3.283
12030TIP3    H236034   3.839   6.801   3.182
12031TIP3   OH236035   4.720   0.491   3.485
12031TIP3    H136036   4.775   0.553   3.533
12031TIP3    H236037   4.782   0.436   3.437
12032TIP3   OH236038   6.441   4.790   5.892
12032TIP3    H136039   6.452   4.785   5.797
12032TIP3    H236040   6.421   4.883   5.909
12033TIP3   OH236041   1.711   0.392   3.745
12033TIP3    H136042   1.662   0.312   3.763
12033TIP3    H236043   1.790   0.385   3.799
12034TIP3   OH236044   7.557   0.479   1.427
12034TIP3    H136045   7.574   0.424   1.351
12034TIP3    H236046   7.524   0.561   1.390
12035TIP3   OH236047   1.714   1.241   5.841
12035TIP3    H136048   1.668   1.298   5.902
12035TIP3    H236049   1.645   1.201   5.788
12036TIP3   OH236050   6.716   6.086   3.682
12036TIP3    H136051   6.798   6.134   3.695
12036TIP3    H236052   6.742   6.005   3.638
12037TIP3   OH236053   7.103   4.245   2.259
12037TIP3    H136054   7.157   4.192   2.317
12037TIP3    H236055   7.037   4.185   2.224
12038TIP3   OH236056   0.719   1.628   6.429
12038TIP3    H136057   0.735   1.564   6.498
12038TIP3    H236058   0.745   1.712   6.468
12039TIP3   OH236059   1.904   7.659   5.174
12039TIP3    H136060   1.842   7.593   5.141
12039TIP3    H236061   1.983   7.644   5.123
12040TIP3   OH236062   6.361   6.429   5.255
12040TIP3    H136063   6.418   6.352   5.252
12040TIP3    H236064   6.391   6.478   5.331
12041TIP3   OH236065   4.461   4.152   3.589
12041TIP3    H136066   4.429   4.236   3.623
12041TIP3    H236067   4.553   4.151   3.613
12042TIP3   OH236068   4.565   1.601   3.886
12042TIP3    H136069   4.483   1.601   3.935
12042TIP3    H236070   4.557   1.675   3.826
12043TIP3   OH236071   5.829   5.796   3.687
12043TIP3    H136072   5.863   5.744   3.760
12043TIP3    H236073   5.734   5.796   3.699
12044TIP3   OH236074   7.656   4.838   1.098
12044TIP3    H136075   7.626   4.747   1.102
12044TIP3    H236076   7.695   4.854   1.184
12045TIP3   OH236077   3.593   5.589   2.261
12045TIP3    H136078   3.640   5.506   2.253
12045TIP3    H236079   3.564   5.608   2.172
12046TIP3   OH236080   0.740   4.717   4.279
12046TIP3    H136081   0.655   4.675   4.264
12046TIP3    H236082   0.772   4.677   4.360
12047TIP3   OH236083   1.654   4.528   1.213
12047TIP3    H136084   1.567   4.510   1.248
12047TIP3    H236085   1.708   4.454   1.241
12048TIP3   OH236086   7.832   7.102   3.234
12048TIP3    H136087   7.878   7.149   3.165
12048TIP3    H236088   7.792   7.027   3.190
12049TIP3   OH236089   0.801   7.548   4.025
12049TIP3    H136090   0.724   7.561   4.079
12049TIP3    H236091   0.872   7.532   4.087
12050TIP3   OH236092   1.199   7.479   2.521
12050TIP3    H136093   1.109   7.487   2.552
12050TIP3    H236094   1.228   7.394   2.554
12051TIP3   OH236095   2.111   5.403   1.288
12051TIP3    H136096   2.128   5.494   1.313
12051TIP3    H236097   2.094   5.358   1.371
12052TIP3   OH236098   1.570   3.177   4.600
12052TIP3    H136099   1.649   3.154   4.552
12052TIP3    H236100   1.515   3.221   4.535
12053TIP3   OH236101   4.327   4.508   3.971
12053TIP3    H136102   4.342   4.443   3.902
12053TIP3    H236103   4.305   4.588   3.924
12054TIP3   OH236104   5.348   0.402   1.487
12054TIP3    H136105   5.410   0.337   1.521
12054TIP3    H236106   5.319   0.451   1.564
12055TIP3   OH236107   7.626   3.069   4.928
12055TIP3    H136108   7.674   2.993   4.960
12055TIP3    H236109   7.566   3.034   4.862
12056TIP3   OH236110   0.011   4.832   1.081
12056TIP3    H136111   0.046   4.856   0.995
12056TIP3    H236112   0.005   4.915   1.129
12057TIP3   OH236113   0.865   2.328   4.153
12057TIP3    H136114   0.951   2.306   4.118
12057TIP3    H236115   0.870   2.306   4.246
12058TIP3   OH236116   8.249   2.605   1.510
12058TIP3    H136117   8.325   2.588   1.455
12058TIP3    H236118   8.210   2.684   1.472
12059TIP3   OH236119   2.034   4.675   6.270
12059TIP3    H136120   2.069   4.745   6.214
12059TIP3    H236121   2.005   4.608   6.208
12060TIP3   OH236122   4.484   3.509   5.337
12060TIP3    H136123   4.451   3.587   5.379
12060TIP3    H236124   4.406   3.462   5.308
12061TIP3   OH236125   0.195   1.059   3.635
12061TIP3    H136126   0.102   1.043   3.620
12061TIP3    H236127   0.239   1.012   3.564
12062TIP3   OH236128   7.545   3.665   2.821
12062TIP3    H136129   7.557   3.757   2.799
12062TIP3    H236130   7.558   3.660   2.915
12063TIP3   OH236131   7.125   4.286   3.235
12063TIP3    H136132   7.041   4.325   3.213
12063TIP3    H236133   7.149   4.324   3.319
12064TIP3   OH236134   3.594   6.038   3.409
12064TIP3    H136135   3.650   5.970   3.446
12064TIP3    H236136   3.607   6.031   3.314
12065TIP3   OH236137   7.763   4.722   5.424
12065TIP3    H136138   7.740   4.671   5.347
12065TIP3    H236139   7.765   4.659   5.496
12066TIP3   OH236140   1.991   4.156   0.947
12066TIP3    H136141   1.918   4.102   0.979
12066TIP3    H236142   1.977   4.160   0.852
12067TIP3   OH236143   4.669   7.726   3.329
12067TIP3    H136144   4.753   7.680   3.321
12067TIP3    H236145   4.693   7.818   3.344
12068TIP3   OH236146   2.711   3.176   0.745
12068TIP3    H136147   2.806   3.178   0.758
12068TIP3    H236148   2.678   3.130   0.822
12069TIP3   OH236149   6.551   7.769   6.500
12069TIP3    H136150   6.581   7.841   6.445
12069TIP3    H236151   6.553   7.692   6.443
12070TIP3   OH236152   2.908   3.975   5.589
12070TIP3    H136153   2.842   4.014   5.646
12070TIP3    H236154   2.923   3.888   5.625
12071TIP3   OH236155   2.063   3.566   3.589
12071TIP3    H136156   2.039   3.633   3.652
12071TIP3    H236157   2.159   3.566   3.589
12072TIP3   OH236158   4.919   6.582   4.763
12072TIP3    H136159   4.825   6.569   4.767
12072TIP3    H236160   4.943   6.559   4.673
12073TIP3   OH236161   5.813   1.574   1.961
12073TIP3    H136162   5.719   1.580   1.940
12073TIP3    H236163   5.852   1.538   1.881
12074TIP3   OH236164   7.681   3.389   6.619
12074TIP3    H136165   7.714   3.452   6.555
12074TIP3    H236166   7.689   3.304   6.575
12075TIP3   OH236167   6.811   1.965   2.022
12075TIP3    H136168   6.729   1.985   2.067
12075TIP3    H236169   6.872   1.943   2.092
12076TIP3   OH236170   6.593   7.046   1.911
12076TIP3    H136171   6.518   7.083   1.865
12076TIP3    H236172   6.570   7.052   2.003
12077TIP3   OH236173   7.056   5.429   6.261
12077TIP3    H136174   6.993   5.359   6.277
12077TIP3    H236175   7.138   5.397   6.298
12078TIP3   OH236176   6.892   3.769   0.690
12078TIP3    H136177   6.937   3.814   0.762
12078TIP3    H236178   6.878   3.837   0.624
12079TIP3   OH236179   1.209   2.318   1.212
12079TIP3    H136180   1.142   2.288   1.273
12079TIP3    H236181   1.248   2.394   1.254
12080TIP3   OH236182   0.314   5.111   2.351
12080TIP3    H136183   0.390   5.169   2.364
12080TIP3    H236184   0.245   5.169   2.319
12081TIP3   OH236185   5.648   7.778   1.070
12081TIP3    H136186   5.713   7.800   1.137
12081TIP3    H236187   5.583   7.725   1.116
12082TIP3   OH236188   2.267   6.632   5.233
12082TIP3    H136189   2.283   6.598   5.145
12082TIP3    H236190   2.354   6.653   5.268
12083TIP3   OH236191   3.993   6.928   3.804
12083TIP3    H136192   3.979   7.008   3.855
12083TIP3    H236193   3.933   6.935   3.730
12084TIP3   OH236194   3.248   7.016   5.375
12084TIP3    H136195   3.252   7.003   5.281
12084TIP3    H236196   3.243   6.927   5.411
12085TIP3   OH236197   6.192   3.856   3.858
12085TIP3    H136198   6.236   3.828   3.938
12085TIP3    H236199   6.254   3.916   3.816
12086TIP3   OH236200   2.491   1.749   1.839
12086TIP3    H136201   2.562   1.803   1.872
12086TIP3    H236202   2.533   1.685   1.781
12087TIP3   OH236203   1.915   2.626   3.022
12087TIP3    H136204   2.008   2.635   3.002
12087TIP3    H236205   1.905   2.536   3.052
12088TIP3   OH236206   3.588   3.954   4.560
12088TIP3    H136207   3.557   3.977   4.648
12088TIP3    H236208   3.683   3.965   4.564
12089TIP3   OH236209   5.090   0.528   2.621
12089TIP3    H136210   5.000   0.528   2.591
12089TIP3    H236211   5.097   0.449   2.675
12090TIP3   OH236212   5.891   2.889   2.316
12090TIP3    H136213   5.963   2.928   2.365
12090TIP3    H236214   5.866   2.957   2.253
12091TIP3   OH236215   4.301   1.385   3.600
12091TIP3    H136216   4.277   1.293   3.588
12091TIP3    H236217   4.217   1.432   3.595
12092TIP3   OH236218   1.447   4.122   5.636
12092TIP3    H136219   1.352   4.118   5.639
12092TIP3    H236220   1.477   4.060   5.703
12093TIP3   OH236221   5.642   0.916   5.977
12093TIP3    H136222   5.587   0.964   5.915
12093TIP3    H236223   5.581   0.862   6.026
12094TIP3   OH236224   5.313   1.332   1.050
12094TIP3    H136225   5.254   1.390   1.097
12094TIP3    H236226   5.282   1.244   1.069
12095TIP3   OH236227   4.449   3.964   2.334
12095TIP3    H136228   4.517   3.899   2.319
12095TIP3    H236229   4.479   4.042   2.287
12096TIP3   OH236230   5.284   7.242   6.783
12096TIP3    H136231   5.315   7.312   6.726
12096TIP3    H236232   5.315   7.162   6.740
12097TIP3   OH236233   3.626   4.864   4.283
12097TIP3    H136234   3.584   4.851   4.198
12097TIP3    H236235   3.687   4.937   4.268
12098TIP3   OH236236   5.525   2.289   3.170
12098TIP3    H136237   5.513   2.348   3.244
12098TIP3    H236238   5.470   2.213   3.190
12099TIP3   OH236239   1.181   3.154   3.870
12099TIP3    H136240   1.114   3.094   3.901
12099TIP3    H236241   1.218   3.111   3.793
12100TIP3   OH236242   0.050   1.314   5.267
12100TIP3    H136243   0.121   1.250   5.260
12100TIP3    H236244   0.094   1.397   5.286
12101TIP3   OH236245   4.797   4.355   0.415
12101TIP3    H136246   4.889   4.332   0.430
12101TIP3    H236247   4.800   4.445   0.381
12102TIP3   OH236248   7.272   4.578   5.002
12102TIP3    H136249   7.254   4.671   5.016
12102TIP3    H236250   7.234   4.559   4.916
12103TIP3   OH236251   7.702   6.334   6.268
12103TIP3    H136252   7.756   6.341   6.347
12103TIP3    H236253   7.650   6.414   6.267
12104TIP3   OH236254   4.730   7.574   1.618
12104TIP3    H136255   4.778   7.562   1.700
12104TIP3    H236256   4.674   7.650   1.634
12105TIP3   OH236257   1.990   7.289   3.903
12105TIP3    H136258   1.921   7.224   3.893
12105TIP3    H236259   1.973   7.354   3.834
12106TIP3   OH236260   5.176   1.401   4.922
12106TIP3    H136261   5.228   1.332   4.962
12106TIP3    H236262   5.110   1.423   4.988
12107TIP3   OH236263   1.700   4.317   3.132
12107TIP3    H136264   1.643   4.389   3.104
12107TIP3    H236265   1.788   4.344   3.104
12108TIP3   OH236266   5.359   5.893   1.813
12108TIP3    H136267   5.408   5.970   1.782
12108TIP3    H236268   5.415   5.855   1.881
12109TIP3   OH236269   4.032   3.253   3.347
12109TIP3    H136270   4.121   3.260   3.312
12109TIP3    H236271   4.015   3.338   3.387
12110TIP3   OH236272   3.556   7.135   1.776
12110TIP3    H136273   3.551   7.220   1.734
12110TIP3    H236274   3.576   7.074   1.705
12111TIP3   OH236275   7.313   7.629   5.968
12111TIP3    H136276   7.241   7.573   5.938
12111TIP3    H236277   7.392   7.587   5.933
12112TIP3   OH236278   5.238   7.504   5.226
12112TIP3    H136279   5.265   7.460   5.306
12112TIP3    H236280   5.177   7.571   5.255
12113TIP3   OH236281   2.187   7.658   3.518
12113TIP3    H136282   2.208   7.650   3.425
12113TIP3    H236283   2.199   7.569   3.552
12114TIP3   OH236284   0.690   4.730   3.069
12114TIP3    H136285   0.646   4.737   3.153
12114TIP3    H236286   0.620   4.719   3.005
12115TIP3   OH236287   2.076   0.706   2.331
12115TIP3    H136288   2.042   0.788   2.367
12115TIP3    H236289   2.093   0.725   2.239
12116TIP3   OH236290   8.049   4.168   0.393
12116TIP3    H136291   8.051   4.075   0.417
12116TIP3    H236292   8.141   4.192   0.380
12117TIP3   OH236293   1.473   7.364   5.550
12117TIP3    H136294   1.400   7.315   5.587
12117TIP3    H236295   1.546   7.348   5.610
12118TIP3   OH236296   6.812   3.768   3.840
12118TIP3    H136297   6.749   3.768   3.768
12118TIP3    H236298   6.770   3.820   3.909
12119TIP3   OH236299   2.857   6.199   0.855
12119TIP3    H136300   2.805   6.140   0.800
12119TIP3    H236301   2.797   6.224   0.925
12120TIP3   OH236302   0.730   6.953   3.126
12120TIP3    H136303   0.691   6.961   3.214
12120TIP3    H236304   0.810   7.005   3.130
12121TIP3   OH236305   1.772   0.347   1.502
12121TIP3    H136306   1.848   0.342   1.559
12121TIP3    H236307   1.807   0.331   1.414
12122TIP3   OH236308   5.355   1.690   6.502
12122TIP3    H136309   5.398   1.769   6.532
12122TIP3    H236310   5.335   1.641   6.582
12123TIP3   OH236311   7.119   2.077   3.248
12123TIP3    H136312   7.173   2.063   3.325
12123TIP3    H236313   7.132   2.169   3.226
12124TIP3   OH236314   1.230   4.517   5.578
12124TIP3    H136315   1.312   4.511   5.529
12124TIP3    H236316   1.245   4.586   5.642
12125TIP3   OH236317   7.254   7.264   1.403
12125TIP3    H136318   7.223   7.304   1.484
12125TIP3    H236319   7.210   7.179   1.399
12126TIP3   OH236320   7.156   6.952   4.026
12126TIP3    H136321   7.222   6.922   3.963
12126TIP3    H236322   7.078   6.900   4.004
12127TIP3   OH236323   2.593   5.864   4.698
12127TIP3    H136324   2.660   5.798   4.715
12127TIP3    H236325   2.568   5.850   4.607
12128TIP3   OH236326   6.631   0.517   1.609
12128TIP3    H136327   6.581   0.496   1.687
12128TIP3    H236328   6.702   0.574   1.640
12129TIP3   OH236329   3.510   7.053   2.978
12129TIP3    H136330   3.496   7.066   2.885
12129TIP3    H236331   3.567   7.125   3.004
12130TIP3   OH236332   7.657   5.168   2.077
12130TIP3    H136333   7.654   5.074   2.095
12130TIP3    H236334   7.678   5.173   1.984
12131TIP3   OH236335   4.448   5.130   3.519
12131TIP3    H136336   4.417   5.044   3.493
12131TIP3    H236337   4.535   5.114   3.557
12132TIP3   OH236338   4.608   2.917   2.491
12132TIP3    H136339   4.569   2.966   2.419
12132TIP3    H236340   4.670   2.978   2.531
12133TIP3   OH236341   0.195   7.191   2.512
12133TIP3    H136342   0.150   7.202   2.428
12133TIP3    H236343   0.149   7.119   2.555
12134TIP3   OH236344   5.992   1.011   4.421
12134TIP3    H136345   5.896   1.003   4.429
12134TIP3    H236346   6.025   0.925   4.450
12135TIP3   OH236347   8.182   1.097   1.550
12135TIP3    H136348   8.180   1.179   1.599
12135TIP3    H236349   8.116   1.107   1.482
12136TIP3   OH236350   1.982   7.493   2.304
12136TIP3    H136351   2.006   7.487   2.212
12136TIP3    H236352   1.960   7.585   2.318
12137TIP3   OH236353   6.298   2.716   1.685
12137TIP3    H136354   6.240   2.758   1.748
12137TIP3    H236355   6.375   2.690   1.736
12138TIP3   OH236356   0.943   0.595   3.839
12138TIP3    H136357   0.878   0.665   3.831
12138TIP3    H236358   0.891   0.515   3.837
12139TIP3   OH236359   3.830   5.979   4.962
12139TIP3    H136360   3.857   5.949   5.049
12139TIP3    H236361   3.735   5.982   4.966
12140TIP3   OH236362   6.623   5.063   1.755
12140TIP3    H136363   6.639   5.132   1.819
12140TIP3    H236364   6.528   5.058   1.748
12141TIP3   OH236365   2.843   2.095   4.011
12141TIP3    H136366   2.818   2.039   3.938
12141TIP3    H236367   2.884   2.035   4.074
12142TIP3   OH236368   2.613   0.424   4.989
12142TIP3    H136369   2.707   0.429   4.969
12142TIP3    H236370   2.585   0.341   4.950
12143TIP3   OH236371   0.732   2.668   4.296
12143TIP3    H136372   0.661   2.608   4.319
12143TIP3    H236373   0.795   2.658   4.368
12144TIP3   OH236374   1.113   3.133   4.552
12144TIP3    H136375   1.038   3.088   4.591
12144TIP3    H236376   1.178   3.063   4.541
12145TIP3   OH236377   4.957   1.691   4.523
12145TIP3    H136378   4.935   1.618   4.582
12145TIP3    H236379   4.905   1.764   4.555
12146TIP3   OH236380   1.167   3.952   1.656
12146TIP3    H136381   1.100   4.013   1.626
12146TIP3    H236382   1.147   3.937   1.748
12147TIP3   OH236383   7.183   3.584   4.442
12147TIP3    H136384   7.146   3.574   4.530
12147TIP3    H236385   7.245   3.511   4.434
12148TIP3   OH236386   7.390   2.945   5.437
12148TIP3    H136387   7.356   3.028   5.471
12148TIP3    H236388   7.437   2.906   5.510
12149TIP3   OH236389   6.461   0.808   5.728
12149TIP3    H136390   6.452   0.821   5.634
12149TIP3    H236391   6.373   0.818   5.763
12150TIP3   OH236392   4.811   5.605   5.092
12150TIP3    H136393   4.795   5.555   5.012
12150TIP3    H236394   4.804   5.541   5.163
12151TIP3   OH236395   5.167   3.362   1.633
12151TIP3    H136396   5.211   3.279   1.614
12151TIP3    H236397   5.195   3.420   1.562
12152TIP3   OH236398   4.965   3.623   5.659
12152TIP3    H136399   4.876   3.656   5.667
12152TIP3    H236400   5.011   3.689   5.607
12153TIP3   OH236401   6.283   5.524   4.922
12153TIP3    H136402   6.330   5.551   5.000
12153TIP3    H236403   6.342   5.546   4.850
12154TIP3   OH236404   7.886   2.220   5.058
12154TIP3    H136405   7.863   2.302   5.015
12154TIP3    H236406   7.852   2.228   5.147
12155TIP3   OH236407   5.343   5.623   2.401
12155TIP3    H136408   5.435   5.606   2.419
12155TIP3    H236409   5.343   5.671   2.318
12156TIP3   OH236410   1.056   4.950   4.888
12156TIP3    H136411   1.060   4.920   4.798
12156TIP3    H236412   1.118   5.023   4.893
12157TIP3   OH236413   2.679   6.016   0.354
12157TIP3    H136414   2.669   6.078   0.282
12157TIP3    H236415   2.662   5.931   0.315
12158TIP3   OH236416   8.297   2.368   2.390
12158TIP3    H136417   8.214   2.407   2.420
12158TIP3    H236418   8.272   2.282   2.357
12159TIP3   OH236419   0.575   7.803   1.577
12159TIP3    H136420   0.528   7.749   1.640
12159TIP3    H236421   0.577   7.890   1.617
12160TIP3   OH236422   4.616   6.215   0.481
12160TIP3    H136423   4.551   6.174   0.424
12160TIP3    H236424   4.673   6.143   0.508
12161TIP3   OH236425   6.286   5.958   6.185
12161TIP3    H136426   6.319   5.870   6.201
12161TIP3    H236427   6.356   6.002   6.136
12162TIP3   OH236428   3.890   5.338   0.161
12162TIP3    H136429   3.971   5.383   0.186
12162TIP3    H236430   3.821   5.403   0.174
12163TIP3   OH236431   2.839   4.598   6.021
12163TIP3    H136432   2.887   4.517   6.036
12163TIP3    H236433   2.777   4.604   6.094
12164TIP3   OH236434   5.756   4.395   3.258
12164TIP3    H136435   5.740   4.423   3.348
12164TIP3    H236436   5.804   4.468   3.219
12165TIP3   OH236437   6.897   0.837   3.656
12165TIP3    H136438   6.807   0.848   3.624
12165TIP3    H236439   6.926   0.925   3.678
12166TIP3   OH236440   4.518   2.732   5.394
12166TIP3    H136441   4.541   2.825   5.396
12166TIP3    H236442   4.548   2.703   5.308
12167TIP3   OH236443   7.548   2.910   5.653
12167TIP3    H136444   7.489   2.980   5.683
12167TIP3    H236445   7.622   2.957   5.614
12168TIP3   OH236446   6.214   7.550   2.219
12168TIP3    H136447   6.129   7.533   2.260
12168TIP3    H236448   6.195   7.615   2.151
12169TIP3   OH236449   0.720   2.113   0.688
12169TIP3    H136450   0.681   2.192   0.727
12169TIP3    H236451   0.645   2.055   0.674
12170TIP3   OH236452   3.392   3.102   1.607
12170TIP3    H136453   3.456   3.146   1.551
12170TIP3    H236454   3.400   3.147   1.691
12171TIP3   OH236455   0.375   0.028   3.360
12171TIP3    H136456   0.289   0.067   3.377
12171TIP3    H236457   0.396  -0.019   3.441
12172TIP3   OH236458   3.852   5.886   4.015
12172TIP3    H136459   3.890   5.807   3.976
12172TIP3    H236460   3.760   5.864   4.029
12173TIP3   OH236461   5.411   3.661   6.311
12173TIP3    H136462   5.430   3.671   6.218
12173TIP3    H236463   5.490   3.622   6.349
12174TIP3   OH236464   8.171   2.394   1.661
12174TIP3    H136465   8.168   2.465   1.597
12174TIP3    H236466   8.244   2.339   1.633
12175TIP3   OH236467   8.179   0.162   4.417
12175TIP3    H136468   8.128   0.236   4.384
12175TIP3    H236469   8.237   0.201   4.483
12176TIP3   OH236470   2.361   1.372   6.582
12176TIP3    H136471   2.429   1.332   6.635
12176TIP3    H236472   2.328   1.444   6.636
12177TIP3   OH236473   2.258   1.062   1.487
12177TIP3    H136474   2.299   0.989   1.535
12177TIP3    H236475   2.315   1.137   1.504
12178TIP3   OH236476   3.696   1.577   5.081
12178TIP3    H136477   3.668   1.501   5.030
12178TIP3    H236478   3.732   1.540   5.162
12179TIP3   OH236479   3.313   1.489   4.470
12179TIP3    H136480   3.221   1.467   4.451
12179TIP3    H236481   3.349   1.515   4.385
12180TIP3   OH236482   1.960   4.923   6.569
12180TIP3    H136483   1.954   5.018   6.557
12180TIP3    H236484   1.973   4.911   6.663
12181TIP3   OH236485   1.866   2.627   6.340
12181TIP3    H136486   1.843   2.690   6.409
12181TIP3    H236487   1.859   2.541   6.381
12182TIP3   OH236488   7.968   2.910   2.270
12182TIP3    H136489   8.043   2.967   2.289
12182TIP3    H236490   8.007   2.822   2.260
12183TIP3   OH236491   5.360   3.725   2.790
12183TIP3    H136492   5.441   3.767   2.818
12183TIP3    H236493   5.314   3.793   2.740
12184TIP3   OH236494   1.446   1.996   4.674
12184TIP3    H136495   1.448   2.090   4.693
12184TIP3    H236496   1.403   1.991   4.588
12185TIP3   OH236497   0.514   4.595   1.030
12185TIP3    H136498   0.606   4.568   1.028
12185TIP3    H236499   0.487   4.583   1.121
12186TIP3   OH236500   7.823   3.787   0.280
12186TIP3    H136501   7.795   3.714   0.336
12186TIP3    H236502   7.869   3.746   0.208
12187TIP3   OH236503   3.696   6.600   5.464
12187TIP3    H136504   3.614   6.554   5.485
12187TIP3    H236505   3.668   6.682   5.424
12188TIP3   OH236506   3.253   4.471   5.317
12188TIP3    H136507   3.216   4.488   5.231
12188TIP3    H236508   3.331   4.525   5.322
12189TIP3   OH236509   2.381   0.149   3.228
12189TIP3    H136510   2.397   0.222   3.170
12189TIP3    H236511   2.290   0.125   3.212
12190TIP3   OH236512   6.300   3.034   3.041
12190TIP3    H136513   6.238   2.977   3.086
12190TIP3    H236514   6.346   2.975   2.980
12191TIP3   OH236515   6.085   2.325   5.137
12191TIP3    H136516   6.059   2.234   5.152
12191TIP3    H236517   6.096   2.362   5.225
12192TIP3   OH236518   6.078   4.475   3.713
12192TIP3    H136519   6.158   4.478   3.766
12192TIP3    H236520   6.007   4.480   3.776
12193TIP3   OH236521   5.531   2.288   5.433
12193TIP3    H136522   5.582   2.317   5.509
12193TIP3    H236523   5.442   2.315   5.452
12194TIP3   OH236524   3.523   0.021   4.584
12194TIP3    H136525   3.501  -0.063   4.625
12194TIP3    H236526   3.598   0.001   4.527
12195TIP3   OH236527   2.414   0.502   4.190
12195TIP3    H136528   2.459   0.431   4.237
12195TIP3    H236529   2.322   0.491   4.213
12196TIP3   OH236530   2.301   4.872   2.137
12196TIP3    H136531   2.280   4.952   2.088
12196TIP3    H236532   2.391   4.852   2.114
12197TIP3   OH236533   5.874   2.596   2.321
12197TIP3    H136534   5.833   2.562   2.242
12197TIP3    H236535   5.863   2.691   2.315
12198TIP3   OH236536   5.100   4.101   5.630
12198TIP3    H136537   5.005   4.097   5.621
12198TIP3    H236538   5.118   4.192   5.656
12199TIP3   OH236539   4.691   1.181   6.018
12199TIP3    H136540   4.715   1.089   6.001
12199TIP3    H236541   4.701   1.191   6.113
12200TIP3   OH236542   6.351   6.758   6.563
12200TIP3    H136543   6.379   6.811   6.488
12200TIP3    H236544   6.432   6.735   6.608
12201TIP3   OH236545   5.560   1.047   2.325
12201TIP3    H136546   5.479   1.028   2.371
12201TIP3    H236547   5.594   1.126   2.367
12202TIP3   OH236548   6.232   7.109   3.154
12202TIP3    H136549   6.173   7.183   3.157
12202TIP3    H236550   6.308   7.141   3.105
12203TIP3   OH236551   4.060   2.452   6.058
12203TIP3    H136552   3.972   2.428   6.088
12203TIP3    H236553   4.088   2.377   6.006
12204TIP3   OH236554   1.232   5.916   1.224
12204TIP3    H136555   1.186   5.880   1.299
12204TIP3    H236556   1.271   5.998   1.257
12205TIP3   OH236557   6.944   4.200   6.422
12205TIP3    H136558   6.978   4.264   6.485
12205TIP3    H236559   7.005   4.127   6.426
12206TIP3   OH236560   6.956   4.068   5.545
12206TIP3    H136561   6.907   4.145   5.572
12206TIP3    H236562   6.898   4.023   5.483
12207TIP3   OH236563   6.087   0.665   3.353
12207TIP3    H136564   6.034   0.641   3.429
12207TIP3    H236565   6.044   0.622   3.279
12208TIP3   OH236566   5.149   0.569   3.696
12208TIP3    H136567   5.225   0.568   3.638
12208TIP3    H236568   5.086   0.510   3.654
12209TIP3   OH236569   0.958   7.785   5.571
12209TIP3    H136570   0.960   7.695   5.540
12209TIP3    H236571   0.937   7.837   5.493
12210TIP3   OH236572   7.368   7.715   1.024
12210TIP3    H136573   7.332   7.801   1.043
12210TIP3    H236574   7.296   7.654   1.042
12211TIP3   OH236575   2.594   4.061   1.935
12211TIP3    H136576   2.648   4.112   1.995
12211TIP3    H236577   2.528   4.020   1.990
12212TIP3   OH236578   0.417   1.264   6.675
12212TIP3    H136579   0.495   1.218   6.641
12212TIP3    H236580   0.377   1.303   6.597
12213TIP3   OH236581   5.653   2.818   0.225
12213TIP3    H136582   5.726   2.765   0.257
12213TIP3    H236583   5.642   2.793   0.134
12214TIP3   OH236584   0.624   5.833   2.463
12214TIP3    H136585   0.708   5.839   2.509
12214TIP3    H236586   0.560   5.813   2.531
12215TIP3   OH236587   8.131   7.339   2.648
12215TIP3    H136588   8.086   7.379   2.574
12215TIP3    H236589   8.221   7.372   2.643
12216TIP3   OH236590   4.533   1.073   1.562
12216TIP3    H136591   4.500   0.994   1.605
12216TIP3    H236592   4.562   1.044   1.476
12217TIP3   OH236593   6.368   5.684   1.355
12217TIP3    H136594   6.403   5.696   1.443
12217TIP3    H236595   6.285   5.638   1.368
12218TIP3   OH236596   6.184   3.027   4.367
12218TIP3    H136597   6.115   3.094   4.373
12218TIP3    H236598   6.178   2.995   4.277
12219TIP3   OH236599   4.368   4.350   5.686
12219TIP3    H136600   4.416   4.269   5.702
12219TIP3    H236601   4.278   4.321   5.667
12220TIP3   OH236602   6.009   6.982   0.445
12220TIP3    H136603   6.067   7.058   0.443
12220TIP3    H236604   6.058   6.913   0.400
12221TIP3   OH236605   6.538   5.216   6.631
12221TIP3    H136606   6.463   5.254   6.585
12221TIP3    H236607   6.614   5.244   6.579
12222TIP3   OH236608   3.984   7.317   0.957
12222TIP3    H136609   3.948   7.398   0.993
12222TIP3    H236610   4.010   7.267   1.034
12223TIP3   OH236611   6.887   7.247   0.570
12223TIP3    H136612   6.805   7.283   0.604
12223TIP3    H236613   6.866   7.157   0.548
12224TIP3   OH236614   1.182   0.690   3.745
12224TIP3    H136615   1.098   0.657   3.776
12224TIP3    H236616   1.229   0.612   3.715
12225TIP3   OH236617   8.018   1.718   1.293
12225TIP3    H136618   8.106   1.680   1.301
12225TIP3    H236619   7.968   1.678   1.364
12226TIP3   OH236620   0.367   4.428   5.427
12226TIP3    H136621   0.440   4.467   5.475
12226TIP3    H236622   0.289   4.457   5.473
12227TIP3   OH236623   2.378   1.253   5.381
12227TIP3    H136624   2.470   1.235   5.361
12227TIP3    H236625   2.354   1.323   5.320
12228TIP3   OH236626   1.627   3.002   5.227
12228TIP3    H136627   1.580   3.085   5.233
12228TIP3    H236628   1.645   2.991   5.134
12229TIP3   OH236629   5.435   3.486   2.637
12229TIP3    H136630   5.365   3.480   2.572
12229TIP3    H236631   5.408   3.556   2.696
12230TIP3   OH236632   1.623   7.065   6.400
12230TIP3    H136633   1.690   7.097   6.340
12230TIP3    H236634   1.646   7.102   6.485
12231TIP3   OH236635   5.184   3.122   0.123
12231TIP3    H136636   5.216   3.033   0.132
12231TIP3    H236637   5.250   3.177   0.165
12232TIP3   OH236638   4.520   2.091   4.717
12232TIP3    H136639   4.603   2.125   4.749
12232TIP3    H236640   4.496   2.151   4.646
12233TIP3   OH236641   5.768   0.717   0.150
12233TIP3    H136642   5.780   0.681   0.237
12233TIP3    H236643   5.856   0.744   0.123
12234TIP3   OH236644   1.773   3.921   3.497
12234TIP3    H136645   1.843   3.919   3.432
12234TIP3    H236646   1.814   3.957   3.575
12235TIP3   OH236647   5.940   3.416   3.808
12235TIP3    H136648   6.001   3.478   3.767
12235TIP3    H236649   5.928   3.347   3.744
12236TIP3   OH236650   1.152   5.971   3.850
12236TIP3    H136651   1.097   6.048   3.836
12236TIP3    H236652   1.140   5.918   3.771
12237TIP3   OH236653   8.272   1.386   5.803
12237TIP3    H136654   8.233   1.305   5.837
12237TIP3    H236655   8.317   1.424   5.878
12238TIP3   OH236656   2.531   1.728   6.436
12238TIP3    H136657   2.474   1.784   6.489
12238TIP3    H236658   2.474   1.656   6.406
12239TIP3   OH236659   5.726   4.251   1.577
12239TIP3    H136660   5.735   4.290   1.664
12239TIP3    H236661   5.701   4.324   1.521
12240TIP3   OH236662   2.191   1.849   3.605
12240TIP3    H136663   2.117   1.795   3.574
12240TIP3    H236664   2.236   1.875   3.525
12241TIP3   OH236665   3.451   6.710   4.382
12241TIP3    H136666   3.500   6.656   4.444
12241TIP3    H236667   3.518   6.755   4.330
12242TIP3   OH236668   6.346   1.599   6.224
12242TIP3    H136669   6.304   1.654   6.159
12242TIP3    H236670   6.403   1.541   6.173
12243TIP3   OH236671   0.778   1.088   3.985
12243TIP3    H136672   0.751   0.999   4.008
12243TIP3    H236673   0.865   1.098   4.022
12244TIP3   OH236674   0.583   6.344   6.730
12244TIP3    H136675   0.496   6.317   6.699
12244TIP3    H236676   0.586   6.438   6.716
12245TIP3   OH236677   1.168   5.817   4.252
12245TIP3    H136678   1.129   5.904   4.238
12245TIP3    H236679   1.211   5.824   4.337
12246TIP3   OH236680   3.499   4.041   5.953
12246TIP3    H136681   3.499   4.053   6.048
12246TIP3    H236682   3.408   4.021   5.931
12247TIP3   OH236683   4.985   4.951   3.036
12247TIP3    H136684   5.044   5.023   3.059
12247TIP3    H236685   4.930   4.987   2.966
12248TIP3   OH236686   0.781   6.705   3.630
12248TIP3    H136687   0.831   6.782   3.658
12248TIP3    H236688   0.691   6.726   3.654
12249TIP3   OH236689   4.509   4.495   5.006
12249TIP3    H136690   4.586   4.549   4.985
12249TIP3    H236691   4.494   4.511   5.099
12250TIP3   OH236692   3.583   6.579   4.557
12250TIP3    H136693   3.589   6.484   4.545
12250TIP3    H236694   3.672   6.611   4.542
12251TIP3   OH236695   0.996   7.211   3.550
12251TIP3    H136696   1.016   7.167   3.467
12251TIP3    H236697   0.921   7.267   3.530
12252TIP3   OH236698   2.549   2.908   5.423
12252TIP3    H136699   2.453   2.915   5.424
12252TIP3    H236700   2.569   2.838   5.484
12253TIP3   OH236701   6.163   2.667   3.479
12253TIP3    H136702   6.187   2.579   3.510
12253TIP3    H236703   6.138   2.714   3.559
12254TIP3   OH236704   2.215   1.468   4.907
12254TIP3    H136705   2.160   1.546   4.911
12254TIP3    H236706   2.182   1.419   4.831
12255TIP3   OH236707   1.312   1.968   5.241
12255TIP3    H136708   1.357   2.052   5.238
12255TIP3    H236709   1.321   1.939   5.332
12256TIP3   OH236710   3.559   0.978   0.323
12256TIP3    H136711   3.630   0.959   0.385
12256TIP3    H236712   3.479   0.963   0.374
12257TIP3   OH236713   6.733   4.370   0.365
12257TIP3    H136714   6.648   4.329   0.379
12257TIP3    H236715   6.769   4.381   0.453
12258TIP3   OH236716   2.885   2.937   0.419
12258TIP3    H136717   2.933   2.972   0.495
12258TIP3    H236718   2.826   3.007   0.393
12259TIP3   OH236719   1.440   7.535   1.024
12259TIP3    H136720   1.386   7.595   0.972
12259TIP3    H236721   1.436   7.452   0.977
12260TIP3   OH236722   6.059   2.932   4.842
12260TIP3    H136723   6.026   2.932   4.752
12260TIP3    H236724   6.148   2.966   4.835
12261TIP3   OH236725   7.411   1.472   0.303
12261TIP3    H136726   7.389   1.389   0.344
12261TIP3    H236727   7.331   1.524   0.311
12262TIP3   OH236728   5.710   2.657   6.637
12262TIP3    H136729   5.751   2.571   6.623
12262TIP3    H236730   5.616   2.640   6.630
12263TIP3   OH236731   3.129   2.076   2.798
12263TIP3    H136732   3.055   2.070   2.859
12263TIP3    H236733   3.089   2.102   2.715
12264TIP3   OH236734   2.843   7.626   1.883
12264TIP3    H136735   2.930   7.659   1.905
12264TIP3    H236736   2.834   7.545   1.934
12265TIP3   OH236737   1.064   7.623   6.005
12265TIP3    H136738   1.038   7.715   5.999
12265TIP3    H236739   1.096   7.613   6.095
12266TIP3   OH236740   5.298   3.238   0.549
12266TIP3    H136741   5.387   3.220   0.521
12266TIP3    H236742   5.302   3.322   0.594
12267TIP3   OH236743   3.174   4.505   0.245
12267TIP3    H136744   3.136   4.463   0.168
12267TIP3    H236745   3.108   4.495   0.313
12268TIP3   OH236746   2.899   1.820   2.587
12268TIP3    H136747   2.887   1.753   2.654
12268TIP3    H236748   2.922   1.772   2.508
12269TIP3   OH236749   8.146   0.553   0.361
12269TIP3    H136750   8.074   0.515   0.411
12269TIP3    H236751   8.121   0.645   0.349
12270TIP3   OH236752   5.895   3.731   5.979
12270TIP3    H136753   5.905   3.784   6.058
12270TIP3    H236754   5.854   3.650   6.010
12271TIP3   OH236755   1.806   2.408   4.286
12271TIP3    H136756   1.822   2.408   4.380
12271TIP3    H236757   1.883   2.365   4.248
12272TIP3   OH236758   2.942   4.246   3.436
12272TIP3    H136759   2.872   4.311   3.432
12272TIP3    H236760   3.003   4.272   3.368
12273TIP3   OH236761   6.879   7.647   6.303
12273TIP3    H136762   6.805   7.629   6.246
12273TIP3    H236763   6.897   7.740   6.290
12274TIP3   OH236764   8.120   2.549   0.605
12274TIP3    H136765   8.041   2.512   0.567
12274TIP3    H236766   8.139   2.494   0.681
12275TIP3   OH236767   6.915   1.639   6.199
12275TIP3    H136768   6.950   1.694   6.129
12275TIP3    H236769   6.963   1.667   6.277
12276TIP3   OH236770   4.447   7.103   5.782
12276TIP3    H136771   4.364   7.056   5.772
12276TIP3    H236772   4.459   7.111   5.876
12277TIP3   OH236773   0.662   7.261   5.674
12277TIP3    H136774   0.572   7.250   5.706
12277TIP3    H236775   0.717   7.230   5.746
12278TIP3   OH236776   6.179   1.379   4.333
12278TIP3    H136777   6.094   1.361   4.292
12278TIP3    H236778   6.165   1.356   4.425
12279TIP3   OH236779   3.979   7.165   5.301
12279TIP3    H136780   4.054   7.191   5.247
12279TIP3    H236781   4.013   7.166   5.391
12280TIP3   OH236782   3.434   5.429   1.878
12280TIP3    H136783   3.345   5.394   1.882
12280TIP3    H236784   3.455   5.452   1.968
12281TIP3   OH236785   4.572   6.222   1.055
12281TIP3    H136786   4.645   6.197   0.998
12281TIP3    H236787   4.613   6.245   1.138
12282TIP3   OH236788   3.040   0.222   4.540
12282TIP3    H136789   2.997   0.258   4.463
12282TIP3    H236790   2.982   0.245   4.613
12283TIP3   OH236791   2.980   0.094   5.578
12283TIP3    H136792   2.956   0.148   5.653
12283TIP3    H236793   3.022   0.017   5.617
12284TIP3   OH236794   2.581   2.927   0.762
12284TIP3    H136795   2.664   2.901   0.800
12284TIP3    H236796   2.579   2.884   0.676
12285TIP3   OH236797   4.270   4.978   1.955
12285TIP3    H136798   4.192   4.955   1.904
12285TIP3    H236799   4.307   5.053   1.910
12286TIP3   OH236800   6.370   6.785   5.914
12286TIP3    H136801   6.351   6.695   5.939
12286TIP3    H236802   6.465   6.793   5.918
12287TIP3   OH236803   1.071   7.472   3.337
12287TIP3    H136804   1.034   7.526   3.407
12287TIP3    H236805   1.154   7.440   3.373
12288TIP3   OH236806   1.402   1.133   3.675
12288TIP3    H136807   1.353   1.213   3.695
12288TIP3    H236808   1.359   1.065   3.725
12289TIP3   OH236809  -0.003   6.585   1.985
12289TIP3    H136810   0.078   6.626   2.017
12289TIP3    H236811  -0.071   6.619   2.044
12290TIP3   OH236812   7.840   7.423   1.709
12290TIP3    H136813   7.845   7.444   1.616
12290TIP3    H236814   7.888   7.341   1.718
12291TIP3   OH236815   0.312   1.282   4.987
12291TIP3    H136816   0.321   1.321   5.074
12291TIP3    H236817   0.217   1.273   4.974
12292TIP3   OH236818   1.781   1.215   3.987
12292TIP3    H136819   1.788   1.310   3.988
12292TIP3    H236820   1.870   1.184   4.004
12293TIP3   OH236821   6.416   0.883   2.592
12293TIP3    H136822   6.345   0.857   2.651
12293TIP3    H236823   6.480   0.812   2.600
12294TIP3   OH236824   4.055   5.613   4.958
12294TIP3    H136825   4.025   5.688   4.906
12294TIP3    H236826   4.150   5.613   4.947
12295TIP3   OH236827   6.045   3.324   5.882
12295TIP3    H136828   6.080   3.398   5.932
12295TIP3    H236829   6.076   3.247   5.928
12296TIP3   OH236830   7.360   3.049   1.165
12296TIP3    H136831   7.328   2.988   1.099
12296TIP3    H236832   7.355   3.135   1.123
12297TIP3   OH236833   0.767   5.121   1.078
12297TIP3    H136834   0.812   5.135   0.995
12297TIP3    H236835   0.754   5.027   1.083
12298TIP3   OH236836   0.173   6.027   1.350
12298TIP3    H136837   0.099   5.967   1.355
12298TIP3    H236838   0.141   6.099   1.295
12299TIP3   OH236839   6.626   1.745   3.370
12299TIP3    H136840   6.594   1.800   3.299
12299TIP3    H236841   6.666   1.670   3.326
12300TIP3   OH236842   2.410   4.035   5.145
12300TIP3    H136843   2.503   4.035   5.121
12300TIP3    H236844   2.372   4.105   5.091
12301TIP3   OH236845   8.176   3.933   6.376
12301TIP3    H136846   8.135   3.934   6.463
12301TIP3    H236847   8.253   3.878   6.386
12302TIP3   OH236848   1.239   3.731   2.143
12302TIP3    H136849   1.301   3.803   2.135
12302TIP3    H236850   1.294   3.655   2.162
12303TIP3   OH236851   5.982   5.468   4.529
12303TIP3    H136852   6.032   5.528   4.585
12303TIP3    H236853   5.991   5.505   4.441
12304TIP3   OH236854   4.140   6.154   1.644
12304TIP3    H136855   4.131   6.058   1.643
12304TIP3    H236856   4.233   6.169   1.631
12305TIP3   OH236857   2.471   6.768   6.493
12305TIP3    H136858   2.422   6.686   6.499
12305TIP3    H236859   2.418   6.824   6.437
12306TIP3   OH236860   5.904   1.695   2.809
12306TIP3    H136861   5.963   1.768   2.795
12306TIP3    H236862   5.836   1.729   2.867
12307TIP3   OH236863   4.066   2.833   0.863
12307TIP3    H136864   4.143   2.813   0.917
12307TIP3    H236865   4.006   2.761   0.879
12308TIP3   OH236866   7.134   2.366   6.126
12308TIP3    H136867   7.109   2.435   6.064
12308TIP3    H236868   7.153   2.290   6.070
12309TIP3   OH236869   1.354   1.304   4.785
12309TIP3    H136870   1.379   1.306   4.693
12309TIP3    H236871   1.433   1.334   4.831
12310TIP3   OH236872   8.202   2.190   3.148
12310TIP3    H136873   8.244   2.194   3.234
12310TIP3    H236874   8.245   2.117   3.103
12311TIP3   OH236875   0.945   0.790   2.117
12311TIP3    H136876   0.905   0.769   2.033
12311TIP3    H236877   0.878   0.766   2.182
12312TIP3   OH236878   0.766   7.166   5.920
12312TIP3    H136879   0.834   7.226   5.952
12312TIP3    H236880   0.814   7.099   5.871
12313TIP3   OH236881   4.481   3.293   0.605
12313TIP3    H136882   4.404   3.290   0.662
12313TIP3    H236883   4.509   3.384   0.608
12314TIP3   OH236884   5.739   2.335   6.602
12314TIP3    H136885   5.685   2.269   6.646
12314TIP3    H236886   5.829   2.312   6.626
12315TIP3   OH236887   1.628   5.328   6.298
12315TIP3    H136888   1.596   5.381   6.225
12315TIP3    H236889   1.655   5.245   6.258
12316TIP3   OH236890   3.558   0.929   1.496
12316TIP3    H136891   3.595   1.017   1.504
12316TIP3    H236892   3.470   0.943   1.461
12317TIP3   OH236893   6.811   3.943   0.502
12317TIP3    H136894   6.865   4.017   0.475
12317TIP3    H236895   6.751   3.928   0.429
12318TIP3   OH236896   2.629   2.297   0.857
12318TIP3    H136897   2.555   2.251   0.817
12318TIP3    H236898   2.607   2.299   0.951
12319TIP3   OH236899   1.478   3.847   2.121
12319TIP3    H136900   1.560   3.813   2.155
12319TIP3    H236901   1.504   3.914   2.057
12320TIP3   OH236902   0.909   3.009   4.711
12320TIP3    H136903   0.948   2.977   4.793
12320TIP3    H236904   0.839   3.068   4.740
12321TIP3   OH236905   5.669   2.598   2.491
12321TIP3    H136906   5.704   2.589   2.579
12321TIP3    H236907   5.746   2.609   2.435
12322TIP3   OH236908   5.092   2.368   2.169
12322TIP3    H136909   5.097   2.375   2.264
12322TIP3    H236910   5.106   2.276   2.150
12323TIP3   OH236911   2.986   4.757   5.115
12323TIP3    H136912   3.009   4.844   5.083
12323TIP3    H236913   2.922   4.773   5.184
12324TIP3   OH236914   1.666   4.091   4.155
12324TIP3    H136915   1.726   4.160   4.126
12324TIP3    H236916   1.699   4.011   4.115
12325TIP3   OH236917   1.658   5.013   3.317
12325TIP3    H136918   1.568   5.038   3.341
12325TIP3    H236919   1.656   4.918   3.311
12326TIP3   OH236920   3.920   3.246   5.399
12326TIP3    H136921   3.941   3.326   5.352
12326TIP3    H236922   3.956   3.176   5.345
12327TIP3   OH236923   7.414   7.320   5.674
12327TIP3    H136924   7.351   7.332   5.603
12327TIP3    H236925   7.446   7.408   5.693
12328TIP3   OH236926   2.082   2.251   0.183
12328TIP3    H136927   2.149   2.287   0.125
12328TIP3    H236928   2.061   2.166   0.145
12329TIP3   OH236929   3.956   0.376   5.758
12329TIP3    H136930   3.944   0.359   5.851
12329TIP3    H236931   4.018   0.448   5.754
12330TIP3   OH236932   2.787   0.357   3.065
12330TIP3    H136933   2.879   0.368   3.044
12330TIP3    H236934   2.753   0.447   3.070
12331TIP3   OH236935   7.705   1.398   1.672
12331TIP3    H136936   7.622   1.399   1.719
12331TIP3    H236937   7.767   1.358   1.734
12332TIP3   OH236938   6.251   7.712   4.309
12332TIP3    H136939   6.252   7.754   4.223
12332TIP3    H236940   6.197   7.771   4.363
12333TIP3   OH236941   6.437   6.789   3.175
12333TIP3    H136942   6.529   6.808   3.157
12333TIP3    H236943   6.389   6.828   3.101
12334TIP3   OH236944   4.666   4.613   5.409
12334TIP3    H136945   4.665   4.704   5.436
12334TIP3    H236946   4.756   4.597   5.380
12335TIP3   OH236947   2.629   3.460   0.510
12335TIP3    H136948   2.713   3.418   0.524
12335TIP3    H236949   2.591   3.414   0.435
12336TIP3   OH236950   0.537   6.734   4.201
12336TIP3    H136951   0.474   6.695   4.139
12336TIP3    H236952   0.569   6.660   4.252
12337TIP3   OH236953   1.628   7.731   1.296
12337TIP3    H136954   1.633   7.724   1.200
12337TIP3    H236955   1.627   7.825   1.313
12338TIP3   OH236956   2.199   2.930   4.015
12338TIP3    H136957   2.187   2.877   3.937
12338TIP3    H236958   2.120   2.984   4.019
12339TIP3   OH236959   0.590   0.747   1.838
12339TIP3    H136960   0.561   0.680   1.900
12339TIP3    H236961   0.682   0.762   1.860
12340TIP3   OH236962   4.698   1.358   5.816
12340TIP3    H136963   4.704   1.305   5.895
12340TIP3    H236964   4.723   1.300   5.745
12341TIP3   OH236965   7.490   7.056   3.105
12341TIP3    H136966   7.413   7.108   3.082
12341TIP3    H236967   7.564   7.107   3.073
12342TIP3   OH236968   3.255   0.650   2.710
12342TIP3    H136969   3.298   0.592   2.772
12342TIP3    H236970   3.201   0.592   2.656
12343TIP3   OH236971   2.512   1.564   2.809
12343TIP3    H136972   2.487   1.574   2.717
12343TIP3    H236973   2.527   1.470   2.820
12344TIP3   OH236974   3.314   5.969   3.373
12344TIP3    H136975   3.391   6.003   3.417
12344TIP3    H236976   3.348   5.897   3.319
12345TIP3   OH236977   0.970   6.505   4.856
12345TIP3    H136978   0.979   6.433   4.919
12345TIP3    H236979   0.905   6.564   4.895
12346TIP3   OH236980   4.639   0.546   3.124
12346TIP3    H136981   4.593   0.572   3.044
12346TIP3    H236982   4.619   0.453   3.133
12347TIP3   OH236983   5.724   0.193   5.358
12347TIP3    H136984   5.803   0.196   5.304
12347TIP3    H236985   5.688   0.106   5.343
12348TIP3   OH236986   1.366   3.610   2.885
12348TIP3    H136987   1.421   3.628   2.962
12348TIP3    H236988   1.358   3.694   2.841
12349TIP3   OH236989   3.482   0.986   4.370
12349TIP3    H136990   3.408   1.020   4.319
12349TIP3    H236991   3.442   0.924   4.431
12350TIP3   OH236992   7.240   7.433   5.491
12350TIP3    H136993   7.168   7.480   5.449
12350TIP3    H236994   7.319   7.471   5.453
12351TIP3   OH236995   3.993   2.324   4.600
12351TIP3    H136996   3.900   2.333   4.622
12351TIP3    H236997   4.018   2.239   4.637
12352TIP3   OH236998   7.489   3.833   0.896
12352TIP3    H136999   7.579   3.832   0.865
12352TIP3    H237000   7.490   3.891   0.972
12353TIP3   OH237001   3.034   0.037   5.300
12353TIP3    H137002   3.123   0.005   5.291
12353TIP3    H237003   3.022   0.048   5.395
12354TIP3   OH237004   5.340   5.575   6.225
12354TIP3    H137005   5.395   5.547   6.152
12354TIP3    H237006   5.284   5.643   6.188
12355TIP3   OH237007   1.479   7.056   3.805
12355TIP3    H137008   1.442   7.138   3.771
12355TIP3    H237009   1.411   6.991   3.788
12356TIP3   OH237010   7.466   6.820   5.000
12356TIP3    H137011   7.504   6.853   5.081
12356TIP3    H237012   7.470   6.725   5.007
12357TIP3   OH237013   0.543   5.117   1.728
12357TIP3    H137014   0.454   5.085   1.746
12357TIP3    H237015   0.537   5.212   1.742
12358TIP3   OH237016   1.962   4.003   6.125
12358TIP3    H137017   1.876   4.045   6.130
12358TIP3    H237018   1.973   3.960   6.210
12359TIP3   OH237019   3.215   0.745   6.571
12359TIP3    H137020   3.265   0.704   6.641
12359TIP3    H237021   3.280   0.798   6.524
12360TIP3   OH237022   6.907   5.594   5.933
12360TIP3    H137023   6.986   5.587   5.880
12360TIP3    H237024   6.916   5.679   5.977
12361TIP3   OH237025   5.472   6.634   1.859
12361TIP3    H137026   5.486   6.667   1.771
12361TIP3    H237027   5.556   6.597   1.885
12362TIP3   OH237028   7.051   2.501   2.154
12362TIP3    H137029   7.093   2.553   2.223
12362TIP3    H237030   6.998   2.564   2.106
12363TIP3   OH237031   6.002   1.653   0.755
12363TIP3    H137032   6.015   1.607   0.837
12363TIP3    H237033   6.042   1.738   0.768
12364TIP3   OH237034   4.086   5.109   0.969
12364TIP3    H137035   4.144   5.051   0.919
12364TIP3    H237036   4.003   5.105   0.921
12365TIP3   OH237037   4.503   1.701   1.029
12365TIP3    H137038   4.534   1.790   1.014
12365TIP3    H237039   4.582   1.652   1.053
12366TIP3   OH237040   4.971   6.680   5.026
12366TIP3    H137041   4.942   6.676   4.934
12366TIP3    H237042   5.065   6.661   5.022
12367TIP3   OH237043   6.084   6.291   1.641
12367TIP3    H137044   6.072   6.375   1.685
12367TIP3    H237045   6.010   6.238   1.671
12368TIP3   OH237046   0.595   4.941   2.327
12368TIP3    H137047   0.647   5.005   2.375
12368TIP3    H237048   0.508   4.979   2.322
12369TIP3   OH237049   3.582   0.080   6.097
12369TIP3    H137050   3.629   0.073   6.014
12369TIP3    H237051   3.622   0.013   6.153
12370TIP3   OH237052   0.743   5.991   2.671
12370TIP3    H137053   0.831   6.009   2.639
12370TIP3    H237054   0.705   6.078   2.685
12371TIP3   OH237055   1.238   3.584   4.199
12371TIP3    H137056   1.215   3.520   4.132
12371TIP3    H237057   1.239   3.668   4.153
12372TIP3   OH237058   1.928   0.542   1.326
12372TIP3    H137059   1.920   0.604   1.254
12372TIP3    H237060   1.853   0.561   1.382
12373TIP3   OH237061   2.961   7.416   2.828
12373TIP3    H137062   2.955   7.507   2.799
12373TIP3    H237063   2.947   7.419   2.922
12374TIP3   OH237064   4.933   7.895   2.252
12374TIP3    H137065   4.931   7.869   2.344
12374TIP3    H237066   4.974   7.821   2.207
12375TIP3   OH237067   1.978   3.604   6.574
12375TIP3    H137068   1.938   3.521   6.547
12375TIP3    H237069   1.926   3.632   6.649
12376TIP3   OH237070   3.175   2.500   6.395
12376TIP3    H137071   3.085   2.498   6.430
12376TIP3    H237072   3.223   2.439   6.450
12377TIP3   OH237073   3.676   6.196   4.325
12377TIP3    H137074   3.702   6.196   4.418
12377TIP3    H237075   3.636   6.282   4.311
12378TIP3   OH237076   3.596   3.970   6.362
12378TIP3    H137077   3.611   3.896   6.304
12378TIP3    H237078   3.512   3.951   6.404
12379TIP3   OH237079   5.792   6.034   2.048
12379TIP3    H137080   5.738   6.077   1.981
12379TIP3    H237081   5.731   5.978   2.096
12380TIP3   OH237082   3.156   5.403   3.532
12380TIP3    H137083   3.246   5.413   3.501
12380TIP3    H237084   3.136   5.310   3.520
12381TIP3   OH237085   4.668   7.013   6.292
12381TIP3    H137086   4.623   6.986   6.372
12381TIP3    H237087   4.733   6.944   6.276
12382TIP3   OH237088   6.836   0.272   4.167
12382TIP3    H137089   6.788   0.195   4.198
12382TIP3    H237090   6.860   0.319   4.248
12383TIP3   OH237091   5.203   0.290   3.990
12383TIP3    H137092   5.126   0.238   3.968
12383TIP3    H237093   5.249   0.302   3.907
12384TIP3   OH237094   2.782   3.843   5.926
12384TIP3    H137095   2.861   3.794   5.904
12384TIP3    H237096   2.806   3.935   5.910
12385TIP3   OH237097   6.422   6.029   1.558
12385TIP3    H137098   6.400   6.104   1.613
12385TIP3    H237099   6.416   5.953   1.616
12386TIP3   OH237100   5.900   4.306   0.312
12386TIP3    H137101   5.981   4.355   0.329
12386TIP3    H237102   5.925   4.241   0.247
12387TIP3   OH237103   7.497   4.053   5.030
12387TIP3    H137104   7.465   3.973   5.073
12387TIP3    H237105   7.540   4.102   5.101
12388TIP3   OH237106   5.527   0.464   0.535
12388TIP3    H137107   5.472   0.524   0.586
12388TIP3    H237108   5.472   0.438   0.461
12389TIP3   OH237109   3.635  -0.013   3.727
12389TIP3    H137110   3.612   0.019   3.640
12389TIP3    H237111   3.653   0.067   3.777
12390TIP3   OH237112   0.736   4.030   2.843
12390TIP3    H137113   0.829   4.028   2.819
12390TIP3    H237114   0.690   4.041   2.760
12391TIP3   OH237115   7.370   0.660   1.145
12391TIP3    H137116   7.402   0.611   1.220
12391TIP3    H237117   7.276   0.673   1.162
12392TIP3   OH237118   5.308   5.388   2.160
12392TIP3    H137119   5.401   5.404   2.178
12392TIP3    H237120   5.274   5.351   2.241
12393TIP3   OH237121   3.917   3.430   1.512
12393TIP3    H137122   3.970   3.508   1.525
12393TIP3    H237123   3.871   3.417   1.595
12394TIP3   OH237124   5.206   6.430   2.269
12394TIP3    H137125   5.285   6.484   2.259
12394TIP3    H237126   5.134   6.492   2.264
12395TIP3   OH237127   4.309   4.920   4.327
12395TIP3    H137128   4.366   4.965   4.265
12395TIP3    H237129   4.284   4.840   4.282
12396TIP3   OH237130   5.326   0.643   3.035
12396TIP3    H137131   5.372   0.693   3.102
12396TIP3    H237132   5.320   0.554   3.071
12397TIP3   OH237133   4.004   4.828   6.607
12397TIP3    H137134   4.057   4.783   6.673
12397TIP3    H237135   4.060   4.830   6.529
12398TIP3   OH237136   4.842   4.693   0.619
12398TIP3    H137137   4.751   4.678   0.647
12398TIP3    H237138   4.838   4.687   0.523
12399TIP3   OH237139   1.189   6.617   3.499
12399TIP3    H137140   1.130   6.691   3.488
12399TIP3    H237141   1.276   6.652   3.476
12400TIP3   OH237142   7.864   3.177   0.134
12400TIP3    H137143   7.806   3.143   0.066
12400TIP3    H237144   7.890   3.100   0.185
12401TIP3   OH237145   0.869   5.754   1.967
12401TIP3    H137146   0.806   5.690   2.000
12401TIP3    H237147   0.948   5.702   1.949
12402TIP3   OH237148   4.118   1.438   1.177
12402TIP3    H137149   4.030   1.467   1.200
12402TIP3    H237150   4.153   1.508   1.122
12403TIP3   OH237151   6.415   5.499   0.207
12403TIP3    H137152   6.499   5.452   0.208
12403TIP3    H237153   6.349   5.430   0.199
12404TIP3   OH237154   2.347   3.880   0.024
12404TIP3    H137155   2.393   3.956   0.059
12404TIP3    H237156   2.401   3.805   0.050
12405TIP3   OH237157   3.892   3.078   3.164
12405TIP3    H137158   3.914   3.132   3.240
12405TIP3    H237159   3.824   3.127   3.118
12406TIP3   OH237160   7.017   2.369   5.275
12406TIP3    H137161   6.925   2.345   5.263
12406TIP3    H237162   7.017   2.465   5.273
12407TIP3   OH237163   3.955   2.809   0.572
12407TIP3    H137164   3.879   2.805   0.630
12407TIP3    H237165   4.013   2.740   0.604
12408TIP3   OH237166   2.515   5.544   1.537
12408TIP3    H137167   2.610   5.548   1.523
12408TIP3    H237168   2.504   5.561   1.631
12409TIP3   OH237169   8.110   6.283   6.348
12409TIP3    H137170   8.115   6.220   6.277
12409TIP3    H237171   8.200   6.294   6.378
12410TIP3   OH237172   4.667   0.906   0.972
12410TIP3    H137173   4.730   0.977   0.980
12410TIP3    H237174   4.593   0.932   1.027
12411TIP3   OH237175   1.692   6.182   5.792
12411TIP3    H137176   1.754   6.156   5.859
12411TIP3    H237177   1.684   6.105   5.736
12412TIP3   OH237178   5.361   5.030   1.564
12412TIP3    H137179   5.324   5.028   1.475
12412TIP3    H237180   5.294   4.989   1.618
12413TIP3   OH237181   6.426   5.576   2.985
12413TIP3    H137182   6.437   5.602   2.893
12413TIP3    H237183   6.348   5.624   3.014
12414TIP3   OH237184  -0.009   2.561   6.467
12414TIP3    H137185  -0.002   2.539   6.560
12414TIP3    H237186  -0.005   2.476   6.423
12415TIP3   OH237187   6.137   3.611   6.635
12415TIP3    H137188   6.170   3.541   6.692
12415TIP3    H237189   6.129   3.571   6.549
12416TIP3   OH237190   7.753   3.107   3.769
12416TIP3    H137191   7.809   3.050   3.822
12416TIP3    H237192   7.805   3.125   3.691
12417TIP3   OH237193   4.240   3.376   5.270
12417TIP3    H137194   4.158   3.425   5.271
12417TIP3    H237195   4.235   3.321   5.192
12418TIP3   OH237196   2.137   0.639   0.918
12418TIP3    H137197   2.068   0.585   0.879
12418TIP3    H237198   2.188   0.577   0.972
12419TIP3   OH237199   3.029   4.773   6.113
12419TIP3    H137200   2.982   4.696   6.081
12419TIP3    H237201   2.961   4.828   6.153
12420TIP3   OH237202   1.238   2.966   6.590
12420TIP3    H137203   1.248   2.871   6.579
12420TIP3    H237204   1.275   2.984   6.676
12421TIP3   OH237205   6.220   3.330   0.821
12421TIP3    H137206   6.148   3.301   0.765
12421TIP3    H237207   6.298   3.320   0.767
12422TIP3   OH237208   6.340   2.796   1.342
12422TIP3    H137209   6.313   2.768   1.429
12422TIP3    H237210   6.309   2.887   1.335
12423TIP3   OH237211   2.296   5.062   2.629
12423TIP3    H137212   2.357   5.027   2.563
12423TIP3    H237213   2.259   4.985   2.671
12424TIP3   OH237214   1.586   4.119   2.516
12424TIP3    H137215   1.584   4.159   2.429
12424TIP3    H237216   1.618   4.189   2.574
12425TIP3   OH237217   7.191   0.251   5.732
12425TIP3    H137218   7.234   0.335   5.716
12425TIP3    H237219   7.108   0.257   5.685
12426TIP3   OH237220   5.802   6.171   3.592
12426TIP3    H137221   5.791   6.193   3.684
12426TIP3    H237222   5.889   6.133   3.586
12427TIP3   OH237223   1.504   2.059   2.693
12427TIP3    H137224   1.423   2.079   2.647
12427TIP3    H237225   1.476   2.025   2.777
12428TIP3   OH237226   5.142   5.675   0.095
12428TIP3    H137227   5.181   5.762   0.106
12428TIP3    H237228   5.216   5.616   0.087
12429TIP3   OH237229   7.697   2.692   0.496
12429TIP3    H137230   7.749   2.676   0.575
12429TIP3    H237231   7.631   2.623   0.495
12430TIP3   OH237232   2.115   1.369   1.379
12430TIP3    H137233   2.109   1.332   1.467
12430TIP3    H237234   2.167   1.449   1.390
12431TIP3   OH237235   3.778   1.143   3.408
12431TIP3    H137236   3.733   1.130   3.325
12431TIP3    H237237   3.871   1.137   3.386
12432TIP3   OH237238   7.432   3.593   2.364
12432TIP3    H137239   7.450   3.591   2.458
12432TIP3    H237240   7.422   3.500   2.340
12433TIP3   OH237241   0.048   0.168   2.831
12433TIP3    H137242   0.106   0.170   2.908
12433TIP3    H237243   0.020   0.259   2.820
12434TIP3   OH237244   1.743   1.783   1.573
12434TIP3    H137245   1.648   1.783   1.561
12434TIP3    H237246   1.755   1.802   1.666
12435TIP3   OH237247   8.215   1.897   5.429
12435TIP3    H137248   8.252   1.947   5.501
12435TIP3    H237249   8.181   1.962   5.368
12436TIP3   OH237250   2.513   1.670   3.818
12436TIP3    H137251   2.572   1.683   3.743
12436TIP3    H237252   2.565   1.697   3.894
12437TIP3   OH237253   3.544   0.012   4.154
12437TIP3    H137254   3.503   0.075   4.213
12437TIP3    H237255   3.521   0.044   4.067
12438TIP3   OH237256   0.877   2.613   0.064
12438TIP3    H137257   0.850   2.665   0.140
12438TIP3    H237258   0.854   2.523   0.087
12439TIP3   OH237259   6.452   7.642   6.727
12439TIP3    H137260   6.496   7.683   6.652
12439TIP3    H237261   6.494   7.556   6.735
12440TIP3   OH237262   5.981   1.837   1.283
12440TIP3    H137263   5.897   1.847   1.238
12440TIP3    H237264   5.959   1.839   1.376
12441TIP3   OH237265   0.342   5.019   5.789
12441TIP3    H137266   0.376   4.951   5.847
12441TIP3    H237267   0.385   5.004   5.705
12442TIP3   OH237268   2.126   7.480   1.069
12442TIP3    H137269   2.169   7.526   1.141
12442TIP3    H237270   2.193   7.420   1.035
12443TIP3   OH237271   1.229   7.375   3.571
12443TIP3    H137272   1.134   7.365   3.560
12443TIP3    H237273   1.243   7.370   3.665
12444TIP3   OH237274   4.963   2.616   3.125
12444TIP3    H137275   5.038   2.557   3.135
12444TIP3    H237276   4.892   2.559   3.094
12445TIP3   OH237277   1.675   0.666   3.990
12445TIP3    H137278   1.738   0.684   3.921
12445TIP3    H237279   1.684   0.573   4.008
12446TIP3   OH237280   7.948   7.451   3.730
12446TIP3    H137281   7.973   7.381   3.670
12446TIP3    H237282   7.991   7.429   3.813
12447TIP3   OH237283   4.083   5.200   2.747
12447TIP3    H137284   4.012   5.156   2.700
12447TIP3    H237285   4.163   5.175   2.700
12448TIP3   OH237286   6.502   1.294   1.549
12448TIP3    H137287   6.561   1.229   1.586
12448TIP3    H237288   6.536   1.378   1.581
12449TIP3   OH237289   7.588   7.251   6.364
12449TIP3    H137290   7.633   7.325   6.406
12449TIP3    H237291   7.501   7.285   6.344
12450TIP3   OH237292   5.850   2.660   5.010
12450TIP3    H137293   5.854   2.577   5.057
12450TIP3    H237294   5.896   2.722   5.066
12451TIP3   OH237295   5.183   3.812   2.002
12451TIP3    H137296   5.102   3.862   1.988
12451TIP3    H237297   5.170   3.732   1.951
12452TIP3   OH237298   7.025   1.267   4.938
12452TIP3    H137299   7.112   1.244   4.907
12452TIP3    H237300   7.023   1.363   4.934
12453TIP3   OH237301   7.802   4.725   6.383
12453TIP3    H137302   7.885   4.771   6.393
12453TIP3    H237303   7.815   4.666   6.309
12454TIP3   OH237304   4.806   2.925   2.170
12454TIP3    H137305   4.852   2.893   2.092
12454TIP3    H237306   4.869   2.914   2.241
12455TIP3   OH237307   1.248   3.273   2.704
12455TIP3    H137308   1.302   3.302   2.631
12455TIP3    H237309   1.167   3.242   2.664
12456TIP3   OH237310   7.749   5.592   0.609
12456TIP3    H137311   7.751   5.521   0.545
12456TIP3    H237312   7.733   5.671   0.557
12457TIP3   OH237313   8.142   3.002   5.418
12457TIP3    H137314   8.081   3.068   5.452
12457TIP3    H237315   8.141   2.932   5.483
12458TIP3   OH237316   0.691   5.735   5.453
12458TIP3    H137317   0.712   5.641   5.454
12458TIP3    H237318   0.606   5.740   5.411
12459TIP3   OH237319   0.114   0.644   2.371
12459TIP3    H137320   0.021   0.647   2.349
12459TIP3    H237321   0.120   0.577   2.439
12460TIP3   OH237322   2.741   5.139   1.126
12460TIP3    H137323   2.703   5.066   1.176
12460TIP3    H237324   2.785   5.097   1.052
12461TIP3   OH237325   1.943   7.517   1.659
12461TIP3    H137326   1.888   7.528   1.582
12461TIP3    H237327   2.004   7.447   1.635
12462TIP3   OH237328   0.162   2.427   2.170
12462TIP3    H137329   0.076   2.442   2.129
12462TIP3    H237330   0.142   2.380   2.251
12463TIP3   OH237331   1.428   1.461   0.401
12463TIP3    H137332   1.507   1.480   0.351
12463TIP3    H237333   1.457   1.464   0.493
12464TIP3   OH237334   2.113   3.337   2.309
12464TIP3    H137335   2.125   3.244   2.329
12464TIP3    H237336   2.180   3.357   2.244
12465TIP3   OH237337   2.476   0.692   5.637
12465TIP3    H137338   2.400   0.730   5.682
12465TIP3    H237339   2.508   0.761   5.580
12466TIP3   OH237340   4.229   0.555   4.708
12466TIP3    H137341   4.324   0.539   4.713
12466TIP3    H237342   4.192   0.501   4.778
12467TIP3   OH237343   6.846   2.595   1.037
12467TIP3    H137344   6.765   2.591   1.088
12467TIP3    H237345   6.884   2.507   1.046
12468TIP3   OH237346   0.518   5.317   2.447
12468TIP3    H137347   0.597   5.368   2.465
12468TIP3    H237348   0.466   5.372   2.389
12469TIP3   OH237349   6.097   4.872   0.512
12469TIP3    H137350   6.078   4.811   0.583
12469TIP3    H237351   6.131   4.950   0.555
12470TIP3   OH237352   7.400   6.564   4.216
12470TIP3    H137353   7.405   6.659   4.214
12470TIP3    H237354   7.416   6.537   4.126
12471TIP3   OH237355   7.224   0.680   0.263
12471TIP3    H137356   7.166   0.613   0.226
12471TIP3    H237357   7.291   0.693   0.196
12472TIP3   OH237358   0.240   1.587   3.947
12472TIP3    H137359   0.287   1.590   4.030
12472TIP3    H237360   0.168   1.527   3.962
12473TIP3   OH237361   2.243   5.477   0.454
12473TIP3    H137362   2.231   5.567   0.486
12473TIP3    H237363   2.325   5.480   0.405
12474TIP3   OH237364   3.507   6.291   3.867
12474TIP3    H137365   3.494   6.196   3.865
12474TIP3    H237366   3.578   6.307   3.805
12475TIP3   OH237367   1.801   2.310   0.322
12475TIP3    H137368   1.891   2.286   0.301
12475TIP3    H237369   1.758   2.320   0.237
12476TIP3   OH237370   6.223   4.125   1.755
12476TIP3    H137371   6.203   4.216   1.733
12476TIP3    H237372   6.202   4.076   1.675
12477TIP3   OH237373   3.722   3.139   1.575
12477TIP3    H137374   3.813   3.156   1.598
12477TIP3    H237375   3.679   3.225   1.581
12478TIP3   OH237376   4.338   1.003   0.616
12478TIP3    H137377   4.372   1.087   0.586
12478TIP3    H237378   4.280   1.025   0.689
12479TIP3   OH237379   0.444   1.234   0.164
12479TIP3    H137380   0.522   1.220   0.110
12479TIP3    H237381   0.446   1.327   0.186
12480TIP3   OH237382   2.877   1.636   2.777
12480TIP3    H137383   2.829   1.569   2.729
12480TIP3    H237384   2.938   1.587   2.832
12481TIP3   OH237385   7.025   3.870   4.515
12481TIP3    H137386   7.065   3.854   4.601
12481TIP3    H237387   7.046   3.962   4.496
12482TIP3   OH237388   3.806   2.308   4.303
12482TIP3    H137389   3.859   2.327   4.226
12482TIP3    H237390   3.835   2.221   4.331
12483TIP3   OH237391   7.762   6.883   5.962
12483TIP3    H137392   7.830   6.932   6.009
12483TIP3    H237393   7.724   6.947   5.902
12484TIP3   OH237394   0.781   2.570   1.390
12484TIP3    H137395   0.742   2.485   1.413
12484TIP3    H237396   0.715   2.614   1.337
12485TIP3   OH237397   7.069   2.098   0.262
12485TIP3    H137398   6.987   2.144   0.242
12485TIP3    H237399   7.121   2.162   0.310
12486TIP3   OH237400   6.474   0.199   2.688
12486TIP3    H137401   6.462   0.175   2.780
12486TIP3    H237402   6.500   0.291   2.690
12487TIP3   OH237403   5.234   2.532   3.144
12487TIP3    H137404   5.185   2.451   3.126
12487TIP3    H237405   5.263   2.523   3.234
12488TIP3   OH237406   1.545   2.650   4.342
12488TIP3    H137407   1.573   2.741   4.329
12488TIP3    H237408   1.617   2.611   4.392
12489TIP3   OH237409   7.041   7.432   6.464
12489TIP3    H137410   7.007   7.437   6.375
12489TIP3    H237411   7.011   7.348   6.496
12490TIP3   OH237412   6.488   2.934   2.848
12490TIP3    H137413   6.514   2.861   2.904
12490TIP3    H237414   6.562   2.945   2.787
12491TIP3   OH237415   7.648   3.155   6.440
12491TIP3    H137416   7.560   3.117   6.446
12491TIP3    H237417   7.667   3.156   6.346
12492TIP3   OH237418   1.032   2.875   4.213
12492TIP3    H137419   1.001   2.879   4.303
12492TIP3    H237420   1.102   2.810   4.213
12493TIP3   OH237421   2.400   7.580   2.439
12493TIP3    H137422   2.354   7.607   2.359
12493TIP3    H237423   2.478   7.634   2.441
12494TIP3   OH237424   1.957   5.901   2.400
12494TIP3    H137425   1.983   5.881   2.310
12494TIP3    H237426   1.935   5.994   2.398
12495TIP3   OH237427   3.266   3.555   1.340
12495TIP3    H137428   3.347   3.555   1.288
12495TIP3    H237429   3.234   3.465   1.333
12496TIP3   OH237430   6.062   7.449   3.629
12496TIP3    H137431   6.149   7.462   3.590
12496TIP3    H237432   6.055   7.355   3.642
12497TIP3   OH237433   7.613   2.657   4.186
12497TIP3    H137434   7.694   2.697   4.155
12497TIP3    H237435   7.636   2.566   4.203
12498TIP3   OH237436   7.073   6.710   4.301
12498TIP3    H137437   7.123   6.791   4.288
12498TIP3    H237438   7.077   6.694   4.395
12499TIP3   OH237439   1.764   5.691   2.339
12499TIP3    H137440   1.680   5.720   2.374
12499TIP3    H237441   1.823   5.765   2.354
12500TIP3   OH237442   3.825   4.972   5.911
12500TIP3    H137443   3.744   4.946   5.866
12500TIP3    H237444   3.882   5.003   5.840
12501TIP3   OH237445   5.153   6.986   6.356
12501TIP3    H137446   5.209   7.034   6.295
12501TIP3    H237447   5.122   6.910   6.306
12502TIP3   OH237448   4.325   3.775   3.435
12502TIP3    H137449   4.418   3.791   3.451
12502TIP3    H237450   4.318   3.679   3.432
12503TIP3   OH237451   1.665   7.540   4.225
12503TIP3    H137452   1.659   7.587   4.142
12503TIP3    H237453   1.589   7.570   4.275
12504TIP3   OH237454   1.546   1.772   4.054
12504TIP3    H137455   1.631   1.762   4.012
12504TIP3    H237456   1.483   1.737   3.990
12505TIP3   OH237457   4.880   2.003   0.108
12505TIP3    H137458   4.899   1.913   0.135
12505TIP3    H237459   4.954   2.054   0.141
12506TIP3   OH237460   0.647   1.219   2.322
12506TIP3    H137461   0.711   1.216   2.393
12506TIP3    H237462   0.696   1.192   2.244
12507TIP3   OH237463   6.834   2.568   2.823
12507TIP3    H137464   6.854   2.493   2.768
12507TIP3    H237465   6.885   2.554   2.903
12508TIP3   OH237466   2.522   1.200   4.581
12508TIP3    H137467   2.587   1.182   4.649
12508TIP3    H237468   2.534   1.293   4.560
12509TIP3   OH237469   4.367   4.183   0.845
12509TIP3    H137470   4.390   4.274   0.827
12509TIP3    H237471   4.322   4.153   0.766
12510TIP3   OH237472   6.874   6.290   4.525
12510TIP3    H137473   6.851   6.305   4.434
12510TIP3    H237474   6.902   6.199   4.528
12511TIP3   OH237475   1.502   5.975   3.242
12511TIP3    H137476   1.495   6.063   3.280
12511TIP3    H237477   1.586   5.941   3.273
12512TIP3   OH237478   2.468   6.223   2.244
12512TIP3    H137479   2.409   6.290   2.277
12512TIP3    H237480   2.415   6.171   2.183
12513TIP3   OH237481   6.555   2.002   2.162
12513TIP3    H137482   6.555   1.939   2.235
12513TIP3    H237483   6.483   2.062   2.183
12514TIP3   OH237484   4.854   1.013   1.520
12514TIP3    H137485   4.841   0.918   1.530
12514TIP3    H237486   4.828   1.050   1.604
12515TIP3   OH237487   1.991   2.903   1.940
12515TIP3    H137488   2.073   2.892   1.891
12515TIP3    H237489   1.970   2.816   1.971
12516TIP3   OH237490   6.072   7.315   4.145
12516TIP3    H137491   6.098   7.376   4.077
12516TIP3    H237492   6.154   7.281   4.180
12517TIP3   OH237493   0.936   5.470   6.653
12517TIP3    H137494   0.904   5.557   6.676
12517TIP3    H237495   1.001   5.485   6.584
12518TIP3   OH237496   0.216   4.127   1.422
12518TIP3    H137497   0.166   4.203   1.392
12518TIP3    H237498   0.301   4.164   1.449
12519TIP3   OH237499   5.350   3.357   5.301
12519TIP3    H137500   5.336   3.416   5.375
12519TIP3    H237501   5.277   3.295   5.306
12520TIP3   OH237502   8.079   1.683   5.191
12520TIP3    H137503   8.156   1.665   5.245
12520TIP3    H237504   8.023   1.606   5.203
12521TIP3   OH237505   8.107   3.891   3.411
12521TIP3    H137506   8.131   3.857   3.497
12521TIP3    H237507   8.157   3.972   3.401
12522TIP3   OH237508   5.217   0.897   0.764
12522TIP3    H137509   5.143   0.883   0.706
12522TIP3    H237510   5.231   0.992   0.763
12523TIP3   OH237511   0.758   0.413   4.084
12523TIP3    H137512   0.688   0.395   4.021
12523TIP3    H237513   0.828   0.353   4.060
12524TIP3   OH237514   0.342   5.102   3.023
12524TIP3    H137515   0.413   5.089   2.961
12524TIP3    H237516   0.364   5.183   3.070
12525TIP3   OH237517   0.862   6.202   4.060
12525TIP3    H137518   0.828   6.287   4.089
12525TIP3    H237519   0.787   6.158   4.021
12526TIP3   OH237520   1.524   4.327   0.196
12526TIP3    H137521   1.430   4.342   0.191
12526TIP3    H237522   1.546   4.343   0.288
12527TIP3   OH237523   6.320   0.866   4.115
12527TIP3    H137524   6.233   0.879   4.078
12527TIP3    H237525   6.374   0.837   4.042
12528TIP3   OH237526   4.730   7.316   0.749
12528TIP3    H137527   4.650   7.331   0.699
12528TIP3    H237528   4.764   7.403   0.768
12529TIP3   OH237529   4.021   6.390   3.781
12529TIP3    H137530   4.033   6.482   3.804
12529TIP3    H237531   3.962   6.355   3.848
12530TIP3   OH237532   1.785   5.024   4.985
12530TIP3    H137533   1.829   5.090   4.931
12530TIP3    H237534   1.694   5.053   4.990
12531TIP3   OH237535   0.925   0.696   5.501
12531TIP3    H137536   0.967   0.659   5.423
12531TIP3    H237537   0.994   0.745   5.545
12532TIP3   OH237538   0.549   2.193   4.418
12532TIP3    H137539   0.557   2.186   4.323
12532TIP3    H237540   0.531   2.104   4.448
12533TIP3   OH237541   1.900   5.196   3.538
12533TIP3    H137542   1.955   5.234   3.606
12533TIP3    H237543   1.928   5.105   3.533
12534TIP3   OH237544   0.164   5.480   3.379
12534TIP3    H137545   0.091   5.518   3.427
12534TIP3    H237546   0.184   5.398   3.425
12535TIP3   OH237547   4.626   2.377   5.053
12535TIP3    H137548   4.652   2.287   5.072
12535TIP3    H237549   4.542   2.369   5.010
12536TIP3   OH237550   4.449   7.239   6.304
12536TIP3    H137551   4.507   7.257   6.230
12536TIP3    H237552   4.472   7.151   6.332
12537TIP3   OH237553   4.666   2.981   5.266
12537TIP3    H137554   4.749   2.938   5.285
12537TIP3    H237555   4.630   3.004   5.352
12538TIP3   OH237556   1.859   0.727   3.766
12538TIP3    H137557   1.948   0.727   3.803
12538TIP3    H237558   1.865   0.668   3.691
12539TIP3   OH237559   3.318   6.041   2.990
12539TIP3    H137560   3.294   5.988   2.914
12539TIP3    H237561   3.260   6.011   3.060
12540TIP3   OH237562   4.158   1.597   4.415
12540TIP3    H137563   4.220   1.524   4.412
12540TIP3    H237564   4.072   1.557   4.400
12541TIP3   OH237565   1.641   4.795   2.140
12541TIP3    H137566   1.648   4.704   2.113
12541TIP3    H237567   1.694   4.843   2.077
12542TIP3   OH237568   3.280   1.954   5.205
12542TIP3    H137569   3.302   1.866   5.175
12542TIP3    H237570   3.233   1.941   5.287
12543TIP3   OH237571   5.637   0.874   5.120
12543TIP3    H137572   5.627   0.799   5.063
12543TIP3    H237573   5.728   0.902   5.108
12544TIP3   OH237574   0.361   0.482   4.843
12544TIP3    H137575   0.426   0.442   4.900
12544TIP3    H237576   0.401   0.564   4.814
12545TIP3   OH237577   8.200   5.278   1.592
12545TIP3    H137578   8.213   5.184   1.602
12545TIP3    H237579   8.258   5.303   1.520
12546TIP3   OH237580   0.040   2.714   5.892
12546TIP3    H137581  -0.038   2.765   5.874
12546TIP3    H237582   0.092   2.719   5.812
12547TIP3   OH237583   2.249   6.885   3.613
12547TIP3    H137584   2.252   6.905   3.707
12547TIP3    H237585   2.307   6.950   3.573
12548TIP3   OH237586   4.676   1.235   2.722
12548TIP3    H137587   4.762   1.212   2.759
12548TIP3    H237588   4.625   1.154   2.729
12549TIP3   OH237589   0.045   3.826   3.850
12549TIP3    H137590   0.094   3.779   3.917
12549TIP3    H237591  -0.018   3.762   3.817
12550TIP3   OH237592   7.868   7.333   6.098
12550TIP3    H137593   7.784   7.321   6.143
12550TIP3    H237594   7.844   7.363   6.011
12551TIP3   OH237595   7.945   7.015   1.151
12551TIP3    H137596   7.921   6.969   1.070
12551TIP3    H237597   7.862   7.043   1.189
12552TIP3   OH237598   0.123   1.635   3.313
12552TIP3    H137599   0.080   1.555   3.284
12552TIP3    H237600   0.160   1.613   3.398
12553TIP3   OH237601   5.396   4.761   3.373
12553TIP3    H137602   5.387   4.817   3.296
12553TIP3    H237603   5.477   4.791   3.414
12554TIP3   OH237604   6.580   2.536   3.305
12554TIP3    H137605   6.549   2.624   3.282
12554TIP3    H237606   6.624   2.547   3.389
12555TIP3   OH237607   1.929   4.779   0.235
12555TIP3    H137608   1.891   4.866   0.219
12555TIP3    H237609   1.989   4.793   0.309
12556TIP3   OH237610   5.418   5.345   0.530
12556TIP3    H137611   5.423   5.254   0.502
12556TIP3    H237612   5.383   5.392   0.454
12557TIP3   OH237613   1.609   0.777   0.241
12557TIP3    H137614   1.595   0.857   0.293
12557TIP3    H237615   1.583   0.802   0.152
12558TIP3   OH237616   0.978   4.744   3.660
12558TIP3    H137617   0.910   4.699   3.611
12558TIP3    H237618   0.931   4.801   3.721
12559TIP3   OH237619   4.545   3.358   1.064
12559TIP3    H137620   4.576   3.449   1.060
12559TIP3    H237621   4.560   3.332   1.155
12560TIP3   OH237622   6.818   4.748   4.826
12560TIP3    H137623   6.775   4.781   4.747
12560TIP3    H237624   6.895   4.804   4.836
12561TIP3   OH237625   0.610   1.539   1.809
12561TIP3    H137626   0.540   1.507   1.752
12561TIP3    H237627   0.629   1.466   1.868
12562TIP3   OH237628   5.975   2.851   3.620
12562TIP3    H137629   5.897   2.845   3.676
12562TIP3    H237630   6.022   2.928   3.653
12563TIP3   OH237631   0.145   4.681   1.277
12563TIP3    H137632   0.116   4.714   1.192
12563TIP3    H237633   0.210   4.745   1.307
12564TIP3   OH237634   1.059   1.972   6.312
12564TIP3    H137635   1.118   1.969   6.237
12564TIP3    H237636   1.087   2.048   6.362
12565TIP3   OH237637   5.966   1.432   4.654
12565TIP3    H137638   5.994   1.349   4.615
12565TIP3    H237639   6.044   1.486   4.655
12566TIP3   OH237640   4.368   5.611   4.331
12566TIP3    H137641   4.283   5.654   4.327
12566TIP3    H237642   4.365   5.545   4.262
12567TIP3   OH237643   1.131   6.434   4.281
12567TIP3    H137644   1.081   6.509   4.249
12567TIP3    H237645   1.173   6.399   4.202
12568TIP3   OH237646   4.016   5.042   5.725
12568TIP3    H137647   4.009   5.136   5.708
12568TIP3    H237648   4.058   5.007   5.647
12569TIP3   OH237649   2.243   4.649   4.796
12569TIP3    H137650   2.301   4.585   4.757
12569TIP3    H237651   2.179   4.597   4.845
12570TIP3   OH237652   6.537   6.849   1.449
12570TIP3    H137653   6.515   6.902   1.526
12570TIP3    H237654   6.480   6.883   1.380
12571TIP3   OH237655   6.182   3.178   3.949
12571TIP3    H137656   6.157   3.266   3.979
12571TIP3    H237657   6.276   3.184   3.933
12572TIP3   OH237658   4.321   7.235   6.021
12572TIP3    H137659   4.362   7.312   6.060
12572TIP3    H237660   4.339   7.164   6.083
12573TIP3   OH237661   3.426   5.286   2.327
12573TIP3    H137662   3.427   5.365   2.381
12573TIP3    H237663   3.359   5.303   2.261
12574TIP3   OH237664   4.127   5.584   5.343
12574TIP3    H137665   4.087   5.655   5.392
12574TIP3    H237666   4.063   5.513   5.348
12575TIP3   OH237667   3.850   2.228   3.744
12575TIP3    H137668   3.930   2.235   3.692
12575TIP3    H237669   3.873   2.169   3.816
12576TIP3   OH237670   0.640   1.842   0.695
12576TIP3    H137671   0.723   1.816   0.655
12576TIP3    H237672   0.575   1.782   0.658
12577TIP3   OH237673   4.632   1.952   0.923
12577TIP3    H137674   4.716   1.967   0.878
12577TIP3    H237675   4.642   1.999   1.006
12578TIP3   OH237676   8.313   2.286   0.260
12578TIP3    H137677   8.251   2.253   0.324
12578TIP3    H237678   8.340   2.372   0.294
12579TIP3   OH237679   4.363   3.509   4.450
12579TIP3    H137680   4.352   3.414   4.448
12579TIP3    H237681   4.274   3.543   4.442
12580TIP3   OH237682   2.643   1.402   6.240
12580TIP3    H137683   2.580   1.469   6.213
12580TIP3    H237684   2.728   1.443   6.227
12581TIP3   OH237685   2.620   4.128   3.694
12581TIP3    H137686   2.688   4.082   3.644
12581TIP3    H237687   2.652   4.217   3.704
12582TIP3   OH237688   5.464   3.269   6.673
12582TIP3    H137689   5.429   3.201   6.616
12582TIP3    H237690   5.394   3.333   6.682
12583TIP3   OH237691   6.827   2.270   0.265
12583TIP3    H137692   6.767   2.329   0.219
12583TIP3    H237693   6.846   2.315   0.348
12584TIP3   OH237694   2.791   7.290   2.663
12584TIP3    H137695   2.868   7.322   2.709
12584TIP3    H237696   2.795   7.195   2.675
12585TIP3   OH237697   2.409   1.931   6.553
12585TIP3    H137698   2.391   1.992   6.481
12585TIP3    H237699   2.408   1.986   6.632
12586TIP3   OH237700   5.987   3.466   1.157
12586TIP3    H137701   5.892   3.469   1.143
12586TIP3    H237702   6.009   3.373   1.158
12587TIP3   OH237703   0.601   5.759   2.783
12587TIP3    H137704   0.514   5.770   2.823
12587TIP3    H237705   0.649   5.837   2.810
12588TIP3   OH237706   6.967   1.013   6.691
12588TIP3    H137707   6.950   0.921   6.713
12588TIP3    H237708   6.914   1.063   6.753
12589TIP3   OH237709   6.303   0.379   5.606
12589TIP3    H137710   6.275   0.299   5.562
12589TIP3    H237711   6.362   0.349   5.675
12590TIP3   OH237712   5.201   0.122   1.694
12590TIP3    H137713   5.292   0.110   1.721
12590TIP3    H237714   5.180   0.043   1.646
12591TIP3   OH237715   5.043   5.016   2.107
12591TIP3    H137716   5.102   5.009   2.182
12591TIP3    H237717   5.053   5.106   2.077
12592TIP3   OH237718   0.363   5.294   5.341
12592TIP3    H137719   0.380   5.203   5.365
12592TIP3    H237720   0.429   5.315   5.276
12593TIP3   OH237721   4.687   1.632   2.961
12593TIP3    H137722   4.737   1.655   2.883
12593TIP3    H237723   4.745   1.573   3.011
12594TIP3   OH237724   0.914   1.731   0.627
12594TIP3    H137725   0.865   1.701   0.551
12594TIP3    H237726   0.913   1.657   0.688
12595TIP3   OH237727   4.972   3.600   1.221
12595TIP3    H137728   5.053   3.610   1.170
12595TIP3    H237729   4.904   3.636   1.165
12596TIP3   OH237730   5.974   5.082   2.074
12596TIP3    H137731   6.040   5.031   2.028
12596TIP3    H237732   5.893   5.070   2.024
12597TIP3   OH237733   3.258   4.468   1.078
12597TIP3    H137734   3.259   4.407   1.151
12597TIP3    H237735   3.351   4.482   1.057
12598TIP3   OH237736   6.050   6.189   6.735
12598TIP3    H137737   5.993   6.241   6.791
12598TIP3    H237738   6.113   6.149   6.795
12599TIP3   OH237739   2.813   1.235   4.686
12599TIP3    H137740   2.874   1.225   4.759
12599TIP3    H237741   2.823   1.154   4.635
12600TIP3   OH237742   6.832   6.839   3.458
12600TIP3    H137743   6.922   6.838   3.490
12600TIP3    H237744   6.835   6.893   3.379
12601TIP3   OH237745   2.825   6.800   2.478
12601TIP3    H137746   2.863   6.878   2.437
12601TIP3    H237747   2.817   6.822   2.571
12602TIP3   OH237748   1.829   3.465   5.125
12602TIP3    H137749   1.859   3.535   5.067
12602TIP3    H237750   1.769   3.414   5.071
12603TIP3   OH237751   0.983   3.259   2.971
12603TIP3    H137752   0.895   3.295   2.979
12603TIP3    H237753   1.034   3.329   2.930
12604TIP3   OH237754   7.333   0.380   2.611
12604TIP3    H137755   7.298   0.411   2.527
12604TIP3    H237756   7.397   0.447   2.636
12605TIP3   OH237757   4.306   4.783   2.956
12605TIP3    H137758   4.323   4.877   2.943
12605TIP3    H237759   4.234   4.763   2.897
12606TIP3   OH237760   6.517   3.078   1.005
12606TIP3    H137761   6.443   3.134   1.030
12606TIP3    H237762   6.530   3.096   0.912
12607TIP3   OH237763   7.052   7.568   0.967
12607TIP3    H137764   7.099   7.520   0.899
12607TIP3    H237765   6.974   7.515   0.985
12608TIP3   OH237766   6.220   3.592   2.692
12608TIP3    H137767   6.309   3.620   2.669
12608TIP3    H237768   6.207   3.510   2.645
12609TIP3   OH237769   6.080   1.099   2.337
12609TIP3    H137770   6.064   1.134   2.424
12609TIP3    H237771   6.023   1.023   2.330
12610TIP3   OH237772   4.777   3.405   4.935
12610TIP3    H137773   4.768   3.425   5.028
12610TIP3    H237774   4.688   3.392   4.904
12611TIP3   OH237775   4.285   4.006   4.532
12611TIP3    H137776   4.213   4.023   4.472
12611TIP3    H237777   4.245   3.962   4.607
12612TIP3   OH237778   5.271   3.025   5.092
12612TIP3    H137779   5.223   3.087   5.037
12612TIP3    H237780   5.301   3.078   5.167
12613TIP3   OH237781   5.437   7.340   4.161
12613TIP3    H137782   5.497   7.376   4.095
12613TIP3    H237783   5.377   7.412   4.179
12614TIP3   OH237784   6.920   2.330   0.512
12614TIP3    H137785   6.990   2.265   0.515
12614TIP3    H237786   6.885   2.333   0.601
12615TIP3   OH237787   5.543   7.718   5.204
12615TIP3    H137788   5.487   7.732   5.280
12615TIP3    H237789   5.616   7.779   5.217
12616TIP3   OH237790   7.186   5.252   6.408
12616TIP3    H137791   7.253   5.185   6.401
12616TIP3    H237792   7.110   5.215   6.365
12617TIP3   OH237793   2.430   3.225   4.594
12617TIP3    H137794   2.498   3.159   4.583
12617TIP3    H237795   2.353   3.175   4.623
12618TIP3   OH237796   5.794   3.703   1.815
12618TIP3    H137797   5.836   3.788   1.826
12618TIP3    H237798   5.845   3.644   1.871
12619TIP3   OH237799   4.666   1.992   2.947
12619TIP3    H137800   4.670   1.921   3.012
12619TIP3    H237801   4.573   1.998   2.924
12620TIP3   OH237802   6.098   4.813   3.062
12620TIP3    H137803   6.133   4.881   3.004
12620TIP3    H237804   6.011   4.794   3.027
12621TIP3   OH237805   7.633   2.251   3.568
12621TIP3    H137806   7.651   2.228   3.477
12621TIP3    H237807   7.544   2.218   3.584
12622TIP3   OH237808   0.260   3.990   6.047
12622TIP3    H137809   0.196   3.923   6.022
12622TIP3    H237810   0.277   4.038   5.966
12623TIP3   OH237811   0.299   4.674   6.076
12623TIP3    H137812   0.375   4.731   6.086
12623TIP3    H237813   0.335   4.593   6.040
12624TIP3   OH237814   3.823   5.498   2.768
12624TIP3    H137815   3.854   5.548   2.844
12624TIP3    H237816   3.768   5.560   2.720
12625TIP3   OH237817   2.259   4.735   2.924
12625TIP3    H137818   2.244   4.722   3.018
12625TIP3    H237819   2.354   4.730   2.913
12626TIP3   OH237820   4.381   2.094   0.123
12626TIP3    H137821   4.315   2.088   0.054
12626TIP3    H237822   4.455   2.043   0.090
12627TIP3   OH237823   1.594   1.318   3.511
12627TIP3    H137824   1.598   1.324   3.606
12627TIP3    H237825   1.558   1.231   3.494
12628TIP3   OH237826   8.079   2.512   2.477
12628TIP3    H137827   7.991   2.527   2.442
12628TIP3    H237828   8.109   2.598   2.506
12629TIP3   OH237829   6.153   4.980   4.288
12629TIP3    H137830   6.193   5.067   4.288
12629TIP3    H237831   6.178   4.942   4.204
12630TIP3   OH237832   4.301   5.573   6.610
12630TIP3    H137833   4.258   5.654   6.581
12630TIP3    H237834   4.263   5.505   6.555
12631TIP3   OH237835   1.786   3.951   1.048
12631TIP3    H137836   1.810   3.865   1.015
12631TIP3    H237837   1.808   3.948   1.141
12632TIP3   OH237838   3.829   3.814   6.207
12632TIP3    H137839   3.924   3.827   6.206
12632TIP3    H237840   3.816   3.735   6.154
12633TIP3   OH237841   4.562   3.281   6.127
12633TIP3    H137842   4.587   3.191   6.109
12633TIP3    H237843   4.521   3.277   6.214
12634TIP3   OH237844   1.896   3.048   6.321
12634TIP3    H137845   1.811   3.004   6.321
12634TIP3    H237846   1.877   3.135   6.285
12635TIP3   OH237847   4.316   6.333   3.365
12635TIP3    H137848   4.308   6.307   3.457
12635TIP3    H237849   4.242   6.290   3.321
12636TIP3   OH237850   8.074   5.361   2.186
12636TIP3    H137851   8.026   5.361   2.268
12636TIP3    H237852   8.007   5.374   2.119
12637TIP3   OH237853   7.115   2.539   4.692
12637TIP3    H137854   7.046   2.476   4.707
12637TIP3    H237855   7.195   2.487   4.688
12638TIP3   OH237856   6.611   5.487   2.140
12638TIP3    H137857   6.647   5.399   2.135
12638TIP3    H237858   6.682   5.544   2.110
12639TIP3   OH237859   5.708   4.845   2.640
12639TIP3    H137860   5.631   4.813   2.686
12639TIP3    H237861   5.779   4.838   2.704
12640TIP3   OH237862   0.890   6.559   5.798
12640TIP3    H137863   0.919   6.648   5.819
12640TIP3    H237864   0.969   6.506   5.801
12641TIP3   OH237865   5.188   7.711   2.597
12641TIP3    H137866   5.144   7.791   2.569
12641TIP3    H237867   5.120   7.660   2.641
12642TIP3   OH237868   0.835   5.853   4.287
12642TIP3    H137869   0.750   5.894   4.304
12642TIP3    H237870   0.898   5.924   4.295
12643TIP3   OH237871   8.100   1.627   6.437
12643TIP3    H137872   8.080   1.717   6.464
12643TIP3    H237873   8.160   1.595   6.504
12644TIP3   OH237874   7.932   0.303   4.413
12644TIP3    H137875   7.902   0.312   4.323
12644TIP3    H237876   7.870   0.241   4.453
12645TIP3   OH237877   7.173   2.167   5.928
12645TIP3    H137878   7.154   2.087   5.879
12645TIP3    H237879   7.166   2.237   5.863
12646TIP3   OH237880   2.198   3.975   1.498
12646TIP3    H137881   2.172   4.052   1.447
12646TIP3    H237882   2.258   4.011   1.564
12647TIP3   OH237883   8.070   5.348   5.254
12647TIP3    H137884   8.136   5.354   5.324
12647TIP3    H237885   8.003   5.290   5.290
12648TIP3   OH237886   1.229   0.257   2.187
12648TIP3    H137887   1.318   0.266   2.153
12648TIP3    H237888   1.206   0.346   2.215
12649TIP3   OH237889   6.866   0.087   3.539
12649TIP3    H137890   6.851   0.047   3.625
12649TIP3    H237891   6.785   0.072   3.491
12650TIP3   OH237892   3.193   0.622   0.745
12650TIP3    H137893   3.247   0.651   0.818
12650TIP3    H237894   3.247   0.636   0.667
12651TIP3   OH237895   3.649   7.193   3.882
12651TIP3    H137896   3.594   7.148   3.818
12651TIP3    H237897   3.680   7.271   3.836
12652TIP3   OH237898   2.757   1.021   3.595
12652TIP3    H137899   2.698   0.987   3.662
12652TIP3    H237900   2.699   1.064   3.532
12653TIP3   OH237901   0.127   6.850   2.212
12653TIP3    H137902   0.041   6.820   2.184
12653TIP3    H237903   0.165   6.889   2.133
12654TIP3   OH237904   4.669   5.170   1.512
12654TIP3    H137905   4.756   5.174   1.551
12654TIP3    H237906   4.657   5.078   1.489
12655TIP3   OH237907   7.178   5.499   5.350
12655TIP3    H137908   7.180   5.449   5.431
12655TIP3    H237909   7.230   5.447   5.288
12656TIP3   OH237910   7.067   4.634   2.651
12656TIP3    H137911   7.026   4.699   2.595
12656TIP3    H237912   7.091   4.681   2.731
12657TIP3   OH237913   3.230   4.239   6.695
12657TIP3    H137914   3.171   4.304   6.732
12657TIP3    H237915   3.295   4.224   6.764
12658TIP3   OH237916   7.502   4.330   2.200
12658TIP3    H137917   7.453   4.361   2.276
12658TIP3    H237918   7.511   4.407   2.144
12659TIP3   OH237919   4.604   7.741   6.667
12659TIP3    H137920   4.631   7.663   6.715
12659TIP3    H237921   4.663   7.810   6.698
12660TIP3   OH237922   7.491   7.545   0.318
12660TIP3    H137923   7.515   7.635   0.296
12660TIP3    H237924   7.423   7.523   0.254
12661TIP3   OH237925   1.179   3.449   0.343
12661TIP3    H137926   1.174   3.543   0.328
12661TIP3    H237927   1.097   3.414   0.308
12662TIP3   OH237928   0.382   6.404   1.533
12662TIP3    H137929   0.290   6.389   1.557
12662TIP3    H237930   0.419   6.316   1.527
12663TIP3   OH237931   2.482   5.145   5.608
12663TIP3    H137932   2.546   5.196   5.658
12663TIP3    H237933   2.418   5.118   5.673
12664TIP3   OH237934   7.127   1.191   2.938
12664TIP3    H137935   7.061   1.161   2.876
12664TIP3    H237936   7.115   1.135   3.015
12665TIP3   OH237937   1.214   4.351   6.182
12665TIP3    H137938   1.209   4.376   6.274
12665TIP3    H237939   1.124   4.330   6.158
12666TIP3   OH237940   1.371   7.287   6.680
12666TIP3    H137941   1.298   7.239   6.642
12666TIP3    H237942   1.368   7.266   6.773
12667TIP3   OH237943   5.015   3.243   3.079
12667TIP3    H137944   5.075   3.211   3.012
12667TIP3    H237945   4.928   3.231   3.042
12668TIP3   OH237946   4.598   6.336   5.011
12668TIP3    H137947   4.581   6.258   4.958
12668TIP3    H237948   4.609   6.406   4.947
12669TIP3   OH237949   4.837   4.049   2.295
12669TIP3    H137950   4.933   4.053   2.294
12669TIP3    H237951   4.814   4.049   2.388
12670TIP3   OH237952   0.313   2.110   1.527
12670TIP3    H137953   0.397   2.104   1.481
12670TIP3    H237954   0.253   2.056   1.475
12671TIP3   OH237955   3.368   3.633   0.526
12671TIP3    H137956   3.337   3.721   0.549
12671TIP3    H237957   3.409   3.600   0.606
12672TIP3   OH237958   8.021   0.720   2.026
12672TIP3    H137959   8.074   0.800   2.025
12672TIP3    H237960   7.931   0.750   2.016
12673TIP3   OH237961   3.396   0.598   4.832
12673TIP3    H137962   3.449   0.536   4.882
12673TIP3    H237963   3.391   0.560   4.745
12674TIP3   OH237964   3.530   5.481   5.740
12674TIP3    H137965   3.585   5.447   5.670
12674TIP3    H237966   3.534   5.415   5.809
12675TIP3   OH237967   2.091   0.482   5.690
12675TIP3    H137968   2.055   0.559   5.733
12675TIP3    H237969   2.146   0.440   5.756
12676TIP3   OH237970   7.487   5.098   6.678
12676TIP3    H137971   7.501   5.030   6.612
12676TIP3    H237972   7.526   5.177   6.640
12677TIP3   OH237973   5.738   6.365   5.113
12677TIP3    H137974   5.719   6.316   5.193
12677TIP3    H237975   5.777   6.300   5.054
12678TIP3   OH237976   4.762   3.658   6.188
12678TIP3    H137977   4.774   3.566   6.163
12678TIP3    H237978   4.717   3.698   6.114
12679TIP3   OH237979   2.393   0.560   3.561
12679TIP3    H137980   2.298   0.559   3.577
12679TIP3    H237981   2.415   0.468   3.544
12680TIP3   OH237982   2.048   7.129   6.286
12680TIP3    H137983   2.004   7.169   6.360
12680TIP3    H237984   2.077   7.202   6.232
12681TIP3   OH237985   3.924   1.890   1.687
12681TIP3    H137986   3.889   1.936   1.763
12681TIP3    H237987   4.016   1.873   1.709
12682TIP3   OH237988   5.378   4.494   5.151
12682TIP3    H137989   5.419   4.412   5.124
12682TIP3    H237990   5.439   4.562   5.124
12683TIP3   OH237991   0.731   0.761   2.667
12683TIP3    H137992   0.659   0.743   2.728
12683TIP3    H237993   0.780   0.679   2.664
12684TIP3   OH237994   2.382   4.231   6.102
12684TIP3    H137995   2.334   4.162   6.056
12684TIP3    H237996   2.466   4.191   6.125
12685TIP3   OH237997   4.840   4.490   6.670
12685TIP3    H137998   4.887   4.421   6.716
12685TIP3    H237999   4.832   4.561   6.734
12686TIP3   OH238000   2.983   3.190   5.866
12686TIP3    H138001   3.029   3.247   5.928
12686TIP3    H238002   2.890   3.205   5.886
12687TIP3   OH238003   6.781   3.445   1.030
12687TIP3    H138004   6.865   3.481   1.060
12687TIP3    H238005   6.763   3.374   1.091
12688TIP3   OH238006   2.727   4.775   4.488
12688TIP3    H138007   2.635   4.754   4.472
12688TIP3    H238008   2.750   4.836   4.418
12689TIP3   OH238009   5.189   5.196   5.312
12689TIP3    H138010   5.234   5.262   5.259
12689TIP3    H238011   5.189   5.117   5.258
12690TIP3   OH238012   4.582   6.548   6.383
12690TIP3    H138013   4.547   6.463   6.411
12690TIP3    H238014   4.509   6.591   6.338
12691TIP3   OH238015   1.869   6.428   2.979
12691TIP3    H138016   1.822   6.352   2.945
12691TIP3    H238017   1.961   6.411   2.957
12692TIP3   OH238018   0.150   1.807   5.983
12692TIP3    H138019   0.071   1.806   6.037
12692TIP3    H238020   0.177   1.899   5.982
12693TIP3   OH238021   5.348   6.212   3.282
12693TIP3    H138022   5.395   6.292   3.305
12693TIP3    H238023   5.364   6.200   3.188
12694TIP3   OH238024   0.993   4.658   4.812
12694TIP3    H138025   0.947   4.730   4.854
12694TIP3    H238026   0.962   4.580   4.857
12695TIP3   OH238027   2.192   0.778   3.864
12695TIP3    H138028   2.200   0.862   3.820
12695TIP3    H238029   2.270   0.772   3.919
12696TIP3   OH238030   0.782   2.799   0.232
12696TIP3    H138031   0.840   2.870   0.206
12696TIP3    H238032   0.781   2.803   0.328
12697TIP3   OH238033   1.093   0.078   0.556
12697TIP3    H138034   1.163   0.017   0.579
12697TIP3    H238035   1.039   0.084   0.635
12698TIP3   OH238036   6.277   5.858   1.727
12698TIP3    H138037   6.224   5.889   1.800
12698TIP3    H238038   6.216   5.812   1.670
12699TIP3   OH238039   2.783   0.149   0.649
12699TIP3    H138040   2.785   0.215   0.718
12699TIP3    H238041   2.773   0.066   0.696
12700TIP3   OH238042   7.398   4.361   0.557
12700TIP3    H138043   7.482   4.392   0.522
12700TIP3    H238044   7.372   4.428   0.620
12701TIP3   OH238045   1.567   5.422   6.557
12701TIP3    H138046   1.611   5.399   6.475
12701TIP3    H238047   1.633   5.470   6.607
12702TIP3   OH238048   8.038   4.338   4.139
12702TIP3    H138049   8.059   4.327   4.046
12702TIP3    H238050   8.081   4.264   4.182
12703TIP3   OH238051   8.161   3.564   3.838
12703TIP3    H138052   8.133   3.620   3.910
12703TIP3    H238053   8.099   3.492   3.839
12704TIP3   OH238054   4.483   6.331   2.934
12704TIP3    H138055   4.525   6.384   3.001
12704TIP3    H238056   4.556   6.299   2.880
12705TIP3   OH238057   2.919   1.058   2.889
12705TIP3    H138058   2.969   0.980   2.864
12705TIP3    H238059   2.931   1.119   2.816
12706TIP3   OH238060   3.136   3.358   5.061
12706TIP3    H138061   3.043   3.377   5.056
12706TIP3    H238062   3.179   3.443   5.062
12707TIP3   OH238063   4.275   2.756   4.029
12707TIP3    H138064   4.355   2.731   3.984
12707TIP3    H238065   4.298   2.834   4.079
12708TIP3   OH238066   4.739   0.280   2.996
12708TIP3    H138067   4.780   0.366   3.006
12708TIP3    H238068   4.800   0.232   2.940
12709TIP3   OH238069   5.764   5.184   3.671
12709TIP3    H138070   5.771   5.115   3.606
12709TIP3    H238071   5.837   5.168   3.731
12710TIP3   OH238072   6.436   7.383   2.220
12710TIP3    H138073   6.506   7.445   2.241
12710TIP3    H238074   6.356   7.436   2.223
12711TIP3   OH238075   1.711   3.535   2.049
12711TIP3    H138076   1.793   3.491   2.073
12711TIP3    H238077   1.657   3.465   2.013
12712TIP3   OH238078   5.978   4.184   3.048
12712TIP3    H138079   5.884   4.170   3.062
12712TIP3    H238080   6.006   4.110   2.995
12713TIP3   OH238081   1.705   5.865   0.844
12713TIP3    H138082   1.670   5.821   0.767
12713TIP3    H238083   1.645   5.939   0.858
12714TIP3   OH238084   5.399   7.409   5.967
12714TIP3    H138085   5.422   7.491   6.011
12714TIP3    H238086   5.454   7.408   5.888
12715TIP3   OH238087   3.883   2.129   6.176
12715TIP3    H138088   3.843   2.215   6.162
12715TIP3    H238089   3.885   2.088   6.090
12716TIP3   OH238090   2.409   1.042   6.041
12716TIP3    H138091   2.426   0.970   5.981
12716TIP3    H238092   2.365   1.002   6.116
12717TIP3   OH238093   7.870   1.799   1.566
12717TIP3    H138094   7.836   1.841   1.487
12717TIP3    H238095   7.888   1.872   1.625
12718TIP3   OH238096   5.598   3.773   3.275
12718TIP3    H138097   5.576   3.697   3.328
12718TIP3    H238098   5.639   3.737   3.196
12719TIP3   OH238099   7.658   2.939   5.932
12719TIP3    H138100   7.613   2.954   6.015
12719TIP3    H238101   7.597   2.969   5.865
12720TIP3   OH238102   4.260   6.073   4.964
12720TIP3    H138103   4.251   6.166   4.943
12720TIP3    H238104   4.194   6.030   4.911
12721TIP3   OH238105   4.090   1.582   2.208
12721TIP3    H138106   4.113   1.655   2.265
12721TIP3    H238107   4.082   1.622   2.121
12722TIP3   OH238108   7.420   2.364   2.447
12722TIP3    H138109   7.412   2.274   2.481
12722TIP3    H238110   7.505   2.366   2.404
12723TIP3   OH238111   2.103   3.191   6.807
12723TIP3    H138112   2.053   3.140   6.742
12723TIP3    H238113   2.150   3.256   6.755
12724TIP3   OH238114   3.370   1.139   5.602
12724TIP3    H138115   3.459   1.111   5.626
12724TIP3    H238116   3.335   1.066   5.551
12725TIP3   OH238117   1.664   0.977   3.256
12725TIP3    H138118   1.694   0.998   3.344
12725TIP3    H238119   1.571   0.958   3.267
12726TIP3   OH238120   5.859   2.537   5.557
12726TIP3    H138121   5.791   2.481   5.594
12726TIP3    H238122   5.922   2.477   5.517
12727TIP3   OH238123   1.459   6.389   6.398
12727TIP3    H138124   1.512   6.408   6.475
12727TIP3    H238125   1.436   6.475   6.362
12728TIP3   OH238126   5.415   6.708   4.166
12728TIP3    H138127   5.414   6.761   4.086
12728TIP3    H238128   5.403   6.618   4.136
12729TIP3   OH238129   6.171   3.603   1.344
12729TIP3    H138130   6.121   3.580   1.266
12729TIP3    H238131   6.255   3.557   1.334
12730TIP3   OH238132   7.999   0.986   3.400
12730TIP3    H138133   8.013   1.067   3.351
12730TIP3    H238134   7.908   0.963   3.383
12731TIP3   OH238135   5.775   3.627   3.923
12731TIP3    H138136   5.711   3.584   3.979
12731TIP3    H238137   5.803   3.559   3.862
12732TIP3   OH238138   8.029   1.764   5.963
12732TIP3    H138139   7.960   1.744   6.027
12732TIP3    H238140   8.073   1.681   5.948
12733TIP3   OH238141   4.006   6.916   3.163
12733TIP3    H138142   4.066   6.940   3.093
12733TIP3    H238143   4.062   6.904   3.240
12734TIP3   OH238144   1.372   3.202   4.398
12734TIP3    H138145   1.319   3.282   4.397
12734TIP3    H238146   1.413   3.198   4.312
12735TIP3   OH238147   2.358   7.821   2.613
12735TIP3    H138148   2.295   7.764   2.657
12735TIP3    H238149   2.378   7.777   2.531
12736TIP3   OH238150   8.283   1.701   4.071
12736TIP3    H138151   8.316   1.706   3.981
12736TIP3    H238152   8.360   1.681   4.124
12737TIP3   OH238153   6.308   3.024   2.693
12737TIP3    H138154   6.373   3.003   2.761
12737TIP3    H238155   6.343   2.983   2.614
12738TIP3   OH238156   1.512   5.242   0.373
12738TIP3    H138157   1.532   5.259   0.465
12738TIP3    H238158   1.517   5.146   0.365
12739TIP3   OH238159   0.860   4.903   3.332
12739TIP3    H138160   0.807   4.893   3.411
12739TIP3    H238161   0.804   4.953   3.272
12740TIP3   OH238162   7.941   1.471   0.088
12740TIP3    H138163   8.002   1.402   0.060
12740TIP3    H238164   7.974   1.498   0.174
12741TIP3   OH238165   2.285   6.742   2.338
12741TIP3    H138166   2.226   6.801   2.385
12741TIP3    H238167   2.372   6.760   2.375
12742TIP3   OH238168   3.607   7.471   4.682
12742TIP3    H138169   3.670   7.536   4.655
12742TIP3    H238170   3.657   7.408   4.735
12743TIP3   OH238171   2.864   3.162   3.862
12743TIP3    H138172   2.803   3.119   3.801
12743TIP3    H238173   2.930   3.201   3.805
12744TIP3   OH238174   7.460   0.795   0.166
12744TIP3    H138175   7.501   0.745   0.096
12744TIP3    H238176   7.472   0.742   0.244
12745TIP3   OH238177   7.825   1.474   5.556
12745TIP3    H138178   7.800   1.527   5.632
12745TIP3    H238179   7.897   1.419   5.587
12746TIP3   OH238180   4.151   4.387   6.157
12746TIP3    H138181   4.245   4.373   6.168
12746TIP3    H238182   4.141   4.413   6.066
12747TIP3   OH238183   3.755   5.568   0.212
12747TIP3    H138184   3.780   5.661   0.206
12747TIP3    H238185   3.660   5.569   0.213
12748TIP3   OH238186   4.377   5.834   4.770
12748TIP3    H138187   4.288   5.845   4.736
12748TIP3    H238188   4.434   5.853   4.695
12749TIP3   OH238189   6.344   3.360   1.620
12749TIP3    H138190   6.371   3.344   1.710
12749TIP3    H238191   6.283   3.434   1.627
12750TIP3   OH238192   5.151   7.584   1.652
12750TIP3    H138193   5.152   7.678   1.632
12750TIP3    H238194   5.107   7.578   1.737
12751TIP3   OH238195   6.970   1.806   5.349
12751TIP3    H138196   6.897   1.745   5.346
12751TIP3    H238197   6.966   1.852   5.265
12752TIP3   OH238198   5.743   3.818   4.803
12752TIP3    H138199   5.779   3.878   4.868
12752TIP3    H238200   5.712   3.743   4.854
12753TIP3   OH238201   1.381   4.137   4.454
12753TIP3    H138202   1.388   4.209   4.517
12753TIP3    H238203   1.345   4.064   4.505
12754TIP3   OH238204   3.955   7.204   1.720
12754TIP3    H138205   3.911   7.289   1.723
12754TIP3    H238206   3.884   7.140   1.732
12755TIP3   OH238207   2.536   4.746   5.229
12755TIP3    H138208   2.511   4.655   5.245
12755TIP3    H238209   2.453   4.792   5.215
12756TIP3   OH238210   6.892   6.464   5.625
12756TIP3    H138211   6.847   6.380   5.628
12756TIP3    H238212   6.915   6.475   5.533
12757TIP3   OH238213   2.052   2.078   5.491
12757TIP3    H138214   2.134   2.122   5.516
12757TIP3    H238215   1.983   2.135   5.525
12758TIP3   OH238216   2.788   5.222   4.210
12758TIP3    H138217   2.748   5.144   4.247
12758TIP3    H238218   2.872   5.230   4.256
12759TIP3   OH238219   8.242   4.697   2.495
12759TIP3    H138220   8.174   4.762   2.517
12759TIP3    H238221   8.299   4.742   2.433
12760TIP3   OH238222   3.405   6.534   3.929
12760TIP3    H138223   3.436   6.446   3.909
12760TIP3    H238224   3.327   6.521   3.982
12761TIP3   OH238225   2.373   1.047   0.649
12761TIP3    H138226   2.311   1.041   0.576
12761TIP3    H238227   2.317   1.052   0.727
12762TIP3   OH238228   4.578   0.181   2.186
12762TIP3    H138229   4.549   0.213   2.272
12762TIP3    H238230   4.542   0.243   2.123
12763TIP3   OH238231   4.138   1.288   5.194
12763TIP3    H138232   4.173   1.255   5.111
12763TIP3    H238233   4.176   1.376   5.203
12764TIP3   OH238234   0.273   3.077   2.000
12764TIP3    H138235   0.219   2.998   2.000
12764TIP3    H238236   0.359   3.049   1.970
12765TIP3   OH238237   1.100   1.875   2.523
12765TIP3    H138238   1.113   1.902   2.614
12765TIP3    H238239   1.086   1.957   2.476
12766TIP3   OH238240   2.726   7.151   2.981
12766TIP3    H138241   2.667   7.219   2.950
12766TIP3    H238242   2.688   7.123   3.065
12767TIP3   OH238243   1.975   6.154   3.728
12767TIP3    H138244   1.933   6.240   3.734
12767TIP3    H238245   1.949   6.121   3.642
12768TIP3   OH238246   3.743   4.762   6.585
12768TIP3    H138247   3.763   4.680   6.541
12768TIP3    H238248   3.829   4.802   6.601
12769TIP3   OH238249   3.774   0.305   3.935
12769TIP3    H138250   3.842   0.368   3.912
12769TIP3    H238251   3.787   0.288   4.029
12770TIP3   OH238252   5.008   1.849   6.077
12770TIP3    H138253   5.087   1.864   6.025
12770TIP3    H238254   5.037   1.864   6.168
12771TIP3   OH238255   0.300   6.412   4.457
12771TIP3    H138256   0.384   6.397   4.500
12771TIP3    H238257   0.242   6.441   4.528
12772TIP3   OH238258   3.611   7.169   6.428
12772TIP3    H138259   3.676   7.099   6.428
12772TIP3    H238260   3.597   7.189   6.335
12773TIP3   OH238261   1.323   5.879   0.251
12773TIP3    H138262   1.311   5.966   0.212
12773TIP3    H238263   1.417   5.863   0.245
12774TIP3   OH238264   5.620   6.234   1.819
12774TIP3    H138265   5.562   6.236   1.743
12774TIP3    H238266   5.573   6.183   1.885
12775TIP3   OH238267   2.445   7.012   3.494
12775TIP3    H138268   2.529   6.964   3.492
12775TIP3    H238269   2.470   7.103   3.510
12776TIP3   OH238270   7.986   2.390   3.194
12776TIP3    H138271   8.043   2.313   3.198
12776TIP3    H238272   7.954   2.390   3.104
12777TIP3   OH238273   2.666   5.534   2.032
12777TIP3    H138274   2.661   5.523   2.127
12777TIP3    H238275   2.700   5.622   2.020
12778TIP3   OH238276   2.222   6.913   3.929
12778TIP3    H138277   2.133   6.888   3.906
12778TIP3    H238278   2.243   6.860   4.006
12779TIP3   OH238279   4.808   0.889   5.724
12779TIP3    H138280   4.829   0.920   5.813
12779TIP3    H238281   4.852   0.805   5.716
12780TIP3   OH238282   5.995   3.644   3.076
12780TIP3    H138283   5.974   3.552   3.063
12780TIP3    H238284   6.088   3.650   3.051
12781TIP3   OH238285   4.784   5.453   5.382
12781TIP3    H138286   4.866   5.472   5.427
12781TIP3    H238287   4.766   5.361   5.404
12782TIP3   OH238288   8.129   6.534   5.922
12782TIP3    H138289   8.079   6.602   5.966
12782TIP3    H238290   8.183   6.581   5.859
12783TIP3   OH238291   5.041   4.554   1.736
12783TIP3    H138292   4.988   4.609   1.794
12783TIP3    H238293   5.042   4.601   1.653
12784TIP3   OH238294   2.407   7.467   6.351
12784TIP3    H138295   2.388   7.559   6.333
12784TIP3    H238296   2.332   7.437   6.402
12785TIP3   OH238297   6.500   6.999   4.102
12785TIP3    H138298   6.491   6.904   4.109
12785TIP3    H238299   6.445   7.023   4.028
12786TIP3   OH238300   2.058   0.181   3.947
12786TIP3    H138301   2.101   0.135   4.019
12786TIP3    H238302   2.125   0.241   3.914
12787TIP3   OH238303   3.854   6.615   0.541
12787TIP3    H138304   3.831   6.556   0.469
12787TIP3    H238305   3.809   6.697   0.521
12788TIP3   OH238306   7.817   0.428   3.376
12788TIP3    H138307   7.858   0.485   3.441
12788TIP3    H238308   7.841   0.467   3.292
12789TIP3   OH238309   1.284   1.711   0.945
12789TIP3    H138310   1.271   1.756   0.861
12789TIP3    H238311   1.250   1.622   0.930
12790TIP3   OH238312   3.465   1.579   4.257
12790TIP3    H138313   3.553   1.542   4.268
12790TIP3    H238314   3.477   1.673   4.271
12791TIP3   OH238315   2.920   5.969   0.523
12791TIP3    H138316   2.845   6.002   0.473
12791TIP3    H238317   2.886   5.955   0.611
12792TIP3   OH238318   8.271   1.103   5.849
12792TIP3    H138319   8.261   1.051   5.928
12792TIP3    H238320   8.360   1.139   5.855
12793TIP3   OH238321   8.154   7.738   3.918
12793TIP3    H138322   8.209   7.815   3.904
12793TIP3    H238323   8.157   7.691   3.834
12794TIP3   OH238324   2.623   2.255   1.402
12794TIP3    H138325   2.558   2.193   1.369
12794TIP3    H238326   2.584   2.289   1.483
12795TIP3   OH238327   4.391   7.724   5.801
12795TIP3    H138328   4.347   7.639   5.804
12795TIP3    H238329   4.319   7.787   5.799
12796TIP3   OH238330   1.578   5.148   4.257
12796TIP3    H138331   1.536   5.081   4.203
12796TIP3    H238332   1.513   5.169   4.324
12797TIP3   OH238333   7.047   3.076   0.263
12797TIP3    H138334   7.061   2.981   0.263
12797TIP3    H238335   7.115   3.110   0.322
12798TIP3   OH238336   2.599   2.583   0.760
12798TIP3    H138337   2.609   2.493   0.791
12798TIP3    H238338   2.508   2.606   0.782
12799TIP3   OH238339   2.110   2.990   2.662
12799TIP3    H138340   2.096   2.979   2.756
12799TIP3    H238341   2.078   3.078   2.644
12800TIP3   OH238342   5.537   2.269   0.220
12800TIP3    H138343   5.618   2.221   0.241
12800TIP3    H238344   5.566   2.358   0.199
12801TIP3   OH238345   4.516   0.385   1.986
12801TIP3    H138346   4.602   0.427   1.984
12801TIP3    H238347   4.460   0.445   2.035
12802TIP3   OH238348   8.119   6.941   5.902
12802TIP3    H138349   8.075   6.973   5.980
12802TIP3    H238350   8.050   6.896   5.853
12803TIP3   OH238351   1.164   4.164   2.396
12803TIP3    H138352   1.106   4.227   2.351
12803TIP3    H238353   1.213   4.123   2.325
12804TIP3   OH238354   6.448   5.316   3.429
12804TIP3    H138355   6.483   5.246   3.374
12804TIP3    H238356   6.401   5.373   3.368
12805TIP3   OH238357   2.454   1.762   3.454
12805TIP3    H138358   2.521   1.698   3.428
12805TIP3    H238359   2.474   1.840   3.403
12806TIP3   OH238360   3.852   2.948   4.340
12806TIP3    H138361   3.847   2.852   4.338
12806TIP3    H238362   3.764   2.977   4.317
12807TIP3   OH238363   7.090   5.713   4.496
12807TIP3    H138364   7.127   5.674   4.575
12807TIP3    H238365   7.102   5.646   4.428
12808TIP3   OH238366   6.636   6.902   6.769
12808TIP3    H138367   6.713   6.897   6.826
12808TIP3    H238368   6.633   6.816   6.726
12809TIP3   OH238369   2.355   6.126   2.705
12809TIP3    H138370   2.264   6.105   2.729
12809TIP3    H238371   2.404   6.046   2.723
12810TIP3   OH238372   3.972   2.885   5.998
12810TIP3    H138373   4.042   2.825   6.025
12810TIP3    H238374   3.936   2.919   6.080
12811TIP3   OH238375   5.358   2.253   2.221
12811TIP3    H138376   5.338   2.336   2.265
12811TIP3    H238377   5.416   2.207   2.283
12812TIP3   OH238378   5.154   3.867   6.749
12812TIP3    H138379   5.091   3.808   6.708
12812TIP3    H238380   5.111   3.894   6.831
12813TIP3   OH238381   6.205   4.668   3.269
12813TIP3    H138382   6.121   4.623   3.262
12813TIP3    H238383   6.201   4.736   3.203
12814TIP3   OH238384   1.177   4.009   0.693
12814TIP3    H138385   1.187   3.998   0.787
12814TIP3    H238386   1.087   3.981   0.675
12815TIP3   OH238387   2.342   6.520   2.869
12815TIP3    H138388   2.274   6.578   2.905
12815TIP3    H238389   2.371   6.564   2.789
12816TIP3   OH238390   6.861   0.482   5.200
12816TIP3    H138391   6.899   0.568   5.215
12816TIP3    H238392   6.766   0.496   5.206
12817TIP3   OH238393   1.969   2.575   5.586
12817TIP3    H138394   1.969   2.668   5.563
12817TIP3    H238395   1.944   2.573   5.679
12818TIP3   OH238396   0.675   6.644   0.691
12818TIP3    H138397   0.758   6.604   0.664
12818TIP3    H238398   0.655   6.602   0.775
12819TIP3   OH238399   6.005   3.149   5.067
12819TIP3    H138400   6.014   3.055   5.049
12819TIP3    H238401   5.923   3.174   5.025
12820TIP3   OH238402   1.560   4.588   0.953
12820TIP3    H138403   1.603   4.571   1.037
12820TIP3    H238404   1.533   4.680   0.958
12821TIP3   OH238405   4.767   2.387   5.926
12821TIP3    H138406   4.697   2.445   5.894
12821TIP3    H238407   4.807   2.352   5.847
12822TIP3   OH238408   1.980   1.559   5.990
12822TIP3    H138409   1.954   1.506   5.915
12822TIP3    H238410   2.007   1.642   5.952
12823TIP3   OH238411   5.992   6.605   1.686
12823TIP3    H138412   5.920   6.575   1.742
12823TIP3    H238413   5.949   6.653   1.615
12824TIP3   OH238414   7.374   1.489   2.465
12824TIP3    H138415   7.366   1.468   2.372
12824TIP3    H238416   7.309   1.433   2.508
12825TIP3   OH238417   3.598   4.502   6.331
12825TIP3    H138418   3.652   4.494   6.410
12825TIP3    H238419   3.520   4.550   6.359
12826TIP3   OH238420   6.231   2.231   4.645
12826TIP3    H138421   6.258   2.321   4.663
12826TIP3    H238422   6.136   2.232   4.650
12827TIP3   OH238423   5.493   4.220   3.263
12827TIP3    H138424   5.425   4.190   3.323
12827TIP3    H238425   5.516   4.307   3.294
12828TIP3   OH238426   5.670   2.339   6.119
12828TIP3    H138427   5.683   2.372   6.030
12828TIP3    H238428   5.579   2.360   6.139
12829TIP3   OH238429   1.344   0.145   1.275
12829TIP3    H138430   1.423   0.110   1.316
12829TIP3    H238431   1.305   0.069   1.231
12830TIP3   OH238432  -0.083   4.401   0.160
12830TIP3    H138433  -0.060   4.332   0.222
12830TIP3    H238434  -0.179   4.403   0.162
12831TIP3   OH238435   0.723   6.340   0.036
12831TIP3    H138436   0.697   6.272   0.098
12831TIP3    H238437   0.675   6.319  -0.044
12832TIP3   OH238438   1.402   3.199   5.214
12832TIP3    H138439   1.326   3.145   5.237
12832TIP3    H238440   1.377   3.287   5.243
12833TIP3   OH238441   6.435   2.630   5.258
12833TIP3    H138442   6.471   2.578   5.186
12833TIP3    H238443   6.506   2.689   5.283
12834TIP3   OH238444   7.204   4.976   5.582
12834TIP3    H138445   7.243   4.913   5.522
12834TIP3    H238446   7.236   4.949   5.669
12835TIP3   OH238447   6.061   4.189   2.107
12835TIP3    H138448   6.125   4.118   2.104
12835TIP3    H238449   6.007   4.171   2.184
12836TIP3   OH238450   2.695   6.238   6.770
12836TIP3    H138451   2.603   6.215   6.785
12836TIP3    H238452   2.739   6.215   6.852
12837TIP3   OH238453   3.817   0.115   2.911
12837TIP3    H138454   3.849   0.025   2.918
12837TIP3    H238455   3.739   0.108   2.856
12838TIP3   OH238456   1.242   1.469   6.549
12838TIP3    H138457   1.227   1.380   6.516
12838TIP3    H238458   1.186   1.524   6.493
12839TIP3   OH238459   3.385   1.612   2.154
12839TIP3    H138460   3.392   1.547   2.084
12839TIP3    H238461   3.456   1.590   2.214
12840TIP3   OH238462   0.339   3.593   0.423
12840TIP3    H138463   0.384   3.677   0.410
12840TIP3    H238464   0.274   3.590   0.352
12841TIP3   OH238465   6.036   1.248   2.569
12841TIP3    H138466   6.020   1.333   2.609
12841TIP3    H238467   6.049   1.189   2.643
12842TIP3   OH238468   2.945   6.082   2.706
12842TIP3    H138469   2.872   6.069   2.647
12842TIP3    H238470   2.964   5.995   2.741
12843TIP3   OH238471   2.686   1.134   6.159
12843TIP3    H138472   2.659   1.217   6.200
12843TIP3    H238473   2.605   1.099   6.122
12844TIP3   OH238474   2.437   0.458   3.917
12844TIP3    H138475   2.436   0.483   4.010
12844TIP3    H238476   2.466   0.537   3.872
12845TIP3   OH238477   0.010   2.369   4.346
12845TIP3    H138478  -0.011   2.308   4.418
12845TIP3    H238479  -0.045   2.446   4.363
12846TIP3   OH238480   1.674   0.492   0.257
12846TIP3    H138481   1.608   0.443   0.208
12846TIP3    H238482   1.636   0.579   0.268
12847TIP3   OH238483   0.738   7.415   4.882
12847TIP3    H138484   0.783   7.364   4.814
12847TIP3    H238485   0.743   7.360   4.960
12848TIP3   OH238486   2.617   2.217   4.737
12848TIP3    H138487   2.650   2.152   4.798
12848TIP3    H238488   2.630   2.178   4.650
12849TIP3   OH238489   6.375   7.704   0.558
12849TIP3    H138490   6.447   7.643   0.541
12849TIP3    H238491   6.400   7.747   0.640
12850TIP3   OH238492   4.613   6.509   3.101
12850TIP3    H138493   4.565   6.560   3.166
12850TIP3    H238494   4.689   6.475   3.148
12851TIP3   OH238495   6.418   5.792   0.794
12851TIP3    H138496   6.489   5.739   0.831
12851TIP3    H238497   6.386   5.740   0.720
12852TIP3   OH238498   5.973   4.279   6.591
12852TIP3    H138499   5.972   4.218   6.517
12852TIP3    H238500   5.886   4.270   6.630
12853TIP3   OH238501   8.212   1.845   3.204
12853TIP3    H138502   8.302   1.844   3.236
12853TIP3    H238503   8.220   1.834   3.110
12854TIP3   OH238504   1.066   3.153   0.473
12854TIP3    H138505   1.081   3.076   0.529
12854TIP3    H238506   1.148   3.202   0.477
12855TIP3   OH238507   0.694   1.908   2.388
12855TIP3    H138508   0.742   1.861   2.456
12855TIP3    H238509   0.757   1.919   2.317
12856TIP3   OH238510   6.674   5.702   4.302
12856TIP3    H138511   6.652   5.785   4.343
12856TIP3    H238512   6.656   5.715   4.209
12857TIP3   OH238513   3.811   0.261   4.210
12857TIP3    H138514   3.745   0.262   4.278
12857TIP3    H238515   3.881   0.318   4.243
12858TIP3   OH238516   4.970   5.640   3.874
12858TIP3    H138517   4.914   5.688   3.936
12858TIP3    H238518   4.909   5.584   3.826
12859TIP3   OH238519   4.081   5.941   0.281
12859TIP3    H138520   4.056   5.861   0.327
12859TIP3    H238521   4.066   6.010   0.346
12860TIP3   OH238522   6.033   0.412   3.221
12860TIP3    H138523   5.941   0.404   3.246
12860TIP3    H238524   6.030   0.434   3.128
12861TIP3   OH238525   0.816   0.479   5.227
12861TIP3    H138526   0.734   0.528   5.222
12861TIP3    H238527   0.884   0.543   5.207
12862TIP3   OH238528   7.368   3.284   1.029
12862TIP3    H138529   7.441   3.256   0.973
12862TIP3    H238530   7.315   3.340   0.972
12863TIP3   OH238531   3.920   1.263   4.091
12863TIP3    H138532   3.919   1.180   4.044
12863TIP3    H238533   3.852   1.256   4.157
12864TIP3   OH238534   3.926   4.222   3.152
12864TIP3    H138535   3.992   4.160   3.182
12864TIP3    H238536   3.974   4.284   3.098
12865TIP3   OH238537   7.076   0.414   5.984
12865TIP3    H138538   7.068   0.413   5.889
12865TIP3    H238539   7.048   0.502   6.010
12866TIP3   OH238540   3.865   7.249   3.647
12866TIP3    H138541   3.954   7.283   3.650
12866TIP3    H238542   3.876   7.156   3.625
12867TIP3   OH238543   4.589   3.555   0.593
12867TIP3    H138544   4.629   3.563   0.506
12867TIP3    H238545   4.606   3.639   0.635
12868TIP3   OH238546   5.535   5.997   4.973
12868TIP3    H138547   5.454   5.953   4.999
12868TIP3    H238548   5.534   5.994   4.878
12869TIP3   OH238549   5.093   3.435   5.857
12869TIP3    H138550   5.151   3.499   5.900
12869TIP3    H238551   5.033   3.488   5.805
12870TIP3   OH238552   7.430   3.365   2.874
12870TIP3    H138553   7.457   3.330   2.789
12870TIP3    H238554   7.425   3.289   2.932
12871TIP3   OH238555   5.707   1.435   3.448
12871TIP3    H138556   5.707   1.523   3.410
12871TIP3    H238557   5.622   1.399   3.425
12872TIP3   OH238558   1.164   7.149   2.348
12872TIP3    H138559   1.238   7.089   2.340
12872TIP3    H238560   1.162   7.196   2.264
12873TIP3   OH238561   6.421   6.283   1.284
12873TIP3    H138562   6.430   6.349   1.216
12873TIP3    H238563   6.509   6.249   1.298
12874TIP3   OH238564   4.882   0.642   3.212
12874TIP3    H138565   4.803   0.602   3.177
12874TIP3    H238566   4.852   0.716   3.264
12875TIP3   OH238567   2.817   3.002   2.755
12875TIP3    H138568   2.897   2.951   2.740
12875TIP3    H238569   2.810   3.007   2.850
12876TIP3   OH238570   6.621   3.585   1.712
12876TIP3    H138571   6.571   3.632   1.646
12876TIP3    H238572   6.560   3.521   1.749
12877TIP3   OH238573   0.332   5.809   6.287
12877TIP3    H138574   0.370   5.808   6.375
12877TIP3    H238575   0.255   5.754   6.293
12878TIP3   OH238576   5.241   2.740   5.193
12878TIP3    H138577   5.248   2.830   5.161
12878TIP3    H238578   5.312   2.732   5.256
12879TIP3   OH238579   3.883   1.827   5.528
12879TIP3    H138580   3.939   1.904   5.514
12879TIP3    H238581   3.897   1.804   5.620
12880TIP3   OH238582   2.563   3.707   6.023
12880TIP3    H138583   2.636   3.756   5.986
12880TIP3    H238584   2.603   3.649   6.088
12881TIP3   OH238585   5.265   5.007   4.241
12881TIP3    H138586   5.217   4.943   4.293
12881TIP3    H238587   5.336   4.957   4.201
12882TIP3   OH238588   4.407   4.606   4.200
12882TIP3    H138589   4.410   4.561   4.116
12882TIP3    H238590   4.314   4.627   4.214
12883TIP3   OH238591   7.970   3.760   3.723
12883TIP3    H138592   8.055   3.743   3.683
12883TIP3    H238593   7.973   3.713   3.806
12884TIP3   OH238594   0.023   1.667   5.309
12884TIP3    H138595   0.013   1.758   5.338
12884TIP3    H238596   0.062   1.622   5.384
12885TIP3   OH238597   1.084   6.402   1.331
12885TIP3    H138598   1.111   6.443   1.248
12885TIP3    H238599   1.133   6.321   1.334
12886TIP3   OH238600   3.933   6.549   4.863
12886TIP3    H138601   3.999   6.537   4.932
12886TIP3    H238602   3.851   6.523   4.904
12887TIP3   OH238603   3.208   1.586   1.603
12887TIP3    H138604   3.262   1.592   1.525
12887TIP3    H238605   3.119   1.608   1.574
12888TIP3   OH238606   5.773   7.331   4.564
12888TIP3    H138607   5.822   7.402   4.523
12888TIP3    H238608   5.833   7.293   4.628
12889TIP3   OH238609   2.696   1.968   4.500
12889TIP3    H138610   2.631   1.939   4.563
12889TIP3    H238611   2.762   1.898   4.500
12890TIP3   OH238612   6.560   6.794   2.259
12890TIP3    H138613   6.579   6.750   2.176
12890TIP3    H238614   6.645   6.824   2.290
12891TIP3   OH238615   3.635   4.823   1.760
12891TIP3    H138616   3.599   4.872   1.686
12891TIP3    H238617   3.681   4.889   1.813
12892TIP3   OH238618   0.056   5.445   1.404
12892TIP3    H138619   0.066   5.489   1.488
12892TIP3    H238620   0.117   5.490   1.345
12893TIP3   OH238621   2.448   7.144   4.116
12893TIP3    H138622   2.393   7.180   4.047
12893TIP3    H238623   2.442   7.208   4.187
12894TIP3   OH238624   2.289   4.143   0.946
12894TIP3    H138625   2.207   4.193   0.946
12894TIP3    H238626   2.354   4.204   0.981
12895TIP3   OH238627   6.910   5.440   4.221
12895TIP3    H138628   6.874   5.356   4.195
12895TIP3    H238629   6.844   5.504   4.194
12896TIP3   OH238630   5.445   1.725   4.035
12896TIP3    H138631   5.444   1.821   4.034
12896TIP3    H238632   5.455   1.700   3.943
12897TIP3   OH238633   2.071   6.329   2.614
12897TIP3    H138634   2.111   6.287   2.690
12897TIP3    H238635   2.117   6.291   2.539
12898TIP3   OH238636   2.627   1.426   0.904
12898TIP3    H138637   2.539   1.449   0.935
12898TIP3    H238638   2.624   1.331   0.894
12899TIP3   OH238639   2.873   0.465   6.622
12899TIP3    H138640   2.919   0.504   6.696
12899TIP3    H238641   2.942   0.438   6.562
12900TIP3   OH238642   7.727   2.239   1.569
12900TIP3    H138643   7.703   2.327   1.599
12900TIP3    H238644   7.803   2.254   1.512
12901TIP3   OH238645   3.149   2.524   3.103
12901TIP3    H138646   3.076   2.584   3.100
12901TIP3    H238647   3.154   2.496   3.194
12902TIP3   OH238648   5.663   3.526   6.334
12902TIP3    H138649   5.689   3.578   6.410
12902TIP3    H238650   5.706   3.441   6.347
12903TIP3   OH238651   0.419   7.280   5.366
12903TIP3    H138652   0.514   7.288   5.376
12903TIP3    H238653   0.384   7.362   5.400
12904TIP3   OH238654   0.939   6.581   0.637
12904TIP3    H138655   1.033   6.600   0.644
12904TIP3    H238656   0.921   6.518   0.707
12905TIP3   OH238657   2.545   2.875   4.404
12905TIP3    H138658   2.475   2.939   4.415
12905TIP3    H238659   2.522   2.803   4.463
12906TIP3   OH238660   0.161   3.683   0.645
12906TIP3    H138661   0.219   3.663   0.572
12906TIP3    H238662   0.202   3.757   0.689
12907TIP3   OH238663   0.485   5.303   3.106
12907TIP3    H138664   0.456   5.367   3.171
12907TIP3    H238665   0.580   5.315   3.102
12908TIP3   OH238666   5.052   6.857   4.461
12908TIP3    H138667   5.125   6.855   4.523
12908TIP3    H238668   5.060   6.942   4.417
12909TIP3   OH238669   6.059   0.226   3.909
12909TIP3    H138670   5.996   0.180   3.853
12909TIP3    H238671   6.038   0.318   3.898
12910TIP3   OH238672   2.849   7.607   6.484
12910TIP3    H138673   2.784   7.544   6.453
12910TIP3    H238674   2.919   7.604   6.419
12911TIP3   OH238675   7.842   7.386   5.800
12911TIP3    H138676   7.935   7.361   5.804
12911TIP3    H238677   7.843   7.481   5.795
12912TIP3   OH238678   1.235   3.985   0.954
12912TIP3    H138679   1.327   3.974   0.977
12912TIP3    H238680   1.187   3.937   1.022
12913TIP3   OH238681   2.717   6.410   3.746
12913TIP3    H138682   2.698   6.319   3.767
12913TIP3    H238683   2.717   6.455   3.831
12914TIP3   OH238684   1.658   5.819   5.265
12914TIP3    H138685   1.588   5.767   5.306
12914TIP3    H238686   1.616   5.860   5.189
12915TIP3   OH238687   1.438   6.271   2.283
12915TIP3    H138688   1.368   6.215   2.248
12915TIP3    H238689   1.469   6.321   2.207
12916TIP3   OH238690   0.191   1.143   1.040
12916TIP3    H138691   0.102   1.112   1.056
12916TIP3    H238692   0.247   1.070   1.068
12917TIP3   OH238693   1.828   3.907   1.572
12917TIP3    H138694   1.903   3.869   1.618
12917TIP3    H238695   1.826   3.998   1.603
12918TIP3   OH238696   2.377   0.819   5.068
12918TIP3    H138697   2.412   0.907   5.053
12918TIP3    H238698   2.452   0.761   5.059
12919TIP3   OH238699   7.313   4.125   2.854
12919TIP3    H138700   7.293   4.050   2.799
12919TIP3    H238701   7.407   4.140   2.842
12920TIP3   OH238702   8.070   6.793   0.776
12920TIP3    H138703   8.114   6.876   0.789
12920TIP3    H238704   8.132   6.727   0.808
12921TIP3   OH238705  -0.051   0.697   4.003
12921TIP3    H138706  -0.084   0.778   3.965
12921TIP3    H238707  -0.011   0.651   3.929
12922TIP3   OH238708   0.419   5.568   0.486
12922TIP3    H138709   0.476   5.622   0.540
12922TIP3    H238710   0.333   5.608   0.493
12923TIP3   OH238711   0.207   2.614   1.922
12923TIP3    H138712   0.179   2.637   2.011
12923TIP3    H238713   0.282   2.671   1.905
12924TIP3   OH238714   8.052   1.542   2.929
12924TIP3    H138715   8.062   1.606   3.000
12924TIP3    H238716   8.116   1.474   2.949
12925TIP3   OH238717   6.401   6.861   2.919
12925TIP3    H138718   6.310   6.887   2.911
12925TIP3    H238719   6.451   6.934   2.882
12926TIP3   OH238720   6.148   5.219   4.570
12926TIP3    H138721   6.230   5.169   4.563
12926TIP3    H238722   6.162   5.296   4.514
12927TIP3   OH238723   3.981   2.525   3.772
12927TIP3    H138724   3.994   2.451   3.713
12927TIP3    H238725   4.062   2.530   3.823
12928TIP3   OH238726   4.785   4.301   4.999
12928TIP3    H138727   4.870   4.286   5.042
12928TIP3    H238728   4.749   4.378   5.044
12929TIP3   OH238729   6.719   1.014   6.053
12929TIP3    H138730   6.788   1.024   5.987
12929TIP3    H238731   6.721   0.921   6.075
12930TIP3   OH238732   5.000   3.642   4.359
12930TIP3    H138733   5.049   3.559   4.362
12930TIP3    H238734   5.066   3.708   4.336
12931TIP3   OH238735   6.833   3.381   3.288
12931TIP3    H138736   6.759   3.435   3.315
12931TIP3    H238737   6.906   3.442   3.283
12932TIP3   OH238738   3.192   2.871   2.904
12932TIP3    H138739   3.234   2.817   2.837
12932TIP3    H238740   3.221   2.960   2.885
12933TIP3   OH238741   4.076   7.222   2.401
12933TIP3    H138742   3.989   7.190   2.425
12933TIP3    H238743   4.065   7.315   2.386
12934TIP3   OH238744   0.557   3.773   4.178
12934TIP3    H138745   0.598   3.849   4.135
12934TIP3    H238746   0.558   3.705   4.111
12935TIP3   OH238747   3.370   6.696   3.222
12935TIP3    H138748   3.313   6.626   3.191
12935TIP3    H238749   3.432   6.710   3.151
12936TIP3   OH238750   4.649   2.358   1.441
12936TIP3    H138751   4.603   2.442   1.451
12936TIP3    H238752   4.583   2.292   1.459
12937TIP3   OH238753   0.400   7.044   3.621
12937TIP3    H138754   0.446   6.970   3.582
12937TIP3    H238755   0.436   7.121   3.578
12938TIP3   OH238756   5.844   4.346   4.327
12938TIP3    H138757   5.913   4.320   4.266
12938TIP3    H238758   5.874   4.430   4.363
12939TIP3   OH238759   3.786   6.888   5.027
12939TIP3    H138760   3.848   6.853   5.092
12939TIP3    H238761   3.753   6.968   5.067
12940TIP3   OH238762   7.401   4.607   3.403
12940TIP3    H138763   7.320   4.596   3.452
12940TIP3    H238764   7.470   4.587   3.466
12941TIP3   OH238765   1.383   3.654   4.592
12941TIP3    H138766   1.469   3.617   4.613
12941TIP3    H238767   1.364   3.713   4.665
12942TIP3   OH238768   7.051   5.344   2.628
12942TIP3    H138769   7.005   5.426   2.644
12942TIP3    H238770   7.006   5.280   2.684
12943TIP3   OH238771   1.716   0.777   1.922
12943TIP3    H138772   1.673   0.708   1.872
12943TIP3    H238773   1.702   0.856   1.870
12944TIP3   OH238774   6.236   1.714   2.291
12944TIP3    H138775   6.190   1.787   2.334
12944TIP3    H238776   6.204   1.716   2.201
12945TIP3   OH238777   0.111   0.076   2.575
12945TIP3    H138778   0.071   0.117   2.652
12945TIP3    H238779   0.042   0.020   2.539
12946TIP3   OH238780   5.531   5.333   3.608
12946TIP3    H138781   5.571   5.420   3.610
12946TIP3    H238782   5.602   5.273   3.633
12947TIP3   OH238783   4.775   0.443   2.379
12947TIP3    H138784   4.683   0.438   2.353
12947TIP3    H238785   4.824   0.426   2.299
12948TIP3   OH238786   2.857   7.302   0.596
12948TIP3    H138787   2.937   7.298   0.543
12948TIP3    H238788   2.800   7.234   0.559
12949TIP3   OH238789   1.895   0.570   2.495
12949TIP3    H138790   1.964   0.620   2.451
12949TIP3    H238791   1.891   0.607   2.583
12950TIP3   OH238792   4.643   5.673   2.275
12950TIP3    H138793   4.699   5.669   2.353
12950TIP3    H238794   4.695   5.721   2.211
12951TIP3   OH238795   3.053   6.186   0.640
12951TIP3    H138796   3.002   6.141   0.572
12951TIP3    H238797   2.988   6.238   0.688
12952TIP3   OH238798   1.636   5.222   1.055
12952TIP3    H138799   1.711   5.190   1.106
12952TIP3    H238800   1.572   5.151   1.058
12953TIP3   OH238801   4.051   4.144   0.981
12953TIP3    H138802   4.079   4.232   1.006
12953TIP3    H238803   4.103   4.123   0.904
12954TIP3   OH238804   4.646   0.263   2.611
12954TIP3    H138805   4.614   0.189   2.661
12954TIP3    H238806   4.708   0.225   2.548
12955TIP3   OH238807   8.016   1.845   4.904
12955TIP3    H138808   7.945   1.827   4.843
12955TIP3    H238809   7.976   1.840   4.991
12956TIP3   OH238810   5.978   1.508   6.241
12956TIP3    H138811   6.071   1.493   6.259
12956TIP3    H238812   5.937   1.514   6.327
12957TIP3   OH238813   0.440   6.502   0.336
12957TIP3    H138814   0.372   6.557   0.376
12957TIP3    H238815   0.476   6.451   0.409
12958TIP3   OH238816   1.175   6.864   0.156
12958TIP3    H138817   1.235   6.821   0.096
12958TIP3    H238818   1.091   6.866   0.110
12959TIP3   OH238819   0.571   1.503   3.019
12959TIP3    H138820   0.601   1.570   3.081
12959TIP3    H238821   0.624   1.517   2.940
12960TIP3   OH238822   1.750   0.744   3.456
12960TIP3    H138823   1.792   0.666   3.494
12960TIP3    H238824   1.697   0.709   3.384
12961TIP3   OH238825   4.225   2.211   6.254
12961TIP3    H138826   4.286   2.267   6.301
12961TIP3    H238827   4.270   2.192   6.171
12962TIP3   OH238828   2.961   2.423   1.668
12962TIP3    H138829   2.870   2.398   1.686
12962TIP3    H238830   2.996   2.448   1.753
12963TIP3   OH238831   7.052   4.293   0.767
12963TIP3    H138832   7.121   4.226   0.765
12963TIP3    H238833   7.099   4.376   0.765
12964TIP3   OH238834   4.305   0.783   0.129
12964TIP3    H138835   4.346   0.721   0.069
12964TIP3    H238836   4.266   0.727   0.197
12965TIP3   OH238837   1.373   6.477   3.148
12965TIP3    H138838   1.455   6.509   3.112
12965TIP3    H238839   1.318   6.555   3.157
12966TIP3   OH238840   4.676   1.408   0.438
12966TIP3    H138841   4.749   1.471   0.441
12966TIP3    H238842   4.616   1.445   0.373
12967TIP3   OH238843   0.201   0.203   0.101
12967TIP3    H138844   0.248   0.265   0.045
12967TIP3    H238845   0.149   0.259   0.159
12968TIP3   OH238846   5.120   3.977   6.122
12968TIP3    H138847   5.062   4.052   6.112
12968TIP3    H238848   5.205   4.015   6.146
12969TIP3   OH238849   4.925   5.655   6.521
12969TIP3    H138850   4.930   5.726   6.458
12969TIP3    H238851   5.003   5.602   6.504
12970TIP3   OH238852   6.912   4.738   2.011
12970TIP3    H138853   6.858   4.740   2.090
12970TIP3    H238854   6.999   4.711   2.041
12971TIP3   OH238855   3.722   0.526   3.315
12971TIP3    H138856   3.790   0.549   3.252
12971TIP3    H238857   3.747   0.440   3.348
12972TIP3   OH238858   6.060   5.351   2.051
12972TIP3    H138859   6.085   5.265   2.083
12972TIP3    H238860   6.015   5.334   1.968
12973TIP3   OH238861   3.273   6.741   0.822
12973TIP3    H138862   3.288   6.784   0.738
12973TIP3    H238863   3.290   6.649   0.806
12974TIP3   OH238864   2.812   5.946   2.150
12974TIP3    H138865   2.744   5.975   2.211
12974TIP3    H238866   2.885   6.006   2.165
12975TIP3   OH238867   1.436   3.057   2.752
12975TIP3    H138868   1.475   3.028   2.670
12975TIP3    H238869   1.376   3.127   2.726
12976TIP3   OH238870   7.547   5.673   6.184
12976TIP3    H138871   7.609   5.628   6.126
12976TIP3    H238872   7.476   5.700   6.127
12977TIP3   OH238873   4.042   1.383   3.813
12977TIP3    H138874   3.958   1.387   3.768
12977TIP3    H238875   4.020   1.373   3.905
12978TIP3   OH238876   1.705   6.760   5.306
12978TIP3    H138877   1.643   6.796   5.242
12978TIP3    H238878   1.786   6.748   5.258
12979TIP3   OH238879   7.753   0.436   3.102
12979TIP3    H138880   7.675   0.476   3.063
12979TIP3    H238881   7.721   0.356   3.144
12980TIP3   OH238882   0.483   6.555   6.017
12980TIP3    H138883   0.566   6.508   6.024
12980TIP3    H238884   0.507   6.642   5.984
12981TIP3   OH238885   3.249   2.920   1.990
12981TIP3    H138886   3.243   3.014   2.006
12981TIP3    H238887   3.343   2.901   1.994
12982TIP3   OH238888   0.331   0.117   6.210
12982TIP3    H138889   0.347   0.091   6.300
12982TIP3    H238890   0.418   0.118   6.169
12983TIP3   OH238891   6.163   1.983   1.095
12983TIP3    H138892   6.231   2.023   1.148
12983TIP3    H238893   6.105   1.941   1.158
12984TIP3   OH238894   5.770   2.187   0.722
12984TIP3    H138895   5.776   2.277   0.753
12984TIP3    H238896   5.677   2.171   0.710
12985TIP3   OH238897   5.323   4.166   2.177
12985TIP3    H138898   5.229   4.180   2.181
12985TIP3    H238899   5.360   4.231   2.237
12986TIP3   OH238900   3.256   4.952   1.721
12986TIP3    H138901   3.321   4.971   1.654
12986TIP3    H238902   3.298   4.888   1.778
12987TIP3   OH238903   7.548   5.124   5.746
12987TIP3    H138904   7.613   5.191   5.725
12987TIP3    H238905   7.585   5.043   5.711
12988TIP3   OH238906   3.976   3.148   1.704
12988TIP3    H138907   3.939   3.214   1.763
12988TIP3    H238908   4.048   3.193   1.660
12989TIP3   OH238909   1.585   2.322   6.581
12989TIP3    H138910   1.601   2.291   6.670
12989TIP3    H238911   1.495   2.353   6.582
12990TIP3   OH238912   2.704   5.257   2.010
12990TIP3    H138913   2.793   5.235   1.984
12990TIP3    H238914   2.691   5.346   1.977
12991TIP3   OH238915   3.256   1.317   6.128
12991TIP3    H138916   3.174   1.330   6.082
12991TIP3    H238917   3.272   1.400   6.173
12992TIP3   OH238918   2.321   7.091  -0.035
12992TIP3    H138919   2.311   7.089   0.060
12992TIP3    H238920   2.250   7.035  -0.068
12993TIP3   OH238921   1.595   2.312   3.906
12993TIP3    H138922   1.575   2.373   3.977
12993TIP3    H238923   1.687   2.290   3.919
12994TIP3   OH238924   2.345   7.479   0.376
12994TIP3    H138925   2.273   7.541   0.381
12994TIP3    H238926   2.361   7.469   0.282
12995TIP3   OH238927   8.154   1.568   4.479
12995TIP3    H138928   8.115   1.504   4.538
12995TIP3    H238929   8.205   1.625   4.536
12996TIP3   OH238930   1.748   4.438   6.523
12996TIP3    H138931   1.693   4.422   6.446
12996TIP3    H238932   1.773   4.530   6.515
12997TIP3   OH238933   7.753   4.589   4.271
12997TIP3    H138934   7.832   4.625   4.311
12997TIP3    H238935   7.754   4.624   4.181
12998TIP3   OH238936   2.440   1.540   2.455
12998TIP3    H138937   2.435   1.448   2.432
12998TIP3    H238938   2.406   1.586   2.378
12999TIP3   OH238939   0.631   0.845   5.109
12999TIP3    H138940   0.712   0.795   5.097
12999TIP3    H238941   0.651   0.932   5.073
13000TIP3   OH238942   6.359   6.062   2.619
13000TIP3    H138943   6.313   6.023   2.693
13000TIP3    H238944   6.302   6.133   2.588
13001TIP3   OH238945   3.211   1.152   4.550
13001TIP3    H138946   3.259   1.071   4.536
13001TIP3    H238947   3.166   1.169   4.467
13002TIP3   OH238948   0.218   0.311   1.447
13002TIP3    H138949   0.279   0.238   1.459
13002TIP3    H238950   0.138   0.270   1.413
13003TIP3   OH238951   1.494   4.699   6.699
13003TIP3    H138952   1.561   4.637   6.730
13003TIP3    H238953   1.415   4.646   6.690
13004TIP3   OH238954   6.230   1.634   3.855
13004TIP3    H138955   6.283   1.559   3.883
13004TIP3    H238956   6.236   1.696   3.927
13005TIP3   OH238957   5.271   5.460   0.955
13005TIP3    H138958   5.326   5.518   0.903
13005TIP3    H238959   5.183   5.472   0.918
13006TIP3   OH238960   2.291   5.145   4.991
13006TIP3    H138961   2.295   5.053   5.014
13006TIP3    H238962   2.273   5.146   4.897
13007TIP3   OH238963   1.301   0.701   4.693
13007TIP3    H138964   1.289   0.612   4.659
13007TIP3    H238965   1.387   0.699   4.735
13008TIP3   OH238966   1.890   6.339   4.381
13008TIP3    H138967   1.909   6.346   4.287
13008TIP3    H238968   1.797   6.361   4.388
13009TIP3   OH238969   3.430   2.382   3.820
13009TIP3    H138970   3.394   2.465   3.852
13009TIP3    H238971   3.474   2.344   3.896
13010TIP3   OH238972   0.702   5.476   0.852
13010TIP3    H138973   0.798   5.484   0.846
13010TIP3    H238974   0.675   5.550   0.907
13011TIP3   OH238975   3.879   1.189   6.367
13011TIP3    H138976   3.936   1.208   6.442
13011TIP3    H238977   3.936   1.143   6.305
13012TIP3   OH238978   7.717   1.246   2.051
13012TIP3    H138979   7.673   1.161   2.044
13012TIP3    H238980   7.748   1.249   2.142
13013TIP3   OH238981   6.437   2.336   2.181
13013TIP3    H138982   6.454   2.428   2.205
13013TIP3    H238983   6.391   2.342   2.098
13014TIP3   OH238984   1.361   1.169   3.417
13014TIP3    H138985   1.268   1.175   3.396
13014TIP3    H238986   1.364   1.142   3.509
13015TIP3   OH238987   0.867   7.136   1.807
13015TIP3    H138988   0.873   7.142   1.903
13015TIP3    H238989   0.821   7.053   1.792
13016TIP3   OH238990   2.516   1.608   1.582
13016TIP3    H138991   2.424   1.585   1.563
13016TIP3    H238992   2.525   1.697   1.550
13017TIP3   OH238993   2.263   1.868   0.395
13017TIP3    H138994   2.316   1.856   0.473
13017TIP3    H238995   2.305   1.941   0.348
13018TIP3   OH238996   3.567   6.214   6.413
13018TIP3    H138997   3.606   6.152   6.353
13018TIP3    H238998   3.537   6.286   6.358
13019TIP3   OH238999   6.731   3.969   5.003
13019TIP3    H139000   6.711   4.036   5.069
13019TIP3    H239001   6.816   3.934   5.029
13020TIP3   OH239002   6.788   4.087   3.445
13020TIP3    H139003   6.773   4.002   3.402
13020TIP3    H239004   6.845   4.066   3.520
13021TIP3   OH239005   8.090   2.908   1.930
13021TIP3    H139006   8.047   2.826   1.908
13021TIP3    H239007   8.163   2.882   1.987
13022TIP3   OH239008   1.565   3.639   0.477
13022TIP3    H139009   1.642   3.582   0.477
13022TIP3    H239010   1.596   3.723   0.509
13023TIP3   OH239011   7.616   4.609   3.864
13023TIP3    H139012   7.567   4.527   3.855
13023TIP3    H239013   7.557   4.677   3.832
13024TIP3   OH239014   0.177   6.056   6.562
13024TIP3    H139015   0.187   5.967   6.526
13024TIP3    H239016   0.232   6.110   6.506
13025TIP3   OH239017   1.003   2.590   3.778
13025TIP3    H139018   0.982   2.594   3.871
13025TIP3    H239019   0.975   2.503   3.750
13026TIP3   OH239020   3.126   5.779   5.618
13026TIP3    H139021   3.150   5.870   5.639
13026TIP3    H239022   3.031   5.779   5.617
13027TIP3   OH239023   0.434   3.714   4.540
13027TIP3    H139024   0.489   3.639   4.561
13027TIP3    H239025   0.370   3.680   4.477
13028TIP3   OH239026   2.098   0.063   1.037
13028TIP3    H139027   2.145   0.059   1.120
13028TIP3    H239028   2.159   0.105   0.977
13029TIP3   OH239029   5.413   7.466   1.656
13029TIP3    H139030   5.424   7.398   1.590
13029TIP3    H239031   5.357   7.531   1.614
13030TIP3   OH239032   2.551   4.499   2.659
13030TIP3    H139033   2.476   4.485   2.602
13030TIP3    H239034   2.586   4.584   2.631
13031TIP3   OH239035   6.820   4.506   4.505
13031TIP3    H139036   6.881   4.465   4.443
13031TIP3    H239037   6.877   4.550   4.568
13032TIP3   OH239038   3.446   4.188   0.587
13032TIP3    H139039   3.405   4.272   0.564
13032TIP3    H239040   3.422   4.130   0.514
13033TIP3   OH239041   4.725   5.545   6.669
13033TIP3    H139042   4.711   5.454   6.646
13033TIP3    H239043   4.804   5.570   6.620
13034TIP3   OH239044   5.769   2.225   2.659
13034TIP3    H139045   5.746   2.151   2.716
13034TIP3    H239046   5.685   2.265   2.636
13035TIP3   OH239047   7.745   7.608   3.785
13035TIP3    H139048   7.822   7.560   3.756
13035TIP3    H239049   7.683   7.600   3.713
13036TIP3   OH239050   7.897   6.820   6.286
13036TIP3    H139051   7.979   6.781   6.318
13036TIP3    H239052   7.859   6.862   6.363
13037TIP3   OH239053   2.622   3.171   3.619
13037TIP3    H139054   2.647   3.262   3.599
13037TIP3    H239055   2.560   3.147   3.551
13038TIP3   OH239056   3.526   5.638   1.070
13038TIP3    H139057   3.446   5.678   1.034
13038TIP3    H239058   3.516   5.647   1.165
13039TIP3   OH239059   2.030   2.423   5.352
13039TIP3    H139060   1.992   2.455   5.433
13039TIP3    H239061   1.960   2.431   5.288
13040TIP3   OH239062   6.832   6.528   2.920
13040TIP3    H139063   6.790   6.469   2.982
13040TIP3    H239064   6.815   6.616   2.955
13041TIP3   OH239065   1.259   3.191   3.373
13041TIP3    H139066   1.287   3.270   3.325
13041TIP3    H239067   1.188   3.155   3.321
13042TIP3   OH239068   5.245   3.437   6.678
13042TIP3    H139069   5.227   3.422   6.586
13042TIP3    H239070   5.162   3.467   6.715
13043TIP3   OH239071   1.658   6.608   1.637
13043TIP3    H139072   1.710   6.589   1.716
13043TIP3    H239073   1.655   6.524   1.591
13044TIP3   OH239074   8.049   1.733   1.962
13044TIP3    H139075   8.053   1.679   2.041
13044TIP3    H239076   7.975   1.697   1.912
13045TIP3   OH239077   7.448   6.908   1.356
13045TIP3    H139078   7.383   6.952   1.301
13045TIP3    H239079   7.530   6.914   1.306
13046TIP3   OH239080   3.224   0.313   3.085
13046TIP3    H139081   3.159   0.360   3.032
13046TIP3    H239082   3.211   0.346   3.173
13047TIP3   OH239083   0.705   6.295   2.322
13047TIP3    H139084   0.778   6.236   2.340
13047TIP3    H239085   0.627   6.240   2.323
13048TIP3   OH239086   6.429   6.270   0.827
13048TIP3    H139087   6.459   6.180   0.813
13048TIP3    H239088   6.480   6.301   0.902
13049TIP3   OH239089   0.096   7.313   0.801
13049TIP3    H139090   0.157   7.240   0.813
13049TIP3    H239091   0.106   7.338   0.709
13050TIP3   OH239092   0.268   2.140   2.365
13050TIP3    H139093   0.222   2.115   2.285
13050TIP3    H239094   0.352   2.175   2.334
13051TIP3   OH239095   2.831   1.056   4.478
13051TIP3    H139096   2.865   0.977   4.435
13051TIP3    H239097   2.737   1.056   4.456
13052TIP3   OH239098   7.596   2.497   1.687
13052TIP3    H139099   7.522   2.459   1.735
13052TIP3    H239100   7.566   2.502   1.596
13053TIP3   OH239101   7.179   1.248   1.108
13053TIP3    H139102   7.249   1.207   1.056
13053TIP3    H239103   7.099   1.205   1.077
13054TIP3   OH239104   6.306   4.219   5.406
13054TIP3    H139105   6.232   4.169   5.373
13054TIP3    H239106   6.295   4.307   5.370
13055TIP3   OH239107   2.377   4.474   4.653
13055TIP3    H139108   2.463   4.515   4.660
13055TIP3    H239109   2.395   4.380   4.646
13056TIP3   OH239110   0.708   4.944   3.582
13056TIP3    H139111   0.749   4.957   3.668
13056TIP3    H239112   0.620   4.981   3.592
13057TIP3   OH239113   0.151   3.634   6.747
13057TIP3    H139114   0.086   3.565   6.763
13057TIP3    H239115   0.121   3.707   6.802
13058TIP3   OH239116   7.891   2.585   4.358
13058TIP3    H139117   7.861   2.496   4.341
13058TIP3    H239118   7.871   2.601   4.450
13059TIP3   OH239119   1.036   6.548   0.166
13059TIP3    H139120   1.029   6.643   0.154
13059TIP3    H239121   0.981   6.511   0.096
13060TIP3   OH239122   7.630   1.886   2.759
13060TIP3    H139123   7.572   1.910   2.831
13060TIP3    H239124   7.607   1.795   2.739
13061TIP3   OH239125   1.335   4.546   2.013
13061TIP3    H139126   1.317   4.523   2.104
13061TIP3    H239127   1.426   4.576   2.013
13062TIP3   OH239128   0.992   2.702   1.544
13062TIP3    H139129   0.985   2.797   1.558
13062TIP3    H239130   0.922   2.683   1.482
13063TIP3   OH239131   0.431   7.209   3.857
13063TIP3    H139132   0.409   7.161   3.777
13063TIP3    H239133   0.417   7.145   3.928
13064TIP3   OH239134   3.012   0.541   4.666
13064TIP3    H139135   3.058   0.462   4.694
13064TIP3    H239136   3.039   0.554   4.575
13065TIP3   OH239137   0.825   4.556   2.199
13065TIP3    H139138   0.735   4.576   2.172
13065TIP3    H239139   0.880   4.607   2.139
13066TIP3   OH239140   6.160   2.015   4.907
13066TIP3    H139141   6.090   2.053   4.854
13066TIP3    H239142   6.119   2.002   4.993
13067TIP3   OH239143   0.526   3.774   0.481
13067TIP3    H139144   0.566   3.727   0.554
13067TIP3    H239145   0.597   3.825   0.443
13068TIP3   OH239146   7.411   3.433   6.557
13068TIP3    H139147   7.496   3.390   6.569
13068TIP3    H239148   7.409   3.501   6.624
13069TIP3   OH239149   7.921   7.895   1.065
13069TIP3    H139150   7.957   7.808   1.083
13069TIP3    H239151   7.908   7.896   0.970
13070TIP3   OH239152   3.875   3.373   1.826
13070TIP3    H139153   3.792   3.370   1.873
13070TIP3    H239154   3.869   3.452   1.772
13071TIP3   OH239155   2.991   4.309   5.412
13071TIP3    H139156   2.972   4.219   5.386
13071TIP3    H239157   2.917   4.334   5.467
13072TIP3   OH239158   0.148   0.429   5.236
13072TIP3    H139159   0.162   0.518   5.269
13072TIP3    H239160   0.234   0.388   5.240
13073TIP3   OH239161   2.392   6.865   5.659
13073TIP3    H139162   2.434   6.946   5.628
13073TIP3    H239163   2.343   6.834   5.582
13074TIP3   OH239164   4.461   0.448   4.852
13074TIP3    H139165   4.544   0.494   4.864
13074TIP3    H239166   4.484   0.355   4.853
13075TIP3   OH239167   2.774   6.747   4.486
13075TIP3    H139168   2.772   6.843   4.495
13075TIP3    H239169   2.717   6.729   4.412
13076TIP3   OH239170   6.398   0.317   1.195
13076TIP3    H139171   6.480   0.273   1.172
13076TIP3    H239172   6.406   0.404   1.156
13077TIP3   OH239173   0.576   4.299   6.159
13077TIP3    H139174   0.551   4.312   6.068
13077TIP3    H239175   0.565   4.205   6.173
13078TIP3   OH239176   5.887   4.977   3.535
13078TIP3    H139177   5.960   4.924   3.567
13078TIP3    H239178   5.928   5.055   3.500
13079TIP3   OH239179   0.152   3.217   6.206
13079TIP3    H139180   0.135   3.129   6.172
13079TIP3    H239181   0.247   3.224   6.209
13080TIP3   OH239182   6.763   4.823   2.602
13080TIP3    H139183   6.748   4.902   2.550
13080TIP3    H239184   6.736   4.847   2.691
13081TIP3   OH239185   4.748   6.504   5.616
13081TIP3    H139186   4.735   6.502   5.521
13081TIP3    H239187   4.842   6.492   5.627
13082TIP3   OH239188   5.901   3.124   2.682
13082TIP3    H139189   5.949   3.097   2.760
13082TIP3    H239190   5.862   3.043   2.649
13083TIP3   OH239191   4.811   6.414   1.603
13083TIP3    H139192   4.751   6.399   1.676
13083TIP3    H239193   4.786   6.500   1.568
13084TIP3   OH239194   6.480   1.500   3.034
13084TIP3    H139195   6.504   1.408   3.039
13084TIP3    H239196   6.562   1.545   3.013
13085TIP3   OH239197   4.098   5.045   3.123
13085TIP3    H139198   4.160   5.057   3.052
13085TIP3    H239199   4.114   5.119   3.182
13086TIP3   OH239200   0.059   6.627   5.110
13086TIP3    H139201   0.003   6.564   5.064
13086TIP3    H239202   0.062   6.595   5.200
13087TIP3   OH239203   3.764   7.395   2.411
13087TIP3    H139204   3.720   7.470   2.372
13087TIP3    H239205   3.819   7.360   2.341
13088TIP3   OH239206   7.867   2.035   4.162
13088TIP3    H139207   7.957   2.051   4.188
13088TIP3    H239208   7.872   1.961   4.101
13089TIP3   OH239209   7.805   3.552   4.595
13089TIP3    H139210   7.763   3.515   4.673
13089TIP3    H239211   7.850   3.631   4.627
13090TIP3   OH239212   7.656   6.058   6.403
13090TIP3    H139213   7.674   6.148   6.377
13090TIP3    H239214   7.623   6.064   6.492
13091TIP3   OH239215   3.244   3.678   3.432
13091TIP3    H139216   3.170   3.620   3.414
13091TIP3    H239217   3.287   3.638   3.508
13092TIP3   OH239218   1.851   1.842   1.852
13092TIP3    H139219   1.876   1.758   1.816
13092TIP3    H239220   1.896   1.846   1.937
13093TIP3   OH239221   6.540   0.873   6.731
13093TIP3    H139222   6.479   0.923   6.677
13093TIP3    H239223   6.510   0.887   6.821
13094TIP3   OH239224   3.571   2.145   5.950
13094TIP3    H139225   3.538   2.149   6.040
13094TIP3    H239226   3.625   2.224   5.941
13095TIP3   OH239227   2.619   0.886   4.138
13095TIP3    H139228   2.612   0.816   4.203
13095TIP3    H239229   2.706   0.874   4.099
13096TIP3   OH239230   3.172   4.749   4.125
13096TIP3    H139231   3.158   4.838   4.157
13096TIP3    H239232   3.134   4.693   4.192
13097TIP3   OH239233   3.171   2.240   3.072
13097TIP3    H139234   3.091   2.187   3.076
13097TIP3    H239235   3.140   2.328   3.050
13098TIP3   OH239236   5.738   5.703   4.374
13098TIP3    H139237   5.710   5.623   4.329
13098TIP3    H239238   5.830   5.689   4.394
13099TIP3   OH239239   6.710   6.533   0.909
13099TIP3    H139240   6.783   6.589   0.936
13099TIP3    H239241   6.703   6.548   0.814
13100TIP3   OH239242   1.523   0.923   1.210
13100TIP3    H139243   1.443   0.891   1.252
13100TIP3    H239244   1.505   1.015   1.192
13101TIP3   OH239245   4.790   4.560   5.674
13101TIP3    H139246   4.756   4.552   5.585
13101TIP3    H239247   4.783   4.471   5.710
13102TIP3   OH239248   1.672   0.384   2.806
13102TIP3    H139249   1.607   0.322   2.837
13102TIP3    H239250   1.622   0.462   2.781
13103TIP3   OH239251   0.421   0.959   1.085
13103TIP3    H139252   0.403   0.894   1.018
13103TIP3    H239253   0.516   0.956   1.097
13104TIP3   OH239254   3.217   7.174   6.182
13104TIP3    H139255   3.168   7.225   6.118
13104TIP3    H239256   3.281   7.236   6.217
13105TIP3   OH239257   1.645   6.640   2.625
13105TIP3    H139258   1.590   6.708   2.663
13105TIP3    H239259   1.613   6.559   2.665
13106TIP3   OH239260   5.473   2.627   5.535
13106TIP3    H139261   5.383   2.656   5.549
13106TIP3    H239262   5.493   2.654   5.445
13107TIP3   OH239263   6.698   2.477   0.129
13107TIP3    H139264   6.741   2.553   0.167
13107TIP3    H239265   6.739   2.467   0.043
13108TIP3   OH239266   0.013   1.685   2.133
13108TIP3    H139267  -0.062   1.706   2.190
13108TIP3    H239268   0.088   1.727   2.176
13109TIP3   OH239269   5.816   5.191   0.827
13109TIP3    H139270   5.796   5.262   0.767
13109TIP3    H239271   5.736   5.138   0.831
13110TIP3   OH239272   3.600   2.856   5.711
13110TIP3    H139273   3.667   2.922   5.727
13110TIP3    H239274   3.649   2.774   5.706
13111TIP3   OH239275   1.783   2.361   1.425
13111TIP3    H139276   1.844   2.323   1.362
13111TIP3    H239277   1.806   2.318   1.508
13112TIP3   OH239278   4.572   6.025   4.182
13112TIP3    H139279   4.621   5.970   4.242
13112TIP3    H239280   4.513   6.076   4.238
13113TIP3   OH239281   1.131   6.715   5.533
13113TIP3    H139282   1.227   6.714   5.537
13113TIP3    H239283   1.110   6.643   5.473
13114TIP3   OH239284   7.684   3.913   2.665
13114TIP3    H139285   7.774   3.884   2.679
13114TIP3    H239286   7.683   4.004   2.694
13115TIP3   OH239287   7.432   4.560   2.074
13115TIP3    H139288   7.425   4.627   2.142
13115TIP3    H239289   7.495   4.596   2.012
13116TIP3   OH239290   5.743   4.949   3.028
13116TIP3    H139291   5.784   5.011   2.967
13116TIP3    H239292   5.785   4.966   3.112
13117TIP3   OH239293   3.136   5.995   5.359
13117TIP3    H139294   3.075   6.050   5.310
13117TIP3    H239295   3.123   5.907   5.323
13118TIP3   OH239296   2.140   2.557   1.331
13118TIP3    H139297   2.104   2.528   1.247
13118TIP3    H239298   2.151   2.651   1.321
13119TIP3   OH239299   6.453   0.505   4.765
13119TIP3    H139300   6.525   0.562   4.738
13119TIP3    H239301   6.467   0.424   4.715
13120TIP3   OH239302   5.019   4.092   4.694
13120TIP3    H139303   5.063   4.125   4.772
13120TIP3    H239304   4.927   4.115   4.708
13121TIP3   OH239305   5.755   4.926   0.977
13121TIP3    H139306   5.787   4.873   1.050
13121TIP3    H239307   5.705   4.996   1.018
13122TIP3   OH239308   1.219   1.699   5.763
13122TIP3    H139309   1.298   1.750   5.777
13122TIP3    H239310   1.236   1.616   5.808
13123TIP3   OH239311   3.057   2.468   0.453
13123TIP3    H139312   3.018   2.382   0.439
13123TIP3    H239313   3.032   2.492   0.542
13124TIP3   OH239314   5.424   6.179   3.863
13124TIP3    H139315   5.439   6.091   3.898
13124TIP3    H239316   5.343   6.171   3.812
13125TIP3   OH239317   2.938   1.077   0.130
13125TIP3    H139318   2.932   0.992   0.086
13125TIP3    H239319   2.851   1.090   0.169
13126TIP3   OH239320   3.170   2.200   5.570
13126TIP3    H139321   3.257   2.241   5.579
13126TIP3    H239322   3.171   2.129   5.634
13127TIP3   OH239323   0.941   4.553   6.722
13127TIP3    H139324   0.943   4.461   6.750
13127TIP3    H239325   0.906   4.550   6.633
13128TIP3   OH239326  -0.033   2.137   0.829
13128TIP3    H139327  -0.049   2.162   0.920
13128TIP3    H239328   0.050   2.089   0.831
13129TIP3   OH239329   7.353   3.673   6.692
13129TIP3    H139330   7.274   3.701   6.740
13129TIP3    H239331   7.363   3.738   6.623
13130TIP3   OH239332   1.316   7.509   4.045
13130TIP3    H139333   1.273   7.567   3.982
13130TIP3    H239334   1.407   7.539   4.046
13131TIP3   OH239335   5.699   7.158   4.978
13131TIP3    H139336   5.652   7.134   4.898
13131TIP3    H239337   5.791   7.145   4.956
13132TIP3   OH239338   0.294   4.993   3.409
13132TIP3    H139339   0.200   5.007   3.410
13132TIP3    H239340   0.310   4.935   3.335
13133TIP3   OH239341   4.631   5.293   2.907
13133TIP3    H139342   4.673   5.299   2.821
13133TIP3    H239343   4.684   5.349   2.963
13134TIP3   OH239344   8.210   6.110   4.213
13134TIP3    H139345   8.208   6.118   4.117
13134TIP3    H239346   8.144   6.172   4.244
13135TIP3   OH239347   4.160   6.823   1.289
13135TIP3    H139348   4.073   6.787   1.305
13135TIP3    H239349   4.157   6.857   1.200
13136TIP3   OH239350   4.765   0.862   6.566
13136TIP3    H139351   4.732   0.946   6.597
13136TIP3    H239352   4.715   0.796   6.614
13137TIP3   OH239353   0.373   6.864   1.511
13137TIP3    H139354   0.465   6.886   1.495
13137TIP3    H239355   0.325   6.940   1.477
13138TIP3   OH239356   7.063   0.947   2.566
13138TIP3    H139357   7.004   0.874   2.545
13138TIP3    H239358   7.019   1.024   2.530
13139TIP3   OH239359   7.677   3.611   4.339
13139TIP3    H139360   7.726   3.587   4.417
13139TIP3    H239361   7.591   3.637   4.372
13140TIP3   OH239362   0.657   7.265   4.014
13140TIP3    H139363   0.591   7.253   3.946
13140TIP3    H239364   0.688   7.355   4.002
13141TIP3   OH239365   4.470   3.782   4.911
13141TIP3    H139366   4.447   3.692   4.887
13141TIP3    H239367   4.505   3.820   4.831
13142TIP3   OH239368   7.045   1.498   3.101
13142TIP3    H139369   7.134   1.464   3.097
13142TIP3    H239370   7.001   1.459   3.025
13143TIP3   OH239371   0.899   3.846   1.395
13143TIP3    H139372   0.968   3.913   1.394
13143TIP3    H239373   0.868   3.846   1.486
13144TIP3   OH239374   7.477   4.741   2.285
13144TIP3    H139375   7.534   4.697   2.348
13144TIP3    H239376   7.432   4.808   2.337
13145TIP3   OH239377   6.912   7.679   3.067
13145TIP3    H139378   6.930   7.595   3.026
13145TIP3    H239379   6.998   7.714   3.090
13146TIP3   OH239380   8.139   3.151   6.506
13146TIP3    H139381   8.219   3.112   6.470
13146TIP3    H239382   8.116   3.095   6.580
13147TIP3   OH239383   6.433   3.500   3.654
13147TIP3    H139384   6.362   3.462   3.706
13147TIP3    H239385   6.455   3.432   3.591
13148TIP3   OH239386   1.129   4.349   1.466
13148TIP3    H139387   1.204   4.335   1.409
13148TIP3    H239388   1.159   4.415   1.529
13149TIP3   OH239389   6.587   1.177   6.237
13149TIP3    H139390   6.626   1.111   6.179
13149TIP3    H239391   6.655   1.243   6.248
13150TIP3   OH239392   4.435   0.845   0.423
13150TIP3    H139393   4.435   0.892   0.506
13150TIP3    H239394   4.343   0.836   0.400
13151TIP3   OH239395   2.932   3.296   3.138
13151TIP3    H139396   2.937   3.391   3.132
13151TIP3    H239397   3.003   3.264   3.083
13152TIP3   OH239398   0.069   1.329   1.268
13152TIP3    H139399   0.136   1.364   1.208
13152TIP3    H239400   0.028   1.258   1.219
13153TIP3   OH239401   2.331   0.476   2.422
13153TIP3    H139402   2.366   0.391   2.450
13153TIP3    H239403   2.285   0.510   2.498
13154TIP3   OH239404   1.509   1.224   1.996
13154TIP3    H139405   1.477   1.247   2.083
13154TIP3    H239406   1.493   1.302   1.943
13155TIP3   OH239407   0.960   7.648   4.796
13155TIP3    H139408   0.949   7.565   4.749
13155TIP3    H239409   0.928   7.714   4.736
13156TIP3   OH239410   2.408   0.898   0.298
13156TIP3    H139411   2.400   0.823   0.239
13156TIP3    H239412   2.442   0.861   0.379
13157TIP3   OH239413   0.887   1.770   0.153
13157TIP3    H139414   0.838   1.841   0.111
13157TIP3    H239415   0.852   1.690   0.114
13158TIP3   OH239416   6.708   4.552   4.156
13158TIP3    H139417   6.729   4.636   4.197
13158TIP3    H239418   6.785   4.498   4.172
13159TIP3   OH239419   4.974   5.214   4.652
13159TIP3    H139420   4.931   5.180   4.573
13159TIP3    H239421   5.049   5.263   4.620
13160TIP3   OH239422   4.013   6.824   6.020
13160TIP3    H139423   4.070   6.805   6.094
13160TIP3    H239424   3.931   6.852   6.059
13161TIP3   OH239425   7.475   2.844   3.831
13161TIP3    H139426   7.404   2.807   3.778
13161TIP3    H239427   7.551   2.843   3.773
13162TIP3   OH239428   5.655   2.487   0.405
13162TIP3    H139429   5.629   2.570   0.446
13162TIP3    H239430   5.575   2.435   0.403
13163TIP3   OH239431   2.082   3.731   1.371
13163TIP3    H139432   2.136   3.664   1.412
13163TIP3    H239433   2.134   3.811   1.377
13164TIP3   OH239434   1.854   2.338   3.675
13164TIP3    H139435   1.814   2.347   3.589
13164TIP3    H239436   1.807   2.265   3.716
13165TIP3   OH239437   1.452   2.607   5.481
13165TIP3    H139438   1.399   2.586   5.558
13165TIP3    H239439   1.479   2.698   5.495
13166TIP3   OH239440   2.002   3.509   1.213
13166TIP3    H139441   2.029   3.595   1.247
13166TIP3    H239442   2.057   3.495   1.136
13167TIP3   OH239443   1.776   7.203   4.197
13167TIP3    H139444   1.821   7.260   4.135
13167TIP3    H239445   1.685   7.204   4.168
13168TIP3   OH239446   4.030   2.444   3.079
13168TIP3    H139447   4.104   2.501   3.099
13168TIP3    H239448   4.009   2.463   2.988
13169TIP3   OH239449   0.176   7.432   4.692
13169TIP3    H139450   0.175   7.517   4.648
13169TIP3    H239451   0.190   7.369   4.622
13170TIP3   OH239452   4.520   7.695   2.088
13170TIP3    H139453   4.425   7.697   2.094
13170TIP3    H239454   4.551   7.740   2.166
13171TIP3   OH239455   5.739   4.674   1.571
13171TIP3    H139456   5.668   4.644   1.627
13171TIP3    H239457   5.806   4.706   1.631
13172TIP3   OH239458   4.694   6.443   0.638
13172TIP3    H139459   4.788   6.429   0.650
13172TIP3    H239460   4.664   6.365   0.591
13173TIP3   OH239461   8.233   1.415   3.820
13173TIP3    H139462   8.252   1.385   3.909
13173TIP3    H239463   8.186   1.342   3.780
13174TIP3   OH239464   1.703   6.123   0.396
13174TIP3    H139465   1.754   6.194   0.435
13174TIP3    H239466   1.614   6.138   0.426
13175TIP3   OH239467   4.060   0.111   4.635
13175TIP3    H139468   3.986   0.157   4.596
13175TIP3    H239469   4.094   0.056   4.564
13176TIP3   OH239470   5.744   0.859   3.743
13176TIP3    H139471   5.702   0.793   3.798
13176TIP3    H239472   5.711   0.943   3.777
13177TIP3   OH239473   2.908   6.382   2.032
13177TIP3    H139474   2.833   6.323   2.024
13177TIP3    H239475   2.885   6.459   1.980
13178TIP3   OH239476   7.631   1.503   3.748
13178TIP3    H139477   7.638   1.463   3.835
13178TIP3    H239478   7.680   1.585   3.754
13179TIP3   OH239479   7.342   4.111   2.095
13179TIP3    H139480   7.429   4.113   2.135
13179TIP3    H239481   7.318   4.203   2.086
13180TIP3   OH239482   4.374   5.331   3.019
13180TIP3    H139483   4.447   5.324   2.957
13180TIP3    H239484   4.412   5.370   3.097
13181TIP3   OH239485   7.955   4.473   3.164
13181TIP3    H139486   8.030   4.429   3.204
13181TIP3    H239487   7.970   4.463   3.070
13182TIP3   OH239488   5.160   7.230   5.566
13182TIP3    H139489   5.169   7.318   5.529
13182TIP3    H239490   5.185   7.171   5.495
13183TIP3   OH239491   6.598   1.896   2.405
13183TIP3    H139492   6.634   1.976   2.443
13183TIP3    H239493   6.554   1.852   2.478
13184TIP3   OH239494   0.380   1.861   4.641
13184TIP3    H139495   0.437   1.889   4.569
13184TIP3    H239496   0.400   1.921   4.712
13185TIP3   OH239497   3.109   0.421   0.917
13185TIP3    H139498   3.138   0.484   0.851
13185TIP3    H239499   3.181   0.360   0.925
13186TIP3   OH239500   6.028   7.701   2.585
13186TIP3    H139501   5.985   7.778   2.549
13186TIP3    H239502   6.033   7.640   2.512
13187TIP3   OH239503   6.317   2.495   1.161
13187TIP3    H139504   6.265   2.454   1.230
13187TIP3    H239505   6.364   2.565   1.206
13188TIP3   OH239506   7.375   2.122   5.568
13188TIP3    H139507   7.447   2.184   5.559
13188TIP3    H239508   7.296   2.174   5.551
13189TIP3   OH239509   1.008   3.676   4.897
13189TIP3    H139510   1.071   3.627   4.950
13189TIP3    H239511   0.983   3.750   4.953
13190TIP3   OH239512   4.097   0.148   2.578
13190TIP3    H139513   4.076   0.208   2.507
13190TIP3    H239514   4.018   0.094   2.589
13191TIP3   OH239515   6.936   6.697   0.944
13191TIP3    H139516   7.022   6.716   0.983
13191TIP3    H239517   6.875   6.752   0.993
13192TIP3   OH239518   1.901   3.736   0.472
13192TIP3    H139519   1.915   3.643   0.455
13192TIP3    H239520   1.953   3.754   0.550
13193TIP3   OH239521   7.946   2.808   4.691
13193TIP3    H139522   7.907   2.872   4.752
13193TIP3    H239523   7.883   2.737   4.686
13194TIP3   OH239524   4.358   1.616   1.252
13194TIP3    H139525   4.268   1.616   1.219
13194TIP3    H239526   4.411   1.646   1.178
13195TIP3   OH239527   5.820   7.198   3.533
13195TIP3    H139528   5.877   7.167   3.462
13195TIP3    H239529   5.825   7.129   3.600
13196TIP3   OH239530   6.957   1.566   1.688
13196TIP3    H139531   6.897   1.524   1.627
13196TIP3    H239532   6.980   1.497   1.750
13197TIP3   OH239533   2.790   4.946   2.785
13197TIP3    H139534   2.754   5.011   2.846
13197TIP3    H239535   2.880   4.975   2.769
13198TIP3   OH239536   0.548   6.235   3.645
13198TIP3    H139537   0.454   6.249   3.635
13198TIP3    H239538   0.588   6.313   3.606
13199TIP3   OH239539   2.957   7.772   5.266
13199TIP3    H139540   3.039   7.749   5.223
13199TIP3    H239541   2.891   7.761   5.197
13200TIP3   OH239542   1.185   4.346   2.784
13200TIP3    H139543   1.171   4.402   2.861
13200TIP3    H239544   1.097   4.321   2.757
13201TIP3   OH239545   2.156   4.117   2.659
13201TIP3    H139546   2.100   4.141   2.585
13201TIP3    H239547   2.107   4.049   2.705
13202TIP3   OH239548   3.414   1.264   1.473
13202TIP3    H139549   3.502   1.226   1.470
13202TIP3    H239550   3.425   1.353   1.439
13203TIP3   OH239551   4.819   5.163   6.002
13203TIP3    H139552   4.785   5.245   5.965
13203TIP3    H239553   4.771   5.095   5.955
13204TIP3   OH239554   7.187   3.111   3.466
13204TIP3    H139555   7.124   3.098   3.394
13204TIP3    H239556   7.144   3.175   3.523
13205TIP3   OH239557   2.629   6.998   5.348
13205TIP3    H139558   2.697   7.027   5.409
13205TIP3    H239559   2.673   6.991   5.264
13206TIP3   OH239560   7.613   3.279   5.502
13206TIP3    H139561   7.522   3.260   5.480
13206TIP3    H239562   7.651   3.312   5.421
13207TIP3   OH239563   5.501   1.467   4.344
13207TIP3    H139564   5.581   1.420   4.365
13207TIP3    H239565   5.430   1.410   4.374
13208TIP3   OH239566   6.380   0.334   2.950
13208TIP3    H139567   6.352   0.418   2.912
13208TIP3    H239568   6.330   0.326   3.031
13209TIP3   OH239569   2.701   4.434   1.313
13209TIP3    H139570   2.764   4.397   1.251
13209TIP3    H239571   2.687   4.364   1.377
13210TIP3   OH239572   5.439   7.334   1.398
13210TIP3    H139573   5.479   7.420   1.386
13210TIP3    H239574   5.489   7.276   1.341
13211TIP3   OH239575   8.151   5.196   4.818
13211TIP3    H139576   8.128   5.283   4.785
13211TIP3    H239577   8.232   5.209   4.867
13212TIP3   OH239578   2.510   5.061   2.059
13212TIP3    H139579   2.447   5.078   1.989
13212TIP3    H239580   2.579   5.126   2.045
13213TIP3   OH239581   0.580   3.586   1.540
13213TIP3    H139582   0.636   3.564   1.465
13213TIP3    H239583   0.567   3.503   1.585
13214TIP3   OH239584   1.751   1.116   2.096
13214TIP3    H139585   1.671   1.133   2.046
13214TIP3    H239586   1.778   1.201   2.128
13215TIP3   OH239587   7.677   2.593   2.905
13215TIP3    H139588   7.605   2.637   2.859
13215TIP3    H239589   7.756   2.630   2.865
13216TIP3   OH239590   3.593   5.792   2.781
13216TIP3    H139591   3.607   5.839   2.699
13216TIP3    H239592   3.504   5.815   2.808
13217TIP3   OH239593   5.370   1.568   0.112
13217TIP3    H139594   5.312   1.639   0.137
13217TIP3    H239595   5.342   1.543   0.024
13218TIP3   OH239596   1.885   6.957   1.793
13218TIP3    H139597   1.871   7.040   1.838
13218TIP3    H239598   1.807   6.905   1.814
13219TIP3   OH239599   6.909   1.864   3.590
13219TIP3    H139600   6.927   1.786   3.538
13219TIP3    H239601   6.824   1.847   3.630
13220TIP3   OH239602   6.130   3.419   4.346
13220TIP3    H139603   6.103   3.508   4.370
13220TIP3    H239604   6.218   3.410   4.381
13221TIP3   OH239605   1.653   7.175   4.723
13221TIP3    H139606   1.668   7.242   4.656
13221TIP3    H239607   1.709   7.102   4.697
13222TIP3   OH239608   0.936   6.956   3.684
13222TIP3    H139609   0.967   7.033   3.638
13222TIP3    H239610   0.943   6.978   3.777
13223TIP3   OH239611   4.408   0.045   5.683
13223TIP3    H139612   4.321   0.083   5.669
13223TIP3    H239613   4.396  -0.049   5.668
13224TIP3   OH239614   7.164   0.853   1.292
13224TIP3    H139615   7.231   0.915   1.320
13224TIP3    H239616   7.113   0.900   1.226
13225TIP3   OH239617   5.646   2.355   4.928
13225TIP3    H139618   5.633   2.383   5.019
13225TIP3    H239619   5.625   2.262   4.928
13226TIP3   OH239620   3.721   5.919   2.571
13226TIP3    H139621   3.813   5.930   2.551
13226TIP3    H239622   3.696   6.000   2.615
13227TIP3   OH239623   7.796   5.525   4.774
13227TIP3    H139624   7.841   5.564   4.848
13227TIP3    H239625   7.867   5.491   4.718
13228TIP3   OH239626   3.644   7.338   2.800
13228TIP3    H139627   3.652   7.283   2.723
13228TIP3    H239628   3.727   7.327   2.846
13229TIP3   OH239629   8.152   1.164   1.117
13229TIP3    H139630   8.144   1.075   1.084
13229TIP3    H239631   8.152   1.219   1.038
13230TIP3   OH239632   1.109   0.936   0.224
13230TIP3    H139633   1.115   0.986   0.142
13230TIP3    H239634   1.018   0.949   0.253
13231TIP3   OH239635   6.098   2.383   6.600
13231TIP3    H139636   6.054   2.311   6.645
13231TIP3    H239637   6.068   2.377   6.509
13232TIP3   OH239638   2.562   1.464   4.569
13232TIP3    H139639   2.490   1.527   4.581
13232TIP3    H239640   2.630   1.494   4.629
13233TIP3   OH239641   5.861   1.759   4.699
13233TIP3    H139642   5.858   1.666   4.673
13233TIP3    H239643   5.847   1.807   4.617
13234TIP3   OH239644   4.015   1.896   1.101
13234TIP3    H139645   3.944   1.886   1.038
13234TIP3    H239646   4.083   1.836   1.071
13235TIP3   OH239647   3.542   2.097   4.557
13235TIP3    H139648   3.588   2.175   4.590
13235TIP3    H239649   3.528   2.043   4.635
13236TIP3   OH239650   3.459   1.368   1.144
13236TIP3    H139651   3.430   1.359   1.053
13236TIP3    H239652   3.446   1.281   1.182
13237TIP3   OH239653   2.221   3.047   1.713
13237TIP3    H139654   2.243   2.965   1.669
13237TIP3    H239655   2.131   3.065   1.687
13238TIP3   OH239656   0.868   3.124   2.129
13238TIP3    H139657   0.871   3.133   2.224
13238TIP3    H239658   0.959   3.111   2.103
13239TIP3   OH239659   4.621   3.866   5.234
13239TIP3    H139660   4.682   3.865   5.159
13239TIP3    H239661   4.542   3.908   5.199
13240TIP3   OH239662   5.790   2.867   3.357
13240TIP3    H139663   5.855   2.865   3.428
13240TIP3    H239664   5.840   2.846   3.278
13241TIP3   OH239665   1.114   7.820   6.583
13241TIP3    H139666   1.184   7.804   6.646
13241TIP3    H239667   1.146   7.890   6.528
13242TIP3   OH239668   4.141   7.524   5.950
13242TIP3    H139669   4.121   7.615   5.972
13242TIP3    H239670   4.207   7.498   6.014
13243TIP3   OH239671   3.847   3.057   6.570
13243TIP3    H139672   3.823   3.105   6.649
13243TIP3    H239673   3.764   3.039   6.526
13244TIP3   OH239674   5.760   7.839   1.307
13244TIP3    H139675   5.831   7.778   1.327
13244TIP3    H239676   5.701   7.833   1.382
13245TIP3   OH239677   6.094   0.651   4.046
13245TIP3    H139678   6.145   0.594   3.988
13245TIP3    H239679   6.091   0.735   4.000
13246TIP3   OH239680   6.908   6.246   6.423
13246TIP3    H139681   6.965   6.184   6.468
13246TIP3    H239682   6.845   6.192   6.377
13247TIP3   OH239683   2.562   0.394   5.597
13247TIP3    H139684   2.648   0.427   5.622
13247TIP3    H239685   2.580   0.311   5.554
13248TIP3   OH239686   5.399   5.181   1.837
13248TIP3    H139687   5.415   5.095   1.798
13248TIP3    H239688   5.483   5.227   1.830
13249TIP3   OH239689   4.074   7.290   4.741
13249TIP3    H139690   4.083   7.245   4.657
13249TIP3    H239691   4.050   7.220   4.802
13250TIP3   OH239692   6.522   5.561   5.545
13250TIP3    H139693   6.514   5.530   5.636
13250TIP3    H239694   6.431   5.568   5.515
13251TIP3   OH239695   3.659   3.794   0.419
13251TIP3    H139696   3.733   3.794   0.358
13251TIP3    H239697   3.650   3.703   0.447
13252TIP3   OH239698   6.863   7.513   5.958
13252TIP3    H139699   6.838   7.448   6.024
13252TIP3    H239700   6.824   7.595   5.988
13253TIP3   OH239701   4.292   1.670   4.669
13253TIP3    H139702   4.201   1.675   4.697
13253TIP3    H239703   4.301   1.583   4.630
13254TIP3   OH239704   7.059   1.213   0.552
13254TIP3    H139705   7.014   1.295   0.532
13254TIP3    H239706   7.026   1.187   0.638
13255TIP3   OH239707   4.366   4.771   2.475
13255TIP3    H139708   4.397   4.850   2.432
13255TIP3    H239709   4.322   4.721   2.405
13256TIP3   OH239710   1.694   7.516   5.049
13256TIP3    H139711   1.634   7.466   4.993
13256TIP3    H239712   1.645   7.595   5.072
13257TIP3   OH239713   3.285   1.039   3.635
13257TIP3    H139714   3.217   0.973   3.620
13257TIP3    H239715   3.301   1.077   3.549
13258TIP3   OH239716   1.437   4.660   0.277
13258TIP3    H139717   1.530   4.665   0.255
13258TIP3    H239718   1.430   4.704   0.361
13259TIP3   OH239719   3.629   3.212   2.668
13259TIP3    H139720   3.550   3.265   2.671
13259TIP3    H239721   3.627   3.161   2.748
13260TIP3   OH239722   6.255   4.526   4.481
13260TIP3    H139723   6.193   4.525   4.554
13260TIP3    H239724   6.321   4.591   4.506
13261TIP3   OH239725   0.108   0.769   2.873
13261TIP3    H139726   0.144   0.810   2.952
13261TIP3    H239727   0.185   0.740   2.824
13262TIP3   OH239728   5.603   2.808   4.519
13262TIP3    H139729   5.514   2.773   4.520
13262TIP3    H239730   5.635   2.793   4.608
13263TIP3   OH239731   1.912   0.774   6.175
13263TIP3    H139732   1.988   0.725   6.144
13263TIP3    H239733   1.904   0.752   6.267
13264TIP3   OH239734   4.195  -0.019   0.168
13264TIP3    H139735   4.171   0.053   0.110
13264TIP3    H239736   4.116  -0.071   0.175
13265TIP3   OH239737   1.946   6.015   0.570
13265TIP3    H139738   1.916   5.925   0.579
13265TIP3    H239739   1.881   6.056   0.512
13266TIP3   OH239740   5.245   2.530   1.187
13266TIP3    H139741   5.250   2.519   1.282
13266TIP3    H239742   5.232   2.442   1.154
13267TIP3   OH239743   6.447   5.176   5.458
13267TIP3    H139744   6.394   5.209   5.531
13267TIP3    H239745   6.514   5.122   5.499
13268TIP3   OH239746   7.651   6.017   1.416
13268TIP3    H139747   7.687   5.950   1.474
13268TIP3    H239748   7.560   6.026   1.444
13269TIP3   OH239749   5.786   2.915   0.583
13269TIP3    H139750   5.845   2.989   0.598
13269TIP3    H239751   5.841   2.838   0.595
13270TIP3   OH239752   5.395   5.723   6.489
13270TIP3    H139753   5.396   5.793   6.423
13270TIP3    H239754   5.410   5.643   6.439
13271TIP3   OH239755   4.381   3.769   0.914
13271TIP3    H139756   4.430   3.796   0.836
13271TIP3    H239757   4.326   3.697   0.884
13272TIP3   OH239758   1.303   6.341   0.571
13272TIP3    H139759   1.392   6.370   0.593
13272TIP3    H239760   1.253   6.422   0.560
13273TIP3   OH239761   7.905   4.701   1.619
13273TIP3    H139762   7.918   4.726   1.528
13273TIP3    H239763   7.942   4.613   1.626
13274TIP3   OH239764   4.696   3.810   0.566
13274TIP3    H139765   4.613   3.855   0.549
13274TIP3    H239766   4.739   3.806   0.481
13275TIP3   OH239767   6.316   0.548   2.814
13275TIP3    H139768   6.402   0.573   2.780
13275TIP3    H239769   6.264   0.530   2.735
13276TIP3   OH239770   3.147   7.638   5.619
13276TIP3    H139771   3.172   7.563   5.672
13276TIP3    H239772   3.095   7.694   5.677
13277TIP3   OH239773   5.290   0.204   4.861
13277TIP3    H139774   5.385   0.220   4.867
13277TIP3    H239775   5.252   0.255   4.932
13278TIP3   OH239776   2.097   6.051   2.773
13278TIP3    H139777   2.100   5.972   2.826
13278TIP3    H239778   2.003   6.069   2.763
13279TIP3   OH239779   8.193   1.175   3.231
13279TIP3    H139780   8.142   1.138   3.159
13279TIP3    H239781   8.284   1.163   3.204
13280TIP3   OH239782   2.930   7.489   3.127
13280TIP3    H139783   3.009   7.451   3.164
13280TIP3    H239784   2.944   7.584   3.131
13281TIP3   OH239785   6.169   2.670   0.977
13281TIP3    H139786   6.091   2.682   1.031
13281TIP3    H239787   6.217   2.599   1.020
13282TIP3   OH239788   2.368   6.731   4.591
13282TIP3    H139789   2.454   6.706   4.623
13282TIP3    H239790   2.385   6.798   4.526
13283TIP3   OH239791   4.789   2.268   2.247
13283TIP3    H139792   4.789   2.323   2.325
13283TIP3    H239793   4.808   2.329   2.175
13284TIP3   OH239794   6.362   5.136   0.055
13284TIP3    H139795   6.330   5.091   0.133
13284TIP3    H239796   6.447   5.095   0.037
13285TIP3   OH239797   4.379   5.491   5.027
13285TIP3    H139798   4.418   5.577   5.018
13285TIP3    H239799   4.350   5.467   4.939
13286TIP3   OH239800   0.128   6.003   3.693
13286TIP3    H139801   0.097   6.093   3.697
13286TIP3    H239802   0.178   5.998   3.611
13287TIP3   OH239803   2.437   5.040   6.314
13287TIP3    H139804   2.348   5.014   6.338
13287TIP3    H239805   2.428   5.075   6.226
13288TIP3   OH239806   4.984   0.970   2.341
13288TIP3    H139807   5.049   0.992   2.275
13288TIP3    H239808   5.029   0.910   2.400
13289TIP3   OH239809   5.698   1.238   2.460
13289TIP3    H139810   5.754   1.224   2.537
13289TIP3    H239811   5.759   1.255   2.389
13290TIP3   OH239812   7.036   5.866   3.607
13290TIP3    H139813   7.092   5.790   3.622
13290TIP3    H239814   7.086   5.940   3.642
13291TIP3   OH239815   2.059   7.343   6.136
13291TIP3    H139816   2.027   7.433   6.132
13291TIP3    H239817   2.042   7.307   6.049
13292TIP3   OH239818   7.771   3.566   0.450
13292TIP3    H139819   7.792   3.477   0.420
13292TIP3    H239820   7.836   3.584   0.518
13293TIP3   OH239821   2.382   4.875   4.917
13293TIP3    H139822   2.360   4.859   5.008
13293TIP3    H239823   2.350   4.797   4.871
13294TIP3   OH239824   7.478   4.107   2.490
13294TIP3    H139825   7.426   4.180   2.456
13294TIP3    H239826   7.438   4.029   2.451
13295TIP3   OH239827   4.483   1.702   4.926
13295TIP3    H139828   4.492   1.623   4.873
13295TIP3    H239829   4.389   1.714   4.935
13296TIP3   OH239830   2.449   1.569   5.016
13296TIP3    H139831   2.373   1.543   4.964
13296TIP3    H239832   2.448   1.664   5.015
13297TIP3   OH239833   1.500   2.003   1.208
13297TIP3    H139834   1.531   2.083   1.164
13297TIP3    H239835   1.565   1.936   1.185
13298TIP3   OH239836   4.013   5.663   3.340
13298TIP3    H139837   4.046   5.715   3.267
13298TIP3    H239838   3.945   5.608   3.301
13299TIP3   OH239839   4.325   0.030   4.475
13299TIP3    H139840   4.415   0.044   4.446
13299TIP3    H239841   4.291  -0.039   4.419
13300TIP3   OH239842   0.089   4.664   6.699
13300TIP3    H139843   0.114   4.630   6.785
13300TIP3    H239844   0.036   4.741   6.719
13301TIP3   OH239845   4.719   6.328   5.838
13301TIP3    H139846   4.684   6.376   5.763
13301TIP3    H239847   4.667   6.357   5.912
13302TIP3   OH239848   7.742   2.418   4.967
13302TIP3    H139849   7.692   2.357   4.914
13302TIP3    H239850   7.680   2.450   5.032
13303TIP3   OH239851   2.871   2.668   2.772
13303TIP3    H139852   2.804   2.611   2.810
13303TIP3    H239853   2.839   2.689   2.684
13304TIP3   OH239854   4.108   5.241   3.318
13304TIP3    H139855   4.176   5.292   3.362
13304TIP3    H239856   4.038   5.233   3.384
13305TIP3   OH239857   7.279   0.924   6.218
13305TIP3    H139858   7.269   0.973   6.299
13305TIP3    H239859   7.214   0.963   6.159
13306TIP3   OH239860   2.015   3.843   2.076
13306TIP3    H139861   2.067   3.769   2.108
13306TIP3    H239862   2.047   3.918   2.127
13307TIP3   OH239863   2.354   3.807   2.962
13307TIP3    H139864   2.404   3.779   2.885
13307TIP3    H239865   2.263   3.810   2.932
13308TIP3   OH239866   7.655   1.837   6.044
13308TIP3    H139867   7.594   1.764   6.045
13308TIP3    H239868   7.599   1.915   6.040
13309TIP3   OH239869   2.548   0.708   3.881
13309TIP3    H139870   2.633   0.679   3.849
13309TIP3    H239871   2.565   0.793   3.921
13310TIP3   OH239872   1.929   4.643  -0.002
13310TIP3    H139873   1.860   4.577   0.001
13310TIP3    H239874   1.906   4.704   0.068
13311TIP3   OH239875   4.984   4.810   5.888
13311TIP3    H139876   4.976   4.885   5.947
13311TIP3    H239877   5.009   4.737   5.945
13312TIP3   OH239878   4.009   5.126   3.722
13312TIP3    H139879   3.993   5.132   3.628
13312TIP3    H239880   4.065   5.202   3.742
13313TIP3   OH239881   5.131   0.161   6.673
13313TIP3    H139882   5.179   0.228   6.624
13313TIP3    H239883   5.180   0.081   6.657
13314TIP3   OH239884   1.357   1.469   6.106
13314TIP3    H139885   1.289   1.536   6.114
13314TIP3    H239886   1.398   1.466   6.192
13315TIP3   OH239887   0.217   6.954   4.512
13315TIP3    H139888   0.137   6.932   4.465
13315TIP3    H239889   0.288   6.937   4.450
13316TIP3   OH239890   7.992   4.594   1.068
13316TIP3    H139891   8.059   4.648   1.027
13316TIP3    H239892   8.034   4.509   1.080
13317TIP3   OH239893   0.962   0.849   4.611
13317TIP3    H139894   1.043   0.821   4.568
13317TIP3    H239895   0.900   0.779   4.592
13318TIP3   OH239896   1.713   5.814   0.502
13318TIP3    H139897   1.693   5.806   0.409
13318TIP3    H239898   1.628   5.806   0.545
13319TIP3   OH239899   6.883   3.858   2.264
13319TIP3    H139900   6.869   3.795   2.193
13319TIP3    H239901   6.957   3.822   2.313
13320TIP3   OH239902   2.064   2.347   6.321
13320TIP3    H139903   2.060   2.326   6.228
13320TIP3    H239904   1.984   2.309   6.357
13321TIP3   OH239905   0.347   1.020   2.627
13321TIP3    H139906   0.342   1.011   2.531
13321TIP3    H239907   0.438   1.044   2.644
13322TIP3   OH239908   2.392   3.645   1.931
13322TIP3    H139909   2.374   3.645   1.837
13322TIP3    H239910   2.424   3.733   1.949
13323TIP3   OH239911   6.620   1.530   0.341
13323TIP3    H139912   6.553   1.468   0.368
13323TIP3    H239913   6.671   1.484   0.275
13324TIP3   OH239914   2.752   2.704   2.413
13324TIP3    H139915   2.680   2.749   2.457
13324TIP3    H239916   2.764   2.623   2.463
13325TIP3   OH239917   6.620   5.682   2.499
13325TIP3    H139918   6.634   5.588   2.509
13325TIP3    H239919   6.688   5.711   2.438
13326TIP3   OH239920   7.810   4.524   2.247
13326TIP3    H139921   7.877   4.592   2.253
13326TIP3    H239922   7.792   4.517   2.154
13327TIP3   OH239923   7.588   6.054   5.234
13327TIP3    H139924   7.608   5.968   5.272
13327TIP3    H239925   7.498   6.045   5.202
13328TIP3   OH239926   1.974   6.816   0.903
13328TIP3    H139927   1.989   6.754   0.831
13328TIP3    H239928   2.062   6.835   0.935
13329TIP3   OH239929   0.287   4.931   0.648
13329TIP3    H139930   0.332   4.880   0.716
13329TIP3    H239931   0.342   4.922   0.571
13330TIP3   OH239932   3.231   7.868   6.088
13330TIP3    H139933   3.170   7.926   6.042
13330TIP3    H239934   3.185   7.843   6.167
13331TIP3   OH239935   0.154   3.095   4.010
13331TIP3    H139936   0.189   3.066   3.926
13331TIP3    H239937   0.104   3.174   3.989
13332TIP3   OH239938   2.385   2.207   4.204
13332TIP3    H139939   2.432   2.147   4.147
13332TIP3    H239940   2.412   2.182   4.292
13333TIP3   OH239941   8.235   5.048   2.404
13333TIP3    H139942   8.219   5.025   2.312
13333TIP3    H239943   8.288   5.127   2.399
13334TIP3   OH239944   5.016   5.164   1.406
13334TIP3    H139945   4.960   5.090   1.431
13334TIP3    H239946   5.080   5.170   1.477
13335TIP3   OH239947   0.951   1.736   4.704
13335TIP3    H139948   1.030   1.727   4.756
13335TIP3    H239949   0.932   1.648   4.673
13336TIP3   OH239950   0.716   5.909   1.515
13336TIP3    H139951   0.708   5.896   1.610
13336TIP3    H239952   0.806   5.938   1.502
13337TIP3   OH239953   6.481   1.110   0.419
13337TIP3    H139954   6.505   1.063   0.339
13337TIP3    H239955   6.386   1.120   0.412
13338TIP3   OH239956   0.551   1.284   4.064
13338TIP3    H139957   0.477   1.331   4.103
13338TIP3    H239958   0.627   1.339   4.082
13339TIP3   OH239959   4.224   5.558   0.516
13339TIP3    H139960   4.187   5.640   0.483
13339TIP3    H239961   4.211   5.562   0.611
13340TIP3   OH239962   7.679   5.133   0.211
13340TIP3    H139963   7.641   5.218   0.232
13340TIP3    H239964   7.753   5.154   0.154
13341TIP3   OH239965   7.841   3.553   1.467
13341TIP3    H139966   7.904   3.570   1.537
13341TIP3    H239967   7.807   3.639   1.443
13342TIP3   OH239968   6.759   6.315   3.134
13342TIP3    H139969   6.686   6.254   3.136
13342TIP3    H239970   6.778   6.333   3.226
13343TIP3   OH239971   5.504   4.615   6.384
13343TIP3    H139972   5.456   4.698   6.392
13343TIP3    H239973   5.491   4.572   6.468
13344TIP3   OH239974   2.243   4.059   4.714
13344TIP3    H139975   2.257   3.965   4.701
13344TIP3    H239976   2.306   4.101   4.656
13345TIP3   OH239977   7.984   0.283   5.960
13345TIP3    H139978   7.946   0.371   5.956
13345TIP3    H239979   8.070   0.292   5.918
13346TIP3   OH239980   0.421   2.289   6.478
13346TIP3    H139981   0.474   2.250   6.548
13346TIP3    H239982   0.361   2.219   6.451
13347TIP3   OH239983   4.202   5.386   2.314
13347TIP3    H139984   4.135   5.440   2.355
13347TIP3    H239985   4.283   5.437   2.322
13348TIP3   OH239986   1.711   4.323   2.689
13348TIP3    H139987   1.799   4.318   2.727
13348TIP3    H239988   1.678   4.408   2.719
13349TIP3   OH239989   3.768   5.847   0.243
13349TIP3    H139990   3.673   5.840   0.249
13349TIP3    H239991   3.797   5.853   0.334
13350TIP3   OH239992   0.579   0.868   1.548
13350TIP3    H139993   0.656   0.865   1.491
13350TIP3    H239994   0.606   0.922   1.622
13351TIP3   OH239995   5.902   5.146   5.769
13351TIP3    H139996   5.883   5.168   5.861
13351TIP3    H239997   5.989   5.180   5.753
13352TIP3   OH239998   0.958   0.212   5.819
13352TIP3    H139999   1.018   0.145   5.853
13352TIP3    H240000   0.998   0.241   5.737
13353TIP3   OH240001   5.360   3.639   4.762
13353TIP3    H140002   5.404   3.723   4.747
13353TIP3    H240003   5.341   3.638   4.855
13354TIP3   OH240004   6.734   4.334   3.313
13354TIP3    H140005   6.775   4.259   3.355
13354TIP3    H240006   6.716   4.304   3.224
13355TIP3   OH240007   0.050   1.799   6.781
13355TIP3    H140008   0.092   1.856   6.715
13355TIP3    H240009  -0.029   1.767   6.738
13356TIP3   OH240010   3.260   5.311   2.927
13356TIP3    H140011   3.211   5.256   2.987
13356TIP3    H240012   3.328   5.254   2.891
13357TIP3   OH240013   7.266   3.260   6.410
13357TIP3    H140014   7.317   3.316   6.468
13357TIP3    H240015   7.204   3.215   6.468
13358TIP3   OH240016   2.176   2.841   6.233
13358TIP3    H140017   2.249   2.844   6.171
13358TIP3    H240018   2.106   2.890   6.191
13359TIP3   OH240019   3.098   0.260   6.126
13359TIP3    H140020   3.188   0.274   6.099
13359TIP3    H240021   3.046   0.319   6.072
13360TIP3   OH240022   3.157   3.163   4.844
13360TIP3    H140023   3.145   3.217   4.923
13360TIP3    H240024   3.137   3.074   4.872
13361TIP3   OH240025   7.995   3.406   2.636
13361TIP3    H140026   8.065   3.467   2.611
13361TIP3    H240027   7.916   3.459   2.637
13362TIP3   OH240028   6.454   5.636   5.135
13362TIP3    H140029   6.465   5.579   5.211
13362TIP3    H240030   6.413   5.715   5.170
13363TIP3   OH240031   0.996   0.374   0.497
13363TIP3    H140032   0.969   0.327   0.417
13363TIP3    H240033   0.919   0.369   0.554
13364TIP3   OH240034   6.285   2.221   5.401
13364TIP3    H140035   6.359   2.200   5.345
13364TIP3    H240036   6.308   2.305   5.441
13365TIP3   OH240037   6.099   5.235   2.735
13365TIP3    H140038   6.069   5.302   2.673
13365TIP3    H240039   6.177   5.271   2.775
13366TIP3   OH240040   7.431   6.391   5.744
13366TIP3    H140041   7.361   6.374   5.682
13366TIP3    H240042   7.387   6.411   5.826
13367TIP3   OH240043   5.185   4.532   2.547
13367TIP3    H140044   5.243   4.603   2.573
13367TIP3    H240045   5.097   4.570   2.551
13368TIP3   OH240046   6.387   3.490   5.887
13368TIP3    H140047   6.292   3.493   5.901
13368TIP3    H240048   6.424   3.538   5.960
13369TIP3   OH240049   3.891   7.475   6.572
13369TIP3    H140050   3.968   7.509   6.617
13369TIP3    H240051   3.912   7.384   6.553
13370TIP3   OH240052   7.149   2.447   2.474
13370TIP3    H140053   7.237   2.463   2.440
13370TIP3    H240054   7.105   2.396   2.406
13371TIP3   OH240055   3.715   2.159   1.603
13371TIP3    H140056   3.790   2.180   1.659
13371TIP3    H240057   3.737   2.199   1.519
13372TIP3   OH240058   6.494   6.157   3.815
13372TIP3    H140059   6.476   6.247   3.790
13372TIP3    H240060   6.581   6.139   3.779
13373TIP3   OH240061   2.849   0.771   4.033
13373TIP3    H140062   2.829   0.823   3.955
13373TIP3    H240063   2.794   0.693   4.025
13374TIP3   OH240064   2.871   5.252   3.131
13374TIP3    H140065   2.958   5.213   3.123
13374TIP3    H240066   2.854   5.251   3.226
13375TIP3   OH240067   1.163   7.060   3.312
13375TIP3    H140068   1.243   7.070   3.363
13375TIP3    H240069   1.153   6.965   3.302
13376TIP3   OH240070   3.266   4.930   5.711
13376TIP3    H140071   3.323   4.854   5.714
13376TIP3    H240072   3.267   4.965   5.801
13377TIP3   OH240073   2.065   1.287   5.083
13377TIP3    H140074   2.108   1.369   5.057
13377TIP3    H240075   2.133   1.237   5.128
13378TIP3   OH240076   6.421   6.221   4.093
13378TIP3    H140077   6.415   6.223   3.997
13378TIP3    H240078   6.374   6.142   4.118
13379TIP3   OH240079   0.814   3.576   3.187
13379TIP3    H140080   0.795   3.535   3.102
13379TIP3    H240081   0.909   3.571   3.195
13380TIP3   OH240082   2.037   3.088   6.056
13380TIP3    H140083   1.980   3.054   6.126
13380TIP3    H240084   1.978   3.100   5.981
13381TIP3   OH240085   4.786   5.821   6.061
13381TIP3    H140086   4.748   5.734   6.049
13381TIP3    H240087   4.863   5.821   6.004
13382TIP3   OH240088   6.936   7.432   2.980
13382TIP3    H140089   6.904   7.358   3.031
13382TIP3    H240090   6.913   7.411   2.890
13383TIP3   OH240091   4.459   7.324   5.136
13383TIP3    H140092   4.495   7.407   5.167
13383TIP3    H240093   4.513   7.302   5.060
13384TIP3   OH240094   1.831   2.158   1.597
13384TIP3    H140095   1.867   2.112   1.521
13384TIP3    H240096   1.891   2.136   1.668
13385TIP3   OH240097   3.644   7.614   2.316
13385TIP3    H140098   3.698   7.674   2.265
13385TIP3    H240099   3.586   7.672   2.366
13386TIP3   OH240100   4.216   3.018   1.450
13386TIP3    H140101   4.310   3.003   1.454
13386TIP3    H240102   4.198   3.081   1.519
13387TIP3   OH240103   2.582   0.978   5.256
13387TIP3    H140104   2.644   0.963   5.185
13387TIP3    H240105   2.580   1.073   5.266
13388TIP3   OH240106   2.274   5.307   6.424
13388TIP3    H140107   2.180   5.303   6.406
13388TIP3    H240108   2.313   5.336   6.342
13389TIP3   OH240109   7.415   2.446   5.701
13389TIP3    H140110   7.457   2.393   5.768
13389TIP3    H240111   7.473   2.521   5.688
13390TIP3   OH240112   3.273   1.647   0.951
13390TIP3    H140113   3.224   1.710   0.898
13390TIP3    H240114   3.311   1.586   0.888
13391TIP3   OH240115   4.889   4.365   2.396
13391TIP3    H140116   4.829   4.370   2.470
13391TIP3    H240117   4.967   4.321   2.430
13392TIP3   OH240118   7.265   2.899   3.153
13392TIP3    H140119   7.264   2.947   3.070
13392TIP3    H240120   7.354   2.911   3.187
13393TIP3   OH240121   4.518   5.942   6.305
13393TIP3    H140122   4.473   5.951   6.220
13393TIP3    H240123   4.559   5.856   6.301
13394TIP3   OH240124   5.706   3.974   3.454
13394TIP3    H140125   5.672   3.934   3.375
13394TIP3    H240126   5.773   4.035   3.424
13395TIP3   OH240127   0.126   0.579   4.955
13395TIP3    H140128   0.164   0.615   5.035
13395TIP3    H240129   0.186   0.510   4.929
13396TIP3   OH240130   0.539   3.411   4.895
13396TIP3    H140131   0.583   3.495   4.887
13396TIP3    H240132   0.457   3.431   4.941
13397TIP3   OH240133   2.056   6.962   2.185
13397TIP3    H140134   1.960   6.957   2.180
13397TIP3    H240135   2.076   7.053   2.160
13398TIP3   OH240136   2.439   2.859   2.799
13398TIP3    H140137   2.345   2.867   2.783
13398TIP3    H240138   2.476   2.830   2.716
13399TIP3   OH240139   6.649   3.427   0.121
13399TIP3    H140140   6.724   3.413   0.179
13399TIP3    H240141   6.575   3.389   0.169
13400TIP3   OH240142   6.027   0.147   6.451
13400TIP3    H140143   5.933   0.150   6.469
13400TIP3    H240144   6.067   0.177   6.533
13401TIP3   OH240145   3.541   6.955   4.756
13401TIP3    H140146   3.462   6.934   4.708
13401TIP3    H240147   3.602   6.988   4.689
13402TIP3   OH240148   2.031   5.839   1.771
13402TIP3    H140149   2.048   5.932   1.790
13402TIP3    H240150   1.986   5.840   1.687
13403TIP3   OH240151   0.831   0.745   0.549
13403TIP3    H140152   0.828   0.737   0.453
13403TIP3    H240153   0.912   0.793   0.566
13404TIP3   OH240154   7.523   2.344   2.884
13404TIP3    H140155   7.594   2.304   2.833
13404TIP3    H240156   7.565   2.416   2.931
13405TIP3   OH240157   7.057   4.988   2.699
13405TIP3    H140158   6.963   5.000   2.688
13405TIP3    H240159   7.064   4.923   2.769
13406TIP3   OH240160   7.212   0.269   4.124
13406TIP3    H140161   7.244   0.289   4.212
13406TIP3    H240162   7.168   0.349   4.096
13407TIP3   OH240163   5.735   3.266   6.391
13407TIP3    H140164   5.789   3.188   6.400
13407TIP3    H240165   5.683   3.268   6.472
13408TIP3   OH240166   4.237   5.033   0.432
13408TIP3    H140167   4.257   5.028   0.339
13408TIP3    H240168   4.200   5.121   0.444
13409TIP3   OH240169   3.087   1.524   0.714
13409TIP3    H140170   3.043   1.504   0.796
13409TIP3    H240171   3.102   1.619   0.718
13410TIP3   OH240172   4.100   4.749   2.787
13410TIP3    H140173   4.071   4.768   2.697
13410TIP3    H240174   4.038   4.683   2.819
13411TIP3   OH240175   7.003   6.078   5.909
13411TIP3    H140176   7.051   6.034   5.839
13411TIP3    H240177   7.044   6.164   5.915
13412TIP3   OH240178   5.523   2.839   6.396
13412TIP3    H140179   5.585   2.810   6.462
13412TIP3    H240180   5.568   2.910   6.350
13413TIP3   OH240181   3.558   2.791   4.409
13413TIP3    H140182   3.613   2.713   4.414
13413TIP3    H240183   3.604   2.848   4.347
13414TIP3   OH240184   1.310   4.198   5.123
13414TIP3    H140185   1.334   4.208   5.215
13414TIP3    H240186   1.374   4.250   5.075
13415TIP3   OH240187   7.293   2.936   0.919
13415TIP3    H140188   7.313   2.964   0.829
13415TIP3    H240189   7.208   2.893   0.912
13416TIP3   OH240190   5.314   4.677   1.920
13416TIP3    H140191   5.316   4.714   2.008
13416TIP3    H240192   5.223   4.688   1.892
13417TIP3   OH240193   6.339   5.328   2.855
13417TIP3    H140194   6.351   5.412   2.899
13417TIP3    H240195   6.386   5.265   2.910
13418TIP3   OH240196   2.382   7.787  -0.013
13418TIP3    H140197   2.393   7.750   0.075
13418TIP3    H240198   2.336   7.870   0.002
13419TIP3   OH240199   7.640   0.923   2.787
13419TIP3    H140200   7.678   0.959   2.707
13419TIP3    H240201   7.604   0.999   2.833
13420TIP3   OH240202   4.964   0.473   4.553
13420TIP3    H140203   5.009   0.538   4.499
13420TIP3    H240204   4.981   0.502   4.643
13421TIP3   OH240205   5.599   3.118   0.109
13421TIP3    H140206   5.646   3.082   0.184
13421TIP3    H240207   5.554   3.195   0.144
13422TIP3   OH240208   3.700   0.789   0.116
13422TIP3    H140209   3.771   0.853   0.125
13422TIP3    H240210   3.621   0.838   0.139
13423TIP3   OH240211   6.930   0.716   2.566
13423TIP3    H140212   6.935   0.632   2.520
13423TIP3    H240213   6.836   0.732   2.577
13424TIP3   OH240214   7.722   4.413   3.370
13424TIP3    H140215   7.786   4.349   3.336
13424TIP3    H240216   7.758   4.498   3.346
13425TIP3   OH240217   3.224   4.980   6.511
13425TIP3    H140218   3.213   4.886   6.499
13425TIP3    H240219   3.146   5.019   6.472
13426TIP3   OH240220   3.353   1.539   2.586
13426TIP3    H140221   3.360   1.611   2.648
13426TIP3    H240222   3.412   1.563   2.515
13427TIP3   OH240223   0.437   3.777   3.132
13427TIP3    H140224   0.485   3.793   3.214
13427TIP3    H240225   0.407   3.863   3.105
13428TIP3   OH240226   1.498   5.067   2.467
13428TIP3    H140227   1.562   5.085   2.535
13428TIP3    H240228   1.475   5.153   2.432
13429TIP3   OH240229   7.608   7.503   0.770
13429TIP3    H140230   7.537   7.446   0.741
13429TIP3    H240231   7.679   7.487   0.707
13430TIP3   OH240232   7.854   1.727   0.768
13430TIP3    H140233   7.922   1.777   0.722
13430TIP3    H240234   7.902   1.677   0.834
13431TIP3   OH240235   8.052   2.539   0.155
13431TIP3    H140236   8.132   2.582   0.123
13431TIP3    H240237   7.982   2.601   0.137
13432TIP3   OH240238   7.147   3.578   0.591
13432TIP3    H140239   7.162   3.615   0.678
13432TIP3    H240240   7.080   3.512   0.604
13433TIP3   OH240241   7.754   5.374   2.997
13433TIP3    H140242   7.792   5.322   3.068
13433TIP3    H240243   7.794   5.461   3.007
13434TIP3   OH240244   5.476   6.700   5.768
13434TIP3    H140245   5.461   6.762   5.840
13434TIP3    H240246   5.394   6.702   5.718
13435TIP3   OH240247   7.470   3.619   4.644
13435TIP3    H140248   7.438   3.665   4.566
13435TIP3    H240249   7.503   3.689   4.701
13436TIP3   OH240250   3.577   2.681   6.415
13436TIP3    H140251   3.542   2.715   6.498
13436TIP3    H240252   3.500   2.668   6.360
13437TIP3   OH240253   6.779   7.367   3.502
13437TIP3    H140254   6.811   7.385   3.590
13437TIP3    H240255   6.744   7.278   3.507
13438TIP3   OH240256   4.383   1.385   0.946
13438TIP3    H140257   4.366   1.412   0.856
13438TIP3    H240258   4.355   1.460   0.999
13439TIP3   OH240259   6.958   3.128   2.700
13439TIP3    H140260   7.028   3.086   2.650
13439TIP3    H240261   6.973   3.099   2.790
13440TIP3   OH240262   8.238   3.708   3.623
13440TIP3    H140263   8.222   3.647   3.695
13440TIP3    H240264   8.317   3.675   3.581
13441TIP3   OH240265   1.319   4.770   3.950
13441TIP3    H140266   1.291   4.786   3.860
13441TIP3    H240267   1.245   4.725   3.991
13442TIP3   OH240268   7.693   4.224   3.080
13442TIP3    H140269   7.612   4.184   3.112
13442TIP3    H240270   7.663   4.291   3.019
13443TIP3   OH240271   3.910   1.477   3.150
13443TIP3    H140272   3.854   1.422   3.205
13443TIP3    H240273   3.954   1.536   3.212
13444TIP3   OH240274   5.991   2.690   2.684
13444TIP3    H140275   6.007   2.731   2.769
13444TIP3    H240276   5.962   2.601   2.706
13445TIP3   OH240277   6.695   1.362   2.761
13445TIP3    H140278   6.652   1.312   2.831
13445TIP3    H240279   6.635   1.435   2.744
13446TIP3   OH240280   6.237   4.744   1.172
13446TIP3    H140281   6.232   4.651   1.149
13446TIP3    H240282   6.229   4.745   1.267
13447TIP3   OH240283   6.996   3.120   1.796
13447TIP3    H140284   7.075   3.108   1.744
13447TIP3    H240285   6.982   3.215   1.798
13448TIP3   OH240286   2.206   1.549   4.205
13448TIP3    H140287   2.227   1.599   4.126
13448TIP3    H240288   2.278   1.567   4.265
13449TIP3   OH240289   4.634   6.609   0.842
13449TIP3    H140290   4.667   6.564   0.764
13449TIP3    H240291   4.546   6.574   0.855
13450TIP3   OH240292   2.128   3.066   2.230
13450TIP3    H140293   2.108   2.973   2.240
13450TIP3    H240294   2.166   3.073   2.143
13451TIP3   OH240295   6.500   0.562   2.359
13451TIP3    H140296   6.570   0.521   2.411
13451TIP3    H240297   6.473   0.494   2.298
13452TIP3   OH240298   6.569   3.043   3.904
13452TIP3    H140299   6.543   3.135   3.912
13452TIP3    H240300   6.526   3.014   3.823
13453TIP3   OH240301   4.039   3.353   2.149
13453TIP3    H140302   4.059   3.265   2.179
13453TIP3    H240303   4.099   3.409   2.199
13454TIP3   OH240304   4.477   0.545   3.359
13454TIP3    H140305   4.564   0.509   3.376
13454TIP3    H240306   4.490   0.639   3.359
13455TIP3   OH240307   2.370   4.869   0.599
13455TIP3    H140308   2.440   4.934   0.604
13455TIP3    H240309   2.303   4.902   0.658
13456TIP3   OH240310   3.066   6.909   2.621
13456TIP3    H140311   3.144   6.943   2.664
13456TIP3    H240312   3.014   6.872   2.692
13457TIP3   OH240313   1.617   0.564   3.232
13457TIP3    H140314   1.666   0.515   3.166
13457TIP3    H240315   1.609   0.652   3.195
13458TIP3   OH240316   2.863   2.906   0.835
13458TIP3    H140317   2.928   2.888   0.767
13458TIP3    H240318   2.850   2.822   0.879
13459TIP3   OH240319   6.957   1.169   2.450
13459TIP3    H140320   6.983   1.220   2.372
13459TIP3    H240321   6.896   1.104   2.416
13460TIP3   OH240322   5.233   7.440   4.945
13460TIP3    H140323   5.224   7.430   5.039
13460TIP3    H240324   5.322   7.475   4.933
13461TIP3   OH240325   7.880   0.996   0.382
13461TIP3    H140326   7.920   1.079   0.409
13461TIP3    H240327   7.808   1.022   0.325
13462TIP3   OH240328   5.661   1.841   2.584
13462TIP3    H140329   5.621   1.754   2.593
13462TIP3    H240330   5.594   1.893   2.539
13463TIP3   OH240331   7.552   1.667   4.708
13463TIP3    H140332   7.606   1.737   4.744
13463TIP3    H240333   7.608   1.623   4.644
13464TIP3   OH240334   6.265   6.155   4.853
13464TIP3    H140335   6.248   6.198   4.937
13464TIP3    H240336   6.280   6.227   4.791
13465TIP3   OH240337   4.026   7.581   5.086
13465TIP3    H140338   3.997   7.495   5.115
13465TIP3    H240339   4.117   7.568   5.059
13466TIP3   OH240340   6.323   5.888   0.284
13466TIP3    H140341   6.276   5.841   0.215
13466TIP3    H240342   6.392   5.827   0.312
13467TIP3   OH240343   0.479   7.553   6.467
13467TIP3    H140344   0.470   7.458   6.458
13467TIP3    H240345   0.563   7.574   6.427
13468TIP3   OH240346   6.476   3.351   3.423
13468TIP3    H140347   6.430   3.314   3.348
13468TIP3    H240348   6.538   3.283   3.449
13469TIP3   OH240349   5.657   1.408   0.151
13469TIP3    H140350   5.714   1.458   0.209
13469TIP3    H240351   5.712   1.336   0.120
13470TIP3   OH240352   1.107   6.151   1.090
13470TIP3    H140353   1.193   6.165   1.129
13470TIP3    H240354   1.124   6.105   1.008
13471TIP3   OH240355   5.849   0.335   0.911
13471TIP3    H140356   5.891   0.421   0.917
13471TIP3    H240357   5.780   0.337   0.977
13472TIP3   OH240358   3.917   7.796   4.098
13472TIP3    H140359   3.873   7.711   4.086
13472TIP3    H240360   3.964   7.787   4.181
13473TIP3   OH240361   5.753   0.286  -0.030
13473TIP3    H140362   5.711   0.300   0.055
13473TIP3    H240363   5.725   0.198  -0.056
13474TIP3   OH240364   0.987   3.978   6.719
13474TIP3    H140365   0.917   3.973   6.784
13474TIP3    H240366   0.979   3.897   6.669
13475TIP3   OH240367   6.201   4.357   5.030
13475TIP3    H140368   6.250   4.403   4.962
13475TIP3    H240369   6.254   4.280   5.050
13476TIP3   OH240370   4.673   2.836   2.917
13476TIP3    H140371   4.685   2.781   2.839
13476TIP3    H240372   4.606   2.790   2.968
13477TIP3   OH240373   3.252   3.500   2.726
13477TIP3    H140374   3.320   3.564   2.749
13477TIP3    H240375   3.220   3.529   2.640
13478TIP3   OH240376   7.470   1.950   4.710
13478TIP3    H140377   7.394   1.960   4.768
13478TIP3    H240378   7.484   1.856   4.705
13479TIP3   OH240379   4.207   1.895   4.036
13479TIP3    H140380   4.221   1.843   3.956
13479TIP3    H240381   4.220   1.832   4.107
13480TIP3   OH240382   3.022   6.197   3.991
13480TIP3    H140383   2.927   6.191   4.005
13480TIP3    H240384   3.050   6.106   3.978
13481TIP3   OH240385   6.966   0.334   6.604
13481TIP3    H140386   6.892   0.314   6.661
13481TIP3    H240387   7.019   0.396   6.655
13482TIP3   OH240388   5.157   0.415   6.526
13482TIP3    H140389   5.175   0.491   6.583
13482TIP3    H240390   5.066   0.427   6.499
13483TIP3   OH240391   0.226   5.480   3.808
13483TIP3    H140392   0.190   5.547   3.749
13483TIP3    H240393   0.182   5.496   3.891
13484TIP3   OH240394   2.642   1.655   0.236
13484TIP3    H140395   2.727   1.696   0.219
13484TIP3    H240396   2.625   1.674   0.329
13485TIP3   OH240397   2.736   7.075   5.099
13485TIP3    H140398   2.825   7.109   5.094
13485TIP3    H240399   2.682   7.150   5.122
13486TIP3   OH240400   0.597   5.726   0.655
13486TIP3    H140401   0.592   5.817   0.627
13486TIP3    H240402   0.622   5.730   0.747
13487TIP3   OH240403   7.792   5.605   1.703
13487TIP3    H140404   7.731   5.642   1.639
13487TIP3    H240405   7.876   5.603   1.657
13488TIP3   OH240406   2.394   2.355   0.074
13488TIP3    H140407   2.435   2.291   0.015
13488TIP3    H240408   2.357   2.420   0.016
13489TIP3   OH240409   3.113   0.094   3.851
13489TIP3    H140410   3.164   0.014   3.861
13489TIP3    H240411   3.025   0.063   3.830
13490TIP3   OH240412   4.784   3.674   4.195
13490TIP3    H140413   4.788   3.583   4.167
13490TIP3    H240414   4.864   3.686   4.246
13491TIP3   OH240415   3.547   1.680   1.852
13491TIP3    H140416   3.605   1.697   1.778
13491TIP3    H240417   3.470   1.734   1.835
13492TIP3   OH240418   0.493   3.414   3.425
13492TIP3    H140419   0.487   3.457   3.511
13492TIP3    H240420   0.587   3.409   3.409
13493TIP3   OH240421   5.524   1.723   4.494
13493TIP3    H140422   5.458   1.654   4.484
13493TIP3    H240423   5.592   1.684   4.549
13494TIP3   OH240424   7.807   2.198   3.033
13494TIP3    H140425   7.814   2.179   3.127
13494TIP3    H240426   7.796   2.113   2.992
13495TIP3   OH240427   5.115   4.404   2.772
13495TIP3    H140428   5.137   4.461   2.846
13495TIP3    H240429   5.163   4.441   2.698
13496TIP3   OH240430   0.348   1.397   5.248
13496TIP3    H140431   0.401   1.476   5.260
13496TIP3    H240432   0.351   1.354   5.334
13497TIP3   OH240433   1.868   3.562   4.430
13497TIP3    H140434   1.949   3.599   4.465
13497TIP3    H240435   1.798   3.603   4.481
13498TIP3   OH240436   7.763   3.970   4.885
13498TIP3    H140437   7.755   3.944   4.976
13498TIP3    H240438   7.690   4.030   4.871
13499TIP3   OH240439   4.131   4.109   0.700
13499TIP3    H140440   4.118   4.204   0.700
13499TIP3    H240441   4.085   4.079   0.621
13500TIP3   OH240442   7.640   6.385   4.786
13500TIP3    H140443   7.656   6.338   4.704
13500TIP3    H240444   7.630   6.316   4.851
13501TIP3   OH240445   3.061   4.139   4.870
13501TIP3    H140446   3.035   4.170   4.957
13501TIP3    H240447   3.107   4.213   4.831
13502TIP3   OH240448   5.973   6.751   4.262
13502TIP3    H140449   6.008   6.671   4.224
13502TIP3    H240450   5.947   6.726   4.351
13503TIP3   OH240451   3.711   4.687   3.400
13503TIP3    H140452   3.721   4.721   3.311
13503TIP3    H240453   3.616   4.677   3.411
13504TIP3   OH240454   0.069   5.629   4.010
13504TIP3    H140455  -0.011   5.590   4.045
13504TIP3    H240456   0.126   5.639   4.086
13505TIP3   OH240457   3.138   7.321   0.523
13505TIP3    H140458   3.228   7.328   0.553
13505TIP3    H240459   3.144   7.276   0.439
13506TIP3   OH240460   0.465   0.817   0.165
13506TIP3    H140461   0.393   0.857   0.117
13506TIP3    H240462   0.538   0.818   0.104
13507TIP3   OH240463   5.357   4.176   6.434
13507TIP3    H140464   5.384   4.171   6.342
13507TIP3    H240465   5.421   4.235   6.474
13508TIP3   OH240466   2.637   4.287   4.776
13508TIP3    H140467   2.660   4.372   4.813
13508TIP3    H240468   2.665   4.292   4.684
13509TIP3   OH240469   2.669   0.779   1.874
13509TIP3    H140470   2.576   0.776   1.849
13509TIP3    H240471   2.715   0.801   1.793
13510TIP3   OH240472   3.713   5.992   6.347
13510TIP3    H140473   3.771   6.041   6.289
13510TIP3    H240474   3.728   5.901   6.325
13511TIP3   OH240475   2.260   0.810   4.580
13511TIP3    H140476   2.245   0.719   4.555
13511TIP3    H240477   2.226   0.817   4.669
13512TIP3   OH240478   3.711   0.959   1.087
13512TIP3    H140479   3.779   0.899   1.057
13512TIP3    H240480   3.752   1.046   1.083
13513TIP3   OH240481   0.429   4.923   5.543
13513TIP3    H140482   0.388   4.837   5.530
13513TIP3    H240483   0.515   4.903   5.581
13514TIP3   OH240484   1.445   5.539   2.549
13514TIP3    H140485   1.432   5.632   2.531
13514TIP3    H240486   1.508   5.536   2.621
13515TIP3   OH240487   4.510   1.499   0.246
13515TIP3    H140488   4.486   1.566   0.182
13515TIP3    H240489   4.433   1.442   0.251
13516TIP3   OH240490   4.875   7.772   4.408
13516TIP3    H140491   4.875   7.709   4.480
13516TIP3    H240492   4.792   7.819   4.416
13517TIP3   OH240493   8.100   4.950   2.865
13517TIP3    H140494   8.170   5.003   2.904
13517TIP3    H240495   8.098   4.871   2.919
13518TIP3   OH240496   1.289   7.342   6.139
13518TIP3    H140497   1.253   7.424   6.175
13518TIP3    H240498   1.291   7.283   6.214
13519TIP3   OH240499   1.894   6.201   0.043
13519TIP3    H140500   1.942   6.234   0.120
13519TIP3    H240501   1.928   6.252  -0.030
13520TIP3   OH240502   4.213   4.849   4.562
13520TIP3    H140503   4.281   4.782   4.576
13520TIP3    H240504   4.217   4.868   4.468
13521TIP3   OH240505   3.324   3.879   0.596
13521TIP3    H140506   3.346   3.970   0.617
13521TIP3    H240507   3.299   3.841   0.680
13522TIP3   OH240508   1.505   4.985   6.509
13522TIP3    H140509   1.529   4.902   6.467
13522TIP3    H240510   1.561   4.990   6.586
13523TIP3   OH240511   6.943   2.741   6.137
13523TIP3    H140512   6.851   2.744   6.164
13523TIP3    H240513   6.988   2.797   6.199
13524TIP3   OH240514   8.066   7.804   3.522
13524TIP3    H140515   8.100   7.837   3.438
13524TIP3    H240516   8.134   7.745   3.553
13525TIP3   OH240517   2.952   3.166   0.897
13525TIP3    H140518   3.023   3.171   0.960
13525TIP3    H240519   2.904   3.086   0.921
13526TIP3   OH240520   3.349   7.599   1.181
13526TIP3    H140521   3.390   7.591   1.267
13526TIP3    H240522   3.367   7.515   1.138
13527TIP3   OH240523   4.781   4.807   3.296
13527TIP3    H140524   4.771   4.775   3.206
13527TIP3    H240525   4.876   4.816   3.308
13528TIP3   OH240526   6.538   6.707   4.359
13528TIP3    H140527   6.566   6.686   4.449
13528TIP3    H240528   6.574   6.636   4.306
13529TIP3   OH240529   7.951   3.312   2.909
13529TIP3    H140530   7.945   3.347   2.820
13529TIP3    H240531   7.888   3.239   2.911
13530TIP3   OH240532   2.113   3.624   5.065
13530TIP3    H140533   2.072   3.679   4.998
13530TIP3    H240534   2.153   3.685   5.126
13531TIP3   OH240535   1.597   3.339   1.621
13531TIP3    H140536   1.586   3.432   1.601
13531TIP3    H240537   1.685   3.333   1.657
13532TIP3   OH240538   7.197   7.359   1.151
13532TIP3    H140539   7.229   7.318   1.231
13532TIP3    H240540   7.228   7.303   1.080
13533TIP3   OH240541   7.805   4.666   3.266
13533TIP3    H140542   7.855   4.594   3.227
13533TIP3    H240543   7.863   4.701   3.334
13534TIP3   OH240544   1.389   2.266   4.204
13534TIP3    H140545   1.460   2.280   4.142
13534TIP3    H240546   1.410   2.321   4.278
13535TIP3   OH240547   1.476   6.556   4.231
13535TIP3    H140548   1.420   6.570   4.307
13535TIP3    H240549   1.480   6.641   4.188
13536TIP3   OH240550   3.831   4.987   5.177
13536TIP3    H140551   3.745   5.019   5.203
13536TIP3    H240552   3.815   4.898   5.145
13537TIP3   OH240553   4.749   4.576   3.803
13537TIP3    H140554   4.735   4.492   3.758
13537TIP3    H240555   4.666   4.622   3.794
13538TIP3   OH240556   7.347   7.710   3.343
13538TIP3    H140557   7.260   7.747   3.336
13538TIP3    H240558   7.341   7.626   3.297
13539TIP3   OH240559   7.057   2.434   2.725
13539TIP3    H140560   7.093   2.437   2.637
13539TIP3    H240561   7.134   2.443   2.782
13540TIP3   OH240562   6.056   3.261   5.318
13540TIP3    H140563   6.028   3.235   5.230
13540TIP3    H240564   6.133   3.207   5.334
13541TIP3   OH240565   0.538   4.139   5.045
13541TIP3    H140566   0.539   4.171   4.955
13541TIP3    H240567   0.507   4.214   5.097
13542TIP3   OH240568   7.476   1.583   5.658
13542TIP3    H140569   7.568   1.599   5.678
13542TIP3    H240570   7.448   1.661   5.610
13543TIP3   OH240571   5.720   5.525   0.408
13543TIP3    H140572   5.772   5.571   0.474
13543TIP3    H240573   5.648   5.585   0.388
13544TIP3   OH240574   0.123   6.063   0.644
13544TIP3    H140575   0.084   6.148   0.626
13544TIP3    H240576   0.109   6.012   0.564
13545TIP3   OH240577   6.647   7.504   0.800
13545TIP3    H140578   6.645   7.495   0.705
13545TIP3    H240579   6.558   7.531   0.824
13546TIP3   OH240580   2.504   6.583   0.442
13546TIP3    H140581   2.477   6.569   0.351
13546TIP3    H240582   2.593   6.618   0.435
13547TIP3   OH240583   7.476   4.507   0.884
13547TIP3    H140584   7.422   4.456   0.944
13547TIP3    H240585   7.556   4.526   0.933
13548TIP3   OH240586   2.133   6.144   5.092
13548TIP3    H140587   2.077   6.143   5.169
13548TIP3    H240588   2.218   6.174   5.124
13549TIP3   OH240589   4.921   2.838   1.602
13549TIP3    H140590   4.964   2.752   1.596
13549TIP3    H240591   4.967   2.892   1.538
13550TIP3   OH240592   3.006   0.620   3.619
13550TIP3    H140593   3.076   0.663   3.568
13550TIP3    H240594   2.982   0.543   3.567
13551TIP3   OH240595   1.352   6.660   0.131
13551TIP3    H140596   1.384   6.588   0.076
13551TIP3    H240597   1.322   6.617   0.211
13552TIP3   OH240598   3.015   4.304   5.117
13552TIP3    H140599   3.003   4.327   5.210
13552TIP3    H240600   3.063   4.378   5.080
13553TIP3   OH240601   0.912   3.779   6.529
13553TIP3    H140602   0.861   3.698   6.531
13553TIP3    H240603   0.881   3.825   6.451
13554TIP3   OH240604   4.037   6.407   6.127
13554TIP3    H140605   3.947   6.378   6.143
13554TIP3    H240606   4.090   6.360   6.191
13555TIP3   OH240607   5.520   6.131   1.568
13555TIP3    H140608   5.587   6.167   1.509
13555TIP3    H240609   5.463   6.080   1.511
13556TIP3   OH240610   0.274   3.602   4.309
13556TIP3    H140611   0.307   3.521   4.348
13556TIP3    H240612   0.179   3.592   4.309
13557TIP3   OH240613   0.822   0.730   0.272
13557TIP3    H140614   0.828   0.635   0.288
13557TIP3    H240615   0.806   0.737   0.178
13558TIP3   OH240616   0.394   7.426   4.356
13558TIP3    H140617   0.319   7.397   4.409
13558TIP3    H240618   0.433   7.498   4.407
13559TIP3   OH240619   2.411   3.174   0.545
13559TIP3    H140620   2.410   3.231   0.622
13559TIP3    H240621   2.368   3.226   0.476
13560TIP3   OH240622   1.197   1.614   2.458
13560TIP3    H140623   1.176   1.707   2.466
13560TIP3    H240624   1.136   1.571   2.517
13561TIP3   OH240625   5.716   4.097   0.422
13561TIP3    H140626   5.809   4.076   0.411
13561TIP3    H240627   5.713   4.152   0.499
13562TIP3   OH240628   6.283   7.125   6.325
13562TIP3    H140629   6.242   7.100   6.243
13562TIP3    H240630   6.225   7.192   6.362
13563TIP3   OH240631   7.877   1.267   1.842
13563TIP3    H140632   7.832   1.275   1.927
13563TIP3    H240633   7.900   1.174   1.837
13564TIP3   OH240634   5.137   1.543   2.558
13564TIP3    H140635   5.136   1.447   2.567
13564TIP3    H240636   5.201   1.560   2.489
13565TIP3   OH240637   3.709   2.461   1.296
13565TIP3    H140638   3.705   2.451   1.201
13565TIP3    H240639   3.638   2.407   1.329
13566TIP3   OH240640   3.352   1.534   5.168
13566TIP3    H140641   3.420   1.500   5.111
13566TIP3    H240642   3.390   1.614   5.205
13567TIP3   OH240643   0.476   4.601   4.711
13567TIP3    H140644   0.381   4.584   4.716
13567TIP3    H240645   0.503   4.608   4.802
13568TIP3   OH240646   5.552   6.938   4.340
13568TIP3    H140647   5.620   7.006   4.342
13568TIP3    H240648   5.487   6.971   4.278
13569TIP3   OH240649   7.657   4.736   5.066
13569TIP3    H140650   7.705   4.801   5.015
13569TIP3    H240651   7.675   4.653   5.022
13570TIP3   OH240652   7.109   7.441   3.745
13570TIP3    H140653   7.134   7.361   3.791
13570TIP3    H240654   7.013   7.443   3.751
13571TIP3   OH240655   0.781   3.606   4.531
13571TIP3    H140656   0.745   3.690   4.502
13571TIP3    H240657   0.851   3.588   4.468
13572TIP3   OH240658   7.135   2.773   1.615
13572TIP3    H140659   7.048   2.782   1.576
13572TIP3    H240660   7.193   2.822   1.556
13573TIP3   OH240661   8.181   0.747   0.054
13573TIP3    H140662   8.111   0.713  -0.001
13573TIP3    H240663   8.141   0.761   0.140
13574TIP3   OH240664   2.474   5.819   2.703
13574TIP3    H140665   2.459   5.730   2.734
13574TIP3    H240666   2.409   5.832   2.634
13575TIP3   OH240667   1.330   3.467   6.268
13575TIP3    H140668   1.368   3.379   6.271
13575TIP3    H240669   1.371   3.513   6.341
13576TIP3   OH240670   0.455   4.486   3.384
13576TIP3    H140671   0.481   4.451   3.298
13576TIP3    H240672   0.383   4.430   3.411
13577TIP3   OH240673   3.654   6.771   3.453
13577TIP3    H140674   3.729   6.739   3.504
13577TIP3    H240675   3.582   6.713   3.477
13578TIP3   OH240676   7.101   3.706   2.415
13578TIP3    H140677   7.044   3.662   2.478
13578TIP3    H240678   7.162   3.756   2.469
13579TIP3   OH240679   5.096   1.919   1.232
13579TIP3    H140680   5.005   1.890   1.241
13579TIP3    H240681   5.095   2.010   1.264
13580TIP3   OH240682   4.899   7.087   1.787
13580TIP3    H140683   4.943   7.075   1.703
13580TIP3    H240684   4.851   7.169   1.777
13581TIP3   OH240685   6.027   7.076   5.092
13581TIP3    H140686   6.025   7.052   4.999
13581TIP3    H240687   6.030   6.993   5.139
13582TIP3   OH240688   3.899   7.144   3.949
13582TIP3    H140689   3.942   7.223   3.916
13582TIP3    H240690   3.809   7.151   3.919
13583TIP3   OH240691   7.894   0.855   3.070
13583TIP3    H140692   7.901   0.771   3.025
13583TIP3    H240693   7.966   0.908   3.036
13584TIP3   OH240694   0.293   2.936   4.724
13584TIP3    H140695   0.220   2.922   4.784
13584TIP3    H240696   0.330   3.020   4.749
13585TIP3   OH240697   5.569   6.669   0.695
13585TIP3    H140698   5.541   6.589   0.651
13585TIP3    H240699   5.564   6.648   0.788
13586TIP3   OH240700   2.648   2.877   3.168
13586TIP3    H140701   2.669   2.964   3.200
13586TIP3    H240702   2.606   2.892   3.084
13587TIP3   OH240703   3.777   3.054   5.828
13587TIP3    H140704   3.838   3.128   5.826
13587TIP3    H240705   3.811   2.997   5.897
13588TIP3   OH240706   6.518   0.786   3.889
13588TIP3    H140707   6.587   0.828   3.941
13588TIP3    H240708   6.491   0.853   3.826
13589TIP3   OH240709   2.446   1.237   1.517
13589TIP3    H140710   2.506   1.303   1.482
13589TIP3    H240711   2.411   1.276   1.597
13590TIP3   OH240712   3.715   0.484   0.077
13590TIP3    H140713   3.709   0.409   0.137
13590TIP3    H240714   3.642   0.540   0.102
13591TIP3   OH240715   4.261   5.861   3.273
13591TIP3    H140716   4.226   5.799   3.209
13591TIP3    H240717   4.217   5.944   3.253
13592TIP3   OH240718   0.889   3.444   2.072
13592TIP3    H140719   0.878   3.363   2.122
13592TIP3    H240720   0.924   3.415   1.988
13593TIP3   OH240721   7.530   6.039   2.104
13593TIP3    H140722   7.572   6.040   2.190
13593TIP3    H240723   7.447   5.995   2.118
13594TIP3   OH240724   2.956   7.707   5.799
13594TIP3    H140725   2.889   7.639   5.793
13594TIP3    H240726   2.911   7.781   5.840
13595TIP3   OH240727   3.281   0.361   2.638
13595TIP3    H140728   3.295   0.349   2.544
13595TIP3    H240729   3.191   0.331   2.652
13596TIP3   OH240730   2.874   7.309   0.861
13596TIP3    H140731   2.855   7.216   0.863
13596TIP3    H240732   2.863   7.334   0.770
13597TIP3   OH240733   6.631   4.267   6.069
13597TIP3    H140734   6.727   4.266   6.076
13597TIP3    H240735   6.611   4.190   6.016
13598TIP3   OH240736   3.021   1.595   3.634
13598TIP3    H140737   3.051   1.508   3.609
13598TIP3    H240738   3.081   1.622   3.703
13599TIP3   OH240739   3.609   5.136   5.239
13599TIP3    H140740   3.618   5.191   5.161
13599TIP3    H240741   3.574   5.194   5.306
13600TIP3   OH240742   7.953   0.093   0.272
13600TIP3    H140743   8.038   0.061   0.240
13600TIP3    H240744   7.909   0.014   0.304
13601TIP3   OH240745   1.337   4.395   3.746
13601TIP3    H140746   1.410   4.432   3.696
13601TIP3    H240747   1.378   4.366   3.828
13602TIP3   OH240748   4.212   7.200   0.311
13602TIP3    H140749   4.286   7.221   0.253
13602TIP3    H240750   4.188   7.284   0.350
13603TIP3   OH240751   2.716   6.525   6.759
13603TIP3    H140752   2.806   6.547   6.735
13603TIP3    H240753   2.718   6.432   6.777
13604TIP3   OH240754   5.859   0.630   0.964
13604TIP3    H140755   5.803   0.607   1.038
13604TIP3    H240756   5.799   0.669   0.900
13605TIP3   OH240757   4.569   3.652   1.105
13605TIP3    H140758   4.560   3.718   1.174
13605TIP3    H240759   4.505   3.679   1.039
13606TIP3   OH240760   4.250   5.816   0.736
13606TIP3    H140761   4.343   5.797   0.721
13606TIP3    H240762   4.250   5.871   0.815
13607TIP3   OH240763   2.133   1.154   5.502
13607TIP3    H140764   2.079   1.223   5.540
13607TIP3    H240765   2.202   1.201   5.454
13608TIP3   OH240766   2.492   3.358   0.760
13608TIP3    H140767   2.554   3.290   0.734
13608TIP3    H240768   2.545   3.437   0.770
13609TIP3   OH240769   5.087   0.855   4.821
13609TIP3    H140770   5.062   0.917   4.752
13609TIP3    H240771   5.175   0.826   4.795
13610TIP3   OH240772   0.245   0.510   1.179
13610TIP3    H140773   0.219   0.419   1.163
13610TIP3    H240774   0.311   0.504   1.248
13611TIP3   OH240775   3.982   3.459   5.229
13611TIP3    H140776   3.891   3.488   5.238
13611TIP3    H240777   3.995   3.452   5.135
13612TIP3   OH240778   1.864   5.018   2.942
13612TIP3    H140779   1.870   5.036   3.036
13612TIP3    H240780   1.916   5.087   2.901
13613TIP3   OH240781   0.298   0.821   1.821
13613TIP3    H140782   0.205   0.828   1.797
13613TIP3    H240783   0.302   0.852   1.911
13614TIP3   OH240784   5.469   5.977   3.376
13614TIP3    H140785   5.512   5.985   3.461
13614TIP3    H240786   5.430   6.063   3.361
13615TIP3   OH240787   3.869   4.439   2.116
13615TIP3    H140788   3.956   4.400   2.104
13615TIP3    H240789   3.809   4.372   2.082
13616TIP3   OH240790   4.013   2.209   6.729
13616TIP3    H140791   4.048   2.252   6.651
13616TIP3    H240792   4.085   2.156   6.762
13617TIP3   OH240793   2.200   0.147   1.830
13617TIP3    H140794   2.249   0.184   1.904
13617TIP3    H240795   2.200   0.053   1.847
13618TIP3   OH240796   7.537   3.227   3.912
13618TIP3    H140797   7.602   3.295   3.931
13618TIP3    H240798   7.584   3.161   3.861
13619TIP3   OH240799   6.680   5.423   0.677
13619TIP3    H140800   6.627   5.418   0.598
13619TIP3    H240801   6.771   5.415   0.646
13620TIP3   OH240802   7.273   2.797   5.689
13620TIP3    H140803   7.204   2.829   5.747
13620TIP3    H240804   7.355   2.822   5.732
13621TIP3   OH240805   7.333   4.141   6.268
13621TIP3    H140806   7.417   4.117   6.229
13621TIP3    H240807   7.352   4.149   6.362
13622TIP3   OH240808   0.889   4.893   5.125
13622TIP3    H140809   0.821   4.838   5.086
13622TIP3    H240810   0.949   4.911   5.053
13623TIP3   OH240811   7.686   3.504   1.804
13623TIP3    H140812   7.766   3.453   1.819
13623TIP3    H240813   7.717   3.595   1.801
13624TIP3   OH240814   8.219   1.869   3.527
13624TIP3    H140815   8.167   1.834   3.454
13624TIP3    H240816   8.261   1.793   3.566
13625TIP3   OH240817   6.194   1.352   5.303
13625TIP3    H140818   6.261   1.397   5.251
13625TIP3    H240819   6.111   1.389   5.274
13626TIP3   OH240820   4.994   0.585   0.774
13626TIP3    H140821   5.048   0.512   0.741
13626TIP3    H240822   5.015   0.658   0.715
13627TIP3   OH240823   4.852   7.071   3.309
13627TIP3    H140824   4.929   7.062   3.253
13627TIP3    H240825   4.791   7.124   3.259
13628TIP3   OH240826   4.490   0.956   5.735
13628TIP3    H140827   4.530   1.039   5.762
13628TIP3    H240828   4.436   0.979   5.660
13629TIP3   OH240829   7.996   3.998   2.450
13629TIP3    H140830   7.927   4.061   2.473
13629TIP3    H240831   7.962   3.913   2.479
13630TIP3   OH240832   4.353   5.318   6.129
13630TIP3    H140833   4.304   5.401   6.132
13630TIP3    H240834   4.362   5.292   6.221
13631TIP3   OH240835   3.221   0.808   2.280
13631TIP3    H140836   3.173   0.872   2.333
13631TIP3    H240837   3.300   0.854   2.252
13632TIP3   OH240838   2.833   1.682   2.254
13632TIP3    H140839   2.789   1.604   2.286
13632TIP3    H240840   2.896   1.649   2.190
13633TIP3   OH240841   0.172   0.251   4.459
13633TIP3    H140842   0.235   0.286   4.522
13633TIP3    H240843   0.090   0.295   4.482
13634TIP3   OH240844   0.600   3.068   6.805
13634TIP3    H140845   0.572   3.008   6.736
13634TIP3    H240846   0.694   3.079   6.791
13635TIP3   OH240847   4.799   1.546   2.256
13635TIP3    H140848   4.751   1.494   2.321
13635TIP3    H240849   4.832   1.621   2.305
13636TIP3   OH240850   3.676   5.559   4.473
13636TIP3    H140851   3.617   5.484   4.484
13636TIP3    H240852   3.764   5.521   4.480
13637TIP3   OH240853   2.087   1.859   5.342
13637TIP3    H140854   2.061   1.927   5.404
13637TIP3    H240855   2.169   1.890   5.304
13638TIP3   OH240856   3.679   1.756   1.628
13638TIP3    H140857   3.627   1.833   1.605
13638TIP3    H240858   3.766   1.791   1.648
13639TIP3   OH240859   7.085   4.038   6.218
13639TIP3    H140860   7.170   4.070   6.247
13639TIP3    H240861   7.074   4.074   6.130
13640TIP3   OH240862   6.050   1.534   4.931
13640TIP3    H140863   6.077   1.468   4.867
13640TIP3    H240864   6.070   1.617   4.889
13641TIP3   OH240865   1.469   3.320   0.880
13641TIP3    H140866   1.454   3.380   0.806
13641TIP3    H240867   1.381   3.303   0.915
13642TIP3   OH240868   0.616   0.658   1.327
13642TIP3    H140869   0.558   0.587   1.299
13642TIP3    H240870   0.610   0.657   1.423
13643TIP3   OH240871   4.483   4.768   6.246
13643TIP3    H140872   4.551   4.706   6.274
13643TIP3    H240873   4.471   4.826   6.321
13644TIP3   OH240874   4.537   0.373   0.750
13644TIP3    H140875   4.505   0.357   0.661
13644TIP3    H240876   4.625   0.406   0.738
13645TIP3   OH240877   6.233   1.653   6.678
13645TIP3    H140878   6.249   1.726   6.738
13645TIP3    H240879   6.137   1.645   6.676
13646TIP3   OH240880   4.127   4.374   1.305
13646TIP3    H140881   4.048   4.360   1.253
13646TIP3    H240882   4.110   4.328   1.387
13647TIP3   OH240883   1.978   6.404   4.119
13647TIP3    H140884   2.034   6.402   4.041
13647TIP3    H240885   1.964   6.497   4.136
13648TIP3   OH240886   1.116   1.990   5.915
13648TIP3    H140887   1.022   2.004   5.926
13648TIP3    H240888   1.124   1.958   5.825
13649TIP3   OH240889   6.114   0.162   1.353
13649TIP3    H140890   6.173   0.220   1.401
13649TIP3    H240891   6.169   0.123   1.285
13650TIP3   OH240892   3.096   4.605   3.186
13650TIP3    H140893   3.096   4.659   3.107
13650TIP3    H240894   3.106   4.666   3.258
13651TIP3   OH240895   5.849   0.425   4.481
13651TIP3    H140896   5.765   0.447   4.441
13651TIP3    H240897   5.908   0.411   4.407
13652TIP3   OH240898   2.911   1.114   6.307
13652TIP3    H140899   2.875   1.128   6.395
13652TIP3    H240900   2.835   1.103   6.251
13653TIP3   OH240901   6.103   7.294   0.869
13653TIP3    H140902   6.053   7.316   0.790
13653TIP3    H240903   6.108   7.198   0.869
13654TIP3   OH240904   5.501   6.957   1.247
13654TIP3    H140905   5.545   6.947   1.332
13654TIP3    H240906   5.504   7.051   1.230
13655TIP3   OH240907   5.704   3.913   0.822
13655TIP3    H140908   5.792   3.907   0.785
13655TIP3    H240909   5.685   4.006   0.824
13656TIP3   OH240910   5.963   6.406   3.288
13656TIP3    H140911   5.915   6.453   3.356
13656TIP3    H240912   5.907   6.411   3.211
13657TIP3   OH240913   1.105   6.530   1.555
13657TIP3    H140914   1.033   6.586   1.585
13657TIP3    H240915   1.084   6.511   1.463
13658TIP3   OH240916   2.854   3.014   0.003
13658TIP3    H140917   2.770   3.050  -0.024
13658TIP3    H240918   2.919   3.070  -0.039
13659TIP3   OH240919   4.270   6.903   3.575
13659TIP3    H140920   4.358   6.885   3.607
13659TIP3    H240921   4.244   6.984   3.619
13660TIP3   OH240922   0.636   1.569   2.766
13660TIP3    H140923   0.619   1.652   2.722
13660TIP3    H240924   0.691   1.521   2.704
13661TIP3   OH240925   1.056   1.123   4.023
13661TIP3    H140926   1.123   1.190   4.036
13661TIP3    H240927   1.101   1.040   4.042
13662TIP3   OH240928   2.580   7.646   2.772
13662TIP3    H140929   2.491   7.612   2.774
13662TIP3    H240930   2.599   7.657   2.679
13663TIP3   OH240931   7.792   4.496   6.160
13663TIP3    H140932   7.830   4.408   6.164
13663TIP3    H240933   7.738   4.495   6.081
13664TIP3   OH240934   3.413   2.596   3.012
13664TIP3    H140935   3.319   2.582   3.023
13664TIP3    H240936   3.426   2.689   3.031
13665TIP3   OH240937   0.732   3.613   4.886
13665TIP3    H140938   0.826   3.603   4.900
13665TIP3    H240939   0.721   3.704   4.860
13666TIP3   OH240940   5.479   1.424   5.702
13666TIP3    H140941   5.566   1.392   5.679
13666TIP3    H240942   5.471   1.507   5.655
13667TIP3   OH240943   4.398   4.806   5.245
13667TIP3    H140944   4.370   4.767   5.162
13667TIP3    H240945   4.427   4.894   5.220
13668TIP3   OH240946   2.361   5.590   2.528
13668TIP3    H140947   2.428   5.611   2.462
13668TIP3    H240948   2.282   5.633   2.496
13669TIP3   OH240949   0.859   6.366   4.346
13669TIP3    H140950   0.942   6.389   4.303
13669TIP3    H240951   0.863   6.410   4.431
13670TIP3   OH240952   6.045   5.465   5.552
13670TIP3    H140953   6.021   5.416   5.474
13670TIP3    H240954   6.092   5.403   5.607
13671TIP3   OH240955   2.628   4.904   5.896
13671TIP3    H140956   2.660   4.938   5.812
13671TIP3    H240957   2.652   4.971   5.959
13672TIP3   OH240958   7.870   0.518   5.983
13672TIP3    H140959   7.841   0.584   6.046
13672TIP3    H240960   7.816   0.535   5.905
13673TIP3   OH240961   0.752   5.151   5.193
13673TIP3    H140962   0.800   5.070   5.179
13673TIP3    H240963   0.666   5.124   5.223
13674TIP3   OH240964   7.802   6.192   4.234
13674TIP3    H140965   7.775   6.100   4.241
13674TIP3    H240966   7.888   6.195   4.275
13675TIP3   OH240967   7.321   1.433   6.468
13675TIP3    H140968   7.301   1.421   6.561
13675TIP3    H240969   7.401   1.383   6.454
13676TIP3   OH240970   7.911   5.412   2.422
13676TIP3    H140971   7.919   5.474   2.494
13676TIP3    H240972   7.822   5.424   2.389
13677TIP3   OH240973   6.933   1.223   3.981
13677TIP3    H140974   7.008   1.175   4.015
13677TIP3    H240975   6.915   1.290   4.046
13678TIP3   OH240976   6.307   6.342   4.635
13678TIP3    H140977   6.399   6.365   4.640
13678TIP3    H240978   6.292   6.322   4.543
13679TIP3   OH240979   7.555   5.344   6.583
13679TIP3    H140980   7.564   5.370   6.675
13679TIP3    H240981   7.478   5.391   6.551
13680TIP3   OH240982   1.235   6.924   3.996
13680TIP3    H140983   1.202   6.985   4.062
13680TIP3    H240984   1.321   6.899   4.027
13681TIP3   OH240985   1.712   4.369   3.434
13681TIP3    H140986   1.786   4.349   3.491
13681TIP3    H240987   1.735   4.329   3.350
13682TIP3   OH240988   2.938   3.224   6.639
13682TIP3    H140989   2.895   3.216   6.724
13682TIP3    H240990   3.017   3.275   6.657
13683TIP3   OH240991   4.859   0.890   1.943
13683TIP3    H140992   4.949   0.918   1.962
13683TIP3    H240993   4.837   0.831   2.015
13684TIP3   OH240994   3.604   1.067   6.340
13684TIP3    H140995   3.572   1.126   6.408
13684TIP3    H240996   3.694   1.095   6.324
13685TIP3   OH240997   1.086   2.260   2.808
13685TIP3    H140998   1.006   2.288   2.763
13685TIP3    H240999   1.100   2.170   2.777
13686TIP3   OH241000   4.505   5.094   5.224
13686TIP3    H141001   4.564   5.117   5.152
13686TIP3    H241002   4.537   5.146   5.298
13687TIP3   OH241003   7.248   2.580   6.290
13687TIP3    H141004   7.218   2.493   6.264
13687TIP3    H241005   7.342   2.579   6.272
13688TIP3   OH241006   5.136   2.110   2.089
13688TIP3    H141007   5.230   2.128   2.094
13688TIP3    H241008   5.122   2.039   2.152
13689TIP3   OH241009   1.201   0.951   5.042
13689TIP3    H141010   1.107   0.949   5.024
13689TIP3    H241011   1.223   0.861   5.066
13690TIP3   OH241012   7.039   2.934   3.308
13690TIP3    H141013   6.968   2.975   3.260
13690TIP3    H241014   7.109   2.922   3.243
13691TIP3   OH241015   0.209   5.756   0.557
13691TIP3    H141016   0.145   5.819   0.522
13691TIP3    H241017   0.179   5.740   0.647
13692TIP3   OH241018   3.864   2.443   2.399
13692TIP3    H141019   3.859   2.378   2.469
13692TIP3    H241020   3.920   2.402   2.333
13693TIP3   OH241021   1.552   5.657   5.017
13693TIP3    H141022   1.483   5.719   5.040
13693TIP3    H241023   1.546   5.588   5.084
13694TIP3   OH241024   8.099   3.629   3.322
13694TIP3    H141025   8.005   3.633   3.304
13694TIP3    H241026   8.121   3.716   3.355
13695TIP3   OH241027   5.380   3.498   0.723
13695TIP3    H141028   5.410   3.547   0.647
13695TIP3    H241029   5.301   3.544   0.752
13696TIP3   OH241030   0.009   1.891   6.199
13696TIP3    H141031   0.042   1.869   6.287
13696TIP3    H241032  -0.086   1.881   6.206
13697TIP3   OH241033   7.988   2.560   4.946
13697TIP3    H141034   7.967   2.653   4.955
13697TIP3    H241035   7.903   2.516   4.947
13698TIP3   OH241036   0.310   7.335   6.341
13698TIP3    H141037   0.294   7.242   6.356
13698TIP3    H241038   0.223   7.374   6.336
13699TIP3   OH241039   3.539   0.320   6.236
13699TIP3    H141040   3.451   0.357   6.246
13699TIP3    H241041   3.533   0.263   6.159
13700TIP3   OH241042   4.084   7.735   6.448
13700TIP3    H141043   4.085   7.680   6.527
13700TIP3    H241044   4.023   7.806   6.469
13701TIP3   OH241045   6.119   1.203   4.551
13701TIP3    H141046   6.072   1.157   4.481
13701TIP3    H241047   6.154   1.133   4.607
13702TIP3   OH241048   7.887   2.745   6.074
13702TIP3    H141049   7.924   2.818   6.025
13702TIP3    H241050   7.812   2.717   6.022
13703TIP3   OH241051   6.339   1.024   3.820
13703TIP3    H141052   6.329   1.085   3.747
13703TIP3    H241053   6.369   1.078   3.893
13704TIP3   OH241054   4.383   4.657   6.724
13704TIP3    H141055   4.292   4.671   6.748
13704TIP3    H241056   4.379   4.620   6.635
13705TIP3   OH241057   3.857   2.480   2.848
13705TIP3    H141058   3.763   2.483   2.869
13705TIP3    H241059   3.867   2.402   2.794
13706TIP3   OH241060   8.134   3.697   2.867
13706TIP3    H141061   8.160   3.635   2.934
13706TIP3    H241062   8.114   3.777   2.914
13707TIP3   OH241063   4.677   6.856   5.439
13707TIP3    H141064   4.593   6.819   5.465
13707TIP3    H241065   4.700   6.809   5.358
13708TIP3   OH241066   6.203   7.279   2.668
13708TIP3    H141067   6.295   7.282   2.642
13708TIP3    H241068   6.184   7.367   2.700
13709TIP3   OH241069   7.980   0.388   1.392
13709TIP3    H141070   7.903   0.335   1.371
13709TIP3    H241071   8.000   0.434   1.311
13710TIP3   OH241072   4.565   5.280   2.022
13710TIP3    H141073   4.617   5.341   1.970
13710TIP3    H241074   4.513   5.232   1.958
13711TIP3   OH241075   5.461   6.755   3.146
13711TIP3    H141076   5.527   6.693   3.177
13711TIP3    H241077   5.490   6.840   3.180
13712TIP3   OH241078   2.610   7.685   6.066
13712TIP3    H141079   2.603   7.693   6.161
13712TIP3    H241080   2.584   7.594   6.048
13713TIP3   OH241081   6.341   1.320   0.248
13713TIP3    H141082   6.384   1.330   0.163
13713TIP3    H241083   6.282   1.245   0.236
13714TIP3   OH241084   6.864   5.161   4.248
13714TIP3    H141085   6.907   5.087   4.204
13714TIP3    H241086   6.916   5.175   4.327
13715TIP3   OH241087   5.178   0.731   3.350
13715TIP3    H141088   5.150   0.744   3.440
13715TIP3    H241089   5.179   0.818   3.312
13716TIP3   OH241090   4.857   3.216   5.892
13716TIP3    H141091   4.783   3.155   5.886
13716TIP3    H241092   4.934   3.161   5.879
13717TIP3   OH241093   1.161   0.343   3.171
13717TIP3    H141094   1.167   0.301   3.256
13717TIP3    H241095   1.167   0.271   3.108
13718TIP3   OH241096   1.898   3.361   2.096
13718TIP3    H141097   1.871   3.294   2.034
13718TIP3    H241098   1.989   3.342   2.115
13719TIP3   OH241099   2.789   5.662   1.063
13719TIP3    H141100   2.764   5.719   1.135
13719TIP3    H241101   2.864   5.612   1.097
13720TIP3   OH241102   3.102   4.780   3.816
13720TIP3    H141103   3.154   4.841   3.764
13720TIP3    H241104   3.108   4.814   3.906
13721TIP3   OH241105   5.222   1.917   4.324
13721TIP3    H141106   5.241   1.826   4.344
13721TIP3    H241107   5.152   1.913   4.259
13722TIP3   OH241108   1.784   4.166   4.777
13722TIP3    H141109   1.739   4.200   4.700
13722TIP3    H241110   1.723   4.182   4.849
13723TIP3   OH241111   8.171   7.792   2.300
13723TIP3    H141112   8.130   7.729   2.242
13723TIP3    H241113   8.106   7.808   2.369
13724TIP3   OH241114   5.920   4.116   4.140
13724TIP3    H141115   5.862   4.057   4.093
13724TIP3    H241116   6.003   4.111   4.093
13725TIP3   OH241117   5.853   6.886   4.678
13725TIP3    H141118   5.784   6.923   4.732
13725TIP3    H241119   5.808   6.854   4.600
13726TIP3   OH241120   7.940   0.549   3.576
13726TIP3    H141121   7.991   0.481   3.619
13726TIP3    H241122   7.998   0.625   3.573
13727TIP3   OH241123   6.741   4.782   0.605
13727TIP3    H141124   6.657   4.801   0.563
13727TIP3    H241125   6.725   4.797   0.698
13728TIP3   OH241126   1.835   5.138   2.533
13728TIP3    H141127   1.772   5.068   2.546
13728TIP3    H241128   1.920   5.094   2.530
13729TIP3   OH241129   4.937   7.229   4.861
13729TIP3    H141130   5.012   7.283   4.836
13729TIP3    H241131   4.964   7.140   4.840
13730TIP3   OH241132   0.970   2.877   5.208
13730TIP3    H141133   1.005   2.917   5.128
13730TIP3    H241134   1.038   2.816   5.236
13731TIP3   OH241135   5.644   3.049   4.375
13731TIP3    H141136   5.698   3.022   4.302
13731TIP3    H241137   5.639   2.972   4.432
13732TIP3   OH241138   2.973   5.570   0.659
13732TIP3    H141139   3.023   5.648   0.634
13732TIP3    H241140   3.006   5.547   0.746
13733TIP3   OH241141   4.728   7.556   2.484
13733TIP3    H141142   4.747   7.513   2.567
13733TIP3    H241143   4.681   7.490   2.432
13734TIP3   OH241144   0.138   0.716   1.015
13734TIP3    H141145   0.151   0.653   1.086
13734TIP3    H241146   0.222   0.762   1.007
13735TIP3   OH241147   3.989   4.846   4.808
13735TIP3    H141148   4.003   4.875   4.898
13735TIP3    H241149   3.895   4.829   4.802
13736TIP3   OH241150   4.809   7.771   1.799
13736TIP3    H141151   4.788   7.845   1.857
13736TIP3    H241152   4.820   7.810   1.713
13737TIP3   OH241153   1.954   4.437   3.125
13737TIP3    H141154   1.927   4.525   3.152
13737TIP3    H241155   1.999   4.401   3.201
13738TIP3   OH241156   8.184   5.969   5.615
13738TIP3    H141157   8.154   6.027   5.685
13738TIP3    H241158   8.131   5.890   5.625
13739TIP3   OH241159   1.260   2.989   0.892
13739TIP3    H141160   1.325   2.919   0.887
13739TIP3    H241161   1.176   2.944   0.893
13740TIP3   OH241162   7.302   0.921   2.329
13740TIP3    H141163   7.241   0.861   2.287
13740TIP3    H241164   7.247   0.980   2.380
13741TIP3   OH241165   4.030   0.459   1.555
13741TIP3    H141166   3.952   0.415   1.520
13741TIP3    H241167   4.090   0.465   1.480
13742TIP3   OH241168   7.908   5.626   0.849
13742TIP3    H141169   7.843   5.569   0.889
13742TIP3    H241170   7.886   5.627   0.756
13743TIP3   OH241171   4.150   4.352   2.089
13743TIP3    H141172   4.220   4.414   2.067
13743TIP3    H241173   4.160   4.337   2.183
13744TIP3   OH241174   4.052   1.702   2.863
13744TIP3    H141175   3.972   1.728   2.907
13744TIP3    H241176   4.118   1.764   2.894
13745TIP3   OH241177   2.976   2.896   6.324
13745TIP3    H141178   2.913   2.919   6.393
13745TIP3    H241179   3.061   2.926   6.358
13746TIP3   OH241180   0.661   5.658   6.451
13746TIP3    H141181   0.677   5.574   6.407
13746TIP3    H241182   0.726   5.662   6.521
13747TIP3   OH241183   3.495   1.757   5.157
13747TIP3    H141184   3.530   1.785   5.242
13747TIP3    H241185   3.565   1.705   5.119
13748TIP3   OH241186   1.999   3.847   1.807
13748TIP3    H141187   2.066   3.799   1.758
13748TIP3    H241188   1.993   3.802   1.891
13749TIP3   OH241189   6.013   2.047   0.665
13749TIP3    H141190   6.052   2.066   0.751
13749TIP3    H241191   5.918   2.054   0.680
13750TIP3   OH241192   6.958   5.679   1.535
13750TIP3    H141193   6.967   5.717   1.448
13750TIP3    H241194   6.865   5.688   1.556
13751TIP3   OH241195   7.106   2.502   4.388
13751TIP3    H141196   7.027   2.448   4.384
13751TIP3    H241197   7.083   2.576   4.443
13752TIP3   OH241198   1.851   6.560   6.135
13752TIP3    H141199   1.800   6.557   6.216
13752TIP3    H241200   1.844   6.651   6.105
13753TIP3   OH241201   2.304   2.333   1.769
13753TIP3    H141202   2.229   2.343   1.711
13753TIP3    H241203   2.379   2.357   1.716
13754TIP3   OH241204   3.695   4.286   2.985
13754TIP3    H141205   3.714   4.266   2.893
13754TIP3    H241206   3.765   4.242   3.034
13755TIP3   OH241207   7.525   1.036   0.525
13755TIP3    H141208   7.466   1.098   0.482
13755TIP3    H241209   7.598   1.090   0.556
13756TIP3   OH241210   7.291   0.154   6.313
13756TIP3    H141211   7.215   0.130   6.366
13756TIP3    H241212   7.277   0.247   6.294
13757TIP3   OH241213   1.899   1.187   4.693
13757TIP3    H141214   1.895   1.106   4.744
13757TIP3    H241215   1.912   1.158   4.602
13758TIP3   OH241216   4.729   4.874   5.495
13758TIP3    H141217   4.708   4.967   5.483
13758TIP3    H241218   4.706   4.856   5.586
13759TIP3   OH241219   3.514   4.539   0.995
13759TIP3    H141220   3.519   4.485   0.916
13759TIP3    H241221   3.560   4.619   0.972
13760TIP3   OH241222   2.144   2.119   4.923
13760TIP3    H141223   2.149   2.173   5.003
13760TIP3    H241224   2.220   2.147   4.871
13761TIP3   OH241225   5.112   5.863   3.827
13761TIP3    H141226   5.036   5.921   3.816
13761TIP3    H241227   5.074   5.775   3.827
13762TIP3   OH241228   0.987   4.245   4.824
13762TIP3    H141229   0.992   4.216   4.915
13762TIP3    H241230   0.893   4.250   4.806
13763TIP3   OH241231   3.046   1.402   4.491
13763TIP3    H141232   3.056   1.327   4.550
13763TIP3    H241233   2.961   1.388   4.450
13764TIP3   OH241234   3.991   0.647   3.208
13764TIP3    H141235   4.025   0.620   3.294
13764TIP3    H241236   4.041   0.594   3.146
13765TIP3   OH241237   2.566   5.736   3.961
13765TIP3    H141238   2.644   5.782   3.991
13765TIP3    H241239   2.499   5.805   3.954
13766TIP3   OH241240   3.132   0.319   5.365
13766TIP3    H141241   3.196   0.327   5.294
13766TIP3    H241242   3.098   0.230   5.355
13767TIP3   OH241243   3.172   3.241   6.067
13767TIP3    H141244   3.225   3.195   6.132
13767TIP3    H241245   3.234   3.296   6.020
13768TIP3   OH241246   6.175   1.113   2.016
13768TIP3    H141247   6.171   1.208   2.013
13768TIP3    H241248   6.122   1.089   2.092
13769TIP3   OH241249   6.877   7.337   1.618
13769TIP3    H141250   6.854   7.325   1.710
13769TIP3    H241251   6.796   7.366   1.576
13770TIP3   OH241252   4.020   3.310   0.798
13770TIP3    H141253   4.044   3.264   0.879
13770TIP3    H241254   4.065   3.261   0.729
13771TIP3   OH241255   1.010   3.020   0.238
13771TIP3    H141256   1.010   3.082   0.311
13771TIP3    H241257   1.103   3.011   0.214
13772TIP3   OH241258   2.534   7.607   3.358
13772TIP3    H141259   2.593   7.577   3.289
13772TIP3    H241260   2.559   7.698   3.372
13773TIP3   OH241261   2.146   1.921   6.459
13773TIP3    H141262   2.164   1.954   6.370
13773TIP3    H241263   2.232   1.912   6.499
13774TIP3   OH241264   5.064   6.969   3.822
13774TIP3    H141265   4.999   6.944   3.757
13774TIP3    H241266   5.147   6.934   3.787
13775TIP3   OH241267   3.333   0.780   6.197
13775TIP3    H141268   3.244   0.778   6.161
13775TIP3    H241269   3.390   0.791   6.121
13776TIP3   OH241270   6.356   6.418   0.586
13776TIP3    H141271   6.306   6.495   0.613
13776TIP3    H241272   6.420   6.406   0.656
13777TIP3   OH241273   1.240   7.083   1.872
13777TIP3    H141274   1.298   7.151   1.905
13777TIP3    H241275   1.248   7.089   1.776
13778TIP3   OH241276   2.831   2.013   3.364
13778TIP3    H141277   2.868   1.997   3.450
13778TIP3    H241278   2.840   1.929   3.318
13779TIP3   OH241279   3.864   1.030   2.989
13779TIP3    H141280   3.839   0.993   3.074
13779TIP3    H241281   3.836   0.964   2.926
13780TIP3   OH241282   4.288   7.147   3.681
13780TIP3    H141283   4.363   7.123   3.734
13780TIP3    H241284   4.267   7.237   3.707
13781TIP3   OH241285   7.458   7.056   0.524
13781TIP3    H141286   7.493   7.131   0.476
13781TIP3    H241287   7.407   7.007   0.459
13782TIP3   OH241288   7.325   1.815   1.689
13782TIP3    H141289   7.329   1.847   1.779
13782TIP3    H241290   7.305   1.722   1.698
13783TIP3   OH241291   4.787   2.798   3.393
13783TIP3    H141292   4.763   2.853   3.468
13783TIP3    H241293   4.825   2.859   3.330
13784TIP3   OH241294   4.381   3.923   3.197
13784TIP3    H141295   4.373   3.850   3.259
13784TIP3    H241296   4.437   3.986   3.242
13785TIP3   OH241297   4.968   1.442   5.139
13785TIP3    H141298   5.046   1.416   5.187
13785TIP3    H241299   4.914   1.363   5.137
13786TIP3   OH241300   5.612   3.330   4.383
13786TIP3    H141301   5.569   3.388   4.446
13786TIP3    H241302   5.583   3.242   4.409
13787TIP3   OH241303   8.249   2.419   2.986
13787TIP3    H141304   8.304   2.357   2.939
13787TIP3    H241305   8.226   2.374   3.067
13788TIP3   OH241306   7.316   7.236   1.776
13788TIP3    H141307   7.252   7.263   1.710
13788TIP3    H241308   7.332   7.315   1.828
13789TIP3   OH241309   3.108   0.527   4.184
13789TIP3    H141310   3.118   0.433   4.171
13789TIP3    H241311   3.132   0.566   4.100
13790TIP3   OH241312   7.473   5.707   4.399
13790TIP3    H141313   7.542   5.701   4.466
13790TIP3    H241314   7.443   5.617   4.388
13791TIP3   OH241315   3.391   3.283   3.490
13791TIP3    H141316   3.400   3.352   3.425
13791TIP3    H241317   3.305   3.298   3.529
13792TIP3   OH241318   6.592   7.424   2.004
13792TIP3    H141319   6.540   7.491   1.959
13792TIP3    H241320   6.532   7.386   2.068
13793TIP3   OH241321   4.708   4.164   1.102
13793TIP3    H141322   4.677   4.227   1.168
13793TIP3    H241323   4.629   4.125   1.067
13794TIP3   OH241324   3.985   4.376   4.400
13794TIP3    H141325   3.959   4.468   4.397
13794TIP3    H241326   4.014   4.356   4.311
13795TIP3   OH241327   6.444   1.743   5.221
13795TIP3    H141328   6.425   1.774   5.133
13795TIP3    H241329   6.539   1.734   5.224
13796TIP3   OH241330   4.619   1.765   1.786
13796TIP3    H141331   4.593   1.689   1.733
13796TIP3    H241332   4.563   1.836   1.755
13797TIP3   OH241333   2.421   1.765   0.629
13797TIP3    H141334   2.481   1.807   0.691
13797TIP3    H241335   2.335   1.770   0.671
13798TIP3   OH241336   2.106   2.789   1.577
13798TIP3    H141337   2.096   2.759   1.486
13798TIP3    H241338   2.020   2.821   1.602
13799TIP3   OH241339   5.247   4.347   1.922
13799TIP3    H141340   5.205   4.374   2.003
13799TIP3    H241341   5.204   4.399   1.854
13800TIP3   OH241342   7.942   6.343   5.850
13800TIP3    H141343   8.008   6.407   5.878
13800TIP3    H241344   7.880   6.394   5.797
13801TIP3   OH241345   7.303   5.302   5.504
13801TIP3    H141346   7.309   5.211   5.474
13801TIP3    H241347   7.385   5.319   5.549
13802TIP3   OH241348   7.796   6.681   5.032
13802TIP3    H141349   7.738   6.709   5.103
13802TIP3    H241350   7.853   6.616   5.071
13803TIP3   OH241351   2.995   1.238   4.866
13803TIP3    H141352   3.057   1.176   4.904
13803TIP3    H241353   3.023   1.323   4.900
13804TIP3   OH241354   8.237   7.713   2.629
13804TIP3    H141355   8.288   7.784   2.589
13804TIP3    H241356   8.212   7.657   2.556
13805TIP3   OH241357   4.303   0.956   2.928
13805TIP3    H141358   4.336   0.910   2.851
13805TIP3    H241359   4.362   1.030   2.939
13806TIP3   OH241360   2.170   0.281   6.418
13806TIP3    H141361   2.172   0.273   6.323
13806TIP3    H241362   2.078   0.276   6.441
13807TIP3   OH241363   1.757   3.086   2.469
13807TIP3    H141364   1.668   3.057   2.489
13807TIP3    H241365   1.759   3.094   2.373
13808TIP3   OH241366   3.813   1.900   0.103
13808TIP3    H141367   3.880   1.955   0.142
13808TIP3    H241368   3.858   1.817   0.084
13809TIP3   OH241369   7.080   5.928   1.036
13809TIP3    H141370   7.055   6.020   1.045
13809TIP3    H241371   7.110   5.919   0.946
13810TIP3   OH241372   4.398   2.626   1.718
13810TIP3    H141373   4.377   2.616   1.625
13810TIP3    H241374   4.465   2.695   1.720
13811TIP3   OH241375   1.756   6.053   3.886
13811TIP3    H141376   1.846   6.038   3.915
13811TIP3    H241377   1.740   6.145   3.907
13812TIP3   OH241378   3.488   4.288   5.820
13812TIP3    H141379   3.488   4.195   5.840
13812TIP3    H241380   3.477   4.331   5.904
13813TIP3   OH241381   3.724   0.562   2.627
13813TIP3    H141382   3.699   0.547   2.535
13813TIP3    H241383   3.783   0.637   2.623
13814TIP3   OH241384   6.238   5.291   6.665
13814TIP3    H141385   6.185   5.250   6.734
13814TIP3    H241386   6.290   5.357   6.712
13815TIP3   OH241387   3.197   5.737   1.391
13815TIP3    H141388   3.268   5.730   1.455
13815TIP3    H241389   3.223   5.678   1.320
13816TIP3   OH241390   5.112   5.459   3.626
13816TIP3    H141391   5.186   5.472   3.686
13816TIP3    H241392   5.144   5.394   3.564
13817TIP3   OH241393   8.159   4.087   3.751
13817TIP3    H141394   8.065   4.067   3.744
13817TIP3    H241395   8.170   4.168   3.701
13818TIP3   OH241396   5.919   3.716   4.278
13818TIP3    H141397   5.917   3.756   4.191
13818TIP3    H241398   5.891   3.626   4.264
13819TIP3   OH241399   6.958   7.526   3.387
13819TIP3    H141400   6.893   7.463   3.420
13819TIP3    H241401   7.036   7.474   3.372
13820TIP3   OH241402   4.092   0.119   5.381
13820TIP3    H141403   4.065   0.208   5.403
13820TIP3    H241404   4.082   0.070   5.462
13821TIP3   OH241405   3.759   0.242   1.901
13821TIP3    H141406   3.737   0.327   1.863
13821TIP3    H241407   3.692   0.182   1.866
13822TIP3   OH241408   8.195   1.322   0.897
13822TIP3    H141409   8.247   1.393   0.860
13822TIP3    H241410   8.188   1.258   0.827
13823TIP3   OH241411   1.065   1.941   4.089
13823TIP3    H141412   1.154   1.944   4.056
13823TIP3    H241413   1.013   1.988   4.024
13824TIP3   OH241414   0.721   0.721   5.675
13824TIP3    H141415   0.771   0.713   5.756
13824TIP3    H241416   0.787   0.732   5.606
13825TIP3   OH241417   0.468   5.670   3.524
13825TIP3    H141418   0.495   5.638   3.438
13825TIP3    H241419   0.379   5.637   3.535
13826TIP3   OH241420   2.985   2.758   4.349
13826TIP3    H141421   2.936   2.794   4.274
13826TIP3    H241422   2.917   2.719   4.405
13827TIP3   OH241423   7.164   5.946   4.431
13827TIP3    H141424   7.201   5.957   4.344
13827TIP3    H241425   7.143   5.853   4.437
13828TIP3   OH241426   5.291   4.176   6.777
13828TIP3    H141427   5.384   4.185   6.796
13828TIP3    H241428   5.258   4.265   6.772
13829TIP3   OH241429   3.947   7.411   5.601
13829TIP3    H141430   3.919   7.330   5.558
13829TIP3    H241431   3.888   7.421   5.675
13830TIP3   OH241432   6.702   5.454   3.423
13830TIP3    H141433   6.720   5.488   3.511
13830TIP3    H241434   6.616   5.413   3.430
13831TIP3   OH241435   8.196   4.328   5.269
13831TIP3    H141436   8.141   4.401   5.296
13831TIP3    H241437   8.253   4.364   5.201
13832TIP3   OH241438   6.321   6.599   1.537
13832TIP3    H141439   6.369   6.644   1.606
13832TIP3    H241440   6.252   6.550   1.583
13833TIP3   OH241441   7.234   6.912   6.076
13833TIP3    H141442   7.301   6.929   6.142
13833TIP3    H241443   7.156   6.890   6.126
13834TIP3   OH241444   4.939   3.310   6.674
13834TIP3    H141445   4.847   3.304   6.699
13834TIP3    H241446   4.937   3.314   6.578
13835TIP3   OH241447   7.333   0.894   6.542
13835TIP3    H141448   7.347   0.855   6.456
13835TIP3    H241449   7.374   0.833   6.603
13836TIP3   OH241450   5.109   6.765   0.101
13836TIP3    H141451   5.203   6.779   0.086
13836TIP3    H241452   5.100   6.671   0.113
13837TIP3   OH241453   2.315   6.288   4.580
13837TIP3    H141454   2.251   6.348   4.543
13837TIP3    H241455   2.263   6.214   4.612
13838TIP3   OH241456   4.400   6.487   0.880
13838TIP3    H141457   4.368   6.398   0.896
13838TIP3    H241458   4.343   6.543   0.932
13839TIP3   OH241459   0.939   3.029   3.641
13839TIP3    H141460   0.912   2.973   3.714
13839TIP3    H241461   0.890   3.110   3.653
13840TIP3   OH241462   2.879   0.398   2.498
13840TIP3    H141463   2.801   0.446   2.470
13840TIP3    H241464   2.952   0.451   2.467
13841TIP3   OH241465   1.547   0.604   4.740
13841TIP3    H141466   1.550   0.513   4.713
13841TIP3    H241467   1.636   0.636   4.727
13842TIP3   OH241468   0.627   6.234   2.686
13842TIP3    H141469   0.656   6.312   2.638
13842TIP3    H241470   0.664   6.245   2.774
13843TIP3   OH241471   6.404   2.827   6.013
13843TIP3    H141472   6.354   2.780   5.947
13843TIP3    H241473   6.410   2.766   6.087
13844TIP3   OH241474   1.855   6.704   3.228
13844TIP3    H141475   1.893   6.785   3.261
13844TIP3    H241476   1.928   6.642   3.226
13845TIP3   OH241477   2.176   3.762   4.187
13845TIP3    H141478   2.233   3.719   4.250
13845TIP3    H241479   2.089   3.762   4.228
13846TIP3   OH241480   1.244   2.242   5.889
13846TIP3    H141481   1.201   2.158   5.874
13846TIP3    H241482   1.334   2.228   5.863
13847TIP3   OH241483   3.249   7.701   0.205
13847TIP3    H141484   3.318   7.652   0.252
13847TIP3    H241485   3.173   7.697   0.263
13848TIP3   OH241486   5.152   1.107   0.408
13848TIP3    H141487   5.088   1.176   0.393
13848TIP3    H241488   5.132   1.041   0.342
13849TIP3   OH241489   6.534   2.005   5.073
13849TIP3    H141490   6.504   1.924   5.031
13849TIP3    H241491   6.528   2.071   5.005
13850TIP3   OH241492   3.941   4.962   4.490
13850TIP3    H141493   3.913   5.053   4.489
13850TIP3    H241494   4.009   4.958   4.557
13851TIP3   OH241495   4.946   6.532   2.153
13851TIP3    H141496   4.974   6.602   2.212
13851TIP3    H241497   4.918   6.578   2.073
13852TIP3   OH241498   5.108   6.449   4.236
13852TIP3    H141499   5.191   6.481   4.201
13852TIP3    H241500   5.093   6.366   4.190
13853TIP3   OH241501   7.533   0.403   5.987
13853TIP3    H141502   7.626   0.425   5.997
13853TIP3    H241503   7.522   0.383   5.895
13854TIP3   OH241504   1.251   6.863   6.747
13854TIP3    H141505   1.249   6.777   6.705
13854TIP3    H241506   1.344   6.883   6.758
13855TIP3   OH241507   7.129   6.416   4.552
13855TIP3    H141508   7.163   6.336   4.593
13855TIP3    H241509   7.034   6.404   4.551
13856TIP3   OH241510   6.455   2.438   5.501
13856TIP3    H141511   6.520   2.456   5.569
13856TIP3    H241512   6.470   2.504   5.434
13857TIP3   OH241513   3.562   4.727   3.799
13857TIP3    H141514   3.635   4.774   3.757
13857TIP3    H241515   3.542   4.655   3.739
13858TIP3   OH241516   0.093   7.437   5.115
13858TIP3    H141517   0.098   7.532   5.118
13858TIP3    H241518   0.117   7.409   5.204
13859TIP3   OH241519   2.117   0.151   0.403
13859TIP3    H141520   2.045   0.185   0.348
13859TIP3    H241521   2.143   0.070   0.361
13860TIP3   OH241522   4.924   3.595   6.471
13860TIP3    H141523   4.990   3.619   6.406
13860TIP3    H241524   4.887   3.513   6.438
13861TIP3   OH241525   2.972   2.738   3.020
13861TIP3    H141526   2.921   2.720   2.941
13861TIP3    H241527   3.030   2.810   2.995
13862TIP3   OH241528   4.801   4.084   0.828
13862TIP3    H141529   4.769   4.149   0.765
13862TIP3    H241530   4.733   4.081   0.895
13863TIP3   OH241531   2.891   5.997   4.949
13863TIP3    H141532   2.870   5.909   4.916
13863TIP3    H241533   2.808   6.028   4.986
13864TIP3   OH241534   5.047   3.479   0.359
13864TIP3    H141535   5.029   3.568   0.391
13864TIP3    H241536   5.103   3.492   0.282
13865TIP3   OH241537   5.970   0.214   5.278
13865TIP3    H141538   6.052   0.253   5.245
13865TIP3    H241539   5.974   0.226   5.372
13866TIP3   OH241540   1.250   6.519   6.004
13866TIP3    H141541   1.339   6.484   6.009
13866TIP3    H241542   1.201   6.454   5.954
13867TIP3   OH241543   3.268   1.152   0.358
13867TIP3    H141544   3.241   1.071   0.401
13867TIP3    H241545   3.192   1.210   0.365
13868TIP3   OH241546   3.657   0.389   2.362
13868TIP3    H141547   3.664   0.294   2.359
13868TIP3    H241548   3.568   0.407   2.331
13869TIP3   OH241549   5.322   2.777   6.234
13869TIP3    H141550   5.391   2.788   6.168
13869TIP3    H241551   5.363   2.804   6.316
13870TIP3   OH241552   0.280   0.319   1.828
13870TIP3    H141553   0.363   0.353   1.794
13870TIP3    H241554   0.237   0.395   1.866
13871TIP3   OH241555   5.264   7.696   4.611
13871TIP3    H141556   5.304   7.782   4.626
13871TIP3    H241557   5.195   7.713   4.546
13872TIP3   OH241558   2.742   0.316   6.047
13872TIP3    H141559   2.724   0.234   6.093
13872TIP3    H241560   2.770   0.288   5.959
13873TIP3   OH241561   5.246   5.257   1.613
13873TIP3    H141562   5.290   5.172   1.621
13873TIP3    H241563   5.270   5.304   1.693
13874TIP3   OH241564   2.350   6.554   6.171
13874TIP3    H141565   2.368   6.504   6.250
13874TIP3    H241566   2.255   6.567   6.172
13875TIP3   OH241567   0.280   3.541   1.597
13875TIP3    H141568   0.353   3.522   1.538
13875TIP3    H241569   0.295   3.485   1.673
13876TIP3   OH241570   7.527   2.697   2.454
13876TIP3    H141571   7.452   2.757   2.451
13876TIP3    H241572   7.549   2.681   2.362
13877TIP3   OH241573   6.231   0.354   0.882
13877TIP3    H141574   6.223   0.400   0.965
13877TIP3    H241575   6.242   0.262   0.906
13878TIP3   OH241576   0.374   2.274   4.643
13878TIP3    H141577   0.306   2.214   4.670
13878TIP3    H241578   0.396   2.247   4.553
13879TIP3   OH241579   4.853   0.235   4.583
13879TIP3    H141580   4.896   0.319   4.569
13879TIP3    H241581   4.915   0.184   4.636
13880TIP3   OH241582   2.985   2.231   6.576
13880TIP3    H141583   2.948   2.308   6.532
13880TIP3    H241584   2.998   2.260   6.666
13881TIP3   OH241585   4.638   0.296   4.187
13881TIP3    H141586   4.678   0.238   4.252
13881TIP3    H241587   4.581   0.239   4.136
13882TIP3   OH241588   7.931   4.981   6.004
13882TIP3    H141589   7.935   4.916   6.074
13882TIP3    H241590   7.956   4.934   5.925
13883TIP3   OH241591   5.264   3.875   5.275
13883TIP3    H141592   5.334   3.809   5.272
13883TIP3    H241593   5.300   3.945   5.329
13884TIP3   OH241594   0.207   2.828   2.119
13884TIP3    H141595   0.294   2.799   2.145
13884TIP3    H241596   0.171   2.870   2.197
13885TIP3   OH241597   1.106   6.861   2.008
13885TIP3    H141598   1.166   6.799   2.049
13885TIP3    H241599   1.162   6.922   1.961
13886TIP3   OH241600   0.141   7.352   6.724
13886TIP3    H141601   0.048   7.362   6.708
13886TIP3    H241602   0.156   7.395   6.808
13887TIP3   OH241603   4.695   2.938   4.198
13887TIP3    H141604   4.776   2.941   4.147
13887TIP3    H241605   4.673   2.845   4.202
13888TIP3   OH241606   2.929   4.420   4.555
13888TIP3    H141607   2.926   4.494   4.615
13888TIP3    H241608   2.984   4.355   4.599
13889TIP3   OH241609   6.078   5.835   0.663
13889TIP3    H141610   6.031   5.907   0.623
13889TIP3    H241611   6.097   5.865   0.752
13890TIP3   OH241612   1.308   4.011   2.578
13890TIP3    H141613   1.394   4.051   2.585
13890TIP3    H241614   1.252   4.080   2.541
13891TIP3   OH241615   3.182   1.814   6.380
13891TIP3    H141616   3.090   1.832   6.398
13891TIP3    H241617   3.229   1.886   6.423
13892TIP3   OH241618   7.980   0.272   2.238
13892TIP3    H141619   8.009   0.317   2.159
13892TIP3    H241620   7.988   0.179   2.218
13893TIP3   OH241621   2.681   6.532   3.322
13893TIP3    H141622   2.747   6.477   3.364
13893TIP3    H241623   2.666   6.492   3.237
13894TIP3   OH241624   4.122   0.841   4.034
13894TIP3    H141625   4.216   0.848   4.020
13894TIP3    H241626   4.108   0.750   4.058
13895TIP3   OH241627   2.102   6.251   0.242
13895TIP3    H141628   2.064   6.327   0.286
13895TIP3    H241629   2.126   6.192   0.314
13896TIP3   OH241630   6.103   0.357   6.279
13896TIP3    H141631   6.058   0.349   6.195
13896TIP3    H241632   6.086   0.274   6.323
13897TIP3   OH241633   7.326   6.095   4.864
13897TIP3    H141634   7.302   6.118   4.775
13897TIP3    H241635   7.268   6.147   4.919
13898TIP3   OH241636   6.702   3.849   1.763
13898TIP3    H141637   6.652   3.772   1.736
13898TIP3    H241638   6.788   3.814   1.787
13899TIP3   OH241639   1.050   6.891   3.059
13899TIP3    H141640   0.991   6.820   3.083
13899TIP3    H241641   0.994   6.969   3.057
13900TIP3   OH241642   7.039   0.937   3.106
13900TIP3    H141643   7.098   0.903   3.173
13900TIP3    H241644   7.026   0.863   3.046
13901TIP3   OH241645   6.720   5.825   2.702
13901TIP3    H141646   6.683   5.798   2.619
13901TIP3    H241647   6.756   5.913   2.685
13902TIP3   OH241648   3.861   4.606   3.119
13902TIP3    H141649   3.925   4.542   3.088
13902TIP3    H241650   3.787   4.554   3.149
13903TIP3   OH241651   1.685   4.709   3.413
13903TIP3    H141652   1.596   4.710   3.448
13903TIP3    H241653   1.737   4.669   3.482
13904TIP3   OH241654   0.046   5.144   0.276
13904TIP3    H141655   0.089   5.222   0.243
13904TIP3    H241656   0.083   5.132   0.364
13905TIP3   OH241657   5.722   0.192   3.020
13905TIP3    H141658   5.779   0.116   3.010
13905TIP3    H241659   5.725   0.211   3.114
13906TIP3   OH241660   7.147   0.659   1.491
13906TIP3    H141661   7.056   0.667   1.519
13906TIP3    H241662   7.153   0.710   1.410
13907TIP3   OH241663   4.723   1.495   2.703
13907TIP3    H141664   4.637   1.519   2.669
13907TIP3    H241665   4.712   1.405   2.734
13908TIP3   OH241666   6.340   7.626   1.871
13908TIP3    H141667   6.296   7.672   1.943
13908TIP3    H241668   6.425   7.670   1.863
13909TIP3   OH241669   7.478   3.396   2.065
13909TIP3    H141670   7.475   3.321   2.006
13909TIP3    H241671   7.555   3.445   2.038
13910TIP3   OH241672   1.421   7.725   5.074
13910TIP3    H141673   1.415   7.736   4.979
13910TIP3    H241674   1.337   7.690   5.100
13911TIP3   OH241675   6.018   2.368   5.429
13911TIP3    H141676   6.061   2.452   5.414
13911TIP3    H241677   6.084   2.314   5.473
13912TIP3   OH241678   1.085   3.709   0.812
13912TIP3    H141679   1.132   3.691   0.893
13912TIP3    H241680   1.152   3.704   0.744
13913TIP3   OH241681   1.639   1.527   0.261
13913TIP3    H141682   1.700   1.593   0.294
13913TIP3    H241683   1.678   1.499   0.178
13914TIP3   OH241684   5.248   1.930   5.944
13914TIP3    H141685   5.229   2.017   5.980
13914TIP3    H241686   5.243   1.941   5.849
13915TIP3   OH241687   4.443   4.507   5.916
13915TIP3    H141688   4.426   4.429   5.864
13915TIP3    H241689   4.361   4.556   5.913
13916TIP3   OH241690   3.665   7.711   5.553
13916TIP3    H141691   3.622   7.653   5.490
13916TIP3    H241692   3.641   7.676   5.638
13917TIP3   OH241693   4.719   3.515   5.174
13917TIP3    H141694   4.643   3.563   5.141
13917TIP3    H241695   4.684   3.461   5.245
13918TIP3   OH241696   7.480   3.465   4.999
13918TIP3    H141697   7.519   3.549   4.977
13918TIP3    H241698   7.507   3.449   5.090
13919TIP3   OH241699   3.626   4.797   2.256
13919TIP3    H141700   3.636   4.777   2.162
13919TIP3    H241701   3.634   4.892   2.262
13920TIP3   OH241702   7.267   6.129   3.395
13920TIP3    H141703   7.250   6.043   3.356
13920TIP3    H241704   7.361   6.142   3.384
13921TIP3   OH241705   8.033   4.959   4.705
13921TIP3    H141706   8.085   5.035   4.733
13921TIP3    H241707   8.058   4.890   4.766
13922TIP3   OH241708   3.439   4.893   4.557
13922TIP3    H141709   3.422   4.807   4.518
13922TIP3    H241710   3.518   4.880   4.610
13923TIP3   OH241711   3.800   0.753   4.146
13923TIP3    H141712   3.848   0.684   4.101
13923TIP3    H241713   3.731   0.777   4.085
13924TIP3   OH241714   5.817   6.768   0.901
13924TIP3    H141715   5.840   6.846   0.851
13924TIP3    H241716   5.740   6.794   0.952
13925TIP3   OH241717   5.551   6.658   1.596
13925TIP3    H141718   5.481   6.700   1.547
13925TIP3    H241719   5.538   6.564   1.580
13926TIP3   OH241720   1.682   3.693   4.572
13926TIP3    H141721   1.637   3.741   4.502
13926TIP3    H241722   1.690   3.756   4.643
13927TIP3   OH241723   4.622   6.437   1.783
13927TIP3    H141724   4.583   6.520   1.753
13927TIP3    H241725   4.556   6.399   1.841
13928TIP3   OH241726   6.064   4.761   3.554
13928TIP3    H141727   6.105   4.752   3.468
13928TIP3    H241728   6.091   4.683   3.602
13929TIP3   OH241729   1.005   6.820   3.436
13929TIP3    H141730   0.976   6.883   3.502
13929TIP3    H241731   0.929   6.812   3.377
13930TIP3   OH241732   8.198   5.162   5.890
13930TIP3    H141733   8.142   5.152   5.968
13930TIP3    H241734   8.278   5.202   5.923
13931TIP3   OH241735   2.298   6.379   3.690
13931TIP3    H141736   2.243   6.378   3.768
13931TIP3    H241737   2.238   6.396   3.618
13932TIP3   OH241738   2.374   2.449   3.994
13932TIP3    H141739   2.325   2.372   3.964
13932TIP3    H241740   2.380   2.505   3.917
13933TIP3   OH241741   7.574   4.679   0.245
13933TIP3    H141742   7.651   4.736   0.240
13933TIP3    H241743   7.501   4.737   0.224
13934TIP3   OH241744   0.995   2.745   6.271
13934TIP3    H141745   1.056   2.778   6.204
13934TIP3    H241746   1.044   2.677   6.316
13935TIP3   OH241747   5.320   6.691   4.448
13935TIP3    H141748   5.305   6.773   4.495
13935TIP3    H241749   5.342   6.718   4.359
13936TIP3   OH241750  -0.020   1.686   1.081
13936TIP3    H141751  -0.021   1.641   1.166
13936TIP3    H241752   0.068   1.668   1.046
13937TIP3   OH241753   2.271   0.886   1.814
13937TIP3    H141754   2.220   0.829   1.757
13937TIP3    H241755   2.360   0.882   1.779
13938TIP3   OH241756   4.776   2.245   4.779
13938TIP3    H141757   4.736   2.328   4.753
13938TIP3    H241758   4.859   2.243   4.731
13939TIP3   OH241759   4.148   3.940   3.863
13939TIP3    H141760   4.093   3.875   3.820
13939TIP3    H241761   4.189   3.988   3.791
13940TIP3   OH241762   1.862   6.932   0.398
13940TIP3    H141763   1.948   6.945   0.359
13940TIP3    H241764   1.801   6.938   0.325
13941TIP3   OH241765   6.942   5.058   1.935
13941TIP3    H141766   6.946   5.134   1.878
13941TIP3    H241767   6.925   5.094   2.022
13942TIP3   OH241768   3.862   5.711   1.570
13942TIP3    H141769   3.828   5.624   1.549
13942TIP3    H241770   3.932   5.694   1.634
13943TIP3   OH241771   5.473   4.200   1.939
13943TIP3    H141772   5.392   4.247   1.921
13943TIP3    H241773   5.482   4.202   2.035
13944TIP3   OH241774   7.108   7.093   4.747
13944TIP3    H141775   7.124   7.017   4.803
13944TIP3    H241776   7.122   7.168   4.804
13945TIP3   OH241777   3.846   2.391   5.438
13945TIP3    H141778   3.913   2.323   5.438
13945TIP3    H241779   3.764   2.343   5.424
13946TIP3   OH241780   7.019   6.675   2.194
13946TIP3    H141781   7.062   6.700   2.275
13946TIP3    H241782   7.015   6.756   2.143
13947TIP3   OH241783   4.507   6.429   1.388
13947TIP3    H141784   4.540   6.490   1.323
13947TIP3    H241785   4.486   6.483   1.464
13948TIP3   OH241786   4.453   6.312   5.745
13948TIP3    H141787   4.382   6.299   5.808
13948TIP3    H241788   4.481   6.224   5.721
13949TIP3   OH241789   7.512   1.214   2.304
13949TIP3    H141790   7.484   1.290   2.253
13949TIP3    H241791   7.453   1.144   2.275
13950TIP3   OH241792   5.573   3.508   4.574
13950TIP3    H141793   5.500   3.507   4.636
13950TIP3    H241794   5.592   3.601   4.562
13951TIP3   OH241795   7.755   3.104   2.997
13951TIP3    H141796   7.681   3.058   2.958
13951TIP3    H241797   7.817   3.035   3.020
13952TIP3   OH241798   2.113   6.466   3.891
13952TIP3    H141799   2.127   6.545   3.839
13952TIP3    H241800   2.053   6.413   3.840
13953TIP3   OH241801   0.820   7.733   1.922
13953TIP3    H141802   0.747   7.679   1.952
13953TIP3    H241803   0.892   7.671   1.908
13954TIP3   OH241804   4.051   0.510   2.568
13954TIP3    H141805   3.975   0.557   2.534
13954TIP3    H241806   4.021   0.419   2.578
13955TIP3   OH241807   3.737   1.347   3.687
13955TIP3    H141808   3.651   1.309   3.667
13955TIP3    H241809   3.761   1.395   3.608
13956TIP3   OH241810   5.790   4.399   2.355
13956TIP3    H141811   5.698   4.377   2.370
13956TIP3    H241812   5.828   4.405   2.442
13957TIP3   OH241813   1.744   2.186   0.599
13957TIP3    H141814   1.801   2.230   0.663
13957TIP3    H241815   1.805   2.139   0.542
13958TIP3   OH241816   6.379   2.769   3.239
13958TIP3    H141817   6.330   2.698   3.281
13958TIP3    H241818   6.315   2.839   3.229
13959TIP3   OH241819   2.835   0.586   1.681
13959TIP3    H141820   2.915   0.611   1.727
13959TIP3    H241821   2.866   0.547   1.599
13960TIP3   OH241822   6.772   4.665   3.262
13960TIP3    H141823   6.795   4.745   3.214
13960TIP3    H241824   6.850   4.610   3.254
13961TIP3   OH241825   7.643   4.923   4.689
13961TIP3    H141826   7.669   4.873   4.611
13961TIP3    H241827   7.663   4.866   4.762
13962TIP3   OH241828   2.396   1.882   0.113
13962TIP3    H141829   2.438   1.905   0.196
13962TIP3    H241830   2.448   1.925   0.046
13963TIP3   OH241831   1.193   7.460   1.353
13963TIP3    H141832   1.136   7.535   1.336
13963TIP3    H241833   1.133   7.388   1.376
13964TIP3   OH241834   6.001   0.358   4.277
13964TIP3    H141835   6.060   0.394   4.211
13964TIP3    H241836   5.956   0.286   4.233
13965TIP3   OH241837   2.643   4.309   5.769
13965TIP3    H141838   2.646   4.404   5.775
13965TIP3    H241839   2.552   4.289   5.748
13966TIP3   OH241840   0.175   4.414   1.382
13966TIP3    H141841   0.200   4.498   1.343
13966TIP3    H241842   0.088   4.429   1.418
13967TIP3   OH241843   4.866   3.645   0.150
13967TIP3    H141844   4.819   3.655   0.068
13967TIP3    H241845   4.953   3.613   0.125
13968TIP3   OH241846   7.970   4.749   6.735
13968TIP3    H141847   7.975   4.759   6.830
13968TIP3    H241848   7.898   4.688   6.721
13969TIP3   OH241849   4.858   3.974   1.274
13969TIP3    H141850   4.818   4.028   1.206
13969TIP3    H241851   4.844   3.884   1.244
13970TIP3   OH241852   0.132   2.607   5.243
13970TIP3    H141853   0.097   2.528   5.202
13970TIP3    H241854   0.187   2.575   5.314
13971TIP3   OH241855   5.878   4.608   1.144
13971TIP3    H141856   5.924   4.572   1.068
13971TIP3    H241857   5.943   4.611   1.213
13972TIP3   OH241858   6.167   6.838   0.198
13972TIP3    H141859   6.132   6.916   0.156
13972TIP3    H241860   6.115   6.766   0.163
13973TIP3   OH241861   6.092   1.036   6.295
13973TIP3    H141862   6.120   1.117   6.250
13973TIP3    H241863   6.030   0.996   6.235
13974TIP3   OH241864   1.129   3.055   4.970
13974TIP3    H141865   1.177   3.122   4.921
13974TIP3    H241866   1.135   2.976   4.916
13975TIP3   OH241867   6.289   4.852   4.499
13975TIP3    H141868   6.347   4.923   4.528
13975TIP3    H241869   6.216   4.897   4.456
13976TIP3   OH241870   3.876   1.190   0.495
13976TIP3    H141871   3.849   1.100   0.479
13976TIP3    H241872   3.894   1.193   0.589
13977TIP3   OH241873   5.135   6.620   3.839
13977TIP3    H141874   5.195   6.653   3.907
13977TIP3    H241875   5.050   6.617   3.881
13978TIP3   OH241876   4.121   0.181   1.602
13978TIP3    H141877   4.068   0.105   1.580
13978TIP3    H241878   4.070   0.256   1.569
13979TIP3   OH241879   3.676   5.574   5.284
13979TIP3    H141880   3.654   5.666   5.300
13979TIP3    H241881   3.732   5.575   5.206
13980TIP3   OH241882   6.850   3.230   5.358
13980TIP3    H141883   6.905   3.151   5.354
13980TIP3    H241884   6.784   3.216   5.291
13981TIP3   OH241885   4.548   0.042   1.697
13981TIP3    H141886   4.541   0.136   1.713
13981TIP3    H241887   4.641   0.027   1.680
13982TIP3   OH241888   7.422   1.559   6.035
13982TIP3    H141889   7.495   1.504   6.064
13982TIP3    H241890   7.381   1.589   6.116
13983TIP3   OH241891   5.110   5.294   5.548
13983TIP3    H141892   5.137   5.248   5.469
13983TIP3    H241893   5.190   5.302   5.600
13984TIP3   OH241894   6.229   1.239   2.858
13984TIP3    H141895   6.229   1.334   2.852
13984TIP3    H241896   6.300   1.211   2.800
13985TIP3   OH241897   3.809   6.942   6.420
13985TIP3    H141898   3.897   6.965   6.390
13985TIP3    H241899   3.819   6.923   6.513
13986TIP3   OH241900   4.005   4.487   5.583
13986TIP3    H141901   3.985   4.510   5.492
13986TIP3    H241902   3.993   4.569   5.631
13987TIP3   OH241903   7.382   6.479   6.024
13987TIP3    H141904   7.368   6.558   6.076
13987TIP3    H241905   7.474   6.457   6.037
13988TIP3   OH241906   2.703   0.956   3.282
13988TIP3    H141907   2.715   1.025   3.216
13988TIP3    H241908   2.664   0.883   3.233
13989TIP3   OH241909   4.404   7.202   6.635
13989TIP3    H141910   4.310   7.210   6.650
13989TIP3    H241911   4.439   7.168   6.718
13990TIP3   OH241912   3.096   4.366   1.428
13990TIP3    H141913   3.163   4.299   1.416
13990TIP3    H241914   3.054   4.374   1.342
13991TIP3   OH241915   5.228   2.763   5.943
13991TIP3    H141916   5.151   2.758   6.000
13991TIP3    H241917   5.273   2.679   5.956
13992TIP3   OH241918   3.690   7.187   6.141
13992TIP3    H141919   3.754   7.253   6.170
13992TIP3    H241920   3.646   7.228   6.067
13993TIP3   OH241921   6.364   2.200   0.515
13993TIP3    H141922   6.341   2.116   0.554
13993TIP3    H241923   6.458   2.209   0.530
13994TIP3   OH241924   8.045   0.229   0.982
13994TIP3    H141925   7.958   0.265   0.995
13994TIP3    H241926   8.092   0.296   0.932
13995TIP3   OH241927   0.123   6.542   4.617
13995TIP3    H141928   0.046   6.553   4.673
13995TIP3    H241929   0.128   6.623   4.567
13996TIP3   OH241930   1.895   4.217   1.257
13996TIP3    H141931   1.858   4.129   1.266
13996TIP3    H241932   1.989   4.201   1.248
13997TIP3   OH241933   0.884   0.787   5.893
13997TIP3    H141934   0.865   0.878   5.919
13997TIP3    H241935   0.918   0.747   5.973
13998TIP3   OH241936   1.199   3.034   3.625
13998TIP3    H141937   1.103   3.038   3.624
13998TIP3    H241938   1.225   3.093   3.554
13999TIP3   OH241939   2.111   6.634   0.001
13999TIP3    H141940   2.097   6.654   0.094
13999TIP3    H241941   2.197   6.592  -0.001
14000TIP3   OH241942   6.618   7.381   3.925
14000TIP3    H141943   6.538   7.335   3.896
14000TIP3    H241944   6.586   7.459   3.969
14001TIP3   OH241945   6.817   3.330   2.833
14001TIP3    H141946   6.759   3.271   2.881
14001TIP3    H241947   6.864   3.273   2.772
14002TIP3   OH241948   0.352   6.080   2.916
14002TIP3    H141949   0.322   6.167   2.943
14002TIP3    H241950   0.272   6.031   2.899
14003TIP3   OH241951   4.884   3.550   3.548
14003TIP3    H141952   4.804   3.591   3.515
14003TIP3    H241953   4.857   3.502   3.626
14004TIP3   OH241954   2.753   0.998   3.874
14004TIP3    H141955   2.798   1.078   3.902
14004TIP3    H241956   2.662   1.025   3.860
14005TIP3   OH241957   5.007   5.651   2.235
14005TIP3    H141958   4.974   5.636   2.146
14005TIP3    H241959   5.099   5.674   2.223
14006TIP3   OH241960   3.676   1.201   0.924
14006TIP3    H141961   3.653   1.287   0.890
14006TIP3    H241962   3.765   1.185   0.891
14007TIP3   OH241963   2.834   0.384   0.820
14007TIP3    H141964   2.927   0.400   0.835
14007TIP3    H241965   2.790   0.452   0.871
14008TIP3   OH241966   1.166   6.232   5.560
14008TIP3    H141967   1.231   6.269   5.500
14008TIP3    H241968   1.213   6.161   5.604
14009TIP3   OH241969   4.055   2.600   5.782
14009TIP3    H141970   4.108   2.551   5.719
14009TIP3    H241971   4.069   2.554   5.865
14010TIP3   OH241972   1.930   6.647   5.564
14010TIP3    H141973   1.937   6.552   5.569
14010TIP3    H241974   1.962   6.670   5.477
14011TIP3   OH241975   7.367   7.330   5.043
14011TIP3    H141976   7.397   7.411   5.000
14011TIP3    H241977   7.272   7.329   5.027
14012TIP3   OH241978   6.688   2.762   0.675
14012TIP3    H141979   6.700   2.856   0.668
14012TIP3    H241980   6.644   2.750   0.759
14013TIP3   OH241981   4.795   1.890   1.196
14013TIP3    H141982   4.799   1.836   1.117
14013TIP3    H241983   4.733   1.844   1.252
14014TIP3   OH241984   3.491   0.536   5.698
14014TIP3    H141985   3.528   0.624   5.700
14014TIP3    H241986   3.482   0.516   5.605
14015TIP3   OH241987   1.974   5.467   0.287
14015TIP3    H141988   2.011   5.527   0.351
14015TIP3    H241989   2.048   5.442   0.232
14016TIP3   OH241990   5.286   6.844   3.682
14016TIP3    H141991   5.257   6.849   3.591
14016TIP3    H241992   5.378   6.872   3.680
14017TIP3   OH241993   8.056   0.698   0.942
14017TIP3    H141994   8.082   0.735   0.857
14017TIP3    H241995   7.979   0.645   0.922
14018TIP3   OH241996   8.222   4.885   6.727
14018TIP3    H141997   8.145   4.834   6.752
14018TIP3    H241998   8.206   4.972   6.764
14019TIP3   OH241999   6.616   2.706   2.892
14019TIP3    H142000   6.694   2.668   2.852
14019TIP3    H242001   6.542   2.664   2.847
14020TIP3   OH242002   5.602   1.583   6.765
14020TIP3    H142003   5.637   1.494   6.766
14020TIP3    H242004   5.508   1.571   6.746
14021TIP3   OH242005   6.382   1.556   4.553
14021TIP3    H142006   6.395   1.469   4.516
14021TIP3    H242007   6.469   1.596   4.552
14022TIP3   OH242008   3.576   0.363   5.898
14022TIP3    H142009   3.558   0.420   5.823
14022TIP3    H242010   3.603   0.280   5.859
14023TIP3   OH242011   8.170   7.039   5.292
14023TIP3    H142012   8.102   6.983   5.253
14023TIP3    H242013   8.206   7.087   5.218
14024TIP3   OH242014   7.133   5.974   5.698
14024TIP3    H142015   7.205   5.919   5.666
14024TIP3    H242016   7.146   6.058   5.654
14025TIP3   OH242017   4.951   7.510   2.330
14025TIP3    H142018   5.036   7.553   2.326
14025TIP3    H242019   4.903   7.556   2.399
14026TIP3   OH242020   6.648   1.703   2.960
14026TIP3    H142021   6.603   1.780   2.996
14026TIP3    H242022   6.741   1.725   2.967
14027TIP3   OH242023   1.249   3.348   5.764
14027TIP3    H142024   1.210   3.318   5.682
14027TIP3    H242025   1.175   3.355   5.824
14028TIP3   OH242026   3.650   5.382   3.410
14028TIP3    H142027   3.704   5.444   3.361
14028TIP3    H242028   3.601   5.335   3.342
14029TIP3   OH242029   6.534   0.058   1.114
14029TIP3    H142030   6.442   0.037   1.127
14029TIP3    H242031   6.549   0.041   1.021
14030TIP3   OH242032   6.763   6.290   6.053
14030TIP3    H142033   6.784   6.372   6.009
14030TIP3    H242034   6.762   6.224   5.984
14031TIP3   OH242035   0.218   0.878   0.369
14031TIP3    H142036   0.290   0.941   0.356
14031TIP3    H242037   0.241   0.805   0.311
14032TIP3   OH242038   5.309   0.222   5.962
14032TIP3    H142039   5.324   0.312   5.933
14032TIP3    H242040   5.245   0.230   6.033
14033TIP3   OH242041   4.193   2.445   4.456
14033TIP3    H142042   4.170   2.444   4.363
14033TIP3    H242043   4.117   2.407   4.499
14034TIP3   OH242044   7.973   7.617   2.174
14034TIP3    H142045   7.916   7.555   2.217
14034TIP3    H242046   7.915   7.688   2.145
14035TIP3   OH242047   3.829   5.054   1.877
14035TIP3    H142048   3.883   5.129   1.853
14035TIP3    H242049   3.744   5.092   1.900
14036TIP3   OH242050   1.666   6.810   6.111
14036TIP3    H142051   1.592   6.870   6.119
14036TIP3    H242052   1.629   6.733   6.068
14037TIP3   OH242053   4.961   5.293   6.747
14037TIP3    H142054   4.955   5.387   6.765
14037TIP3    H242055   4.989   5.288   6.656
14038TIP3   OH242056   0.883   4.536   6.443
14038TIP3    H142057   0.969   4.503   6.415
14038TIP3    H242058   0.827   4.526   6.366
14039TIP3   OH242059   6.146   5.675   1.580
14039TIP3    H142060   6.163   5.598   1.526
14039TIP3    H242061   6.051   5.676   1.589
14040TIP3   OH242062   5.379   6.989   0.464
14040TIP3    H142063   5.403   6.898   0.445
14040TIP3    H242064   5.284   6.992   0.447
14041TIP3   OH242065   2.745   1.382   3.859
14041TIP3    H142066   2.696   1.362   3.939
14041TIP3    H242067   2.836   1.392   3.889
14042TIP3   OH242068   3.368   4.680   0.669
14042TIP3    H142069   3.450   4.723   0.692
14042TIP3    H242070   3.310   4.700   0.742
14043TIP3   OH242071   3.441   5.920   5.474
14043TIP3    H142072   3.420   5.843   5.527
14043TIP3    H242073   3.510   5.891   5.415
14044TIP3   OH242074   6.471   6.175   5.291
14044TIP3    H142075   6.512   6.189   5.377
14044TIP3    H242076   6.442   6.084   5.293
14045TIP3   OH242077   7.994   2.364   4.701
14045TIP3    H142078   7.967   2.406   4.782
14045TIP3    H242079   7.931   2.396   4.636
14046TIP3   OH242080   0.623   2.860   3.430
14046TIP3    H142081   0.714   2.875   3.457
14046TIP3    H242082   0.631   2.818   3.345
14047TIP3   OH242083   6.754   4.437   3.625
14047TIP3    H142084   6.827   4.461   3.682
14047TIP3    H242085   6.676   4.446   3.680
14048TIP3   OH242086   4.150   3.948   6.232
14048TIP3    H142087   4.080   4.013   6.234
14048TIP3    H242088   4.205   3.974   6.158
14049TIP3   OH242089   2.642   3.459   6.480
14049TIP3    H142090   2.569   3.396   6.479
14049TIP3    H242091   2.720   3.405   6.470
14050TIP3   OH242092   4.107   6.862   5.097
14050TIP3    H142093   4.066   6.867   5.183
14050TIP3    H242094   4.194   6.826   5.113
14051TIP3   OH242095   5.613   2.421   4.143
14051TIP3    H142096   5.523   2.408   4.172
14051TIP3    H242097   5.666   2.401   4.221
14052TIP3   OH242098   6.246   6.928   2.311
14052TIP3    H142099   6.195   6.977   2.376
14052TIP3    H242100   6.209   6.839   2.314
14053TIP3   OH242101   6.656   0.664   3.604
14053TIP3    H142102   6.743   0.629   3.623
14053TIP3    H242103   6.605   0.645   3.682
14054TIP3   OH242104   6.332   3.600   5.041
14054TIP3    H142105   6.403   3.645   4.996
14054TIP3    H242106   6.374   3.524   5.081
14055TIP3   OH242107   6.951   5.255   0.996
14055TIP3    H142108   6.978   5.184   0.938
14055TIP3    H242109   6.868   5.226   1.032
14056TIP3   OH242110   3.794   7.586   0.464
14056TIP3    H142111   3.730   7.656   0.447
14056TIP3    H242112   3.876   7.619   0.428
14057TIP3   OH242113   5.766   3.515   6.069
14057TIP3    H142114   5.737   3.543   6.156
14057TIP3    H242115   5.795   3.424   6.082
14058TIP3   OH242116   3.032   3.908   0.562
14058TIP3    H142117   3.125   3.909   0.538
14058TIP3    H242118   3.019   3.988   0.612
14059TIP3   OH242119   0.081   1.486   1.743
14059TIP3    H142120   0.066   1.489   1.837
14059TIP3    H242121  -0.006   1.476   1.705
14060TIP3   OH242122   2.936   7.758   4.016
14060TIP3    H142123   2.893   7.839   3.988
14060TIP3    H242124   2.864   7.695   4.024
14061TIP3   OH242125   5.691   5.812   2.907
14061TIP3    H142126   5.675   5.803   3.001
14061TIP3    H242127   5.621   5.761   2.866
14062TIP3   OH242128   3.734   0.058   0.697
14062TIP3    H142129   3.744   0.043   0.791
14062TIP3    H242130   3.815   0.024   0.659
14063TIP3   OH242131   7.718   0.428   4.212
14063TIP3    H142132   7.776   0.491   4.168
14063TIP3    H242133   7.653   0.405   4.146
14064TIP3   OH242134   0.594   0.664   3.135
14064TIP3    H142135   0.613   0.741   3.189
14064TIP3    H242136   0.657   0.598   3.164
14065TIP3   OH242137   3.373   3.573   3.651
14065TIP3    H142138   3.460   3.556   3.689
14065TIP3    H242139   3.316   3.586   3.727
14066TIP3   OH242140   7.169   7.190   0.027
14066TIP3    H142141   7.106   7.120   0.007
14066TIP3    H242142   7.131   7.269  -0.012
14067TIP3   OH242143   2.708   0.560   2.069
14067TIP3    H142144   2.682   0.613   1.994
14067TIP3    H242145   2.764   0.619   2.121
14068TIP3   OH242146   4.487   7.145   1.741
14068TIP3    H142147   4.393   7.135   1.721
14068TIP3    H242148   4.511   7.063   1.783
14069TIP3   OH242149   3.078   5.245   0.672
14069TIP3    H142150   3.165   5.255   0.710
14069TIP3    H242151   3.081   5.298   0.592
14070TIP3   OH242152   3.757   0.282   5.071
14070TIP3    H142153   3.771   0.343   5.143
14070TIP3    H242154   3.830   0.220   5.078
14071TIP3   OH242155   3.056   2.660   3.738
14071TIP3    H142156   3.036   2.671   3.645
14071TIP3    H242157   3.040   2.746   3.777
14072TIP3   OH242158   3.378   4.565   1.706
14072TIP3    H142159   3.293   4.575   1.663
14072TIP3    H242160   3.442   4.584   1.638
14073TIP3   OH242161   4.124   5.506   2.667
14073TIP3    H142162   4.139   5.412   2.664
14073TIP3    H242163   4.082   5.527   2.584
14074TIP3   OH242164   7.551   7.549   5.724
14074TIP3    H142165   7.545   7.630   5.775
14074TIP3    H242166   7.597   7.575   5.644
14075TIP3   OH242167   2.529   5.276   3.533
14075TIP3    H142168   2.491   5.359   3.561
14075TIP3    H242169   2.579   5.246   3.609
14076TIP3   OH242170   5.010   0.175   3.141
14076TIP3    H142171   5.014   0.146   3.050
14076TIP3    H242172   5.044   0.101   3.191
14077TIP3   OH242173   5.851   0.192   1.422
14077TIP3    H142174   5.943   0.166   1.412
14077TIP3    H242175   5.848   0.238   1.506
14078TIP3   OH242176   1.269   7.494   2.251
14078TIP3    H142177   1.331   7.424   2.229
14078TIP3    H242178   1.256   7.486   2.345
14079TIP3   OH242179   0.549   6.065   2.375
14079TIP3    H142180   0.602   5.987   2.391
14079TIP3    H242181   0.503   6.080   2.457
14080TIP3   OH242182   6.188   0.750   2.317
14080TIP3    H142183   6.167   0.834   2.358
14080TIP3    H242184   6.263   0.770   2.260
14081TIP3   OH242185   5.147   5.701   2.557
14081TIP3    H142186   5.223   5.658   2.519
14081TIP3    H242187   5.140   5.784   2.510
14082TIP3   OH242188   2.440   5.531   4.145
14082TIP3    H142189   2.447   5.560   4.054
14082TIP3    H242190   2.527   5.544   4.181
14083TIP3   OH242191   4.618   1.846   0.126
14083TIP3    H142192   4.670   1.787   0.181
14083TIP3    H242193   4.673   1.861   0.049
14084TIP3   OH242194   8.177   6.574   6.755
14084TIP3    H142195   8.090   6.545   6.725
14084TIP3    H242196   8.238   6.526   6.700
14085TIP3   OH242197   5.055   0.528   0.356
14085TIP3    H142198   5.087   0.551   0.268
14085TIP3    H242199   5.130   0.486   0.398
14086TIP3   OH242200   7.089   5.083   3.708
14086TIP3    H142201   6.998   5.106   3.691
14086TIP3    H242202   7.107   5.118   3.796
14087TIP3   OH242203   8.281   0.336   0.219
14087TIP3    H142204   8.294   0.297   0.306
14087TIP3    H242205   8.215   0.404   0.233
14088TIP3   OH242206   4.288   2.365   3.386
14088TIP3    H142207   4.374   2.337   3.416
14088TIP3    H242208   4.295   2.369   3.291
14089TIP3   OH242209   7.656   5.890   5.445
14089TIP3    H142210   7.675   5.805   5.405
14089TIP3    H242211   7.742   5.923   5.473
14090TIP3   OH242212   7.465   4.803   3.192
14090TIP3    H142213   7.456   4.724   3.246
14090TIP3    H242214   7.394   4.860   3.220
14091TIP3   OH242215   1.451   6.505   3.801
14091TIP3    H142216   1.387   6.461   3.746
14091TIP3    H242217   1.401   6.537   3.876
14092TIP3   OH242218   6.500   6.752   1.756
14092TIP3    H142219   6.488   6.847   1.755
14092TIP3    H242220   6.476   6.726   1.844
14093TIP3   OH242221   5.863   3.577   0.857
14093TIP3    H142222   5.823   3.659   0.886
14093TIP3    H242223   5.791   3.526   0.821
14094TIP3   OH242224   2.921   1.573   6.211
14094TIP3    H142225   3.012   1.544   6.205
14094TIP3    H242226   2.913   1.642   6.146
14095TIP3   OH242227   6.244   7.013   5.871
14095TIP3    H142228   6.294   6.931   5.870
14095TIP3    H242229   6.309   7.081   5.858
14096TIP3   OH242230   6.043   0.123   3.092
14096TIP3    H142231   6.079   0.148   3.007
14096TIP3    H242232   6.061   0.197   3.149
14097TIP3   OH242233   1.965   3.092   3.112
14097TIP3    H142234   1.910   3.147   3.167
14097TIP3    H242235   1.974   3.141   3.030
14098TIP3   OH242236   6.488   1.906   3.068
14098TIP3    H142237   6.432   1.943   3.000
14098TIP3    H242238   6.444   1.928   3.150
14099TIP3   OH242239   1.973   3.063   1.108
14099TIP3    H142240   1.936   3.091   1.192
14099TIP3    H242241   1.941   2.974   1.096
14100TIP3   OH242242   2.841   0.639   6.085
14100TIP3    H142243   2.776   0.703   6.057
14100TIP3    H242244   2.817   0.618   6.175
14101TIP3   OH242245   3.749   5.826   1.145
14101TIP3    H142246   3.678   5.773   1.109
14101TIP3    H242247   3.707   5.878   1.214
14102TIP3   OH242248   1.960   0.925   2.466
14102TIP3    H142249   1.877   0.878   2.466
14102TIP3    H242250   1.965   0.965   2.553
14103TIP3   OH242251   3.788   2.673   1.015
14103TIP3    H142252   3.713   2.681   1.073
14103TIP3    H242253   3.861   2.712   1.064
14104TIP3   OH242254   7.854   2.817   4.225
14104TIP3    H142255   7.860   2.742   4.284
14104TIP3    H242256   7.883   2.891   4.277
14105TIP3   OH242257   4.725   6.151   3.094
14105TIP3    H142258   4.812   6.110   3.088
14105TIP3    H242259   4.664   6.078   3.102
14106TIP3   OH242260   7.621   6.995   3.729
14106TIP3    H142261   7.629   7.086   3.755
14106TIP3    H242262   7.612   6.998   3.634
14107TIP3   OH242263   0.493   7.716   0.022
14107TIP3    H142264   0.535   7.797  -0.003
14107TIP3    H242265   0.547   7.647  -0.016
14108TIP3   OH242266   6.708   5.664   6.527
14108TIP3    H142267   6.722   5.711   6.445
14108TIP3    H242268   6.613   5.666   6.540
14109TIP3   OH242269   0.504   6.797   0.317
14109TIP3    H142270   0.588   6.841   0.331
14109TIP3    H242271   0.518   6.708   0.351
14110TIP3   OH242272   2.946   4.172   0.981
14110TIP3    H142273   2.852   4.168   0.964
14110TIP3    H242274   2.987   4.169   0.894
14111TIP3   OH242275   5.402   2.164   4.888
14111TIP3    H142276   5.325   2.112   4.907
14111TIP3    H242277   5.425   2.206   4.971
14112TIP3   OH242278   6.800   6.124   0.287
14112TIP3    H142279   6.729   6.071   0.322
14112TIP3    H242280   6.764   6.163   0.207
14113TIP3   OH242281   6.493   1.398   6.099
14113TIP3    H142282   6.476   1.351   6.017
14113TIP3    H242283   6.515   1.329   6.162
14114TIP3   OH242284   0.773   6.873   1.732
14114TIP3    H142285   0.733   6.844   1.650
14114TIP3    H242286   0.840   6.808   1.750
14115TIP3   OH242287   0.119   7.876   2.062
14115TIP3    H142288   0.158   7.916   1.984
14115TIP3    H242289   0.187   7.816   2.093
14116TIP3   OH242290   2.779   5.303   2.699
14116TIP3    H142291   2.743   5.250   2.771
14116TIP3    H242292   2.871   5.317   2.724
14117TIP3   OH242293   7.457   6.501   1.662
14117TIP3    H142294   7.426   6.591   1.675
14117TIP3    H242295   7.528   6.491   1.726
14118TIP3   OH242296   0.925   3.667   4.068
14118TIP3    H142297   0.923   3.691   4.160
14118TIP3    H242298   1.011   3.699   4.037
14119TIP3   OH242299   2.067   3.898   2.442
14119TIP3    H142300   1.981   3.922   2.474
14119TIP3    H242301   2.051   3.820   2.388
14120TIP3   OH242302   7.278   2.184   2.274
14120TIP3    H142303   7.215   2.173   2.345
14120TIP3    H242304   7.302   2.095   2.249
14121TIP3   OH242305   2.732   7.003   3.574
14121TIP3    H142306   2.808   7.059   3.559
14121TIP3    H242307   2.769   6.914   3.580
14122TIP3   OH242308   5.105   1.693   3.121
14122TIP3    H142309   5.012   1.709   3.103
14122TIP3    H242310   5.120   1.603   3.091
14123TIP3   OH242311   3.974   4.380   0.387
14123TIP3    H142312   4.029   4.301   0.386
14123TIP3    H242313   4.004   4.429   0.464
14124TIP3   OH242314   5.964   1.669   6.743
14124TIP3    H142315   5.919   1.745   6.706
14124TIP3    H242316   5.914   1.648   6.822
14125TIP3   OH242317   7.639   0.195   6.415
14125TIP3    H142318   7.703   0.140   6.460
14125TIP3    H242319   7.657   0.182   6.322
14126TIP3   OH242320   0.765   6.467   5.125
14126TIP3    H142321   0.678   6.431   5.142
14126TIP3    H242322   0.753   6.525   5.050
14127TIP3   OH242323   8.007   3.257   3.368
14127TIP3    H142324   7.971   3.317   3.434
14127TIP3    H242325   8.100   3.279   3.365
14128TIP3   OH242326   2.579   5.628   6.382
14128TIP3    H142327   2.505   5.662   6.333
14128TIP3    H242328   2.596   5.694   6.450
14129TIP3   OH242329   2.008   3.869   4.575
14129TIP3    H142330   1.998   3.963   4.562
14129TIP3    H242331   2.001   3.832   4.488
14130TIP3   OH242332   2.119   4.865   6.102
14130TIP3    H142333   2.132   4.922   6.177
14130TIP3    H242334   2.194   4.881   6.045
14131TIP3   OH242335   3.265   0.572   5.863
14131TIP3    H142336   3.341   0.571   5.804
14131TIP3    H242337   3.245   0.665   5.873
14132TIP3   OH242338   6.619   0.705   4.742
14132TIP3    H142339   6.577   0.784   4.778
14132TIP3    H242340   6.624   0.723   4.648
14133TIP3   OH242341   3.598   0.976   0.773
14133TIP3    H142342   3.597   1.070   0.790
14133TIP3    H242343   3.610   0.936   0.859
14134TIP3   OH242344   0.451   6.569   2.258
14134TIP3    H142345   0.415   6.649   2.296
14134TIP3    H242346   0.415   6.499   2.312
14135TIP3   OH242347   7.879   5.881   2.677
14135TIP3    H142348   7.886   5.859   2.584
14135TIP3    H242349   7.788   5.909   2.688
14136TIP3   OH242350   0.626   5.661   4.561
14136TIP3    H142351   0.619   5.573   4.599
14136TIP3    H242352   0.672   5.712   4.627
14137TIP3   OH242353   4.588   2.316   6.558
14137TIP3    H142354   4.592   2.231   6.516
14137TIP3    H242355   4.506   2.355   6.525
14138TIP3   OH242356   5.894   0.153   0.213
14138TIP3    H142357   5.946   0.081   0.249
14138TIP3    H242358   5.938   0.174   0.130
14139TIP3   OH242359   0.722   3.503   5.667
14139TIP3    H142360   0.656   3.544   5.722
14139TIP3    H242361   0.744   3.570   5.603
14140TIP3   OH242362   1.927   7.368   0.520
14140TIP3    H142363   1.974   7.290   0.551
14140TIP3    H242364   1.993   7.436   0.519
14141TIP3   OH242365   4.809   2.601   6.266
14141TIP3    H142366   4.748   2.659   6.221
14141TIP3    H242367   4.768   2.515   6.260
14142TIP3   OH242368   2.573   0.307   2.769
14142TIP3    H142369   2.620   0.232   2.805
14142TIP3    H242370   2.522   0.272   2.696
14143TIP3   OH242371   2.767   4.030   3.131
14143TIP3    H142372   2.678   3.995   3.139
14143TIP3    H242373   2.824   3.958   3.158
14144TIP3   OH242374   0.870   3.452   6.773
14144TIP3    H142375   0.862   3.381   6.710
14144TIP3    H242376   0.825   3.420   6.852
14145TIP3   OH242377   1.681   3.193   4.265
14145TIP3    H142378   1.628   3.264   4.302
14145TIP3    H242379   1.771   3.224   4.272
14146TIP3   OH242380   6.493   5.097   0.329
14146TIP3    H142381   6.492   5.016   0.380
14146TIP3    H242382   6.461   5.072   0.243
14147TIP3   OH242383   5.275   2.552   6.366
14147TIP3    H142384   5.180   2.556   6.377
14147TIP3    H242385   5.297   2.630   6.315
14148TIP3   OH242386   5.220   5.137   2.965
14148TIP3    H142387   5.149   5.180   2.917
14148TIP3    H242388   5.299   5.157   2.914
14149TIP3   OH242389   6.739   5.699   0.076
14149TIP3    H142390   6.646   5.695   0.053
14149TIP3    H242391   6.776   5.765   0.017
14150TIP3   OH242392   0.512   4.668   2.380
14150TIP3    H142393   0.538   4.760   2.375
14150TIP3    H242394   0.550   4.637   2.462
14151TIP3   OH242395   4.034   2.096   0.124
14151TIP3    H142396   4.028   2.184   0.161
14151TIP3    H242397   4.095   2.104   0.052
14152TIP3   OH242398   1.677   1.613   0.674
14152TIP3    H142399   1.648   1.676   0.609
14152TIP3    H242400   1.605   1.551   0.681
14153TIP3   OH242401   4.149   1.358   1.466
14153TIP3    H142402   4.084   1.290   1.486
14153TIP3    H242403   4.137   1.377   1.373
14154TIP3   OH242404   2.398   7.109   6.133
14154TIP3    H142405   2.364   7.052   6.064
14154TIP3    H242406   2.362   7.195   6.113
14155TIP3   OH242407   1.501   3.051   3.025
14155TIP3    H142408   1.410   3.026   3.041
14155TIP3    H242409   1.510   3.049   2.930
14156TIP3   OH242410   3.689   0.808   6.283
14156TIP3    H142411   3.710   0.800   6.376
14156TIP3    H242412   3.648   0.895   6.275
14157TIP3   OH242413   2.899   0.089   3.133
14157TIP3    H142414   2.928   0.059   3.047
14157TIP3    H242415   2.814   0.130   3.117
14158TIP3   OH242416   7.523   6.263   3.379
14158TIP3    H142417   7.500   6.352   3.353
14158TIP3    H242418   7.571   6.228   3.304
14159TIP3   OH242419   4.534   7.662   6.396
14159TIP3    H142420   4.552   7.697   6.483
14159TIP3    H242421   4.451   7.702   6.371
14160TIP3   OH242422   6.532   3.734   0.143
14160TIP3    H142423   6.502   3.773   0.061
14160TIP3    H242424   6.560   3.646   0.119
14161TIP3   OH242425   5.614   4.552   5.513
14161TIP3    H142426   5.581   4.629   5.467
14161TIP3    H242427   5.655   4.587   5.592
14162TIP3   OH242428   4.957   3.059   4.408
14162TIP3    H142429   5.034   3.059   4.465
14162TIP3    H242430   4.921   2.971   4.416
14163TIP3   OH242431   6.754   6.234   3.994
14163TIP3    H142432   6.787   6.263   3.909
14163TIP3    H242433   6.662   6.261   3.995
14164TIP3   OH242434   4.804   4.670   0.331
14164TIP3    H142435   4.877   4.729   0.313
14164TIP3    H242436   4.726   4.718   0.301
14165TIP3   OH242437   7.834   3.930   2.088
14165TIP3    H142438   7.929   3.929   2.074
14165TIP3    H242439   7.822   3.967   2.175
14166TIP3   OH242440   0.464   4.930   4.221
14166TIP3    H142441   0.556   4.954   4.211
14166TIP3    H242442   0.457   4.898   4.312
14167TIP3   OH242443   3.484   5.207   2.789
14167TIP3    H142444   3.560   5.217   2.845
14167TIP3    H242445   3.450   5.119   2.809
14168TIP3   OH242446   0.865   6.993   5.716
14168TIP3    H142447   0.801   6.954   5.656
14168TIP3    H242448   0.908   6.918   5.757
14169TIP3   OH242449   2.580   2.072   5.757
14169TIP3    H142450   2.661   2.119   5.737
14169TIP3    H242451   2.576   2.003   5.691
14170TIP3   OH242452   6.852   1.331   6.545
14170TIP3    H142453   6.900   1.250   6.526
14170TIP3    H242454   6.843   1.331   6.641
14171TIP3   OH242455   1.380   4.107   4.146
14171TIP3    H142456   1.353   4.140   4.231
14171TIP3    H242457   1.475   4.093   4.154
14172TIP3   OH242458   7.781   2.549   2.431
14172TIP3    H142459   7.694   2.587   2.439
14172TIP3    H242460   7.765   2.456   2.415
14173TIP3   OH242461   5.088   3.600   3.837
14173TIP3    H142462   5.058   3.515   3.870
14173TIP3    H242463   5.148   3.578   3.766
14174TIP3   OH242464   1.066   7.342   2.151
14174TIP3    H142465   0.980   7.378   2.176
14174TIP3    H242466   1.122   7.419   2.143
14175TIP3   OH242467   2.853   4.442   4.053
14175TIP3    H142468   2.884   4.472   4.138
14175TIP3    H242469   2.758   4.454   4.056
14176TIP3   OH242470   6.298   5.645   0.600
14176TIP3    H142471   6.243   5.567   0.590
14176TIP3    H242472   6.237   5.713   0.629
14177TIP3   OH242473   3.599   0.310   3.734
14177TIP3    H142474   3.671   0.315   3.797
14177TIP3    H242475   3.607   0.389   3.682
14178TIP3   OH242476   1.528   4.424   1.797
14178TIP3    H142477   1.567   4.485   1.734
14178TIP3    H242478   1.505   4.347   1.744
14179TIP3   OH242479   6.076   5.993   1.883
14179TIP3    H142480   6.006   6.023   1.826
14179TIP3    H242481   6.032   5.970   1.965
14180TIP3   OH242482   4.771   0.505   2.665
14180TIP3    H142483   4.732   0.418   2.665
14180TIP3    H242484   4.717   0.556   2.604
14181TIP3   OH242485   6.031   1.703   2.096
14181TIP3    H142486   6.033   1.793   2.062
14181TIP3    H242487   5.947   1.668   2.065
14182TIP3   OH242488   3.314   2.272   2.804
14182TIP3    H142489   3.259   2.202   2.839
14182TIP3    H242490   3.260   2.350   2.811
14183TIP3   OH242491   5.059   2.744   0.478
14183TIP3    H142492   5.148   2.727   0.509
14183TIP3    H242493   5.067   2.744   0.383
14184TIP3   OH242494   3.791   6.444   1.745
14184TIP3    H142495   3.713   6.396   1.771
14184TIP3    H242496   3.819   6.402   1.664
14185TIP3   OH242497   3.024   3.187   0.218
14185TIP3    H142498   3.112   3.150   0.230
14185TIP3    H242499   2.972   3.113   0.185
14186TIP3   OH242500   1.078   0.471   2.308
14186TIP3    H142501   1.048   0.487   2.398
14186TIP3    H242502   1.125   0.550   2.284
14187TIP3   OH242503   1.265   0.396   1.254
14187TIP3    H142504   1.348   0.427   1.290
14187TIP3    H242505   1.280   0.304   1.233
14188TIP3   OH242506   5.809   5.674   1.833
14188TIP3    H142507   5.869   5.662   1.907
14188TIP3    H242508   5.730   5.713   1.872
14189TIP3   OH242509   7.151   3.661   2.100
14189TIP3    H142510   7.152   3.566   2.103
14189TIP3    H242511   7.125   3.689   2.188
14190TIP3   OH242512   5.140   2.801   6.566
14190TIP3    H142513   5.079   2.874   6.582
14190TIP3    H242514   5.084   2.729   6.538
14191TIP3   OH242515   6.233   6.532   3.559
14191TIP3    H142516   6.207   6.547   3.650
14191TIP3    H242517   6.242   6.438   3.551
14192TIP3   OH242518   0.688   2.516   5.369
14192TIP3    H142519   0.776   2.524   5.407
14192TIP3    H242520   0.638   2.586   5.410
14193TIP3   OH242521   0.229   3.186   0.266
14193TIP3    H142522   0.176   3.173   0.187
14193TIP3    H242523   0.319   3.173   0.237
14194TIP3   OH242524   3.287   0.966   1.394
14194TIP3    H142525   3.273   1.045   1.445
14194TIP3    H242526   3.254   0.895   1.449
14195TIP3   OH242527   1.571   7.146   0.009
14195TIP3    H142528   1.484   7.110   0.028
14195TIP3    H242529   1.574   7.228   0.059
14196TIP3   OH242530   8.011   4.508   2.890
14196TIP3    H142531   8.011   4.558   2.808
14196TIP3    H242532   8.090   4.454   2.885
14197TIP3   OH242533   6.244   6.270   0.017
14197TIP3    H142534   6.313   6.204   0.025
14197TIP3    H242535   6.283   6.349   0.055
14198TIP3   OH242536   5.589   2.038   4.147
14198TIP3    H142537   5.642   1.968   4.109
14198TIP3    H242538   5.525   2.060   4.079
14199TIP3   OH242539   2.140   6.101   3.338
14199TIP3    H142540   2.200   6.173   3.361
14199TIP3    H242541   2.077   6.140   3.278
14200TIP3   OH242542   2.935   1.708   0.268
14200TIP3    H142543   2.997   1.652   0.221
14200TIP3    H242544   2.908   1.655   0.343
14201TIP3   OH242545   0.822   1.949   4.591
14201TIP3    H142546   0.885   2.014   4.623
14201TIP3    H242547   0.850   1.866   4.629
14202TIP3   OH242548   2.121   2.757   4.559
14202TIP3    H142549   2.214   2.734   4.555
14202TIP3    H242550   2.082   2.711   4.485
14203TIP3   OH242551   6.525   3.061   6.637
14203TIP3    H142552   6.498   2.988   6.581
14203TIP3    H242553   6.621   3.062   6.631
14204TIP3   OH242554   1.981   6.728   1.369
14204TIP3    H142555   2.045   6.726   1.439
14204TIP3    H242556   1.989   6.816   1.332
14205TIP3   OH242557   5.445   3.817   0.936
14205TIP3    H142558   5.533   3.781   0.945
14205TIP3    H242559   5.454   3.910   0.957
14206TIP3   OH242560   0.606   2.599   2.901
14206TIP3    H142561   0.529   2.619   2.954
14206TIP3    H242562   0.674   2.656   2.935
14207TIP3   OH242563   0.000   3.655   4.906
14207TIP3    H142564   0.091   3.668   4.880
14207TIP3    H242565  -0.045   3.735   4.879
14208TIP3   OH242566   4.630   0.220   4.922
14208TIP3    H142567   4.634   0.291   4.986
14208TIP3    H242568   4.720   0.193   4.910
14209TIP3   OH242569   2.877   0.474   4.924
14209TIP3    H142570   2.923   0.488   5.007
14209TIP3    H242571   2.921   0.532   4.862
14210TIP3   OH242572   1.188   5.494   0.955
14210TIP3    H142573   1.200   5.531   0.868
14210TIP3    H242574   1.185   5.570   1.013
14211TIP3   OH242575   0.654   5.683   1.397
14211TIP3    H142576   0.662   5.748   1.468
14211TIP3    H242577   0.701   5.723   1.324
14212TIP3   OH242578   1.901   5.273   1.153
14212TIP3    H142579   1.879   5.316   1.071
14212TIP3    H242580   1.972   5.326   1.190
14213TIP3   OH242581   0.884   5.304   5.823
14213TIP3    H142582   0.812   5.297   5.762
14213TIP3    H242583   0.941   5.370   5.786
14214TIP3   OH242584   7.467   6.795   3.336
14214TIP3    H142585   7.402   6.860   3.308
14214TIP3    H242586   7.542   6.812   3.280
14215TIP3   OH242587   3.653   1.076   5.870
14215TIP3    H142588   3.558   1.070   5.884
14215TIP3    H242589   3.685   1.132   5.941
14216TIP3   OH242590   8.089   4.446   5.734
14216TIP3    H142591   8.072   4.354   5.714
14216TIP3    H242592   8.123   4.445   5.823
14217TIP3   OH242593   4.584   3.749   1.717
14217TIP3    H142594   4.513   3.766   1.656
14217TIP3    H242595   4.607   3.657   1.703
14218TIP3   OH242596   1.473   6.037   2.988
14218TIP3    H142597   1.469   6.025   3.082
14218TIP3    H242598   1.424   6.117   2.971
14219TIP3   OH242599   6.419   6.105   0.151
14219TIP3    H142600   6.392   6.029   0.203
14219TIP3    H242601   6.446   6.170   0.216
14220TIP3   OH242602   2.986   3.870   2.797
14220TIP3    H142603   2.902   3.836   2.825
14220TIP3    H242604   3.048   3.838   2.863
14221TIP3   OH242605   0.577   5.103   0.471
14221TIP3    H142606   0.554   5.089   0.563
14221TIP3    H242607   0.517   5.172   0.442
14222TIP3   OH242608   4.815   2.249   3.270
14222TIP3    H142609   4.759   2.173   3.254
14222TIP3    H242610   4.754   2.323   3.274
14223TIP3   OH242611   0.854   5.488   5.405
14223TIP3    H142612   0.916   5.483   5.333
14223TIP3    H242613   0.843   5.396   5.432
14224TIP3   OH242614   3.567   0.642   2.839
14224TIP3    H142615   3.624   0.596   2.778
14224TIP3    H242616   3.509   0.575   2.875
14225TIP3   OH242617   4.222   2.131   5.660
14225TIP3    H142618   4.279   2.055   5.650
14225TIP3    H242619   4.166   2.129   5.582
14226TIP3   OH242620   4.011   6.588   1.477
14226TIP3    H142621   4.079   6.557   1.417
14226TIP3    H242622   3.931   6.584   1.425
14227TIP3   OH242623   6.600   6.090   0.592
14227TIP3    H142624   6.521   6.054   0.552
14227TIP3    H242625   6.598   6.059   0.682
14228TIP3   OH242626   4.348   7.706   6.757
14228TIP3    H142627   4.442   7.704   6.738
14228TIP3    H242628   4.333   7.792   6.797
14229TIP3   OH242629   0.135   5.983   3.242
14229TIP3    H142630   0.057   6.020   3.201
14229TIP3    H242631   0.101   5.915   3.300
14230TIP3   OH242632   5.413   3.079   2.482
14230TIP3    H142633   5.441   2.988   2.474
14230TIP3    H242634   5.485   3.122   2.528
14231TIP3   OH242635   1.671   4.920   2.683
14231TIP3    H142636   1.584   4.886   2.706
14231TIP3    H242637   1.726   4.898   2.757
14232TIP3   OH242638   3.927   2.536   4.797
14232TIP3    H142639   3.921   2.586   4.878
14232TIP3    H242640   3.918   2.445   4.824
14233TIP3   OH242641   1.812   0.486  -0.036
14233TIP3    H142642   1.749   0.537   0.015
14233TIP3    H242643   1.891   0.540  -0.037
14234TIP3   OH242644   5.852   2.262   1.331
14234TIP3    H142645   5.881   2.333   1.274
14234TIP3    H242646   5.819   2.195   1.271
14235TIP3   OH242647   5.008   3.741   5.000
14235TIP3    H142648   5.078   3.687   4.962
14235TIP3    H242649   4.988   3.698   5.083
14236TIP3   OH242650   3.932   6.515   3.296
14236TIP3    H142651   3.945   6.605   3.329
14236TIP3    H242652   3.941   6.460   3.374
14237TIP3   OH242653   0.623   3.019   5.599
14237TIP3    H142654   0.628   3.106   5.639
14237TIP3    H242655   0.703   3.011   5.547
14238TIP3   OH242656   3.028   3.398   1.329
14238TIP3    H142657   2.934   3.383   1.339
14238TIP3    H242658   3.034   3.479   1.278
14239TIP3   OH242659   6.719   0.309   6.392
14239TIP3    H142660   6.696   0.219   6.411
14239TIP3    H242661   6.767   0.339   6.470
14240TIP3   OH242662   2.425   5.562   0.094
14240TIP3    H142663   2.459   5.616   0.022
14240TIP3    H242664   2.499   5.507   0.120
14241TIP3   OH242665   6.989   2.423   3.009
14241TIP3    H142666   7.054   2.388   3.070
14241TIP3    H242667   6.985   2.357   2.939
14242TIP3   OH242668   4.838   0.498   4.130
14242TIP3    H142669   4.914   0.469   4.180
14242TIP3    H242670   4.783   0.420   4.121
14243TIP3   OH242671   2.320   7.321   5.948
14243TIP3    H142672   2.235   7.291   5.917
14243TIP3    H242673   2.318   7.416   5.937
14244TIP3   OH242674   6.159   7.411   4.806
14244TIP3    H142675   6.169   7.432   4.898
14244TIP3    H242676   6.121   7.489   4.767
14245TIP3   OH242677   4.475   5.477   2.282
14245TIP3    H142678   4.529   5.404   2.252
14245TIP3    H242679   4.530   5.554   2.271
14246TIP3   OH242680   7.896   5.611   5.230
14246TIP3    H142681   7.858   5.622   5.317
14246TIP3    H242682   7.951   5.533   5.237
14247TIP3   OH242683   2.395   4.193   2.784
14247TIP3    H142684   2.353   4.143   2.854
14247TIP3    H242685   2.333   4.188   2.711
14248TIP3   OH242686   2.994   6.914   4.191
14248TIP3    H142687   3.080   6.924   4.151
14248TIP3    H242688   2.932   6.946   4.125
14249TIP3   OH242689   3.377   7.279   0.638
14249TIP3    H142690   3.358   7.237   0.722
14249TIP3    H242691   3.438   7.218   0.594
14250TIP3   OH242692   1.544   7.399   0.215
14250TIP3    H142693   1.630   7.440   0.214
14250TIP3    H242694   1.496   7.443   0.285
14251TIP3   OH242695   5.161   5.932   5.533
14251TIP3    H142696   5.151   5.886   5.616
14251TIP3    H242697   5.090   5.897   5.478
14252TIP3   OH242698   3.679   2.752   5.097
14252TIP3    H142699   3.760   2.756   5.046
14252TIP3    H242700   3.632   2.676   5.064
14253TIP3   OH242701   1.555   3.192   6.483
14253TIP3    H142702   1.468   3.224   6.506
14253TIP3    H242703   1.576   3.128   6.551
14254TIP3   OH242704   2.374   6.917   2.142
14254TIP3    H142705   2.323   6.859   2.199
14254TIP3    H242706   2.321   6.928   2.064
14255TIP3   OH242707   5.218   3.418   4.734
14255TIP3    H142708   5.280   3.488   4.751
14255TIP3    H242709   5.132   3.459   4.745
14256TIP3   OH242710   4.663   4.606   1.332
14256TIP3    H142711   4.583   4.602   1.384
14256TIP3    H242712   4.675   4.700   1.315
14257TIP3   OH242713   5.337   0.683   2.731
14257TIP3    H142714   5.345   0.644   2.818
14257TIP3    H242715   5.259   0.642   2.692
14258TIP3   OH242716   3.739   3.292   4.663
14258TIP3    H142717   3.644   3.280   4.661
14258TIP3    H242718   3.774   3.208   4.631
14259TIP3   OH242719   3.792   2.821   2.970
14259TIP3    H142720   3.866   2.764   2.952
14259TIP3    H242721   3.773   2.808   3.063
14260TIP3   OH242722   2.403   5.890   5.295
14260TIP3    H142723   2.359   5.813   5.259
14260TIP3    H242724   2.456   5.924   5.223
14261TIP3   OH242725   3.593   3.286   1.168
14261TIP3    H142726   3.671   3.249   1.128
14261TIP3    H242727   3.626   3.337   1.242
14262TIP3   OH242728   1.738   6.112   4.991
14262TIP3    H142729   1.666   6.160   5.032
14262TIP3    H242730   1.705   6.089   4.904
14263TIP3   OH242731   3.013   1.414   3.954
14263TIP3    H142732   3.017   1.319   3.965
14263TIP3    H242733   3.082   1.447   4.011
14264TIP3   OH242734   3.672   3.712   3.578
14264TIP3    H142735   3.678   3.626   3.535
14264TIP3    H242736   3.724   3.702   3.658
14265TIP3   OH242737   4.905   6.950   3.603
14265TIP3    H142738   4.892   6.980   3.513
14265TIP3    H242739   4.925   6.856   3.594
14266TIP3   OH242740   5.531   3.738   5.331
14266TIP3    H142741   5.534   3.795   5.254
14266TIP3    H242742   5.515   3.798   5.404
14267TIP3   OH242743   7.477   1.105   6.171
14267TIP3    H142744   7.405   1.042   6.173
14267TIP3    H242745   7.538   1.071   6.105
14268TIP3   OH242746   5.967   0.092   0.869
14268TIP3    H142747   5.903   0.046   0.924
14268TIP3    H242748   5.935   0.182   0.866
14269TIP3   OH242749   0.902   5.168   0.812
14269TIP3    H142750   0.942   5.233   0.869
14269TIP3    H242751   0.971   5.105   0.795
14270TIP3   OH242752   4.381   6.363   1.903
14270TIP3    H142753   4.295   6.354   1.862
14270TIP3    H242754   4.387   6.288   1.962
14271TIP3   OH242755   1.358   6.378   5.310
14271TIP3    H142756   1.345   6.468   5.279
14271TIP3    H242757   1.280   6.331   5.281
14272TIP3   OH242758   4.995   0.338   3.610
14272TIP3    H142759   4.953   0.301   3.533
14272TIP3    H242760   4.995   0.268   3.675
14273TIP3   OH242761   6.311   3.722   4.622
14273TIP3    H142762   6.230   3.746   4.578
14273TIP3    H242763   6.379   3.734   4.556
14274TIP3   OH242764   7.165   3.738   5.646
14274TIP3    H142765   7.239   3.794   5.625
14274TIP3    H242766   7.147   3.754   5.738
14275TIP3   OH242767   4.176   6.156   3.222
14275TIP3    H142768   4.230   6.154   3.143
14275TIP3    H242769   4.089   6.128   3.193
14276TIP3   OH242770   6.197   3.044   6.551
14276TIP3    H142771   6.124   3.105   6.558
14276TIP3    H242772   6.195   2.994   6.633
14277TIP3   OH242773   0.404   5.249   3.898
14277TIP3    H142774   0.468   5.272   3.966
14277TIP3    H242775   0.376   5.334   3.863
14278TIP3   OH242776   8.066   4.807   0.122
14278TIP3    H142777   8.148   4.855   0.129
14278TIP3    H242778   8.087   4.733   0.064
14279TIP3   OH242779   1.683   5.105   4.633
14279TIP3    H142780   1.728   5.184   4.600
14279TIP3    H242781   1.625   5.079   4.562
14280TIP3   OH242782   5.083   4.320   0.487
14280TIP3    H142783   5.149   4.379   0.449
14280TIP3    H242784   5.092   4.332   0.581
14281TIP3   OH242785   0.236   7.201   2.005
14281TIP3    H142786   0.276   7.118   1.980
14281TIP3    H242787   0.229   7.249   1.922
14282TIP3   OH242788   0.406   1.983   1.915
14282TIP3    H142789   0.407   1.915   1.848
14282TIP3    H242790   0.317   2.018   1.911
14283TIP3   OH242791   1.337   1.091   2.421
14283TIP3    H142792   1.266   1.149   2.446
14283TIP3    H242793   1.344   1.029   2.493
14284TIP3   OH242794   8.137   0.764   2.825
14284TIP3    H142795   8.146   0.858   2.838
14284TIP3    H242796   8.226   0.729   2.838
14285TIP3   OH242797   2.156   4.415   1.913
14285TIP3    H142798   2.209   4.354   1.964
14285TIP3    H242799   2.118   4.362   1.843
14286TIP3   OH242800   1.622   3.269   5.379
14286TIP3    H142801   1.575   3.250   5.460
14286TIP3    H242802   1.553   3.289   5.316
14287TIP3   OH242803   6.583   0.251   6.662
14287TIP3    H142804   6.507   0.226   6.715
14287TIP3    H242805   6.652   0.271   6.726
14288TIP3   OH242806   2.925   0.336   3.503
14288TIP3    H142807   2.887   0.287   3.576
14288TIP3    H242808   2.999   0.282   3.474
14289TIP3   OH242809   6.750   1.500   3.612
14289TIP3    H142810   6.663   1.487   3.574
14289TIP3    H242811   6.803   1.429   3.577
14290TIP3   OH242812   0.805   7.806   1.192
14290TIP3    H142813   0.766   7.801   1.104
14290TIP3    H242814   0.738   7.769   1.250
14291TIP3   OH242815   7.405   3.883   4.628
14291TIP3    H142816   7.376   3.850   4.543
14291TIP3    H242817   7.436   3.972   4.610
14292TIP3   OH242818   6.608   6.960   0.430
14292TIP3    H142819   6.650   7.022   0.369
14292TIP3    H242820   6.675   6.894   0.447
14293TIP3   OH242821   1.029   4.218   5.093
14293TIP3    H142822   1.123   4.220   5.109
14293TIP3    H242823   0.990   4.196   5.177
14294TIP3   OH242824   8.273   0.470   3.512
14294TIP3    H142825   8.299   0.489   3.422
14294TIP3    H242826   8.217   0.393   3.506
14295TIP3   OH242827   1.570   6.793   6.448
14295TIP3    H142828   1.516   6.755   6.379
14295TIP3    H242829   1.573   6.886   6.428
14296TIP3   OH242830   4.141   4.171   0.075
14296TIP3    H142831   4.081   4.111   0.029
14296TIP3    H242832   4.220   4.172   0.022
14297TIP3   OH242833   0.251   2.100   6.411
14297TIP3    H142834   0.185   2.041   6.448
14297TIP3    H242835   0.239   2.094   6.316
14298TIP3   OH242836   6.391   3.869   6.052
14298TIP3    H142837   6.327   3.868   5.981
14298TIP3    H242838   6.398   3.777   6.078
14299TIP3   OH242839   2.128   5.645   4.122
14299TIP3    H142840   2.214   5.622   4.087
14299TIP3    H242841   2.136   5.627   4.216
14300TIP3   OH242842   6.633   0.853   0.842
14300TIP3    H142843   6.590   0.909   0.906
14300TIP3    H242844   6.600   0.883   0.758
14301TIP3   OH242845   0.930   5.607   2.260
14301TIP3    H142846   0.961   5.588   2.172
14301TIP3    H242847   0.835   5.607   2.253
14302TIP3   OH242848   3.545   5.328   0.166
14302TIP3    H142849   3.532   5.254   0.226
14302TIP3    H242850   3.491   5.398   0.203
14303TIP3   OH242851   6.308   7.168   1.890
14303TIP3    H142852   6.332   7.091   1.942
14303TIP3    H242853   6.251   7.218   1.947
14304TIP3   OH242854   5.877   4.587   5.059
14304TIP3    H142855   5.874   4.597   5.154
14304TIP3    H242856   5.797   4.631   5.029
14305TIP3   OH242857   4.576   7.583   0.034
14305TIP3    H142858   4.623   7.631   0.102
14305TIP3    H242859   4.541   7.651  -0.023
14306TIP3   OH242860   2.498   5.404   3.104
14306TIP3    H142861   2.537   5.327   3.145
14306TIP3    H242862   2.440   5.368   3.036
14307TIP3   OH242863   1.902   3.138   5.824
14307TIP3    H142864   1.926   3.230   5.813
14307TIP3    H242865   1.806   3.138   5.819
14308TIP3   OH242866   1.662   0.729   2.212
14308TIP3    H142867   1.566   0.732   2.217
14308TIP3    H242868   1.682   0.759   2.124
14309TIP3   OH242869   6.115   0.383   3.665
14309TIP3    H142870   6.202   0.408   3.635
14309TIP3    H242871   6.130   0.337   3.748
14310TIP3   OH242872   4.927   2.527   3.796
14310TIP3    H142873   4.879   2.533   3.713
14310TIP3    H242874   5.017   2.504   3.770
14311TIP3   OH242875   5.724   5.529   3.019
14311TIP3    H142876   5.630   5.537   3.002
14311TIP3    H242877   5.758   5.484   2.942
14312TIP3   OH242878   0.893   0.546   0.797
14312TIP3    H142879   0.898   0.632   0.754
14312TIP3    H242880   0.800   0.524   0.795
14313TIP3   OH242881   1.463   4.053   1.890
14313TIP3    H142882   1.405   4.126   1.912
14313TIP3    H242883   1.550   4.085   1.913
14314TIP3   OH242884   0.199   0.462   2.566
14314TIP3    H142885   0.242   0.391   2.518
14314TIP3    H242886   0.266   0.494   2.627
14315TIP3   OH242887   7.453   6.213   1.669
14315TIP3    H142888   7.450   6.302   1.633
14315TIP3    H242889   7.442   6.224   1.763
14316TIP3   OH242890   0.879   2.866   2.224
14316TIP3    H142891   0.792   2.896   2.197
14316TIP3    H242892   0.864   2.818   2.305
14317TIP3   OH242893   1.993   5.891   2.132
14317TIP3    H142894   2.079   5.919   2.102
14317TIP3    H242895   1.976   5.811   2.081
14318TIP3   OH242896   3.632   5.871   5.294
14318TIP3    H142897   3.716   5.915   5.282
14318TIP3    H242898   3.589   5.880   5.209
14319TIP3   OH242899   6.367   6.701   4.712
14319TIP3    H142900   6.397   6.786   4.745
14319TIP3    H242901   6.400   6.637   4.774
14320TIP3   OH242902   0.747   6.433   2.528
14320TIP3    H142903   0.710   6.521   2.532
14320TIP3    H242904   0.704   6.391   2.454
14321TIP3   OH242905   4.342   4.358   0.451
14321TIP3    H142906   4.281   4.288   0.431
14321TIP3    H242907   4.425   4.329   0.412
14322TIP3   OH242908   5.349   1.005   2.498
14322TIP3    H142909   5.288   0.934   2.477
14322TIP3    H242910   5.381   0.985   2.586
14323TIP3   OH242911   0.133   6.112   6.125
14323TIP3    H142912   0.040   6.132   6.116
14323TIP3    H242913   0.173   6.151   6.047
14324TIP3   OH242914   2.025   3.252   2.610
14324TIP3    H142915   1.962   3.275   2.542
14324TIP3    H242916   1.985   3.282   2.691
14325TIP3   OH242917   3.681   7.311   4.887
14325TIP3    H142918   3.717   7.255   4.955
14325TIP3    H242919   3.593   7.276   4.871
14326TIP3   OH242920   7.878   4.588   3.976
14326TIP3    H142921   7.795   4.592   3.929
14326TIP3    H242922   7.931   4.526   3.926
14327TIP3   OH242923   3.356   3.209   1.873
14327TIP3    H142924   3.377   3.302   1.878
14327TIP3    H242925   3.398   3.170   1.950
14328TIP3   OH242926   7.265   7.813   2.495
14328TIP3    H142927   7.240   7.724   2.469
14328TIP3    H242928   7.357   7.820   2.471
14329TIP3   OH242929   0.896   2.744   2.507
14329TIP3    H142930   0.846   2.784   2.578
14329TIP3    H242931   0.973   2.706   2.550
14330TIP3   OH242932   6.339   2.685   3.766
14330TIP3    H142933   6.423   2.724   3.742
14330TIP3    H242934   6.360   2.595   3.790
14331TIP3   OH242935   6.305   6.234   3.536
14331TIP3    H142936   6.391   6.192   3.535
14331TIP3    H242937   6.288   6.254   3.444
14332TIP3   OH242938   2.785   4.796   5.307
14332TIP3    H142939   2.770   4.871   5.365
14332TIP3    H242940   2.697   4.771   5.279
14333TIP3   OH242941  -0.041   6.168   6.721
14333TIP3    H142942   0.029   6.122   6.675
14333TIP3    H242943  -0.011   6.174   6.812
14334TIP3   OH242944   5.433   5.337   4.144
14334TIP3    H142945   5.345   5.312   4.172
14334TIP3    H242946   5.453   5.277   4.072
14335TIP3   OH242947   7.138   7.447   1.629
14335TIP3    H142948   7.147   7.534   1.668
14335TIP3    H242949   7.060   7.410   1.670
14336TIP3   OH242950   2.076  -0.011   6.189
14336TIP3    H142951   2.139   0.053   6.155
14336TIP3    H242952   1.992   0.036   6.189
14337TIP3   OH242953   4.918   3.957   0.089
14337TIP3    H142954   4.961   4.021   0.146
14337TIP3    H242955   4.990   3.913   0.044
14338TIP3   OH242956   5.988   2.943   4.589
14338TIP3    H142957   6.064   2.989   4.553
14338TIP3    H242958   5.912   2.990   4.554
14339TIP3   OH242959   0.553   0.902   2.248
14339TIP3    H142960   0.646   0.919   2.235
14339TIP3    H242961   0.548   0.850   2.328
14340TIP3   OH242962   0.944   7.479   2.666
14340TIP3    H142963   0.998   7.443   2.736
14340TIP3    H242964   0.885   7.408   2.642
14341TIP3   OH242965   4.772   0.852   3.386
14341TIP3    H142966   4.738   0.904   3.313
14341TIP3    H242967   4.703   0.856   3.452
14342TIP3   OH242968   5.924   5.482   4.066
14342TIP3    H142969   5.938   5.392   4.096
14342TIP3    H242970   5.879   5.473   3.982
14343TIP3   OH242971   6.107   3.442   4.076
14343TIP3    H142972   6.016   3.452   4.049
14343TIP3    H242973   6.102   3.421   4.170
14344TIP3   OH242974   7.574   3.933   2.975
14344TIP3    H142975   7.588   3.990   2.899
14344TIP3    H242976   7.661   3.909   3.004
14345TIP3   OH242977   0.557   0.770   2.877
14345TIP3    H142978   0.541   0.861   2.901
14345TIP3    H242979   0.564   0.724   2.961
14346TIP3   OH242980   5.334   5.319   3.402
14346TIP3    H142981   5.381   5.298   3.483
14346TIP3    H242982   5.389   5.282   3.333
14347TIP3   OH242983   0.642   2.192   1.887
14347TIP3    H142984   0.547   2.191   1.881
14347TIP3    H242985   0.667   2.101   1.904
14348TIP3   OH242986   7.299   0.097   0.124
14348TIP3    H142987   7.351   0.024   0.159
14348TIP3    H242988   7.279   0.071   0.034
14349TIP3   OH242989   5.635   5.589   6.309
14349TIP3    H142990   5.571   5.657   6.328
14349TIP3    H242991   5.668   5.610   6.221
14350TIP3   OH242992   1.322   2.279   0.934
14350TIP3    H142993   1.321   2.375   0.931
14350TIP3    H242994   1.349   2.258   1.023
14351TIP3   OH242995   6.646   5.072   5.631
14351TIP3    H142996   6.733   5.035   5.643
14351TIP3    H242997   6.661   5.166   5.617
14352TIP3   OH242998   4.327   1.099   0.917
14352TIP3    H142999   4.371   1.182   0.934
14352TIP3    H243000   4.355   1.043   0.990
14353TIP3   OH243001   5.515   0.190   3.481
14353TIP3    H143002   5.436   0.223   3.522
14353TIP3    H243003   5.579   0.183   3.552
14354TIP3   OH243004   0.636   3.660   1.045
14354TIP3    H143005   0.660   3.727   1.109
14354TIP3    H243006   0.636   3.578   1.095
14355TIP3   OH243007   3.264   2.763   5.103
14355TIP3    H143008   3.346   2.760   5.152
14355TIP3    H243009   3.205   2.706   5.153
14356TIP3   OH243010   0.441   2.118   3.816
14356TIP3    H143011   0.506   2.176   3.856
14356TIP3    H243012   0.377   2.176   3.776
14357TIP3   OH243013   3.003   5.350   2.834
14357TIP3    H143014   3.092   5.330   2.861
14357TIP3    H243015   2.974   5.419   2.895
14358TIP3   OH243016   4.002   7.455   0.128
14358TIP3    H143017   3.969   7.509   0.056
14358TIP3    H243018   4.090   7.489   0.146
14359TIP3   OH243019   4.164   1.585   2.602
14359TIP3    H143020   4.121   1.620   2.680
14359TIP3    H243021   4.184   1.662   2.549
14360TIP3   OH243022   0.189   3.407   5.252
14360TIP3    H143023   0.133   3.433   5.325
14360TIP3    H243024   0.199   3.312   5.263
14361TIP3   OH243025   7.198   5.974   3.938
14361TIP3    H143026   7.210   6.038   3.868
14361TIP3    H243027   7.286   5.942   3.957
14362TIP3   OH243028   4.890   2.329   5.696
14362TIP3    H143029   4.856   2.331   5.606
14362TIP3    H243030   4.889   2.236   5.719
14363TIP3   OH243031   6.696   2.975   2.659
14363TIP3    H143032   6.680   3.045   2.597
14363TIP3    H243033   6.783   2.992   2.694
14364TIP3   OH243034   4.386   3.260   3.774
14364TIP3    H143035   4.408   3.246   3.682
14364TIP3    H243036   4.318   3.195   3.792
14365TIP3   OH243037   3.639   3.786   5.307
14365TIP3    H143038   3.638   3.706   5.360
14365TIP3    H243039   3.730   3.793   5.278
14366TIP3   OH243040   5.404   7.810   0.172
14366TIP3    H143041   5.489   7.851   0.188
14366TIP3    H243042   5.424   7.722   0.140
14367TIP3   OH243043   7.580   0.852   3.102
14367TIP3    H143044   7.648   0.814   3.047
14367TIP3    H243045   7.529   0.908   3.043
14368TIP3   OH243046   7.784   5.386   0.891
14368TIP3    H143047   7.688   5.387   0.882
14368TIP3    H243048   7.803   5.303   0.935
14369TIP3   OH243049   3.823   6.635   3.638
14369TIP3    H143050   3.800   6.696   3.708
14369TIP3    H243051   3.820   6.549   3.680
14370TIP3   OH243052   0.446   3.786   1.419
14370TIP3    H143053   0.482   3.706   1.458
14370TIP3    H243054   0.517   3.821   1.366
14371TIP3   OH243055   1.893   6.791   2.585
14371TIP3    H143056   1.968   6.735   2.606
14371TIP3    H243057   1.819   6.731   2.580
14372TIP3   OH243058   6.415   4.663   0.703
14372TIP3    H143059   6.382   4.584   0.660
14372TIP3    H243060   6.483   4.631   0.762
14373TIP3   OH243061   1.006   2.625   3.240
14373TIP3    H143062   0.966   2.692   3.296
14373TIP3    H243063   1.100   2.637   3.252
14374TIP3   OH243064   3.717   2.841   4.783
14374TIP3    H143065   3.736   2.895   4.707
14374TIP3    H243066   3.779   2.871   4.850
14375TIP3   OH243067   0.594   6.914   2.005
14375TIP3    H143068   0.666   6.871   2.051
14375TIP3    H243069   0.562   6.849   1.942
14376TIP3   OH243070   7.256   1.989   3.902
14376TIP3    H143071   7.349   1.996   3.883
14376TIP3    H243072   7.219   1.948   3.823
14377TIP3   OH243073   0.057   5.417   0.795
14377TIP3    H143074   0.006   5.454   0.724
14377TIP3    H243075   0.129   5.370   0.752
14378TIP3   OH243076   0.828   0.489   6.086
14378TIP3    H143077   0.850   0.516   6.176
14378TIP3    H243078   0.911   0.492   6.039
14379TIP3   OH243079   6.721   2.046   1.768
14379TIP3    H143080   6.786   2.010   1.708
14379TIP3    H243081   6.734   1.999   1.850
14380TIP3   OH243082   7.776   5.651   2.178
14380TIP3    H143083   7.824   5.670   2.098
14380TIP3    H243084   7.690   5.622   2.149
14381TIP3   OH243085   8.250   5.813   1.520
14381TIP3    H143086   8.227   5.778   1.606
14381TIP3    H243087   8.320   5.756   1.489
14382TIP3   OH243088   1.093   0.805   0.613
14382TIP3    H143089   1.099   0.900   0.628
14382TIP3    H243090   1.152   0.767   0.678
14383TIP3   OH243091   3.073   2.369   4.360
14383TIP3    H143092   3.030   2.370   4.274
14383TIP3    H243093   3.143   2.434   4.353
14384TIP3   OH243094   0.104   4.057   0.143
14384TIP3    H143095   0.025   4.003   0.140
14384TIP3    H243096   0.164   4.014   0.081
14385TIP3   OH243097   2.065   5.292   3.265
14385TIP3    H143098   2.109   5.328   3.188
14385TIP3    H243099   2.009   5.222   3.230
14386TIP3   OH243100   3.857   2.469   3.321
14386TIP3    H143101   3.933   2.474   3.262
14386TIP3    H243102   3.782   2.476   3.263
14387TIP3   OH243103   1.205   5.078   1.109
14387TIP3    H143104   1.259   5.141   1.061
14387TIP3    H243105   1.159   5.132   1.174
14388TIP3   OH243106   5.813   0.058   3.364
14388TIP3    H143107   5.887   0.083   3.418
14388TIP3    H243108   5.775   0.141   3.335
14389TIP3   OH243109   5.766   5.508   4.685
14389TIP3    H143110   5.757   5.413   4.690
14389TIP3    H243111   5.856   5.522   4.657
14390TIP3   OH243112   1.544   2.725   4.698
14390TIP3    H143113   1.608   2.795   4.686
14390TIP3    H243114   1.598   2.645   4.705
14391TIP3   OH243115   7.427   1.060   1.662
14391TIP3    H143116   7.404   0.973   1.630
14391TIP3    H243117   7.490   1.094   1.598
14392TIP3   OH243118   1.958   6.370   5.692
14392TIP3    H143119   2.048   6.392   5.714
14392TIP3    H243120   1.958   6.275   5.680
14393TIP3   OH243121   4.371   3.577   2.092
14393TIP3    H143122   4.304   3.624   2.042
14393TIP3    H243123   4.348   3.593   2.183
14394TIP3   OH243124   2.818   1.333   4.358
14394TIP3    H143125   2.797   1.241   4.373
14394TIP3    H243126   2.753   1.382   4.408
14395TIP3   OH243127   6.269   3.245   1.090
14395TIP3    H143128   6.316   3.328   1.101
14395TIP3    H243129   6.224   3.254   1.006
14396TIP3   OH243130   3.236   1.289   2.651
14396TIP3    H143131   3.269   1.231   2.582
14396TIP3    H243132   3.274   1.375   2.630
14397TIP3   OH243133   5.303   4.476   1.285
14397TIP3    H143134   5.286   4.445   1.196
14397TIP3    H243135   5.220   4.464   1.332
14398TIP3   OH243136   2.249   4.708   5.673
14398TIP3    H143137   2.326   4.652   5.660
14398TIP3    H243138   2.216   4.723   5.584
14399TIP3   OH243139   3.430   4.628   4.057
14399TIP3    H143140   3.353   4.681   4.077
14399TIP3    H243141   3.452   4.649   3.966
14400TIP3   OH243142   4.053   0.850   4.859
14400TIP3    H143143   3.971   0.803   4.844
14400TIP3    H243144   4.121   0.785   4.845
14401TIP3   OH243145   6.238   5.842   5.162
14401TIP3    H143146   6.199   5.926   5.186
14401TIP3    H243147   6.264   5.853   5.071
14402TIP3   OH243148   0.527   4.086   6.760
14402TIP3    H143149   0.590   4.014   6.768
14402TIP3    H243150   0.524   4.104   6.666
14403TIP3   OH243151   6.068   5.647   5.287
14403TIP3    H143152   6.113   5.711   5.233
14403TIP3    H243153   5.998   5.613   5.232
14404TIP3   OH243154   8.000   2.915   6.612
14404TIP3    H143155   7.955   2.948   6.689
14404TIP3    H243156   7.937   2.856   6.570
14405TIP3   OH243157   4.777   0.507   0.360
14405TIP3    H143158   4.746   0.468   0.442
14405TIP3    H243159   4.870   0.485   0.357
14406TIP3   OH243160   0.748   3.344   2.449
14406TIP3    H143161   0.669   3.303   2.484
14406TIP3    H243162   0.717   3.422   2.403
14407TIP3   OH243163   0.365   3.895   0.192
14407TIP3    H143164   0.421   3.853   0.258
14407TIP3    H243165   0.405   3.871   0.108
14408TIP3   OH243166   3.087   2.735   1.803
14408TIP3    H143167   3.123   2.822   1.820
14408TIP3    H243168   3.164   2.677   1.803
14409TIP3   OH243169   4.822   1.323   3.334
14409TIP3    H143170   4.793   1.235   3.310
14409TIP3    H243171   4.756   1.353   3.397
14410TIP3   OH243172   5.365   0.621   1.322
14410TIP3    H143173   5.338   0.581   1.240
14410TIP3    H243174   5.373   0.548   1.383
14411TIP3   OH243175   2.955   3.434   1.649
14411TIP3    H143176   3.033   3.380   1.639
14411TIP3    H243177   2.985   3.509   1.702
14412TIP3   OH243178   0.497   5.350   0.354
14412TIP3    H143179   0.563   5.370   0.288
14412TIP3    H243180   0.508   5.418   0.421
14413TIP3   OH243181   2.667   4.635   3.147
14413TIP3    H143182   2.757   4.648   3.177
14413TIP3    H243183   2.648   4.543   3.165
14414TIP3   OH243184   4.641   5.428   6.146
14414TIP3    H143185   4.556   5.385   6.149
14414TIP3    H243186   4.636   5.487   6.070
14415TIP3   OH243187   3.578   1.641   2.768
14415TIP3    H143188   3.652   1.644   2.708
14415TIP3    H243189   3.553   1.732   2.781
14416TIP3   OH243190   3.927   3.196   3.756
14416TIP3    H143191   3.964   3.138   3.689
14416TIP3    H243192   3.878   3.137   3.814
14417TIP3   OH243193   6.088   7.346   4.453
14417TIP3    H143194   6.018   7.411   4.460
14417TIP3    H243195   6.105   7.338   4.360
14418TIP3   OH243196   4.005   5.217   5.113
14418TIP3    H143197   4.085   5.178   5.146
14418TIP3    H243198   3.944   5.144   5.104
14419TIP3   OH243199   2.900   4.301   1.220
14419TIP3    H143200   2.920   4.250   1.142
14419TIP3    H243201   2.871   4.236   1.284
14420TIP3   OH243202   7.621   1.770   0.061
14420TIP3    H143203   7.532   1.743   0.037
14420TIP3    H243204   7.678   1.715   0.008
14421TIP3   OH243205   1.846   3.327   1.751
14421TIP3    H143206   1.898   3.405   1.771
14421TIP3    H243207   1.858   3.270   1.826
14422TIP3   OH243208   0.089   2.958   2.334
14422TIP3    H143209   0.017   3.021   2.343
14422TIP3    H243210   0.159   2.993   2.388
14423TIP3   OH243211   1.854   7.149   1.983
14423TIP3    H143212   1.931   7.190   2.022
14423TIP3    H243213   1.803   7.117   2.058
14424TIP3   OH243214   5.192   0.423   6.127
14424TIP3    H143215   5.103   0.388   6.134
14424TIP3    H243216   5.180   0.511   6.091
14425TIP3   OH243217   2.136   2.820   1.317
14425TIP3    H143218   2.112   2.871   1.239
14425TIP3    H243219   2.211   2.865   1.354
14426TIP3   OH243220   3.996   3.919   0.501
14426TIP3    H143221   3.935   3.930   0.428
14426TIP3    H243222   4.081   3.901   0.459
14427TIP3   OH243223   6.875   0.254   2.194
14427TIP3    H143224   6.939   0.185   2.210
14427TIP3    H243225   6.912   0.331   2.237
14428TIP3   OH243226   6.471   3.637   0.429
14428TIP3    H143227   6.510   3.627   0.343
14428TIP3    H243228   6.519   3.708   0.470
14429TIP3   OH243229   6.277   2.095   0.228
14429TIP3    H143230   6.300   2.002   0.238
14429TIP3    H243231   6.296   2.134   0.313
14430TIP3   OH243232   3.352   5.654   4.650
14430TIP3    H143233   3.282   5.716   4.669
14430TIP3    H243234   3.432   5.703   4.666
14431TIP3   OH243235   0.858   3.253   4.106
14431TIP3    H143236   0.838   3.172   4.060
14431TIP3    H243237   0.954   3.254   4.114
14432TIP3   OH243238   5.339   1.670   2.778
14432TIP3    H143239   5.423   1.652   2.736
14432TIP3    H243240   5.293   1.728   2.716
14433TIP3   OH243241   4.655   1.107   6.637
14433TIP3    H143242   4.633   1.116   6.729
14433TIP3    H243243   4.582   1.147   6.590
14434TIP3   OH243244   4.740   4.939   5.858
14434TIP3    H143245   4.691   4.863   5.827
14434TIP3    H243246   4.831   4.920   5.835
14435TIP3   OH243247   7.946   0.009   5.944
14435TIP3    H143248   7.901  -0.020   5.865
14435TIP3    H243249   7.937   0.105   5.943
14436TIP3   OH243250   7.468   5.412   0.609
14436TIP3    H143251   7.481   5.486   0.668
14436TIP3    H243252   7.501   5.337   0.657
14437TIP3   OH243253   6.805   1.420   4.508
14437TIP3    H143254   6.767   1.395   4.592
14437TIP3    H243255   6.738   1.473   4.466
14438TIP3   OH243256   0.083   4.694   3.642
14438TIP3    H143257   0.023   4.763   3.669
14438TIP3    H243258   0.088   4.702   3.546
14439TIP3   OH243259   2.099   5.741   0.346
14439TIP3    H143260   2.015   5.755   0.302
14439TIP3    H243261   2.143   5.826   0.340
14440TIP3   OH243262   6.803   0.514   3.066
14440TIP3    H143263   6.869   0.447   3.084
14440TIP3    H243264   6.799   0.565   3.147
14441TIP3   OH243265   7.026   4.934   4.839
14441TIP3    H143266   7.102   4.935   4.781
14441TIP3    H243267   7.013   5.026   4.861
14442TIP3   OH243268   0.773   0.451   0.162
14442TIP3    H143269   0.771   0.374   0.105
14442TIP3    H243270   0.682   0.479   0.167
14443TIP3   OH243271   5.817   7.848   5.045
14443TIP3    H143272   5.817   7.922   5.106
14443TIP3    H243273   5.859   7.777   5.093
14444TIP3   OH243274   6.388   7.296   3.007
14444TIP3    H143275   6.476   7.322   2.980
14444TIP3    H243276   6.361   7.365   3.067
14445TIP3   OH243277   1.798   7.544   1.410
14445TIP3    H143278   1.736   7.615   1.427
14445TIP3    H243279   1.764   7.500   1.332
14446TIP3   OH243280   5.337   6.792   1.485
14446TIP3    H143281   5.257   6.742   1.471
14446TIP3    H243282   5.318   6.878   1.450
14447TIP3   OH243283   3.821   6.306   3.964
14447TIP3    H143284   3.860   6.257   4.037
14447TIP3    H243285   3.745   6.348   4.003
14448TIP3   OH243286   2.674   6.114   0.652
14448TIP3    H143287   2.662   6.032   0.604
14448TIP3    H243288   2.593   6.124   0.703
14449TIP3   OH243289   3.975   5.624   3.896
14449TIP3    H143290   4.021   5.696   3.940
14449TIP3    H243291   4.040   5.555   3.887
14450TIP3   OH243292   7.689   1.203   3.632
14450TIP3    H143293   7.721   1.267   3.696
14450TIP3    H243294   7.714   1.239   3.547
14451TIP3   OH243295   1.400   6.643   4.499
14451TIP3    H143296   1.336   6.618   4.565
14451TIP3    H243297   1.460   6.701   4.546
14452TIP3   OH243298   7.778   3.146   1.000
14452TIP3    H143299   7.780   3.241   1.001
14452TIP3    H243300   7.691   3.123   1.033
14453TIP3   OH243301   2.336   0.026   2.733
14453TIP3    H143302   2.292   0.080   2.667
14453TIP3    H243303   2.268   0.007   2.797
14454TIP3   OH243304   7.755   5.550   6.050
14454TIP3    H143305   7.792   5.622   5.998
14454TIP3    H243306   7.816   5.539   6.123
14455TIP3   OH243307   1.747   3.399   1.189
14455TIP3    H143308   1.833   3.436   1.209
14455TIP3    H243309   1.746   3.392   1.094
14456TIP3   OH243310   5.116   7.268   3.757
14456TIP3    H143311   5.032   7.280   3.712
14456TIP3    H243312   5.108   7.183   3.799
14457TIP3   OH243313   2.382   3.653   6.515
14457TIP3    H143314   2.477   3.664   6.518
14457TIP3    H243315   2.364   3.630   6.424
14458TIP3   OH243316   2.294   7.712   6.307
14458TIP3    H143317   2.285   7.712   6.211
14458TIP3    H243318   2.226   7.771   6.337
14459TIP3   OH243319   8.196   3.968   6.023
14459TIP3    H143320   8.249   3.921   6.087
14459TIP3    H243321   8.122   3.910   6.006
14460TIP3   OH243322   3.938   1.104   4.306
14460TIP3    H143323   3.965   1.016   4.333
14460TIP3    H243324   4.000   1.162   4.350
14461TIP3   OH243325   5.097   5.217   3.314
14461TIP3    H143326   5.130   5.128   3.328
14461TIP3    H243327   5.171   5.274   3.333
14462TIP3   OH243328   3.338   5.981   4.930
14462TIP3    H143329   3.309   6.053   4.987
14462TIP3    H243330   3.256   5.945   4.895
14463TIP3   OH243331   5.752   6.644   0.364
14463TIP3    H143332   5.766   6.561   0.318
14463TIP3    H243333   5.806   6.637   0.442
14464TIP3   OH243334   5.735   5.409   3.867
14464TIP3    H143335   5.703   5.329   3.910
14464TIP3    H243336   5.776   5.378   3.786
14465TIP3   OH243337   2.124   0.571   3.678
14465TIP3    H143338   2.078   0.612   3.605
14465TIP3    H243339   2.164   0.645   3.725
14466TIP3   OH243340   7.974   7.740   2.508
14466TIP3    H143341   7.919   7.816   2.524
14466TIP3    H243342   8.039   7.742   2.579
14467TIP3   OH243343   7.865   4.615   1.343
14467TIP3    H143344   7.791   4.555   1.338
14467TIP3    H243345   7.919   4.593   1.267
14468TIP3   OH243346   6.843   2.032   0.588
14468TIP3    H143347   6.796   2.026   0.505
14468TIP3    H243348   6.934   2.051   0.562
14469TIP3   OH243349   6.144   3.596   0.792
14469TIP3    H143350   6.180   3.531   0.853
14469TIP3    H243351   6.050   3.591   0.805
14470TIP3   OH243352   4.774   0.083   3.537
14470TIP3    H143353   4.831   0.009   3.557
14470TIP3    H243354   4.726   0.100   3.618
14471TIP3   OH243355   0.958   0.589   2.584
14471TIP3    H143356   1.017   0.626   2.649
14471TIP3    H243357   0.934   0.503   2.620
14472TIP3   OH243358   5.590   1.980   2.073
14472TIP3    H143359   5.527   2.033   2.025
14472TIP3    H243360   5.660   2.041   2.097
14473TIP3   OH243361   8.342   5.678   2.000
14473TIP3    H143362   8.366   5.737   1.929
14473TIP3    H243363   8.296   5.606   1.957
14474TIP3   OH243364   6.767   6.216   2.085
14474TIP3    H143365   6.807   6.263   2.158
14474TIP3    H243366   6.815   6.133   2.081
14475TIP3   OH243367   2.822   5.043   0.210
14475TIP3    H143368   2.893   5.035   0.273
14475TIP3    H243369   2.767   4.966   0.227
14476TIP3   OH243370   5.239   3.749   1.648
14476TIP3    H143371   5.210   3.707   1.567
14476TIP3    H243372   5.195   3.699   1.718
14477TIP3   OH243373   1.669   5.071   5.777
14477TIP3    H143374   1.697   5.126   5.851
14477TIP3    H243375   1.703   5.117   5.700
14478TIP3   OH243376   6.907   4.913   3.493
14478TIP3    H143377   6.894   4.916   3.399
14478TIP3    H243378   6.903   5.004   3.522
14479TIP3   OH243379   7.748   0.853   6.646
14479TIP3    H143380   7.675   0.879   6.589
14479TIP3    H243381   7.729   0.762   6.669
14480TIP3   OH243382   7.444   6.651   1.211
14480TIP3    H143383   7.407   6.723   1.261
14480TIP3    H243384   7.410   6.572   1.254
14481TIP3   OH243385   1.461   7.130   0.444
14481TIP3    H143386   1.431   7.162   0.359
14481TIP3    H243387   1.475   7.036   0.431
14482TIP3   OH243388   0.551   3.374   0.002
14482TIP3    H143389   0.597   3.346  -0.077
14482TIP3    H243390   0.528   3.292   0.046
14483TIP3   OH243391   1.841   6.489   1.425
14483TIP3    H143392   1.766   6.503   1.367
14483TIP3    H243393   1.887   6.573   1.425
14484TIP3   OH243394   2.208   4.567   0.692
14484TIP3    H143395   2.291   4.569   0.645
14484TIP3    H243396   2.216   4.634   0.759
14485TIP3   OH243397   5.155   1.104   6.467
14485TIP3    H143398   5.094   1.150   6.524
14485TIP3    H243399   5.241   1.126   6.502
14486TIP3   OH243400   4.052   6.706   6.535
14486TIP3    H143401   3.960   6.690   6.551
14486TIP3    H243402   4.087   6.621   6.508
14487TIP3   OH243403   0.986   5.501   0.775
14487TIP3    H143404   1.007   5.447   0.699
14487TIP3    H243405   1.035   5.461   0.847
14488TIP3   OH243406   3.577   7.785   4.104
14488TIP3    H143407   3.546   7.789   4.014
14488TIP3    H243408   3.660   7.737   4.099
14489TIP3   OH243409   5.359   7.377   3.823
14489TIP3    H143410   5.426   7.352   3.759
14489TIP3    H243411   5.286   7.319   3.805
14490TIP3   OH243412   0.953   5.073   4.402
14490TIP3    H143413   0.885   5.138   4.384
14490TIP3    H243414   0.984   5.093   4.490
14491TIP3   OH243415   1.090   0.317   5.224
14491TIP3    H143416   1.022   0.263   5.265
14491TIP3    H243417   1.054   0.337   5.137
14492TIP3   OH243418   1.163   0.736   4.442
14492TIP3    H143419   1.228   0.752   4.510
14492TIP3    H243420   1.187   0.650   4.406
14493TIP3   OH243421   7.883   5.630   5.495
14493TIP3    H143422   7.913   5.719   5.479
14493TIP3    H243423   7.963   5.577   5.497
14494TIP3   OH243424   5.226   3.832   6.415
14494TIP3    H143425   5.287   3.759   6.403
14494TIP3    H243426   5.183   3.842   6.330
14495TIP3   OH243427   6.892   1.312   1.234
14495TIP3    H143428   6.984   1.306   1.257
14495TIP3    H243429   6.873   1.231   1.187
14496TIP3   OH243430   5.498   6.093   2.020
14496TIP3    H143431   5.404   6.107   2.013
14496TIP3    H243432   5.506   6.005   2.059
14497TIP3   OH243433   7.654   7.076   1.221
14497TIP3    H143434   7.644   7.124   1.304
14497TIP3    H243435   7.659   7.144   1.154
14498TIP3   OH243436   0.428   7.617   2.998
14498TIP3    H143437   0.368   7.560   2.950
14498TIP3    H243438   0.487   7.556   3.044
14499TIP3   OH243439   6.920   4.585   0.715
14499TIP3    H143440   6.964   4.577   0.630
14499TIP3    H243441   6.851   4.649   0.700
14500TIP3   OH243442   5.424   7.536   6.409
14500TIP3    H143443   5.397   7.627   6.423
14500TIP3    H243444   5.474   7.539   6.327
14501TIP3   OH243445   2.463   7.586   1.991
14501TIP3    H143446   2.419   7.635   2.061
14501TIP3    H243447   2.468   7.496   2.024
14502TIP3   OH243448   4.139   6.163   0.772
14502TIP3    H143449   4.208   6.119   0.821
14502TIP3    H243450   4.132   6.249   0.814
14503TIP3   OH243451   7.224   3.543   3.400
14503TIP3    H143452   7.309   3.531   3.358
14503TIP3    H243453   7.224   3.480   3.472
14504TIP3   OH243454   1.748   3.807   2.115
14504TIP3    H143455   1.842   3.825   2.111
14504TIP3    H243456   1.741   3.715   2.089
14505TIP3   OH243457   4.377   7.881   5.254
14505TIP3    H143458   4.386   7.808   5.314
14505TIP3    H243459   4.283   7.900   5.253
14506TIP3   OH243460   8.128   4.476   1.947
14506TIP3    H143461   8.209   4.431   1.973
14506TIP3    H243462   8.128   4.557   1.998
14507TIP3   OH243463   4.209   0.667   6.261
14507TIP3    H143464   4.223   0.611   6.337
14507TIP3    H243465   4.137   0.725   6.286
14508TIP3   OH243466   3.759   6.844   2.040
14508TIP3    H143467   3.681   6.858   2.094
14508TIP3    H243468   3.741   6.764   1.991
14509TIP3   OH243469   1.238   5.913   2.810
14509TIP3    H143470   1.323   5.914   2.854
14509TIP3    H243471   1.183   5.973   2.861
14510TIP3   OH243472   1.261   2.736   3.585
14510TIP3    H143473   1.227   2.655   3.623
14510TIP3    H243474   1.225   2.805   3.640
14511TIP3   OH243475   1.789   3.482   3.594
14511TIP3    H143476   1.881   3.505   3.580
14511TIP3    H243477   1.744   3.511   3.514
14512TIP3   OH243478   4.109   3.140   2.974
14512TIP3    H143479   4.187   3.100   3.013
14512TIP3    H243480   4.042   3.133   3.041
14513TIP3   OH243481   5.780   3.238   6.073
14513TIP3    H143482   5.753   3.226   5.982
14513TIP3    H243483   5.699   3.253   6.120
14514TIP3   OH243484   7.727   2.398   0.755
14514TIP3    H143485   7.696   2.479   0.715
14514TIP3    H243486   7.761   2.346   0.682
14515TIP3   OH243487   7.386   1.620   1.985
14515TIP3    H143488   7.296   1.646   1.964
14515TIP3    H243489   7.440   1.692   1.952
14516TIP3   OH243490   5.706   0.952   4.115
14516TIP3    H143491   5.790   0.913   4.139
14516TIP3    H243492   5.645   0.878   4.114
14517TIP3   OH243493   5.455   0.671   4.488
14517TIP3    H143494   5.533   0.662   4.434
14517TIP3    H243495   5.410   0.587   4.480
14518TIP3   OH243496   7.009   6.571   1.522
14518TIP3    H143497   7.008   6.477   1.540
14518TIP3    H243498   6.948   6.609   1.585
14519TIP3   OH243499   3.352   0.673   5.123
14519TIP3    H143500   3.355   0.687   5.028
14519TIP3    H243501   3.265   0.701   5.149
14520TIP3   OH243502   7.730   6.633   1.487
14520TIP3    H143503   7.640   6.646   1.517
14520TIP3    H243504   7.721   6.589   1.402
14521TIP3   OH243505   6.723   0.706   1.781
14521TIP3    H143506   6.698   0.759   1.705
14521TIP3    H243507   6.729   0.770   1.852
14522TIP3   OH243508   6.686   5.354   4.675
14522TIP3    H143509   6.712   5.392   4.592
14522TIP3    H243510   6.736   5.403   4.740
14523TIP3   OH243511   6.946   1.595   4.648
14523TIP3    H143512   6.893   1.543   4.588
14523TIP3    H243513   7.032   1.553   4.648
14524TIP3   OH243514   2.928   5.769   4.184
14524TIP3    H143515   3.000   5.725   4.139
14524TIP3    H243516   2.970   5.814   4.257
14525TIP3   OH243517   1.109   4.783   2.547
14525TIP3    H143518   1.165   4.847   2.591
14525TIP3    H243519   1.167   4.709   2.529
14526TIP3   OH243520   3.036   2.725   5.656
14526TIP3    H143521   3.083   2.786   5.600
14526TIP3    H243522   3.104   2.670   5.695
14527TIP3   OH243523   4.487   6.446   3.592
14527TIP3    H143524   4.433   6.366   3.596
14527TIP3    H243525   4.441   6.508   3.648
14528TIP3   OH243526   1.927   4.229   5.086
14528TIP3    H143527   1.891   4.239   5.174
14528TIP3    H243528   1.958   4.138   5.082
14529TIP3   OH243529   4.778   0.122   4.331
14529TIP3    H143530   4.763   0.117   4.425
14529TIP3    H243531   4.833   0.046   4.311
14530TIP3   OH243532   1.791   5.547   6.719
14530TIP3    H143533   1.766   5.625   6.768
14530TIP3    H243534   1.826   5.580   6.637
14531TIP3   OH243535   7.418   4.658   6.217
14531TIP3    H143536   7.329   4.673   6.250
14531TIP3    H243537   7.405   4.630   6.126
14532TIP3   OH243538   2.131   7.582   5.021
14532TIP3    H143539   2.215   7.627   5.026
14532TIP3    H243540   2.135   7.534   4.938
14533TIP3   OH243541   2.699   4.924   3.513
14533TIP3    H143542   2.616   4.958   3.547
14533TIP3    H243543   2.757   4.922   3.589
14534TIP3   OH243544   2.982   1.798   0.795
14534TIP3    H143545   2.909   1.758   0.747
14534TIP3    H243546   2.942   1.873   0.839
14535TIP3   OH243547   5.139   7.756   4.348
14535TIP3    H143548   5.044   7.745   4.353
14535TIP3    H243549   5.151   7.847   4.324
14536TIP3   OH243550   1.845   5.744   0.153
14536TIP3    H143551   1.822   5.666   0.102
14536TIP3    H243552   1.841   5.816   0.090
14537TIP3   OH243553   2.074   1.924   3.188
14537TIP3    H143554   2.141   1.957   3.248
14537TIP3    H243555   2.109   1.840   3.157
14538TIP3   OH243556   3.619   6.961   1.543
14538TIP3    H143557   3.609   6.880   1.493
14538TIP3    H243558   3.696   6.945   1.598
14539TIP3   OH243559   2.556   1.893   0.841
14539TIP3    H143560   2.499   1.932   0.908
14539TIP3    H243561   2.644   1.904   0.876
14540TIP3   OH243562   6.274   2.611   2.117
14540TIP3    H143563   6.216   2.559   2.061
14540TIP3    H243564   6.220   2.686   2.142
14541TIP3   OH243565   1.327   2.107   4.444
14541TIP3    H143566   1.373   2.160   4.379
14541TIP3    H243567   1.236   2.104   4.412
14542TIP3   OH243568   4.045   1.518   3.566
14542TIP3    H143569   3.958   1.488   3.540
14542TIP3    H243570   4.047   1.505   3.661
14543TIP3   OH243571   3.054   7.404   3.749
14543TIP3    H143572   2.976   7.379   3.798
14543TIP3    H243573   3.118   7.428   3.816
14544TIP3   OH243574   4.612   6.974   5.103
14544TIP3    H143575   4.633   7.057   5.144
14544TIP3    H243576   4.523   6.985   5.069
14545TIP3   OH243577   0.852   3.884   5.051
14545TIP3    H143578   0.837   3.945   5.122
14545TIP3    H243579   0.800   3.917   4.978
14546TIP3   OH243580   2.108   3.584   4.590
14546TIP3    H143581   2.109   3.669   4.635
14546TIP3    H243582   2.196   3.548   4.603
14547TIP3   OH243583   7.863   0.785   1.631
14547TIP3    H143584   7.916   0.772   1.552
14547TIP3    H243585   7.822   0.701   1.646
14548TIP3   OH243586   1.732   5.834   2.949
14548TIP3    H143587   1.796   5.801   3.011
14548TIP3    H243588   1.714   5.923   2.978
14549TIP3   OH243589   6.100   6.644   5.612
14549TIP3    H143590   6.090   6.714   5.547
14549TIP3    H243591   6.020   6.593   5.603
14550TIP3   OH243592   4.768   6.829   2.947
14550TIP3    H143593   4.838   6.864   3.002
14550TIP3    H243594   4.788   6.735   2.940
14551TIP3   OH243595   5.940   1.503   6.517
14551TIP3    H143596   5.987   1.426   6.547
14551TIP3    H243597   5.912   1.547   6.597
14552TIP3   OH243598   4.764   3.342   2.953
14552TIP3    H143599   4.686   3.396   2.944
14552TIP3    H243600   4.731   3.253   2.964
14553TIP3   OH243601   2.059   3.775   0.684
14553TIP3    H143602   2.079   3.691   0.726
14553TIP3    H243603   2.120   3.837   0.725
14554TIP3   OH243604   5.615   4.594   1.185
14554TIP3    H143605   5.707   4.605   1.164
14554TIP3    H243606   5.568   4.630   1.110
14555TIP3   OH243607   7.077   4.494   0.492
14555TIP3    H143608   7.144   4.495   0.560
14555TIP3    H243609   7.125   4.483   0.411
14556TIP3   OH243610   5.342   1.147   4.778
14556TIP3    H143611   5.279   1.199   4.729
14556TIP3    H243612   5.336   1.059   4.740
14557TIP3   OH243613   8.069   3.509   4.785
14557TIP3    H143614   8.154   3.536   4.818
14557TIP3    H243615   8.073   3.413   4.781
14558TIP3   OH243616   1.589   6.361   2.628
14558TIP3    H143617   1.604   6.322   2.715
14558TIP3    H243618   1.638   6.305   2.568
14559TIP3   OH243619   2.842   2.636   1.875
14559TIP3    H143620   2.937   2.644   1.865
14559TIP3    H243621   2.825   2.663   1.966
14560TIP3   OH243622   4.220   7.517   6.619
14560TIP3    H143623   4.248   7.447   6.678
14560TIP3    H243624   4.278   7.590   6.641
14561TIP3   OH243625   4.078   6.556   3.073
14561TIP3    H143626   4.031   6.626   3.028
14561TIP3    H243627   4.024   6.536   3.149
14562TIP3   OH243628   3.093   5.989   0.832
14562TIP3    H143629   3.102   6.075   0.792
14562TIP3    H243630   3.001   5.985   0.858
14563TIP3   OH243631   3.422   3.482   2.222
14563TIP3    H143632   3.440   3.528   2.303
14563TIP3    H243633   3.359   3.414   2.246
14564TIP3   OH243634  -0.001   4.209   0.344
14564TIP3    H143635   0.068   4.223   0.409
14564TIP3    H243636   0.040   4.152   0.278
14565TIP3   OH243637   2.262   0.827   5.719
14565TIP3    H143638   2.215   0.847   5.800
14565TIP3    H243639   2.294   0.912   5.689
14566TIP3   OH243640   6.425   6.945   0.650
14566TIP3    H143641   6.459   6.974   0.566
14566TIP3    H243642   6.502   6.913   0.698
14567TIP3   OH243643   7.240   4.518   4.739
14567TIP3    H143644   7.166   4.557   4.694
14567TIP3    H243645   7.225   4.423   4.735
14568TIP3   OH243646   4.444   2.839   3.438
14568TIP3    H143647   4.378   2.871   3.500
14568TIP3    H243648   4.494   2.775   3.488
14569TIP3   OH243649   4.019   5.284   1.610
14569TIP3    H143650   4.009   5.299   1.704
14569TIP3    H243651   3.975   5.200   1.594
14570TIP3   OH243652   7.918   6.694   6.038
14570TIP3    H143653   7.876   6.772   6.002
14570TIP3    H243654   7.918   6.707   6.132
14571TIP3   OH243655   7.470   4.457   6.594
14571TIP3    H143656   7.519   4.416   6.665
14571TIP3    H243657   7.531   4.459   6.520
14572TIP3   OH243658   3.852   1.977   6.409
14572TIP3    H143659   3.855   2.038   6.336
14572TIP3    H243660   3.798   1.904   6.376
14573TIP3   OH243661   3.889   2.349   1.794
14573TIP3    H143662   3.857   2.363   1.884
14573TIP3    H243663   3.835   2.407   1.740
14574TIP3   OH243664   1.248   3.238   6.556
14574TIP3    H143665   1.232   3.145   6.572
14574TIP3    H243666   1.161   3.275   6.542
14575TIP3   OH243667   2.291   0.521   0.637
14575TIP3    H143668   2.293   0.528   0.541
14575TIP3    H243669   2.209   0.475   0.656
14576TIP3   OH243670   6.968   7.134   0.280
14576TIP3    H143671   6.876   7.149   0.259
14576TIP3    H243672   6.997   7.071   0.214
14577TIP3   OH243673   1.849   5.271   0.155
14577TIP3    H143674   1.893   5.348   0.189
14577TIP3    H243675   1.797   5.303   0.081
14578TIP3   OH243676   6.687   6.681   6.214
14578TIP3    H143677   6.603   6.639   6.232
14578TIP3    H243678   6.695   6.678   6.118
14579TIP3   OH243679   7.023   1.524   0.214
14579TIP3    H143680   7.020   1.614   0.182
14579TIP3    H243681   7.058   1.474   0.140
14580TIP3   OH243682   5.196   4.170   2.943
14580TIP3    H143683   5.145   4.097   2.978
14580TIP3    H243684   5.139   4.246   2.953
14581TIP3   OH243685   6.260   7.801   3.760
14581TIP3    H143686   6.323   7.791   3.831
14581TIP3    H243687   6.181   7.758   3.792
14582TIP3   OH243688   6.018   7.661   6.127
14582TIP3    H143689   5.927   7.684   6.108
14582TIP3    H243690   6.055   7.638   6.042
14583TIP3   OH243691   4.433   3.543   2.992
14583TIP3    H143692   4.344   3.524   3.020
14583TIP3    H243693   4.455   3.472   2.931
14584TIP3   OH243694   6.394   2.926   6.392
14584TIP3    H143695   6.440   2.842   6.403
14584TIP3    H243696   6.341   2.934   6.471
14585TIP3   OH243697   6.272   2.200   6.344
14585TIP3    H143698   6.245   2.114   6.312
14585TIP3    H243699   6.191   2.251   6.348
14586TIP3   OH243700   2.759   4.617   5.754
14586TIP3    H143701   2.764   4.639   5.847
14586TIP3    H243702   2.794   4.693   5.709
14587TIP3   OH243703   0.687   0.716   3.620
14587TIP3    H143704   0.704   0.626   3.647
14587TIP3    H243705   0.774   0.755   3.610
14588TIP3   OH243706   1.139   1.041   1.509
14588TIP3    H143707   1.151   1.114   1.570
14588TIP3    H243708   1.157   1.078   1.423
14589TIP3   OH243709   1.538   3.539   3.704
14589TIP3    H143710   1.530   3.635   3.702
14589TIP3    H243711   1.628   3.522   3.676
14590TIP3   OH243712   3.437   0.876   2.677
14590TIP3    H143713   3.528   0.850   2.687
14590TIP3    H243714   3.389   0.793   2.675
14591TIP3   OH243715   3.232   7.542   1.722
14591TIP3    H143716   3.227   7.564   1.815
14591TIP3    H243717   3.193   7.455   1.716
14592TIP3   OH243718   7.736   2.024   5.678
14592TIP3    H143719   7.768   2.041   5.590
14592TIP3    H243720   7.801   1.966   5.717
14593TIP3   OH243721   0.732   7.322   5.389
14593TIP3    H143722   0.827   7.315   5.392
14593TIP3    H243723   0.702   7.277   5.468
14594TIP3   OH243724   5.973   7.272   3.113
14594TIP3    H143725   5.972   7.356   3.066
14594TIP3    H243726   5.970   7.206   3.043
14595TIP3   OH243727   0.737   0.346   5.450
14595TIP3    H143728   0.781   0.387   5.525
14595TIP3    H243729   0.776   0.388   5.373
14596TIP3   OH243730   6.386   0.704   1.747
14596TIP3    H143731   6.315   0.675   1.805
14596TIP3    H243732   6.449   0.632   1.749
14597TIP3   OH243733   2.022   2.270   0.708
14597TIP3    H143734   2.051   2.248   0.620
14597TIP3    H243735   2.050   2.195   0.762
14598TIP3   OH243736   6.597   2.114   6.253
14598TIP3    H143737   6.536   2.188   6.254
14598TIP3    H243738   6.623   2.105   6.162
14599TIP3   OH243739   0.295   7.361   0.272
14599TIP3    H143740   0.384   7.346   0.302
14599TIP3    H243741   0.273   7.449   0.305
14600TIP3   OH243742   2.772   7.261   4.166
14600TIP3    H143743   2.687   7.271   4.209
14600TIP3    H243744   2.815   7.191   4.215
14601TIP3   OH243745   2.367   7.503   2.695
14601TIP3    H143746   2.280   7.464   2.695
14601TIP3    H243747   2.384   7.526   2.604
14602TIP3   OH243748   1.734   5.578   5.881
14602TIP3    H143749   1.640   5.598   5.880
14602TIP3    H243750   1.772   5.634   5.813
14603TIP3   OH243751   4.544   5.722   0.293
14603TIP3    H143752   4.584   5.769   0.220
14603TIP3    H243753   4.477   5.667   0.253
14604TIP3   OH243754   0.712   4.007   5.489
14604TIP3    H143755   0.690   4.097   5.513
14604TIP3    H243756   0.736   4.012   5.397
14605TIP3   OH243757   6.008   6.334   5.739
14605TIP3    H143758   5.968   6.254   5.704
14605TIP3    H243759   5.972   6.405   5.686
14606TIP3   OH243760   7.902   6.083   0.950
14606TIP3    H143761   7.863   6.082   1.037
14606TIP3    H243762   7.862   6.160   0.907
14607TIP3   OH243763   2.105   7.551   4.442
14607TIP3    H143764   2.088   7.485   4.509
14607TIP3    H243765   2.188   7.591   4.468
14608TIP3   OH243766   4.570   2.022   3.910
14608TIP3    H143767   4.581   1.957   3.840
14608TIP3    H243768   4.485   2.062   3.891
14609TIP3   OH243769   5.401   2.036   1.287
14609TIP3    H143770   5.316   2.018   1.327
14609TIP3    H243771   5.425   2.124   1.317
14610TIP3   OH243772   1.967   3.117   1.639
14610TIP3    H143773   1.915   3.196   1.654
14610TIP3    H243774   1.904   3.045   1.645
14611TIP3   OH243775   3.501   4.753   6.407
14611TIP3    H143776   3.586   4.761   6.449
14611TIP3    H243777   3.445   4.713   6.473
14612TIP3   OH243778   0.906   4.213   0.662
14612TIP3    H143779   0.845   4.286   0.666
14612TIP3    H243780   0.910   4.179   0.752
14613TIP3   OH243781   7.609   0.816   5.406
14613TIP3    H143782   7.685   0.844   5.457
14613TIP3    H243783   7.534   0.847   5.457
14614TIP3   OH243784   7.824   3.257   2.078
14614TIP3    H143785   7.877   3.225   2.005
14614TIP3    H243786   7.874   3.330   2.113
14615TIP3   OH243787   3.830   3.754   5.586
14615TIP3    H143788   3.804   3.827   5.642
14615TIP3    H243789   3.802   3.676   5.634
14616TIP3   OH243790   5.660   6.302   3.407
14616TIP3    H143791   5.695   6.247   3.337
14616TIP3    H243792   5.710   6.276   3.485
14617TIP3   OH243793   7.544   2.740   1.472
14617TIP3    H143794   7.560   2.738   1.378
14617TIP3    H243795   7.534   2.647   1.496
14618TIP3   OH243796   0.505   7.153   0.406
14618TIP3    H143797   0.547   7.087   0.351
14618TIP3    H243798   0.554   7.151   0.489
14619TIP3   OH243799   2.179   2.958   2.928
14619TIP3    H143800   2.185   2.862   2.927
14619TIP3    H243801   2.130   2.978   3.008
14620TIP3   OH243802   0.809   1.289   2.077
14620TIP3    H143803   0.807   1.232   2.001
14620TIP3    H243804   0.899   1.322   2.079
14621TIP3   OH243805   0.070   2.646   4.759
14621TIP3    H143806   0.159   2.635   4.723
14621TIP3    H243807   0.084   2.688   4.844
14622TIP3   OH243808   6.483   6.089   6.057
14622TIP3    H143809   6.565   6.117   6.016
14622TIP3    H243810   6.454   6.166   6.106
14623TIP3   OH243811   4.422   1.761   5.350
14623TIP3    H143812   4.362   1.701   5.394
14623TIP3    H243813   4.365   1.829   5.313
14624TIP3   OH243814   4.744   6.397   6.673
14624TIP3    H143815   4.682   6.354   6.614
14624TIP3    H243816   4.693   6.413   6.753
14625TIP3   OH243817   7.911   4.728   2.001
14625TIP3    H143818   7.949   4.718   2.089
14625TIP3    H243819   7.987   4.740   1.944
14626TIP3   OH243820   0.938   0.466   4.562
14626TIP3    H143821   0.906   0.514   4.485
14626TIP3    H243822   0.919   0.374   4.543
14627TIP3   OH243823  -0.009   7.655   4.117
14627TIP3    H143824   0.080   7.652   4.082
14627TIP3    H243825  -0.061   7.689   4.044
14628TIP3   OH243826   3.429   4.355   1.882
14628TIP3    H143827   3.339   4.325   1.877
14628TIP3    H243828   3.430   4.437   1.832
14629TIP3   OH243829   4.738   6.604   0.310
14629TIP3    H143830   4.775   6.686   0.278
14629TIP3    H243831   4.662   6.589   0.254
14630TIP3   OH243832   6.020   1.938   5.774
14630TIP3    H143833   6.100   1.989   5.790
14630TIP3    H243834   6.051   1.847   5.770
14631TIP3   OH243835   6.035   6.893   1.477
14631TIP3    H143836   5.952   6.856   1.449
14631TIP3    H243837   6.034   6.886   1.572
14632TIP3   OH243838   1.771   6.566   3.923
14632TIP3    H143839   1.813   6.602   4.001
14632TIP3    H243840   1.719   6.639   3.889
14633TIP3   OH243841   0.647   5.113   5.981
14633TIP3    H143842   0.710   5.181   6.005
14633TIP3    H243843   0.699   5.048   5.933
14634TIP3   OH243844   1.429   3.403   3.920
14634TIP3    H143845   1.491   3.332   3.941
14634TIP3    H243846   1.464   3.443   3.841
14635TIP3   OH243847   4.366   1.806   3.565
14635TIP3    H143848   4.390   1.725   3.520
14635TIP3    H243849   4.364   1.872   3.496
14636TIP3   OH243850   2.298   7.131   0.223
14636TIP3    H143851   2.278   7.223   0.207
14636TIP3    H243852   2.352   7.130   0.302
14637TIP3   OH243853   2.152   3.162   4.703
14637TIP3    H143854   2.086   3.197   4.643
14637TIP3    H243855   2.101   3.119   4.772
14638TIP3   OH243856   4.970   4.142   3.281
14638TIP3    H143857   5.051   4.166   3.326
14638TIP3    H243858   4.966   4.046   3.288
14639TIP3   OH243859   0.537   4.733   2.855
14639TIP3    H143860   0.555   4.686   2.774
14639TIP3    H243861   0.482   4.806   2.829
14640TIP3   OH243862   5.733   3.312   2.790
14640TIP3    H143863   5.690   3.289   2.872
14640TIP3    H243864   5.812   3.258   2.789
14641TIP3   OH243865   1.918   6.369   2.366
14641TIP3    H143866   1.844   6.309   2.378
14641TIP3    H243867   1.959   6.374   2.453
14642TIP3   OH243868   1.750   3.424   0.127
14642TIP3    H143869   1.822   3.487   0.134
14642TIP3    H243870   1.671   3.479   0.120
14643TIP3   OH243871   1.924   0.014   0.771
14643TIP3    H143872   1.839   0.040   0.735
14643TIP3    H243873   1.988   0.070   0.726
14644TIP3   OH243874   3.887   3.269   1.083
14644TIP3    H143875   3.842   3.327   1.144
14644TIP3    H243876   3.928   3.203   1.139
14645TIP3   OH243877   0.456   6.561   6.439
14645TIP3    H143878   0.445   6.607   6.355
14645TIP3    H243879   0.408   6.479   6.427
14646TIP3   OH243880   4.876   2.137   2.898
14646TIP3    H143881   4.794   2.096   2.925
14646TIP3    H243882   4.940   2.065   2.900
14647TIP3   OH243883   4.506   2.038   6.172
14647TIP3    H143884   4.566   2.027   6.099
14647TIP3    H243885   4.426   2.074   6.133
14648TIP3   OH243886   0.264   2.996   2.560
14648TIP3    H143887   0.210   2.936   2.612
14648TIP3    H243888   0.343   3.008   2.611
14649TIP3   OH243889   5.187   3.683   1.030
14649TIP3    H143890   5.163   3.667   0.939
14649TIP3    H243891   5.275   3.721   1.026
14650TIP3   OH243892   1.405   7.468   4.563
14650TIP3    H143893   1.361   7.525   4.500
14650TIP3    H243894   1.370   7.381   4.545
14651TIP3   OH243895   5.343   3.271   3.031
14651TIP3    H143896   5.286   3.219   2.974
14651TIP3    H243897   5.319   3.362   3.012
14652TIP3   OH243898   5.706   3.667   3.009
14652TIP3    H143899   5.708   3.640   2.917
14652TIP3    H243900   5.798   3.686   3.030
14653TIP3   OH243901   4.768   0.514   5.594
14653TIP3    H143902   4.721   0.437   5.561
14653TIP3    H243903   4.708   0.587   5.579
14654TIP3   OH243904   7.364   1.712   5.326
14654TIP3    H143905   7.355   1.800   5.289
14654TIP3    H243906   7.286   1.701   5.381
14655TIP3   OH243907   4.941   1.333   1.029
14655TIP3    H143908   4.875   1.315   1.095
14655TIP3    H243909   4.906   1.296   0.948
14656TIP3   OH243910   4.161   2.104   1.468
14656TIP3    H143911   4.109   2.034   1.430
14656TIP3    H243912   4.104   2.142   1.535
14657TIP3   OH243913   1.765  -0.024   3.642
14657TIP3    H143914   1.732  -0.089   3.704
14657TIP3    H243915   1.742  -0.059   3.556
14658TIP3   OH243916   3.736   0.558   0.380
14658TIP3    H143917   3.731   0.575   0.474
14658TIP3    H243918   3.768   0.640   0.343
14659TIP3   OH243919   1.272   4.733   1.786
14659TIP3    H143920   1.280   4.820   1.825
14659TIP3    H243921   1.271   4.673   1.862
14660TIP3   OH243922   0.725   6.525   6.421
14660TIP3    H143923   0.658   6.585   6.386
14660TIP3    H243924   0.689   6.438   6.404
14661TIP3   OH243925   0.377   2.084   2.771
14661TIP3    H143926   0.393   2.179   2.765
14661TIP3    H243927   0.464   2.047   2.786
14662TIP3   OH243928   4.659   4.398   2.193
14662TIP3    H143929   4.751   4.415   2.213
14662TIP3    H243930   4.610   4.456   2.252
14663TIP3   OH243931   5.857   1.245   6.164
14663TIP3    H143932   5.922   1.297   6.212
14663TIP3    H243933   5.791   1.309   6.136
14664TIP3   OH243934   5.351   4.138   6.155
14664TIP3    H143935   5.407   4.121   6.080
14664TIP3    H243936   5.333   4.232   6.152
14665TIP3   OH243937   1.077   0.167   0.959
14665TIP3    H143938   1.045   0.244   1.006
14665TIP3    H243939   1.163   0.194   0.925
14666TIP3   OH243940   7.660   5.069   2.509
14666TIP3    H143941   7.644   4.990   2.560
14666TIP3    H243942   7.755   5.076   2.503
14667TIP3   OH243943   6.284   0.538   6.195
14667TIP3    H143944   6.356   0.548   6.256
14667TIP3    H243945   6.226   0.474   6.236
14668TIP3   OH243946   1.692   7.562   3.362
14668TIP3    H143947   1.706   7.551   3.267
14668TIP3    H243948   1.612   7.513   3.380
14669TIP3   OH243949   4.313   7.783   5.486
14669TIP3    H143950   4.232   7.732   5.489
14669TIP3    H243951   4.324   7.815   5.576
14670TIP3   OH243952   4.528   1.763   4.105
14670TIP3    H143953   4.454   1.737   4.160
14670TIP3    H243954   4.488   1.808   4.031
14671TIP3   OH243955   3.027   3.042   0.643
14671TIP3    H143956   3.104   3.080   0.602
14671TIP3    H243957   3.001   3.105   0.710
14672TIP3   OH243958   4.425   2.061   4.308
14672TIP3    H143959   4.388   1.973   4.314
14672TIP3    H243960   4.499   2.053   4.248
14673TIP3   OH243961   0.007   7.441   5.744
14673TIP3    H143962   0.098   7.417   5.758
14673TIP3    H243963  -0.042   7.365   5.777
14674TIP3   OH243964   5.567   5.007   3.799
14674TIP3    H143965   5.495   5.044   3.851
14674TIP3    H243966   5.612   5.084   3.763
14675TIP3   OH243967   4.731   4.080   3.708
14675TIP3    H143968   4.699   3.990   3.718
14675TIP3    H243969   4.744   4.091   3.614
14676TIP3   OH243970   7.029   1.572   0.657
14676TIP3    H143971   6.956   1.560   0.596
14676TIP3    H243972   6.997   1.537   0.740
14677TIP3   OH243973   7.776   3.862   5.132
14677TIP3    H143974   7.834   3.891   5.202
14677TIP3    H243975   7.823   3.789   5.091
14678TIP3   OH243976   7.879   3.106   5.305
14678TIP3    H143977   7.803   3.154   5.271
14678TIP3    H243978   7.949   3.126   5.244
14679TIP3   OH243979   5.380   1.960   6.552
14679TIP3    H143980   5.411   2.051   6.548
14679TIP3    H243981   5.301   1.965   6.607
14680TIP3   OH243982   2.376   5.117   5.328
14680TIP3    H143983   2.402   5.137   5.418
14680TIP3    H243984   2.436   5.169   5.274
14681TIP3   OH243985   1.858   5.642   1.311
14681TIP3    H143986   1.816   5.629   1.226
14681TIP3    H243987   1.804   5.592   1.372
14682TIP3   OH243988   4.499   7.093   3.844
14682TIP3    H143989   4.490   7.009   3.888
14682TIP3    H243990   4.563   7.141   3.897
14683TIP3   OH243991   7.772   7.125   5.788
14683TIP3    H143992   7.808   7.213   5.789
14683TIP3    H243993   7.677   7.138   5.792
14684TIP3   OH243994   3.250   3.292   6.524
14684TIP3    H143995   3.181   3.343   6.480
14684TIP3    H243996   3.212   3.205   6.533
14685TIP3   OH243997   4.146   4.313   4.169
14685TIP3    H143998   4.180   4.379   4.108
14685TIP3    H243999   4.185   4.231   4.140
14686TIP3   OH244000   8.009   3.802   1.746
14686TIP3    H144001   7.921   3.792   1.784
14686TIP3    H244002   8.020   3.723   1.693
14687TIP3   OH244003   1.367   5.561   0.101
14687TIP3    H144004   1.286   5.540   0.148
14687TIP3    H244005   1.363   5.507   0.022
14688TIP3   OH244006   0.010   2.317   6.341
14688TIP3    H144007   0.020   2.245   6.403
14688TIP3    H244008   0.100   2.344   6.321
14689TIP3   OH244009   0.296   2.381   1.833
14689TIP3    H144010   0.271   2.462   1.877
14689TIP3    H244011   0.311   2.319   1.904
14690TIP3   OH244012   1.216   5.927   2.547
14690TIP3    H144013   1.212   5.911   2.641
14690TIP3    H244014   1.125   5.930   2.519
14691TIP3   OH244015   2.733   2.337   3.758
14691TIP3    H144016   2.819   2.325   3.798
14691TIP3    H244017   2.686   2.255   3.776
14692TIP3   OH244018   2.480   4.070   6.713
14692TIP3    H144019   2.429   3.996   6.680
14692TIP3    H244020   2.454   4.078   6.805
14693TIP3   OH244021   7.311   0.397   6.139
14693TIP3    H144022   7.237   0.377   6.083
14693TIP3    H244023   7.383   0.417   6.078
14694TIP3   OH244024   6.342   2.173   1.259
14694TIP3    H144025   6.309   2.130   1.338
14694TIP3    H244026   6.400   2.241   1.292
14695TIP3   OH244027   6.153   0.472   1.741
14695TIP3    H144028   6.139   0.510   1.827
14695TIP3    H244029   6.074   0.419   1.725
14696TIP3   OH244030   7.110   0.121   2.174
14696TIP3    H144031   7.116   0.075   2.258
14696TIP3    H244032   7.184   0.181   2.174
14697TIP3   OH244033   1.625   5.711   6.196
14697TIP3    H144034   1.618   5.772   6.122
14697TIP3    H244035   1.706   5.662   6.179
14698TIP3   OH244036   5.004   7.705   0.076
14698TIP3    H144037   4.957   7.635   0.122
14698TIP3    H244038   5.096   7.677   0.078
14699TIP3   OH244039   1.106   5.543   3.767
14699TIP3    H144040   1.199   5.521   3.771
14699TIP3    H244041   1.070   5.513   3.851
14700TIP3   OH244042   2.200   6.779   1.150
14700TIP3    H144043   2.246   6.792   1.233
14700TIP3    H244044   2.167   6.866   1.128
14701TIP3   OH244045   0.246   5.899   4.001
14701TIP3    H144046   0.231   5.860   4.088
14701TIP3    H244047   0.164   5.942   3.979
14702TIP3   OH244048   0.593   7.573   6.764
14702TIP3    H144049   0.668   7.611   6.809
14702TIP3    H244050   0.618   7.568   6.672
14703TIP3   OH244051   2.394   5.832   0.995
14703TIP3    H144052   2.358   5.904   1.048
14703TIP3    H244053   2.411   5.762   1.058
14704TIP3   OH244054   2.851   1.219   3.092
14704TIP3    H144055   2.891   1.157   3.032
14704TIP3    H244056   2.757   1.203   3.084
14705TIP3   OH244057   4.385   7.514   3.687
14705TIP3    H144058   4.393   7.462   3.607
14705TIP3    H244059   4.463   7.570   3.686
14706TIP3   OH244060   0.763   7.710   0.554
14706TIP3    H144061   0.762   7.804   0.568
14706TIP3    H244062   0.689   7.677   0.604
14707TIP3   OH244063   2.456   2.622   1.882
14707TIP3    H144064   2.433   2.668   1.802
14707TIP3    H244065   2.485   2.691   1.942
14708TIP3   OH244066   6.115   2.070   2.298
14708TIP3    H144067   6.054   2.004   2.331
14708TIP3    H244068   6.094   2.149   2.348
14709TIP3   OH244069   4.745   3.465   1.777
14709TIP3    H144070   4.695   3.451   1.858
14709TIP3    H244071   4.807   3.393   1.775
14710TIP3   OH244072   0.204   5.871   4.541
14710TIP3    H144073   0.219   5.795   4.484
14710TIP3    H244074   0.283   5.875   4.595
14711TIP3   OH244075   4.840   1.206   5.117
14711TIP3    H144076   4.874   1.117   5.124
14711TIP3    H244077   4.749   1.199   5.147
14712TIP3   OH244078   3.896   4.914   6.171
14712TIP3    H144079   3.871   4.824   6.192
14712TIP3    H244080   3.868   4.926   6.081
14713TIP3   OH244081   0.476   1.460   0.329
14713TIP3    H144082   0.440   1.425   0.410
14713TIP3    H244083   0.571   1.451   0.339
14714TIP3   OH244084   1.606   3.438   4.716
14714TIP3    H144085   1.613   3.502   4.644
14714TIP3    H244086   1.625   3.354   4.675
14715TIP3   OH244087  -0.010   0.311   5.837
14715TIP3    H144088  -0.075   0.369   5.797
14715TIP3    H244089   0.073   0.359   5.830
14716TIP3   OH244090   5.032   5.943   4.337
14716TIP3    H144091   5.034   5.949   4.241
14716TIP3    H244092   5.122   5.925   4.362
14717TIP3   OH244093   3.951   1.026   3.910
14717TIP3    H144094   3.994   0.948   3.944
14717TIP3    H244095   3.973   1.027   3.816
14718TIP3   OH244096   4.165   6.524   1.717
14718TIP3    H144097   4.092   6.518   1.779
14718TIP3    H244098   4.123   6.535   1.632
14719TIP3   OH244099   1.756   7.593   2.485
14719TIP3    H144100   1.665   7.616   2.506
14719TIP3    H244101   1.756   7.580   2.390
14720TIP3   OH244102   3.117   4.988   0.294
14720TIP3    H144103   3.124   4.931   0.218
14720TIP3    H244104   3.182   4.955   0.356
14721TIP3   OH244105   8.057   7.446   0.785
14721TIP3    H144106   8.033   7.532   0.819
14721TIP3    H244107   8.117   7.410   0.850
14722TIP3   OH244108   7.026   3.442   1.854
14722TIP3    H144109   7.053   3.514   1.797
14722TIP3    H244110   7.093   3.438   1.922
14723TIP3   OH244111   3.904   2.662   1.601
14723TIP3    H144112   3.960   2.727   1.559
14723TIP3    H244113   3.917   2.582   1.550
14724TIP3   OH244114   3.407   2.430   1.418
14724TIP3    H144115   3.316   2.420   1.445
14724TIP3    H244116   3.456   2.437   1.501
14725TIP3   OH244117   7.569   7.327   3.441
14725TIP3    H144118   7.499   7.273   3.477
14725TIP3    H244119   7.544   7.343   3.350
14726TIP3   OH244120   2.935   3.924   4.747
14726TIP3    H144121   2.967   4.000   4.796
14726TIP3    H244122   2.940   3.852   4.810
14727TIP3   OH244123   8.008   1.934   1.005
14727TIP3    H144124   8.059   1.855   0.987
14727TIP3    H244125   8.001   1.977   0.920
14728TIP3   OH244126   4.502   1.442   4.827
14728TIP3    H144127   4.596   1.444   4.846
14728TIP3    H244128   4.497   1.415   4.735
14729TIP3   OH244129   2.199   7.443   1.859
14729TIP3    H144130   2.272   7.492   1.898
14729TIP3    H244131   2.227   7.352   1.863
14730TIP3   OH244132   6.265   4.503   1.065
14730TIP3    H144133   6.238   4.479   0.976
14730TIP3    H244134   6.358   4.522   1.058
14731TIP3   OH244135   2.269   5.488   5.766
14731TIP3    H144136   2.360   5.509   5.789
14731TIP3    H244137   2.277   5.419   5.701
14732TIP3   OH244138   6.931   0.122   4.974
14732TIP3    H144139   6.918   0.110   5.068
14732TIP3    H244140   6.842   0.125   4.938
14733TIP3   OH244141   0.533   4.625   6.733
14733TIP3    H144142   0.467   4.640   6.666
14733TIP3    H244143   0.522   4.534   6.758
14734TIP3   OH244144   1.383   4.560   1.288
14734TIP3    H144145   1.297   4.589   1.257
14734TIP3    H244146   1.391   4.597   1.375
14735TIP3   OH244147   4.665   5.362   3.395
14735TIP3    H144148   4.662   5.275   3.354
14735TIP3    H244149   4.745   5.402   3.360
14736TIP3   OH244150   5.297   5.939   5.094
14736TIP3    H144151   5.270   5.853   5.127
14736TIP3    H244152   5.231   5.999   5.128
14737TIP3   OH244153   1.865   6.431   3.723
14737TIP3    H144154   1.813   6.471   3.652
14737TIP3    H244155   1.853   6.490   3.797
14738TIP3   OH244156   1.025   3.217   5.176
14738TIP3    H144157   0.973   3.274   5.119
14738TIP3    H244158   1.057   3.148   5.118
14739TIP3   OH244159   4.646   3.820   3.675
14739TIP3    H144160   4.630   3.825   3.581
14739TIP3    H244161   4.562   3.794   3.712
14740TIP3   OH244162   4.698   3.013   6.233
14740TIP3    H144163   4.792   3.020   6.250
14740TIP3    H244164   4.665   2.959   6.305
14741TIP3   OH244165   8.077   4.808   6.234
14741TIP3    H144166   8.156   4.855   6.209
14741TIP3    H244167   8.025   4.873   6.282
14742TIP3   OH244168   1.637   3.663   2.568
14742TIP3    H144169   1.565   3.688   2.510
14742TIP3    H244170   1.626   3.569   2.580
14743TIP3   OH244171   3.823   3.762   1.422
14743TIP3    H144172   3.854   3.852   1.414
14743TIP3    H244173   3.849   3.735   1.510
14744TIP3   OH244174   5.867   3.916   1.221
14744TIP3    H144175   5.872   3.827   1.256
14744TIP3    H244176   5.810   3.963   1.282
14745TIP3   OH244177   1.704   0.839   2.480
14745TIP3    H144178   1.673   0.918   2.435
14745TIP3    H244179   1.673   0.766   2.426
14746TIP3   OH244180   8.038   2.493   6.459
14746TIP3    H144181   8.116   2.549   6.462
14746TIP3    H244182   8.038   2.459   6.369
14747TIP3   OH244183   4.385   6.953   1.959
14747TIP3    H144184   4.306   6.993   1.995
14747TIP3    H244185   4.354   6.873   1.915
14748TIP3   OH244186   0.187   4.979   2.572
14748TIP3    H144187   0.135   4.913   2.526
14748TIP3    H244188   0.246   5.014   2.506
14749TIP3   OH244189   6.331   2.177   0.924
14749TIP3    H144190   6.305   2.193   1.015
14749TIP3    H244191   6.286   2.246   0.874
14750TIP3   OH244192   0.406   2.500   0.253
14750TIP3    H144193   0.469   2.446   0.300
14750TIP3    H244194   0.331   2.506   0.312
14751TIP3   OH244195   5.958   3.373   1.705
14751TIP3    H144196   5.991   3.283   1.701
14751TIP3    H244197   6.032   3.427   1.677
14752TIP3   OH244198   6.673   7.508   2.515
14752TIP3    H144199   6.692   7.601   2.523
14752TIP3    H244200   6.759   7.466   2.511
14753TIP3   OH244201   6.034   6.023   0.219
14753TIP3    H144202   5.989   5.940   0.235
14753TIP3    H244203   6.053   6.058   0.306
14754TIP3   OH244204   8.097   6.788   1.259
14754TIP3    H144205   8.029   6.839   1.304
14754TIP3    H244206   8.143   6.743   1.330
14755TIP3   OH244207   7.015   0.296   1.583
14755TIP3    H144208   7.005   0.380   1.628
14755TIP3    H244209   6.932   0.250   1.599
14756TIP3   OH244210   6.806   4.918   6.251
14756TIP3    H144211   6.716   4.931   6.283
14756TIP3    H244212   6.795   4.887   6.161
14757TIP3   OH244213   4.674   7.244   6.583
14757TIP3    H144214   4.708   7.161   6.613
14757TIP3    H244215   4.579   7.237   6.596
14758TIP3   OH244216   4.662   4.751   1.600
14758TIP3    H144217   4.701   4.791   1.522
14758TIP3    H244218   4.591   4.696   1.565
14759TIP3   OH244219   1.119   1.985   2.767
14759TIP3    H144220   1.203   1.961   2.806
14759TIP3    H244221   1.056   1.975   2.838
14760TIP3   OH244222   5.583   2.309   0.986
14760TIP3    H144223   5.587   2.379   1.050
14760TIP3    H244224   5.639   2.338   0.915
14761TIP3   OH244225   0.195   4.110   1.845
14761TIP3    H144226   0.123   4.084   1.903
14761TIP3    H244227   0.153   4.126   1.761
14762TIP3   OH244228   7.027   2.950   6.354
14762TIP3    H144229   7.059   3.006   6.424
14762TIP3    H244230   7.020   3.008   6.278
14763TIP3   OH244231   2.492   0.427   0.789
14763TIP3    H144232   2.411   0.464   0.754
14763TIP3    H244233   2.476   0.418   0.883
14764TIP3   OH244234   0.747   5.738   3.451
14764TIP3    H144235   0.803   5.676   3.404
14764TIP3    H244236   0.678   5.761   3.389
14765TIP3   OH244237   5.409   1.442   4.697
14765TIP3    H144238   5.403   1.383   4.622
14765TIP3    H244239   5.328   1.428   4.745
14766TIP3   OH244240   6.090   0.562   3.003
14766TIP3    H144241   6.150   0.562   2.929
14766TIP3    H244242   6.057   0.652   3.006
14767TIP3   OH244243   3.502   5.818   0.358
14767TIP3    H144244   3.416   5.859   0.366
14767TIP3    H244245   3.504   5.752   0.428
14768TIP3   OH244246   0.443   2.041   4.853
14768TIP3    H144247   0.444   2.088   4.936
14768TIP3    H244248   0.532   2.051   4.819
14769TIP3   OH244249   5.605   3.075   4.798
14769TIP3    H144250   5.549   2.999   4.817
14769TIP3    H244251   5.560   3.148   4.840
14770TIP3   OH244252   2.620   6.083   1.741
14770TIP3    H144253   2.621   6.020   1.669
14770TIP3    H244254   2.537   6.131   1.731
14771TIP3   OH244255   7.409   6.740   0.421
14771TIP3    H144256   7.365   6.774   0.343
14771TIP3    H244257   7.348   6.757   0.493
14772TIP3   OH244258   5.966   4.620   5.335
14772TIP3    H144259   5.927   4.670   5.406
14772TIP3    H244260   6.019   4.684   5.287
14773TIP3   OH244261   5.202   1.236   2.408
14773TIP3    H144262   5.240   1.151   2.428
14773TIP3    H244263   5.204   1.241   2.313
14774TIP3   OH244264   5.713   0.445   2.627
14774TIP3    H144265   5.745   0.457   2.717
14774TIP3    H244266   5.674   0.529   2.604
14775TIP3   OH244267   3.231   6.425   4.882
14775TIP3    H144268   3.236   6.511   4.841
14775TIP3    H244269   3.319   6.389   4.874
14776TIP3   OH244270   2.529   4.838   5.531
14776TIP3    H144271   2.605   4.880   5.571
14776TIP3    H244272   2.461   4.906   5.533
14777TIP3   OH244273   0.048   5.312   2.690
14777TIP3    H144274   0.099   5.266   2.623
14777TIP3    H244275   0.092   5.292   2.772
14778TIP3   OH244276   2.115   7.049   5.523
14778TIP3    H144277   2.145   7.055   5.433
14778TIP3    H244278   2.193   7.067   5.576
14779TIP3   OH244279   4.091   7.483   2.639
14779TIP3    H144280   4.015   7.509   2.587
14779TIP3    H244281   4.093   7.546   2.711
14780TIP3   OH244282   0.585   4.438   1.899
14780TIP3    H144283   0.635   4.359   1.876
14780TIP3    H244284   0.505   4.432   1.847
14781TIP3   OH244285   3.401   3.166   4.362
14781TIP3    H144286   3.396   3.239   4.424
14781TIP3    H244287   3.375   3.089   4.413
14782TIP3   OH244288   4.829   7.226   3.689
14782TIP3    H144289   4.803   7.148   3.639
14782TIP3    H244290   4.784   7.216   3.773
14783TIP3   OH244291   0.979   2.122   3.873
14783TIP3    H144292   0.935   2.178   3.809
14783TIP3    H244293   1.030   2.183   3.926
14784TIP3   OH244294   7.927   7.425   1.448
14784TIP3    H144295   7.858   7.457   1.389
14784TIP3    H244296   7.944   7.335   1.419
14785TIP3   OH244297   4.804   2.586   4.981
14785TIP3    H144298   4.884   2.573   5.032
14785TIP3    H244299   4.751   2.508   4.998
14786TIP3   OH244300   4.821   6.779   6.272
14786TIP3    H144301   4.779   6.727   6.203
14786TIP3    H244302   4.914   6.756   6.265
14787TIP3   OH244303   2.332   4.989   3.466
14787TIP3    H144304   2.381   4.915   3.430
14787TIP3    H244305   2.383   5.016   3.543
14788TIP3   OH244306   7.021   6.469   1.184
14788TIP3    H144307   6.947   6.530   1.191
14788TIP3    H244308   7.086   6.505   1.244
14789TIP3   OH244309   5.270   2.468   1.963
14789TIP3    H144310   5.240   2.470   2.054
14789TIP3    H244311   5.267   2.560   1.935
14790TIP3   OH244312   3.109   1.051   6.106
14790TIP3    H144313   3.154   1.110   6.045
14790TIP3    H244314   3.050   1.107   6.155
14791TIP3   OH244315   1.229   5.014   3.169
14791TIP3    H144316   1.171   5.090   3.156
14791TIP3    H244317   1.208   4.955   3.096
14792TIP3   OH244318   5.386   3.144   4.187
14792TIP3    H144319   5.470   3.189   4.175
14792TIP3    H244320   5.410   3.060   4.226
14793TIP3   OH244321   6.930   4.723   2.373
14793TIP3    H144322   6.853   4.778   2.362
14793TIP3    H244323   6.904   4.657   2.438
14794TIP3   OH244324   8.167   3.599   6.651
14794TIP3    H144325   8.123   3.514   6.655
14794TIP3    H244326   8.177   3.625   6.742
14795TIP3   OH244327   5.871   5.273   5.403
14795TIP3    H144328   5.785   5.283   5.362
14795TIP3    H244329   5.867   5.188   5.446
14796TIP3   OH244330   2.307   2.916   0.488
14796TIP3    H144331   2.331   2.991   0.542
14796TIP3    H244332   2.376   2.852   0.503
14797TIP3   OH244333   3.840   0.248   1.480
14797TIP3    H144334   3.820   0.159   1.508
14797TIP3    H244335   3.806   0.254   1.391
14798TIP3   OH244336   6.021   1.118   4.170
14798TIP3    H144337   5.969   1.193   4.197
14798TIP3    H244338   6.056   1.082   4.252
14799TIP3   OH244339   7.890   2.627   2.737
14799TIP3    H144340   7.932   2.559   2.683
14799TIP3    H244341   7.857   2.691   2.673
14800TIP3   OH244342   2.920   5.270   0.895
14800TIP3    H144343   2.880   5.185   0.876
14800TIP3    H244344   2.990   5.279   0.831
14801TIP3   OH244345   0.953   7.828   1.539
14801TIP3    H144346   0.952   7.765   1.466
14801TIP3    H244347   1.032   7.805   1.589
14802TIP3   OH244348   3.426   7.267   3.236
14802TIP3    H144349   3.437   7.173   3.243
14802TIP3    H244350   3.334   7.279   3.210
14803TIP3   OH244351   3.163   1.774   4.760
14803TIP3    H144352   3.100   1.716   4.718
14803TIP3    H244353   3.116   1.857   4.772
14804TIP3   OH244354   7.088   1.826   0.208
14804TIP3    H144355   7.097   1.920   0.224
14804TIP3    H244356   7.091   1.818   0.112
14805TIP3   OH244357   7.027   3.119   2.973
14805TIP3    H144358   7.054   3.208   2.994
14805TIP3    H244359   6.975   3.090   3.048
14806TIP3   OH244360   3.950   4.369   5.863
14806TIP3    H144361   3.988   4.283   5.880
14806TIP3    H244362   3.904   4.359   5.779
14807TIP3   OH244363  -0.011   1.946   4.211
14807TIP3    H144364  -0.037   1.864   4.168
14807TIP3    H244365   0.058   1.920   4.272
14808TIP3   OH244366   6.431   3.753   1.581
14808TIP3    H144367   6.340   3.767   1.606
14808TIP3    H244368   6.471   3.840   1.586
14809TIP3   OH244369   7.155   6.800   4.559
14809TIP3    H144370   7.205   6.881   4.568
14809TIP3    H244371   7.210   6.733   4.600
14810TIP3   OH244372   2.707   1.958   1.310
14810TIP3    H144373   2.722   1.885   1.249
14810TIP3    H244374   2.795   1.987   1.335
14811TIP3   OH244375   3.551   2.542   5.022
14811TIP3    H144376   3.463   2.511   5.042
14811TIP3    H244377   3.601   2.464   5.001
14812TIP3   OH244378   0.908   6.798   6.440
14812TIP3    H144379   0.908   6.722   6.383
14812TIP3    H244380   0.889   6.763   6.527
14813TIP3   OH244381   1.063   4.163   0.408
14813TIP3    H144382   1.066   4.178   0.502
14813TIP3    H244383   1.009   4.234   0.374
14814TIP3   OH244384   5.711   1.336   5.043
14814TIP3    H144385   5.696   1.407   4.981
14814TIP3    H244386   5.699   1.256   4.991
14815TIP3   OH244387   5.059   0.725   1.706
14815TIP3    H144388   4.972   0.709   1.669
14815TIP3    H244389   5.111   0.651   1.675
   8.30116   7.82642   6.77787   0.00000   0.00000  -2.76705   0.00000  -2.76705  -3.91321
