Title t= 137.00000 step= 68500
19942
    1ASP      N    1   1.270   2.327   3.370
    1ASP    HT1    2   1.257   2.343   3.472
    1ASP    HT2    3   1.213   2.242   3.348
    1ASP    HT3    4   1.239   2.413   3.321
    1ASP     CA    5   1.419   2.297   3.345
    1ASP     HA    6   1.469   2.390   3.368
    1ASP     CB    7   1.462   2.192   3.456
    1ASP    HB1    8   1.394   2.104   3.456
    1ASP    HB2    9   1.472   2.240   3.556
    1ASP     CG   10   1.607   2.146   3.439
    1ASP    OD1   11   1.643   2.037   3.483
    1ASP    OD2   12   1.685   2.229   3.385
    1ASP      C   13   1.453   2.257   3.207
    1ASP      O   14   1.446   2.336   3.114
    2ALA      N   15   1.478   2.125   3.182
    2ALA     HN   16   1.502   2.064   3.258
    2ALA     CA   17   1.514   2.066   3.060
    2ALA     HA   18   1.603   2.112   3.020
    2ALA     CB   19   1.559   1.923   3.084
    2ALA    HB1   20   1.570   1.866   2.990
    2ALA    HB2   21   1.488   1.866   3.148
    2ALA    HB3   22   1.657   1.908   3.134
    2ALA      C   23   1.400   2.064   2.953
    2ALA      O   24   1.280   2.051   2.983
    3ASP      N   25   1.422   2.071   2.821
    3ASP     HN   26   1.516   2.075   2.789
    3ASP     CA   27   1.328   2.088   2.718
    3ASP     HA   28   1.261   2.166   2.752
    3ASP     CB   29   1.405   2.139   2.594
    3ASP    HB1   30   1.340   2.152   2.505
    3ASP    HB2   31   1.489   2.072   2.567
    3ASP     CG   32   1.476   2.270   2.612
    3ASP    OD1   33   1.556   2.307   2.522
    3ASP    OD2   34   1.447   2.343   2.711
    3ASP      C   35   1.247   1.956   2.697
    3ASP      O   36   1.304   1.848   2.683
    4GLY      N   37   1.113   1.973   2.695
    4GLY     HN   38   1.079   2.067   2.693
    4GLY     CA   39   1.008   1.875   2.699
    4GLY    HA1   40   0.918   1.931   2.679
    4GLY    HA2   41   0.990   1.839   2.799
    4GLY      C   42   1.008   1.769   2.592
    4GLY      O   43   1.005   1.808   2.475
    5PRO      N   44   1.002   1.642   2.618
    5PRO     CD   45   1.017   1.590   2.750
    5PRO    HD1   46   0.917   1.606   2.796
    5PRO    HD2   47   1.089   1.650   2.810
    5PRO     CA   48   0.980   1.534   2.515
    5PRO     HA   49   1.069   1.527   2.454
    5PRO     CB   50   0.970   1.409   2.601
    5PRO    HB1   51   0.997   1.322   2.538
    5PRO    HB2   52   0.865   1.392   2.634
    5PRO     CG   53   1.052   1.442   2.720
    5PRO    HG1   54   1.048   1.368   2.804
    5PRO    HG2   55   1.158   1.440   2.688
    5PRO      C   56   0.859   1.537   2.417
    5PRO      O   57   0.750   1.593   2.446
    6GLY      N   58   0.867   1.460   2.310
    6GLY     HN   59   0.959   1.425   2.293
    6GLY     CA   60   0.759   1.449   2.214
    6GLY    HA1   61   0.810   1.446   2.119
    6GLY    HA2   62   0.688   1.531   2.214
    6GLY      C   63   0.681   1.320   2.235
    6GLY      O   64   0.645   1.282   2.351
    7ASP      N   65   0.659   1.246   2.124
    7ASP     HN   66   0.678   1.287   2.035
    7ASP     CA   67   0.589   1.119   2.129
    7ASP     HA   68   0.488   1.143   2.160
    7ASP     CB   69   0.577   1.076   1.977
    7ASP    HB1   70   0.679   1.055   1.939
    7ASP    HB2   71   0.538   1.159   1.915
    7ASP     CG   72   0.489   0.965   1.944
    7ASP    OD1   73   0.491   0.912   1.828
    7ASP    OD2   74   0.413   0.922   2.035
    7ASP      C   75   0.650   1.012   2.217
    7ASP      O   76   0.775   0.998   2.206
    8PRO      N   77   0.575   0.934   2.298
    8PRO     CD   78   0.434   0.966   2.338
    8PRO    HD1   79   0.373   0.907   2.266
    8PRO    HD2   80   0.407   1.073   2.347
    8PRO     CA   81   0.638   0.835   2.383
    8PRO     HA   82   0.718   0.878   2.440
    8PRO     CB   83   0.519   0.786   2.469
    8PRO    HB1   84   0.563   0.749   2.564
    8PRO    HB2   85   0.463   0.704   2.419
    8PRO     CG   86   0.436   0.910   2.484
    8PRO    HG1   87   0.332   0.888   2.517
    8PRO    HG2   88   0.485   0.992   2.542
    8PRO      C   89   0.708   0.726   2.308
    8PRO      O   90   0.775   0.655   2.374
    9ASP      N   91   0.679   0.707   2.174
    9ASP     HN   92   0.616   0.775   2.136
    9ASP     CA   93   0.732   0.600   2.095
    9ASP     HA   94   0.700   0.503   2.131
    9ASP     CB   95   0.669   0.607   1.949
    9ASP    HB1   96   0.717   0.532   1.882
    9ASP    HB2   97   0.673   0.712   1.913
    9ASP     CG   98   0.525   0.578   1.942
    9ASP    OD1   99   0.456   0.616   1.842
    9ASP    OD2  100   0.474   0.497   2.026
    9ASP      C  101   0.886   0.612   2.080
    9ASP      O  102   0.963   0.522   2.095
   10ALA      N  103   0.927   0.737   2.062
   10ALA     HN  104   0.861   0.811   2.071
   10ALA     CA  105   1.061   0.780   2.056
   10ALA     HA  106   1.114   0.708   1.995
   10ALA     CB  107   1.063   0.923   1.986
   10ALA    HB1  108   1.159   0.978   1.976
   10ALA    HB2  109   0.997   0.986   2.049
   10ALA    HB3  110   1.010   0.918   1.888
   10ALA      C  111   1.132   0.790   2.194
   10ALA      O  112   1.080   0.847   2.291
   11GLY      N  113   1.253   0.734   2.192
   11GLY     HN  114   1.296   0.695   2.110
   11GLY     CA  115   1.335   0.717   2.304
   11GLY    HA1  116   1.273   0.658   2.370
   11GLY    HA2  117   1.369   0.814   2.336
   11GLY      C  118   1.445   0.612   2.278
   11GLY    OT1  119   1.518   0.582   2.376
   11GLY    OT2  120   1.456   0.558   2.169
   12LIT    LIT  121   4.192   3.904   2.124
   13LIT    LIT  122   1.314   2.933   2.402
   14LIT    LIT  123   0.802   4.689   4.277
   15LIT    LIT  124   6.228   1.088   5.151
   16LIT    LIT  125   6.147   0.848   2.655
   17LIT    LIT  126   3.704   4.771   3.467
   18LIT    LIT  127   2.176   3.403   2.544
   19LIT    LIT  128   0.461   0.760   1.716
   20LIT    LIT  129   3.242   1.091   3.601
   21LIT    LIT  130   0.403   5.459   3.737
   22LIT    LIT  131   5.460   3.363   1.268
   23LIT    LIT  132   0.126   1.152   1.690
   24LIT    LIT  133   3.653   2.489   0.210
   25LIT    LIT  134   0.117   4.959   1.077
   26LIT    LIT  135   2.895   1.026   4.744
   27LIT    LIT  136   1.987   0.021   3.375
   28LIT    LIT  137   1.793   2.321   3.255
   29LIT    LIT  138   2.354   5.285   0.996
   30LIT    LIT  139   2.080   1.163   2.588
   31LIT    LIT  140   4.082   3.490   3.260
   32LIT    LIT  141   0.187   0.013   2.516
   33LIT    LIT  142   3.457   0.673   0.377
   34CLA    CLA  143   2.353   2.949   1.887
   35CLA    CLA  144   1.025   0.084   3.111
   36CLA    CLA  145   3.063   2.509   3.980
   37CLA    CLA  146   0.448   1.490   4.940
   38CLA    CLA  147   1.591   2.618   3.842
   39CLA    CLA  148   5.863   4.163   3.086
   40CLA    CLA  149   0.819   1.036   4.454
   41CLA    CLA  150   1.032   3.708   2.011
   42CLA    CLA  151   4.151   3.986   1.044
   43CLA    CLA  152   2.394   4.584   0.513
   44CLA    CLA  153   4.708   0.324   1.348
   45CLA    CLA  154   0.708   5.435   2.734
   46CLA    CLA  155   2.442   1.891   3.611
   47CLA    CLA  156   3.063   1.206   4.748
   48CLA    CLA  157   3.608   0.242   4.217
   49CLA    CLA  158   0.362   0.013   1.330
   50CLA    CLA  159   5.839   0.255   4.973
   51CLA    CLA  160   4.453   0.674   2.321
   52TIP3   OH2  161   2.245   0.561   3.531
   52TIP3    H1  162   2.216   0.652   3.527
   52TIP3    H2  163   2.283   0.551   3.618
   53TIP3   OH2  164   2.369   3.102   3.400
   53TIP3    H1  165   2.279   3.072   3.389
   53TIP3    H2  166   2.408   3.091   3.313
   54TIP3   OH2  167   1.305   0.085   3.462
   54TIP3    H1  168   1.361   0.162   3.473
   54TIP3    H2  169   1.357   0.025   3.407
   55TIP3   OH2  170   3.791   4.645   2.062
   55TIP3    H1  171   3.744   4.649   1.978
   55TIP3    H2  172   3.728   4.680   2.126
   56TIP3   OH2  173   3.737   3.544   4.961
   56TIP3    H1  174   3.821   3.530   4.918
   56TIP3    H2  175   3.704   3.625   4.924
   57TIP3   OH2  176   3.815   0.141   0.063
   57TIP3    H1  177   3.776   0.081   0.000
   57TIP3    H2  178   3.904   0.156   0.030
   58TIP3   OH2  179   3.135   3.172   0.066
   58TIP3    H1  180   3.197   3.137   0.002
   58TIP3    H2  181   3.049   3.144   0.033
   59TIP3   OH2  182   4.403   2.783   5.132
   59TIP3    H1  183   4.487   2.735   5.127
   59TIP3    H2  184   4.425   2.872   5.104
   60TIP3   OH2  185   0.852  -0.011   4.439
   60TIP3    H1  186   0.896  -0.022   4.523
   60TIP3    H2  187   0.844   0.084   4.429
   61TIP3   OH2  188   3.697   3.154   4.251
   61TIP3    H1  189   3.697   3.122   4.160
   61TIP3    H2  190   3.719   3.077   4.303
   62TIP3   OH2  191   0.123   3.651   1.694
   62TIP3    H1  192   0.060   3.593   1.737
   62TIP3    H2  193   0.189   3.592   1.658
   63TIP3   OH2  194   3.244   5.155   0.546
   63TIP3    H1  195   3.245   5.239   0.590
   63TIP3    H2  196   3.201   5.173   0.462
   64TIP3   OH2  197   2.992   4.154   1.069
   64TIP3    H1  198   3.058   4.085   1.063
   64TIP3    H2  199   3.022   4.221   1.007
   65TIP3   OH2  200   4.962   1.080   1.237
   65TIP3    H1  201   4.916   1.022   1.298
   65TIP3    H2  202   5.047   1.038   1.223
   66TIP3   OH2  203   1.206   5.334   4.413
   66TIP3    H1  204   1.178   5.338   4.505
   66TIP3    H2  205   1.168   5.252   4.380
   67TIP3   OH2  206   0.077   4.456   2.246
   67TIP3    H1  207   0.070   4.548   2.224
   67TIP3    H2  208   0.047   4.450   2.337
   68TIP3   OH2  209   2.504   1.543   3.384
   68TIP3    H1  210   2.589   1.504   3.362
   68TIP3    H2  211   2.513   1.635   3.361
   69TIP3   OH2  212   2.349   3.514   0.922
   69TIP3    H1  213   2.436   3.530   0.887
   69TIP3    H2  214   2.356   3.429   0.966
   70TIP3   OH2  215   6.210   1.161   3.780
   70TIP3    H1  216   6.303   1.137   3.780
   70TIP3    H2  217   6.175   1.123   3.861
   71TIP3   OH2  218   5.240   2.977   2.498
   71TIP3    H1  219   5.184   3.049   2.469
   71TIP3    H2  220   5.231   2.975   2.593
   72TIP3   OH2  221   4.882   4.701   1.618
   72TIP3    H1  222   4.922   4.684   1.703
   72TIP3    H2  223   4.882   4.616   1.574
   73TIP3   OH2  224   4.608   0.335   0.127
   73TIP3    H1  225   4.565   0.253   0.104
   73TIP3    H2  226   4.672   0.311   0.194
   74TIP3   OH2  227   4.318   1.230   1.852
   74TIP3    H1  228   4.408   1.206   1.873
   74TIP3    H2  229   4.276   1.147   1.830
   75TIP3   OH2  230   0.320   1.846   1.927
   75TIP3    H1  231   0.401   1.828   1.975
   75TIP3    H2  232   0.250   1.818   1.987
   76TIP3   OH2  233   1.455   4.919   3.312
   76TIP3    H1  234   1.383   4.943   3.369
   76TIP3    H2  235   1.413   4.889   3.231
   77TIP3   OH2  236   2.523   4.364   2.144
   77TIP3    H1  237   2.522   4.419   2.065
   77TIP3    H2  238   2.566   4.283   2.117
   78TIP3   OH2  239   3.728   2.861   3.319
   78TIP3    H1  240   3.709   2.914   3.396
   78TIP3    H2  241   3.818   2.831   3.332
   79TIP3   OH2  242   4.519   0.307   1.608
   79TIP3    H1  243   4.428   0.307   1.579
   79TIP3    H2  244   4.571   0.300   1.528
   80TIP3   OH2  245   5.818   3.897   1.469
   80TIP3    H1  246   5.726   3.919   1.456
   80TIP3    H2  247   5.831   3.903   1.563
   81TIP3   OH2  248   2.372   3.629   5.005
   81TIP3    H1  249   2.367   3.543   5.047
   81TIP3    H2  250   2.295   3.633   4.948
   82TIP3   OH2  251   5.934   3.657   3.390
   82TIP3    H1  252   5.888   3.633   3.471
   82TIP3    H2  253   5.867   3.653   3.322
   83TIP3   OH2  254   5.936   2.543   3.019
   83TIP3    H1  255   5.855   2.497   3.041
   83TIP3    H2  256   6.005   2.486   3.051
   84TIP3   OH2  257   6.134   2.228   2.209
   84TIP3    H1  258   6.223   2.207   2.236
   84TIP3    H2  259   6.141   2.316   2.171
   85TIP3   OH2  260   6.008   2.934   4.419
   85TIP3    H1  261   5.983   3.022   4.446
   85TIP3    H2  262   5.925   2.887   4.410
   86TIP3   OH2  263   4.187   3.922   2.537
   86TIP3    H1  264   4.158   3.835   2.511
   86TIP3    H2  265   4.254   3.907   2.603
   87TIP3   OH2  266   6.234   4.153   3.665
   87TIP3    H1  267   6.273   4.119   3.745
   87TIP3    H2  268   6.144   4.119   3.665
   88TIP3   OH2  269   2.265   2.251   3.277
   88TIP3    H1  270   2.266   2.206   3.192
   88TIP3    H2  271   2.255   2.180   3.341
   89TIP3   OH2  272   0.706   5.000   0.709
   89TIP3    H1  273   0.732   4.910   0.728
   89TIP3    H2  274   0.778   5.054   0.743
   90TIP3   OH2  275   5.427   5.531   2.334
   90TIP3    H1  276   5.486   5.457   2.325
   90TIP3    H2  277   5.339   5.493   2.331
   91TIP3   OH2  278   1.023   0.750   3.496
   91TIP3    H1  279   1.097   0.690   3.495
   91TIP3    H2  280   0.946   0.693   3.493
   92TIP3   OH2  281   5.242   2.004   0.351
   92TIP3    H1  282   5.204   1.919   0.373
   92TIP3    H2  283   5.183   2.040   0.284
   93TIP3   OH2  284   5.002   5.058   3.910
   93TIP3    H1  285   5.098   5.067   3.911
   93TIP3    H2  286   4.984   4.981   3.964
   94TIP3   OH2  287   4.364   5.382   2.552
   94TIP3    H1  288   4.314   5.417   2.479
   94TIP3    H2  289   4.393   5.459   2.601
   95TIP3   OH2  290   3.167   3.458   3.904
   95TIP3    H1  291   3.170   3.517   3.979
   95TIP3    H2  292   3.092   3.400   3.922
   96TIP3   OH2  293   5.881   5.457   0.121
   96TIP3    H1  294   5.970   5.488   0.141
   96TIP3    H2  295   5.891   5.405   0.041
   97TIP3   OH2  296   1.777   2.303   4.587
   97TIP3    H1  297   1.822   2.386   4.567
   97TIP3    H2  298   1.820   2.239   4.531
   98TIP3   OH2  299   0.780   1.164   5.083
   98TIP3    H1  300   0.725   1.124   5.151
   98TIP3    H2  301   0.754   1.119   5.003
   99TIP3   OH2  302   0.320   1.534   1.844
   99TIP3    H1  303   0.264   1.611   1.859
   99TIP3    H2  304   0.280   1.466   1.898
  100TIP3   OH2  305   4.020   2.799   4.551
  100TIP3    H1  306   3.942   2.745   4.566
  100TIP3    H2  307   3.987   2.877   4.507
  101TIP3   OH2  308   2.353   1.574   2.060
  101TIP3    H1  309   2.391   1.636   1.997
  101TIP3    H2  310   2.299   1.516   2.007
  102TIP3   OH2  311   4.690   2.843   0.210
  102TIP3    H1  312   4.715   2.758   0.247
  102TIP3    H2  313   4.771   2.893   0.207
  103TIP3   OH2  314   0.850   4.193   4.143
  103TIP3    H1  315   0.807   4.108   4.130
  103TIP3    H2  316   0.889   4.213   4.057
  104TIP3   OH2  317   2.444   5.090   0.087
  104TIP3    H1  318   2.520   5.148   0.077
  104TIP3    H2  319   2.478   5.014   0.135
  105TIP3   OH2  320   3.892   0.156   4.336
  105TIP3    H1  321   3.925   0.243   4.314
  105TIP3    H2  322   3.797   0.164   4.327
  106TIP3   OH2  323   6.015   3.913   3.412
  106TIP3    H1  324   6.023   3.818   3.416
  106TIP3    H2  325   6.102   3.944   3.386
  107TIP3   OH2  326   1.061   0.490   1.831
  107TIP3    H1  327   1.109   0.462   1.909
  107TIP3    H2  328   1.018   0.410   1.800
  108TIP3   OH2  329   6.118   2.965   4.141
  108TIP3    H1  330   6.198   3.009   4.113
  108TIP3    H2  331   6.135   2.941   4.233
  109TIP3   OH2  332   4.122   1.506   2.009
  109TIP3    H1  333   4.135   1.466   2.096
  109TIP3    H2  334   4.101   1.597   2.028
  110TIP3   OH2  335   4.680   0.980   3.415
  110TIP3    H1  336   4.750   0.927   3.376
  110TIP3    H2  337   4.645   1.031   3.342
  111TIP3   OH2  338   5.997   4.939   3.332
  111TIP3    H1  339   6.008   4.898   3.418
  111TIP3    H2  340   6.056   4.890   3.275
  112TIP3   OH2  341   4.773   3.906   1.628
  112TIP3    H1  342   4.818   3.929   1.709
  112TIP3    H2  343   4.787   3.812   1.618
  113TIP3   OH2  344   5.345   5.896   2.871
  113TIP3    H1  345   5.427   5.946   2.867
  113TIP3    H2  346   5.296   5.935   2.944
  114TIP3   OH2  347   6.361   1.124   2.991
  114TIP3    H1  348   6.271   1.093   2.990
  114TIP3    H2  349   6.366   1.186   2.918
  115TIP3   OH2  350   1.648   5.873   2.522
  115TIP3    H1  351   1.730   5.824   2.530
  115TIP3    H2  352   1.645   5.928   2.600
  116TIP3   OH2  353   4.268   1.497   2.957
  116TIP3    H1  354   4.354   1.472   2.990
  116TIP3    H2  355   4.264   1.592   2.972
  117TIP3   OH2  356   5.312   0.466   1.172
  117TIP3    H1  357   5.404   0.454   1.194
  117TIP3    H2  358   5.308   0.457   1.077
  118TIP3   OH2  359   2.662   4.770   4.650
  118TIP3    H1  360   2.647   4.785   4.743
  118TIP3    H2  361   2.575   4.759   4.613
  119TIP3   OH2  362   1.878   4.418   1.729
  119TIP3    H1  363   1.940   4.474   1.776
  119TIP3    H2  364   1.928   4.337   1.712
  120TIP3   OH2  365   0.981   3.803   0.232
  120TIP3    H1  366   1.046   3.872   0.222
  120TIP3    H2  367   0.946   3.789   0.144
  121TIP3   OH2  368   6.108   1.012   3.987
  121TIP3    H1  369   6.013   1.018   3.974
  121TIP3    H2  370   6.128   0.919   3.977
  122TIP3   OH2  371   0.845   2.836   3.896
  122TIP3    H1  372   0.843   2.931   3.907
  122TIP3    H2  373   0.868   2.802   3.982
  123TIP3   OH2  374   3.864   1.524   4.209
  123TIP3    H1  375   3.956   1.545   4.222
  123TIP3    H2  376   3.819   1.608   4.219
  124TIP3   OH2  377   2.239   5.133   2.767
  124TIP3    H1  378   2.261   5.214   2.814
  124TIP3    H2  379   2.317   5.115   2.714
  125TIP3   OH2  380   4.749   3.266   2.322
  125TIP3    H1  381   4.812   3.198   2.345
  125TIP3    H2  382   4.707   3.235   2.242
  126TIP3   OH2  383   0.649   3.185   2.084
  126TIP3    H1  384   0.636   3.121   2.015
  126TIP3    H2  385   0.721   3.240   2.052
  127TIP3   OH2  386   1.752   3.478   5.027
  127TIP3    H1  387   1.744   3.541   5.099
  127TIP3    H2  388   1.792   3.401   5.067
  128TIP3   OH2  389   2.270   5.373   2.908
  128TIP3    H1  390   2.275   5.464   2.879
  128TIP3    H2  391   2.224   5.377   2.992
  129TIP3   OH2  392   3.904   3.106   0.671
  129TIP3    H1  393   3.955   3.184   0.693
  129TIP3    H2  394   3.968   3.046   0.633
  130TIP3   OH2  395   3.595   2.026   4.415
  130TIP3    H1  396   3.597   1.960   4.484
  130TIP3    H2  397   3.554   2.103   4.456
  131TIP3   OH2  398   3.227   3.929   0.762
  131TIP3    H1  399   3.311   3.926   0.716
  131TIP3    H2  400   3.186   4.010   0.733
  132TIP3   OH2  401   5.618   5.500   4.998
  132TIP3    H1  402   5.665   5.488   4.915
  132TIP3    H2  403   5.584   5.413   5.020
  133TIP3   OH2  404   2.885   2.012   1.958
  133TIP3    H1  405   2.897   2.084   2.020
  133TIP3    H2  406   2.812   2.041   1.903
  134TIP3   OH2  407   3.673   2.384   4.128
  134TIP3    H1  408   3.662   2.478   4.110
  134TIP3    H2  409   3.636   2.372   4.215
  135TIP3   OH2  410   3.962   2.671   0.652
  135TIP3    H1  411   4.028   2.661   0.721
  135TIP3    H2  412   3.985   2.606   0.587
  136TIP3   OH2  413   2.884   0.373   1.508
  136TIP3    H1  414   2.838   0.341   1.430
  136TIP3    H2  415   2.976   0.370   1.484
  137TIP3   OH2  416   2.623   1.745   1.038
  137TIP3    H1  417   2.693   1.804   1.010
  137TIP3    H2  418   2.544   1.800   1.035
  138TIP3   OH2  419   3.609   5.467   4.786
  138TIP3    H1  420   3.630   5.396   4.725
  138TIP3    H2  421   3.665   5.540   4.759
  139TIP3   OH2  422   3.679   5.876   2.198
  139TIP3    H1  423   3.678   5.943   2.130
  139TIP3    H2  424   3.596   5.887   2.245
  140TIP3   OH2  425   0.113   3.252   1.449
  140TIP3    H1  426   0.112   3.160   1.475
  140TIP3    H2  427   0.157   3.297   1.521
  141TIP3   OH2  428   4.802   2.065   3.730
  141TIP3    H1  429   4.883   2.015   3.720
  141TIP3    H2  430   4.769   2.074   3.640
  142TIP3   OH2  431   5.557   4.845   3.013
  142TIP3    H1  432   5.500   4.919   2.992
  142TIP3    H2  433   5.639   4.863   2.966
  143TIP3   OH2  434   6.097   0.606   1.276
  143TIP3    H1  435   6.053   0.532   1.235
  143TIP3    H2  436   6.154   0.642   1.208
  144TIP3   OH2  437   0.618   5.849   1.899
  144TIP3    H1  438   0.707   5.855   1.864
  144TIP3    H2  439   0.624   5.886   1.987
  145TIP3   OH2  440   5.589   3.659   0.980
  145TIP3    H1  441   5.581   3.715   0.903
  145TIP3    H2  442   5.620   3.717   1.049
  146TIP3   OH2  443   1.456   4.454   5.120
  146TIP3    H1  444   1.496   4.470   5.035
  146TIP3    H2  445   1.452   4.358   5.127
  147TIP3   OH2  446   6.059   3.689   1.679
  147TIP3    H1  447   6.102   3.774   1.684
  147TIP3    H2  448   6.056   3.658   1.769
  148TIP3   OH2  449  -0.012   2.196   1.463
  148TIP3    H1  450   0.013   2.129   1.400
  148TIP3    H2  451  -0.057   2.149   1.533
  149TIP3   OH2  452   1.243   2.773   3.665
  149TIP3    H1  453   1.332   2.804   3.646
  149TIP3    H2  454   1.202   2.766   3.579
  150TIP3   OH2  455   5.565   1.409   4.333
  150TIP3    H1  456   5.518   1.448   4.407
  150TIP3    H2  457   5.529   1.454   4.256
  151TIP3   OH2  458   4.878   2.630   3.423
  151TIP3    H1  459   4.842   2.686   3.492
  151TIP3    H2  460   4.970   2.658   3.416
  152TIP3   OH2  461   2.031   4.675   4.859
  152TIP3    H1  462   1.971   4.679   4.785
  152TIP3    H2  463   1.975   4.679   4.936
  153TIP3   OH2  464   1.616   3.971   0.411
  153TIP3    H1  465   1.528   4.006   0.425
  153TIP3    H2  466   1.610   3.925   0.327
  154TIP3   OH2  467   6.029   4.423   3.027
  154TIP3    H1  468   5.984   4.339   3.033
  154TIP3    H2  469   6.067   4.437   3.114
  155TIP3   OH2  470   3.368   2.602   0.557
  155TIP3    H1  471   3.366   2.561   0.644
  155TIP3    H2  472   3.281   2.584   0.521
  156TIP3   OH2  473   5.462   2.518   3.526
  156TIP3    H1  474   5.485   2.463   3.451
  156TIP3    H2  475   5.389   2.472   3.567
  157TIP3   OH2  476   2.237   3.126   0.782
  157TIP3    H1  477   2.218   3.034   0.764
  157TIP3    H2  478   2.274   3.159   0.700
  158TIP3   OH2  479   5.958   2.935   1.149
  158TIP3    H1  480   5.983   3.023   1.176
  158TIP3    H2  481   6.041   2.888   1.139
  159TIP3   OH2  482   6.296   3.053   3.354
  159TIP3    H1  483   6.360   3.001   3.306
  159TIP3    H2  484   6.211   3.024   3.321
  160TIP3   OH2  485   3.275   2.425   4.703
  160TIP3    H1  486   3.264   2.438   4.609
  160TIP3    H2  487   3.313   2.507   4.734
  161TIP3   OH2  488   2.934   0.060   1.403
  161TIP3    H1  489   2.992   0.121   1.450
  161TIP3    H2  490   2.851   0.065   1.449
  162TIP3   OH2  491   2.512   3.589   2.713
  162TIP3    H1  492   2.463   3.666   2.683
  162TIP3    H2  493   2.602   3.606   2.686
  163TIP3   OH2  494   3.284   0.661   1.139
  163TIP3    H1  495   3.238   0.725   1.193
  163TIP3    H2  496   3.332   0.714   1.075
  164TIP3   OH2  497   6.016   1.020   1.466
  164TIP3    H1  498   6.095   0.982   1.428
  164TIP3    H2  499   5.952   0.949   1.466
  165TIP3   OH2  500   3.584   2.318   0.156
  165TIP3    H1  501   3.587   2.287   0.066
  165TIP3    H2  502   3.527   2.256   0.201
  166TIP3   OH2  503   3.556   1.612   4.105
  166TIP3    H1  504   3.590   1.585   4.190
  166TIP3    H2  505   3.610   1.565   4.041
  167TIP3   OH2  506   2.450   1.872   4.632
  167TIP3    H1  507   2.503   1.847   4.708
  167TIP3    H2  508   2.420   1.789   4.595
  168TIP3   OH2  509   0.857   1.848   3.152
  168TIP3    H1  510   0.903   1.775   3.195
  168TIP3    H2  511   0.822   1.900   3.224
  169TIP3   OH2  512   4.008   0.319   2.867
  169TIP3    H1  513   4.008   0.243   2.925
  169TIP3    H2  514   3.932   0.370   2.895
  170TIP3   OH2  515   5.144   1.784   1.392
  170TIP3    H1  516   5.217   1.724   1.376
  170TIP3    H2  517   5.090   1.778   1.314
  171TIP3   OH2  518   3.810   4.050   0.578
  171TIP3    H1  519   3.811   3.978   0.515
  171TIP3    H2  520   3.807   4.007   0.663
  172TIP3   OH2  521   2.392   5.859   3.401
  172TIP3    H1  522   2.380   5.922   3.473
  172TIP3    H2  523   2.480   5.877   3.368
  173TIP3   OH2  524   4.123   2.523   3.111
  173TIP3    H1  525   4.095   2.615   3.106
  173TIP3    H2  526   4.066   2.483   3.176
  174TIP3   OH2  527   1.147   3.170   4.350
  174TIP3    H1  528   1.189   3.252   4.374
  174TIP3    H2  529   1.211   3.103   4.373
  175TIP3   OH2  530   0.874   3.235   1.164
  175TIP3    H1  531   0.811   3.305   1.183
  175TIP3    H2  532   0.865   3.219   1.070
  176TIP3   OH2  533   5.854   2.923   2.537
  176TIP3    H1  534   5.758   2.919   2.528
  176TIP3    H2  535   5.880   2.833   2.554
  177TIP3   OH2  536   3.933   4.446   1.139
  177TIP3    H1  537   4.001   4.509   1.114
  177TIP3    H2  538   3.939   4.377   1.073
  178TIP3   OH2  539   2.798   3.372   2.351
  178TIP3    H1  540   2.729   3.434   2.331
  178TIP3    H2  541   2.879   3.420   2.337
  179TIP3   OH2  542   5.272   0.144   2.761
  179TIP3    H1  543   5.224   0.201   2.701
  179TIP3    H2  544   5.255   0.180   2.848
  180TIP3   OH2  545   4.222   0.060   0.359
  180TIP3    H1  546   4.161   0.084   0.429
  180TIP3    H2  547   4.268  -0.017   0.393
  181TIP3   OH2  548   0.066   1.593   4.014
  181TIP3    H1  549   0.045   1.687   4.006
  181TIP3    H2  550  -0.019   1.552   4.030
  182TIP3   OH2  551   4.114   4.544   0.630
  182TIP3    H1  552   4.063   4.470   0.596
  182TIP3    H2  553   4.177   4.504   0.690
  183TIP3   OH2  554   5.350   0.297   1.595
  183TIP3    H1  555   5.318   0.259   1.677
  183TIP3    H2  556   5.288   0.367   1.576
  184TIP3   OH2  557   4.907   5.098   0.776
  184TIP3    H1  558   4.875   5.127   0.691
  184TIP3    H2  559   4.993   5.059   0.757
  185TIP3   OH2  560   2.015   2.192   4.466
  185TIP3    H1  561   2.054   2.272   4.430
  185TIP3    H2  562   2.077   2.123   4.442
  186TIP3   OH2  563   4.758   2.018   3.442
  186TIP3    H1  564   4.716   1.977   3.366
  186TIP3    H2  565   4.836   2.061   3.407
  187TIP3   OH2  566   3.965   4.946   1.609
  187TIP3    H1  567   3.878   4.929   1.644
  187TIP3    H2  568   3.998   5.019   1.662
  188TIP3   OH2  569   5.821   4.787   0.107
  188TIP3    H1  570   5.909   4.750   0.103
  188TIP3    H2  571   5.787   4.761   0.193
  189TIP3   OH2  572   6.301   3.728   3.392
  189TIP3    H1  573   6.279   3.821   3.381
  189TIP3    H2  574   6.299   3.692   3.303
  190TIP3   OH2  575   5.314   1.718   0.829
  190TIP3    H1  576   5.400   1.746   0.798
  190TIP3    H2  577   5.327   1.696   0.921
  191TIP3   OH2  578   3.105   3.715   2.062
  191TIP3    H1  579   3.076   3.769   2.136
  191TIP3    H2  580   3.200   3.727   2.059
  192TIP3   OH2  581   2.412   0.429   2.495
  192TIP3    H1  582   2.502   0.401   2.507
  192TIP3    H2  583   2.412   0.474   2.410
  193TIP3   OH2  584   4.990   4.852   5.081
  193TIP3    H1  585   5.033   4.936   5.066
  193TIP3    H2  586   5.054   4.800   5.130
  194TIP3   OH2  587   0.220   1.632   3.794
  194TIP3    H1  588   0.140   1.605   3.749
  194TIP3    H2  589   0.203   1.615   3.886
  195TIP3   OH2  590   1.996   0.289   0.087
  195TIP3    H1  591   2.054   0.362   0.065
  195TIP3    H2  592   1.908   0.323   0.072
  196TIP3   OH2  593   3.639   0.342   1.194
  196TIP3    H1  594   3.598   0.299   1.119
  196TIP3    H2  595   3.569   0.396   1.232
  197TIP3   OH2  596   3.938   4.630   0.836
  197TIP3    H1  597   4.000   4.630   0.762
  197TIP3    H2  598   3.853   4.615   0.796
  198TIP3   OH2  599   0.544   0.119   3.468
  198TIP3    H1  600   0.514   0.037   3.428
  198TIP3    H2  601   0.617   0.147   3.412
  199TIP3   OH2  602   0.417   0.276   0.503
  199TIP3    H1  603   0.390   0.231   0.423
  199TIP3    H2  604   0.446   0.363   0.473
  200TIP3   OH2  605   0.141   4.032   0.702
  200TIP3    H1  606   0.096   4.108   0.737
  200TIP3    H2  607   0.216   4.069   0.655
  201TIP3   OH2  608   5.413   3.182   4.509
  201TIP3    H1  609   5.338   3.146   4.461
  201TIP3    H2  610   5.461   3.232   4.443
  202TIP3   OH2  611   0.693   4.829   0.932
  202TIP3    H1  612   0.731   4.907   0.972
  202TIP3    H2  613   0.599   4.847   0.930
  203TIP3   OH2  614   4.096   3.703   5.060
  203TIP3    H1  615   4.062   3.717   5.148
  203TIP3    H2  616   4.153   3.627   5.067
  204TIP3   OH2  617   6.078   4.514   2.607
  204TIP3    H1  618   6.013   4.446   2.587
  204TIP3    H2  619   6.152   4.495   2.550
  205TIP3   OH2  620   6.192   0.121   1.015
  205TIP3    H1  621   6.129   0.143   0.947
  205TIP3    H2  622   6.241   0.201   1.030
  206TIP3   OH2  623   6.266   4.087   0.518
  206TIP3    H1  624   6.201   4.039   0.467
  206TIP3    H2  625   6.349   4.070   0.473
  207TIP3   OH2  626   3.854   0.443   3.449
  207TIP3    H1  627   3.859   0.373   3.384
  207TIP3    H2  628   3.859   0.398   3.533
  208TIP3   OH2  629   1.677   2.980   5.210
  208TIP3    H1  630   1.582   2.981   5.216
  208TIP3    H2  631   1.700   3.063   5.169
  209TIP3   OH2  632   1.445   5.257   0.938
  209TIP3    H1  633   1.395   5.332   0.904
  209TIP3    H2  634   1.530   5.293   0.960
  210TIP3   OH2  635   3.235   1.547   3.123
  210TIP3    H1  636   3.274   1.528   3.037
  210TIP3    H2  637   3.290   1.499   3.185
  211TIP3   OH2  638   3.193   0.337   3.641
  211TIP3    H1  639   3.137   0.413   3.628
  211TIP3    H2  640   3.132   0.263   3.648
  212TIP3   OH2  641   3.467   4.202   4.290
  212TIP3    H1  642   3.480   4.155   4.208
  212TIP3    H2  643   3.432   4.287   4.264
  213TIP3   OH2  644   5.063   4.163   5.045
  213TIP3    H1  645   5.056   4.218   5.123
  213TIP3    H2  646   4.972   4.149   5.017
  214TIP3   OH2  647   0.476   0.411   0.752
  214TIP3    H1  648   0.509   0.335   0.702
  214TIP3    H2  649   0.476   0.482   0.688
  215TIP3   OH2  650   4.401   1.494   4.731
  215TIP3    H1  651   4.381   1.530   4.817
  215TIP3    H2  652   4.451   1.414   4.749
  216TIP3   OH2  653   5.713   4.232   2.841
  216TIP3    H1  654   5.780   4.218   2.908
  216TIP3    H2  655   5.634   4.194   2.879
  217TIP3   OH2  656   0.423   5.933   4.644
  217TIP3    H1  657   0.487   5.948   4.573
  217TIP3    H2  658   0.454   5.989   4.715
  218TIP3   OH2  659   2.391   2.628   3.348
  218TIP3    H1  660   2.366   2.710   3.391
  218TIP3    H2  661   2.472   2.602   3.392
  219TIP3   OH2  662   1.920   0.503   3.688
  219TIP3    H1  663   1.956   0.488   3.776
  219TIP3    H2  664   1.911   0.598   3.681
  220TIP3   OH2  665   4.841   3.028   3.762
  220TIP3    H1  666   4.929   3.058   3.740
  220TIP3    H2  667   4.819   3.075   3.842
  221TIP3   OH2  668   1.567   1.484   2.913
  221TIP3    H1  669   1.516   1.556   2.875
  221TIP3    H2  670   1.514   1.406   2.898
  222TIP3   OH2  671   3.351   0.805   1.915
  222TIP3    H1  672   3.368   0.761   1.832
  222TIP3    H2  673   3.275   0.759   1.952
  223TIP3   OH2  674   6.251   4.663   2.300
  223TIP3    H1  675   6.202   4.587   2.333
  223TIP3    H2  676   6.185   4.730   2.286
  224TIP3   OH2  677   1.709   2.591   2.731
  224TIP3    H1  678   1.725   2.515   2.674
  224TIP3    H2  679   1.712   2.555   2.820
  225TIP3   OH2  680   2.793   5.364   0.287
  225TIP3    H1  681   2.792   5.277   0.327
  225TIP3    H2  682   2.857   5.357   0.217
  226TIP3   OH2  683   5.471   3.371   3.933
  226TIP3    H1  684   5.460   3.368   3.837
  226TIP3    H2  685   5.439   3.457   3.958
  227TIP3   OH2  686   2.299   1.761   3.209
  227TIP3    H1  687   2.257   1.844   3.231
  227TIP3    H2  688   2.391   1.773   3.232
  228TIP3   OH2  689   2.859   3.266   1.090
  228TIP3    H1  690   2.769   3.299   1.083
  228TIP3    H2  691   2.911   3.329   1.040
  229TIP3   OH2  692   1.237   0.322   0.203
  229TIP3    H1  693   1.314   0.285   0.247
  229TIP3    H2  694   1.179   0.349   0.274
  230TIP3   OH2  695   2.792   0.494   2.200
  230TIP3    H1  696   2.770   0.587   2.203
  230TIP3    H2  697   2.740   0.454   2.269
  231TIP3   OH2  698   4.711   3.690   0.369
  231TIP3    H1  699   4.751   3.681   0.455
  231TIP3    H2  700   4.757   3.626   0.314
  232TIP3   OH2  701   3.380   5.089   4.559
  232TIP3    H1  702   3.416   5.045   4.635
  232TIP3    H2  703   3.285   5.093   4.575
  233TIP3   OH2  704   6.300   2.755   5.084
  233TIP3    H1  705   6.345   2.816   5.142
  233TIP3    H2  706   6.208   2.760   5.109
  234TIP3   OH2  707   0.375   1.582   4.655
  234TIP3    H1  708   0.393   1.559   4.746
  234TIP3    H2  709   0.288   1.548   4.638
  235TIP3   OH2  710   6.228   4.941   4.836
  235TIP3    H1  711   6.226   4.878   4.909
  235TIP3    H2  712   6.268   5.019   4.874
  236TIP3   OH2  713   5.897   0.138   3.020
  236TIP3    H1  714   5.830   0.073   3.001
  236TIP3    H2  715   5.849   0.220   3.033
  237TIP3   OH2  716   3.255   1.549   2.844
  237TIP3    H1  717   3.161   1.558   2.829
  237TIP3    H2  718   3.295   1.590   2.768
  238TIP3   OH2  719   3.885   4.347   3.542
  238TIP3    H1  720   3.930   4.414   3.594
  238TIP3    H2  721   3.817   4.314   3.600
  239TIP3   OH2  722   1.855   4.339   0.956
  239TIP3    H1  723   1.811   4.338   1.041
  239TIP3    H2  724   1.860   4.247   0.930
  240TIP3   OH2  725   2.452   1.335   0.392
  240TIP3    H1  726   2.458   1.289   0.308
  240TIP3    H2  727   2.474   1.269   0.458
  241TIP3   OH2  728   1.320   4.211   3.196
  241TIP3    H1  729   1.247   4.173   3.245
  241TIP3    H2  730   1.373   4.135   3.171
  242TIP3   OH2  731   3.018   4.951   1.816
  242TIP3    H1  732   3.012   4.970   1.910
  242TIP3    H2  733   3.027   4.856   1.811
  243TIP3   OH2  734   5.251   5.403   1.750
  243TIP3    H1  735   5.175   5.421   1.696
  243TIP3    H2  736   5.268   5.486   1.796
  244TIP3   OH2  737   4.300   1.364   4.158
  244TIP3    H1  738   4.264   1.311   4.229
  244TIP3    H2  739   4.223   1.396   4.111
  245TIP3   OH2  740   4.054   4.419   1.512
  245TIP3    H1  741   4.047   4.351   1.445
  245TIP3    H2  742   4.134   4.466   1.490
  246TIP3   OH2  743   3.964   0.535   2.214
  246TIP3    H1  744   4.027   0.464   2.203
  246TIP3    H2  745   4.016   0.609   2.247
  247TIP3   OH2  746   3.873   4.221   2.002
  247TIP3    H1  747   3.879   4.253   2.091
  247TIP3    H2  748   3.822   4.287   1.955
  248TIP3   OH2  749   4.133   2.048   0.269
  248TIP3    H1  750   4.216   2.093   0.263
  248TIP3    H2  751   4.115   2.044   0.363
  249TIP3   OH2  752   1.685   1.542   4.302
  249TIP3    H1  753   1.710   1.598   4.377
  249TIP3    H2  754   1.716   1.591   4.226
  250TIP3   OH2  755   4.523   5.309   2.317
  250TIP3    H1  756   4.586   5.321   2.388
  250TIP3    H2  757   4.440   5.294   2.361
  251TIP3   OH2  758   2.359   1.889   1.546
  251TIP3    H1  759   2.403   1.918   1.466
  251TIP3    H2  760   2.332   1.970   1.589
  252TIP3   OH2  761   3.212   3.627   0.205
  252TIP3    H1  762   3.214   3.585   0.119
  252TIP3    H2  763   3.129   3.675   0.206
  253TIP3   OH2  764  -0.006   4.458   0.974
  253TIP3    H1  765   0.063   4.391   0.977
  253TIP3    H2  766  -0.074   4.420   0.920
  254TIP3   OH2  767   1.376   1.353   3.803
  254TIP3    H1  768   1.314   1.299   3.753
  254TIP3    H2  769   1.343   1.350   3.893
  255TIP3   OH2  770   2.444   2.302   2.755
  255TIP3    H1  771   2.354   2.325   2.733
  255TIP3    H2  772   2.443   2.207   2.764
  256TIP3   OH2  773   4.913   0.275   3.349
  256TIP3    H1  774   4.989   0.244   3.397
  256TIP3    H2  775   4.840   0.223   3.384
  257TIP3   OH2  776   0.089   2.831   3.112
  257TIP3    H1  777   0.148   2.784   3.052
  257TIP3    H2  778   0.005   2.786   3.102
  258TIP3   OH2  779   3.737   5.798   3.881
  258TIP3    H1  780   3.661   5.786   3.939
  258TIP3    H2  781   3.726   5.887   3.847
  259TIP3   OH2  782   1.088   1.942   0.397
  259TIP3    H1  783   1.152   1.872   0.388
  259TIP3    H2  784   1.046   1.949   0.311
  260TIP3   OH2  785   3.242   5.407   1.310
  260TIP3    H1  786   3.251   5.486   1.363
  260TIP3    H2  787   3.195   5.345   1.366
  261TIP3   OH2  788   2.048   2.751   2.280
  261TIP3    H1  789   2.095   2.730   2.199
  261TIP3    H2  790   2.080   2.838   2.304
  262TIP3   OH2  791   0.296   0.648   0.133
  262TIP3    H1  792   0.292   0.558   0.101
  262TIP3    H2  793   0.274   0.701   0.056
  263TIP3   OH2  794   5.164   3.523   3.554
  263TIP3    H1  795   5.206   3.601   3.519
  263TIP3    H2  796   5.100   3.557   3.617
  264TIP3   OH2  797   1.896   0.937   4.155
  264TIP3    H1  798   1.809   0.945   4.194
  264TIP3    H2  799   1.902   1.011   4.096
  265TIP3   OH2  800   3.624   2.588   0.048
  265TIP3    H1  801   3.589   2.670   0.083
  265TIP3    H2  802   3.571   2.570  -0.029
  266TIP3   OH2  803   6.161   0.547   0.867
  266TIP3    H1  804   6.232   0.495   0.830
  266TIP3    H2  805   6.130   0.496   0.942
  267TIP3   OH2  806   2.908   5.893   1.376
  267TIP3    H1  807   2.861   5.948   1.313
  267TIP3    H2  808   2.838   5.850   1.426
  268TIP3   OH2  809   1.079   0.841   2.571
  268TIP3    H1  810   1.102   0.751   2.594
  268TIP3    H2  811   1.074   0.841   2.476
  269TIP3   OH2  812   5.298   3.306   4.735
  269TIP3    H1  813   5.354   3.247   4.685
  269TIP3    H2  814   5.303   3.389   4.688
  270TIP3   OH2  815   4.369   4.258   1.588
  270TIP3    H1  816   4.375   4.340   1.638
  270TIP3    H2  817   4.351   4.286   1.498
  271TIP3   OH2  818   1.833   3.453   4.747
  271TIP3    H1  819   1.812   3.533   4.700
  271TIP3    H2  820   1.780   3.458   4.827
  272TIP3   OH2  821   5.991   2.124   2.818
  272TIP3    H1  822   5.998   2.218   2.799
  272TIP3    H2  823   5.910   2.116   2.868
  273TIP3   OH2  824   2.210   1.085   1.200
  273TIP3    H1  825   2.149   1.146   1.241
  273TIP3    H2  826   2.288   1.089   1.255
  274TIP3   OH2  827   5.246   4.760   1.650
  274TIP3    H1  828   5.283   4.689   1.702
  274TIP3    H2  829   5.261   4.838   1.703
  275TIP3   OH2  830   2.650   5.257   3.990
  275TIP3    H1  831   2.580   5.319   3.966
  275TIP3    H2  832   2.719   5.312   4.026
  276TIP3   OH2  833   5.205   4.708   5.144
  276TIP3    H1  834   5.245   4.627   5.177
  276TIP3    H2  835   5.246   4.777   5.195
  277TIP3   OH2  836   5.576   4.046   2.644
  277TIP3    H1  837   5.532   4.071   2.725
  277TIP3    H2  838   5.617   3.961   2.665
  278TIP3   OH2  839   1.876   0.689   0.156
  278TIP3    H1  840   1.937   0.637   0.209
  278TIP3    H2  841   1.862   0.769   0.206
  279TIP3   OH2  842   0.124   1.930   1.547
  279TIP3    H1  843   0.081   1.875   1.481
  279TIP3    H2  844   0.174   1.994   1.495
  280TIP3   OH2  845   1.484   0.678   0.733
  280TIP3    H1  846   1.433   0.602   0.703
  280TIP3    H2  847   1.542   0.643   0.800
  281TIP3   OH2  848   4.769   0.630   0.200
  281TIP3    H1  849   4.758   0.618   0.294
  281TIP3    H2  850   4.705   0.570   0.160
  282TIP3   OH2  851   2.809   4.721   1.255
  282TIP3    H1  852   2.903   4.723   1.238
  282TIP3    H2  853   2.772   4.670   1.183
  283TIP3   OH2  854   3.280   5.429   0.626
  283TIP3    H1  855   3.372   5.420   0.650
  283TIP3    H2  856   3.255   5.516   0.658
  284TIP3   OH2  857   1.032   2.680   1.890
  284TIP3    H1  858   1.066   2.718   1.809
  284TIP3    H2  859   1.063   2.738   1.959
  285TIP3   OH2  860   5.903   3.762   2.725
  285TIP3    H1  861   5.965   3.723   2.663
  285TIP3    H2  862   5.905   3.703   2.801
  286TIP3   OH2  863   3.457   1.488   2.221
  286TIP3    H1  864   3.477   1.429   2.148
  286TIP3    H2  865   3.482   1.575   2.189
  287TIP3   OH2  866   5.664   3.971   1.967
  287TIP3    H1  867   5.696   3.943   2.053
  287TIP3    H2  868   5.736   3.952   1.907
  288TIP3   OH2  869   5.802   2.902   3.326
  288TIP3    H1  870   5.747   2.869   3.255
  288TIP3    H2  871   5.750   2.970   3.368
  289TIP3   OH2  872   1.733   0.727   4.022
  289TIP3    H1  873   1.754   0.634   4.017
  289TIP3    H2  874   1.815   0.770   4.044
  290TIP3   OH2  875   4.922   2.949   3.243
  290TIP3    H1  876   4.836   2.957   3.284
  290TIP3    H2  877   4.912   2.993   3.159
  291TIP3   OH2  878   1.989   5.771   1.657
  291TIP3    H1  879   2.080   5.747   1.640
  291TIP3    H2  880   1.968   5.729   1.741
  292TIP3   OH2  881   1.394   2.410   0.998
  292TIP3    H1  882   1.468   2.360   1.032
  292TIP3    H2  883   1.328   2.344   0.977
  293TIP3   OH2  884   0.689   3.136   4.554
  293TIP3    H1  885   0.742   3.177   4.622
  293TIP3    H2  886   0.603   3.124   4.595
  294TIP3   OH2  887   5.443   1.876   3.037
  294TIP3    H1  888   5.487   1.870   3.122
  294TIP3    H2  889   5.477   1.956   2.999
  295TIP3   OH2  890   2.005   0.972   3.816
  295TIP3    H1  891   2.072   1.024   3.772
  295TIP3    H2  892   1.969   1.032   3.881
  296TIP3   OH2  893   3.866   1.492   2.821
  296TIP3    H1  894   3.881   1.585   2.802
  296TIP3    H2  895   3.772   1.485   2.836
  297TIP3   OH2  896   4.769   4.768   4.935
  297TIP3    H1  897   4.722   4.828   4.877
  297TIP3    H2  898   4.832   4.823   4.981
  298TIP3   OH2  899   3.068   5.959   3.066
  298TIP3    H1  900   3.014   6.030   3.031
  298TIP3    H2  901   3.097   5.911   2.988
  299TIP3   OH2  902   2.465   4.606   0.937
  299TIP3    H1  903   2.499   4.619   1.026
  299TIP3    H2  904   2.426   4.519   0.939
  300TIP3   OH2  905   3.006   5.631   0.405
  300TIP3    H1  906   2.977   5.557   0.458
  300TIP3    H2  907   3.061   5.683   0.463
  301TIP3   OH2  908   1.679   2.009   3.737
  301TIP3    H1  909   1.644   2.015   3.648
  301TIP3    H2  910   1.773   2.024   3.728
  302TIP3   OH2  911   6.046   1.143   2.190
  302TIP3    H1  912   5.975   1.138   2.127
  302TIP3    H2  913   6.040   1.061   2.240
  303TIP3   OH2  914   5.971   0.028   0.358
  303TIP3    H1  915   6.004   0.037   0.448
  303TIP3    H2  916   5.918  -0.051   0.360
  304TIP3   OH2  917   0.335   4.019   3.025
  304TIP3    H1  918   0.410   4.027   3.084
  304TIP3    H2  919   0.324   4.107   2.989
  305TIP3   OH2  920   5.323   4.835   2.264
  305TIP3    H1  921   5.272   4.915   2.279
  305TIP3    H2  922   5.409   4.866   2.237
  306TIP3   OH2  923   1.928   0.376   2.837
  306TIP3    H1  924   1.871   0.429   2.781
  306TIP3    H2  925   1.982   0.326   2.776
  307TIP3   OH2  926   4.766   5.651   0.648
  307TIP3    H1  927   4.703   5.715   0.680
  307TIP3    H2  928   4.714   5.571   0.637
  308TIP3   OH2  929   4.648   0.823   4.053
  308TIP3    H1  930   4.589   0.771   3.999
  308TIP3    H2  931   4.649   0.777   4.138
  309TIP3   OH2  932   5.169   5.483   2.269
  309TIP3    H1  933   5.126   5.407   2.230
  309TIP3    H2  934   5.145   5.556   2.212
  310TIP3   OH2  935   5.580   5.632   3.595
  310TIP3    H1  936   5.586   5.631   3.499
  310TIP3    H2  937   5.653   5.686   3.623
  311TIP3   OH2  938   3.950   5.827   2.980
  311TIP3    H1  939   4.019   5.893   2.978
  311TIP3    H2  940   3.930   5.811   2.888
  312TIP3   OH2  941   2.063   3.570   2.552
  312TIP3    H1  942   2.095   3.657   2.574
  312TIP3    H2  943   1.968   3.575   2.565
  313TIP3   OH2  944   5.233   3.017   3.038
  313TIP3    H1  945   5.293   3.090   3.045
  313TIP3    H2  946   5.147   3.053   3.060
  314TIP3   OH2  947   1.398   3.646   0.408
  314TIP3    H1  948   1.492   3.636   0.394
  314TIP3    H2  949   1.382   3.740   0.393
  315TIP3   OH2  950   6.341   0.577   4.325
  315TIP3    H1  951   6.382   0.590   4.240
  315TIP3    H2  952   6.248   0.592   4.310
  316TIP3   OH2  953   1.293   0.819   4.992
  316TIP3    H1  954   1.294   0.888   4.926
  316TIP3    H2  955   1.264   0.741   4.945
  317TIP3   OH2  956   0.983   3.545   3.552
  317TIP3    H1  957   0.978   3.636   3.580
  317TIP3    H2  958   1.063   3.540   3.500
  318TIP3   OH2  959   4.262   5.087   2.549
  318TIP3    H1  960   4.246   5.065   2.457
  318TIP3    H2  961   4.264   5.183   2.550
  319TIP3   OH2  962   2.395   5.384   3.737
  319TIP3    H1  963   2.353   5.298   3.744
  319TIP3    H2  964   2.409   5.411   3.828
  320TIP3   OH2  965   3.875   3.478   2.294
  320TIP3    H1  966   3.914   3.402   2.252
  320TIP3    H2  967   3.845   3.447   2.380
  321TIP3   OH2  968   3.059   4.927   4.588
  321TIP3    H1  969   3.046   5.015   4.622
  321TIP3    H2  970   2.974   4.903   4.552
  322TIP3   OH2  971   2.667   0.677   3.464
  322TIP3    H1  972   2.677   0.770   3.445
  322TIP3    H2  973   2.747   0.636   3.429
  323TIP3   OH2  974   3.627   2.638   2.544
  323TIP3    H1  975   3.565   2.612   2.475
  323TIP3    H2  976   3.573   2.651   2.621
  324TIP3   OH2  977   2.769   2.464   3.873
  324TIP3    H1  978   2.753   2.399   3.942
  324TIP3    H2  979   2.861   2.488   3.883
  325TIP3   OH2  980   5.874   3.555   2.122
  325TIP3    H1  981   5.922   3.559   2.204
  325TIP3    H2  982   5.851   3.462   2.112
  326TIP3   OH2  983   5.642   0.796   2.437
  326TIP3    H1  984   5.593   0.714   2.438
  326TIP3    H2  985   5.578   0.861   2.408
  327TIP3   OH2  986   4.632   3.482   0.811
  327TIP3    H1  987   4.604   3.460   0.900
  327TIP3    H2  988   4.551   3.485   0.761
  328TIP3   OH2  989   3.966   2.639   1.783
  328TIP3    H1  990   3.879   2.679   1.773
  328TIP3    H2  991   3.955   2.571   1.849
  329TIP3   OH2  992   4.959   3.256   4.702
  329TIP3    H1  993   5.005   3.226   4.781
  329TIP3    H2  994   4.874   3.214   4.707
  330TIP3   OH2  995   6.268   4.416   0.083
  330TIP3    H1  996   6.249   4.448   0.171
  330TIP3    H2  997   6.271   4.320   0.092
  331TIP3   OH2  998   2.597   1.624   3.059
  331TIP3    H1  999   2.644   1.654   3.137
  331TIP3    H2 1000   2.645   1.663   2.986
  332TIP3   OH2 1001   1.531   2.533   0.704
  332TIP3    H1 1002   1.602   2.568   0.650
  332TIP3    H2 1003   1.458   2.592   0.688
  333TIP3   OH2 1004   3.315   3.991   2.706
  333TIP3    H1 1005   3.307   4.076   2.750
  333TIP3    H2 1006   3.341   4.013   2.617
  334TIP3   OH2 1007   4.594   4.116   0.637
  334TIP3    H1 1008   4.522   4.173   0.665
  334TIP3    H2 1009   4.553   4.053   0.578
  335TIP3   OH2 1010   0.442   3.271   3.827
  335TIP3    H1 1011   0.480   3.275   3.915
  335TIP3    H2 1012   0.391   3.351   3.818
  336TIP3   OH2 1013   2.197   5.647   1.146
  336TIP3    H1 1014   2.127   5.704   1.114
  336TIP3    H2 1015   2.278   5.695   1.129
  337TIP3   OH2 1016   0.545   1.822   0.286
  337TIP3    H1 1017   0.587   1.779   0.360
  337TIP3    H2 1018   0.461   1.776   0.276
  338TIP3   OH2 1019   3.986   2.770   3.320
  338TIP3    H1 1020   4.006   2.785   3.228
  338TIP3    H2 1021   4.060   2.811   3.367
  339TIP3   OH2 1022   3.051   2.247   3.605
  339TIP3    H1 1023   3.050   2.341   3.588
  339TIP3    H2 1024   3.014   2.238   3.693
  340TIP3   OH2 1025   2.126   4.906   5.003
  340TIP3    H1 1026   2.211   4.874   5.035
  340TIP3    H2 1027   2.098   4.839   4.940
  341TIP3   OH2 1028   3.841   1.249   0.469
  341TIP3    H1 1029   3.905   1.194   0.513
  341TIP3    H2 1030   3.785   1.188   0.421
  342TIP3   OH2 1031   5.204   1.144   0.839
  342TIP3    H1 1032   5.159   1.094   0.907
  342TIP3    H2 1033   5.159   1.228   0.837
  343TIP3   OH2 1034   5.788   4.666   2.320
  343TIP3    H1 1035   5.740   4.722   2.260
  343TIP3    H2 1036   5.858   4.628   2.266
  344TIP3   OH2 1037   1.258   5.426   0.567
  344TIP3    H1 1038   1.270   5.471   0.484
  344TIP3    H2 1039   1.165   5.403   0.569
  345TIP3   OH2 1040   0.384   5.263   3.701
  345TIP3    H1 1041   0.425   5.177   3.705
  345TIP3    H2 1042   0.299   5.248   3.661
  346TIP3   OH2 1043   1.452   3.861   0.707
  346TIP3    H1 1044   1.492   3.793   0.760
  346TIP3    H2 1045   1.461   3.830   0.617
  347TIP3   OH2 1046   6.012   2.064   3.200
  347TIP3    H1 1047   6.015   2.089   3.292
  347TIP3    H2 1048   6.072   1.990   3.193
  348TIP3   OH2 1049   5.598   1.007   1.405
  348TIP3    H1 1050   5.520   0.952   1.414
  348TIP3    H2 1051   5.564   1.095   1.392
  349TIP3   OH2 1052   5.578   4.469   2.776
  349TIP3    H1 1053   5.602   4.490   2.866
  349TIP3    H2 1054   5.602   4.377   2.765
  350TIP3   OH2 1055   3.226   4.779   0.475
  350TIP3    H1 1056   3.222   4.709   0.409
  350TIP3    H2 1057   3.284   4.744   0.543
  351TIP3   OH2 1058   0.909   0.339   2.992
  351TIP3    H1 1059   0.932   0.307   2.904
  351TIP3    H2 1060   0.923   0.264   3.049
  352TIP3   OH2 1061   3.311   0.351   3.390
  352TIP3    H1 1062   3.315   0.338   3.484
  352TIP3    H2 1063   3.284   0.443   3.379
  353TIP3   OH2 1064   4.373   3.888   3.260
  353TIP3    H1 1065   4.341   3.879   3.350
  353TIP3    H2 1066   4.301   3.933   3.215
  354TIP3   OH2 1067   4.714   2.554  -0.047
  354TIP3    H1 1068   4.784   2.616  -0.067
  354TIP3    H2 1069   4.710   2.553   0.049
  355TIP3   OH2 1070   1.891   4.996   0.202
  355TIP3    H1 1071   1.807   5.012   0.159
  355TIP3    H2 1072   1.949   4.965   0.133
  356TIP3   OH2 1073   3.624   2.761   4.981
  356TIP3    H1 1074   3.681   2.734   5.052
  356TIP3    H2 1075   3.615   2.856   4.992
  357TIP3   OH2 1076   3.512   1.843   5.095
  357TIP3    H1 1077   3.536   1.931   5.066
  357TIP3    H2 1078   3.575   1.822   5.163
  358TIP3   OH2 1079   2.728   1.979   3.155
  358TIP3    H1 1080   2.732   2.066   3.114
  358TIP3    H2 1081   2.818   1.948   3.154
  359TIP3   OH2 1082   3.641   4.446   0.831
  359TIP3    H1 1083   3.667   4.516   0.770
  359TIP3    H2 1084   3.545   4.455   0.837
  360TIP3   OH2 1085   5.826   0.819   1.393
  360TIP3    H1 1086   5.832   0.730   1.427
  360TIP3    H2 1087   5.735   0.845   1.410
  361TIP3   OH2 1088   4.884   5.114   4.543
  361TIP3    H1 1089   4.875   5.200   4.502
  361TIP3    H2 1090   4.972   5.113   4.580
  362TIP3   OH2 1091   4.534   2.809   2.960
  362TIP3    H1 1092   4.508   2.843   2.875
  362TIP3    H2 1093   4.525   2.714   2.951
  363TIP3   OH2 1094   2.702   4.770   3.773
  363TIP3    H1 1095   2.741   4.857   3.782
  363TIP3    H2 1096   2.745   4.717   3.840
  364TIP3   OH2 1097   0.845   1.339   1.902
  364TIP3    H1 1098   0.824   1.251   1.872
  364TIP3    H2 1099   0.940   1.339   1.911
  365TIP3   OH2 1100   0.937   3.198   1.439
  365TIP3    H1 1101   0.944   3.246   1.356
  365TIP3    H2 1102   0.843   3.181   1.448
  366TIP3   OH2 1103   5.262   4.774   4.201
  366TIP3    H1 1104   5.252   4.826   4.281
  366TIP3    H2 1105   5.305   4.694   4.230
  367TIP3   OH2 1106   3.575   4.043   4.799
  367TIP3    H1 1107   3.480   4.046   4.813
  367TIP3    H2 1108   3.591   4.113   4.736
  368TIP3   OH2 1109   1.347   4.214   1.655
  368TIP3    H1 1110   1.263   4.202   1.610
  368TIP3    H2 1111   1.412   4.175   1.595
  369TIP3   OH2 1112   5.820   1.768   2.954
  369TIP3    H1 1113   5.818   1.681   2.995
  369TIP3    H2 1114   5.910   1.777   2.921
  370TIP3   OH2 1115   5.996   3.259   3.736
  370TIP3    H1 1116   6.058   3.301   3.677
  370TIP3    H2 1117   5.927   3.224   3.679
  371TIP3   OH2 1118   0.244   1.057   3.487
  371TIP3    H1 1119   0.239   1.124   3.555
  371TIP3    H2 1120   0.212   1.101   3.408
  372TIP3   OH2 1121   3.636   3.341   3.913
  372TIP3    H1 1122   3.552   3.375   3.946
  372TIP3    H2 1123   3.633   3.247   3.932
  373TIP3   OH2 1124   5.074   3.929   4.946
  373TIP3    H1 1125   5.154   3.938   4.896
  373TIP3    H2 1126   5.066   4.011   4.995
  374TIP3   OH2 1127   3.834   2.358   0.634
  374TIP3    H1 1128   3.898   2.414   0.589
  374TIP3    H2 1129   3.885   2.283   0.663
  375TIP3   OH2 1130   4.527   5.212   0.445
  375TIP3    H1 1131   4.487   5.127   0.466
  375TIP3    H2 1132   4.586   5.192   0.372
  376TIP3   OH2 1133   2.867   4.882   0.250
  376TIP3    H1 1134   2.868   4.786   0.251
  376TIP3    H2 1135   2.864   4.905   0.157
  377TIP3   OH2 1136   6.236   4.830   0.254
  377TIP3    H1 1137   6.149   4.792   0.265
  377TIP3    H2 1138   6.291   4.783   0.317
  378TIP3   OH2 1139   4.581   3.219   0.124
  378TIP3    H1 1140   4.621   3.281   0.064
  378TIP3    H2 1141   4.494   3.203   0.089
  379TIP3   OH2 1142   3.960   5.259   2.551
  379TIP3    H1 1143   3.915   5.282   2.633
  379TIP3    H2 1144   4.025   5.327   2.539
  380TIP3   OH2 1145   3.740   4.678   3.880
  380TIP3    H1 1146   3.827   4.715   3.896
  380TIP3    H2 1147   3.686   4.754   3.859
  381TIP3   OH2 1148   0.656   0.814  -0.024
  381TIP3    H1 1149   0.720   0.803   0.046
  381TIP3    H2 1150   0.593   0.877   0.010
  382TIP3   OH2 1151   2.024   0.669   2.224
  382TIP3    H1 1152   2.041   0.729   2.151
  382TIP3    H2 1153   1.932   0.682   2.245
  383TIP3   OH2 1154   5.515   3.794   3.447
  383TIP3    H1 1155   5.430   3.751   3.435
  383TIP3    H2 1156   5.492   3.887   3.458
  384TIP3   OH2 1157   3.721   5.768   4.385
  384TIP3    H1 1158   3.662   5.798   4.453
  384TIP3    H2 1159   3.723   5.672   4.395
  385TIP3   OH2 1160   6.232   2.967   1.261
  385TIP3    H1 1161   6.192   3.020   1.330
  385TIP3    H2 1162   6.292   3.027   1.216
  386TIP3   OH2 1163   3.319   4.217   1.963
  386TIP3    H1 1164   3.297   4.124   1.967
  386TIP3    H2 1165   3.413   4.219   1.949
  387TIP3   OH2 1166   2.521   3.753   4.221
  387TIP3    H1 1167   2.608   3.714   4.217
  387TIP3    H2 1168   2.461   3.680   4.206
  388TIP3   OH2 1169   4.294   3.416   4.848
  388TIP3    H1 1170   4.303   3.323   4.826
  388TIP3    H2 1171   4.371   3.458   4.810
  389TIP3   OH2 1172   1.594   0.157   2.723
  389TIP3    H1 1173   1.620   0.246   2.743
  389TIP3    H2 1174   1.656   0.129   2.655
  390TIP3   OH2 1175   5.519   0.444   3.740
  390TIP3    H1 1176   5.468   0.519   3.711
  390TIP3    H2 1177   5.558   0.471   3.823
  391TIP3   OH2 1178   3.584   3.810   4.947
  391TIP3    H1 1179   3.497   3.813   4.988
  391TIP3    H2 1180   3.588   3.891   4.896
  392TIP3   OH2 1181   2.493   0.478   0.481
  392TIP3    H1 1182   2.422   0.493   0.544
  392TIP3    H2 1183   2.544   0.406   0.518
  393TIP3   OH2 1184   1.588   4.927   4.387
  393TIP3    H1 1185   1.655   4.966   4.443
  393TIP3    H2 1186   1.634   4.902   4.307
  394TIP3   OH2 1187   1.819   3.403   1.650
  394TIP3    H1 1188   1.896   3.391   1.707
  394TIP3    H2 1189   1.768   3.323   1.664
  395TIP3   OH2 1190   5.219   0.508   4.483
  395TIP3    H1 1191   5.130   0.532   4.459
  395TIP3    H2 1192   5.216   0.414   4.497
  396TIP3   OH2 1193   6.242   2.447   2.451
  396TIP3    H1 1194   6.160   2.411   2.484
  396TIP3    H2 1195   6.217   2.530   2.410
  397TIP3   OH2 1196   2.506   5.529   3.534
  397TIP3    H1 1197   2.459   5.476   3.598
  397TIP3    H2 1198   2.449   5.531   3.457
  398TIP3   OH2 1199   5.830   4.534   3.404
  398TIP3    H1 1200   5.765   4.588   3.360
  398TIP3    H2 1201   5.805   4.535   3.496
  399TIP3   OH2 1202   3.650   2.104   2.468
  399TIP3    H1 1203   3.582   2.115   2.535
  399TIP3    H2 1204   3.611   2.141   2.389
  400TIP3   OH2 1205   4.983   3.918   4.457
  400TIP3    H1 1206   4.915   3.880   4.511
  400TIP3    H2 1207   5.011   3.847   4.399
  401TIP3   OH2 1208   2.714   0.649   4.149
  401TIP3    H1 1209   2.659   0.714   4.106
  401TIP3    H2 1210   2.673   0.565   4.130
  402TIP3   OH2 1211   5.783   0.623   0.498
  402TIP3    H1 1212   5.765   0.717   0.490
  402TIP3    H2 1213   5.830   0.615   0.581
  403TIP3   OH2 1214   2.535   2.752   3.712
  403TIP3    H1 1215   2.628   2.749   3.687
  403TIP3    H2 1216   2.490   2.774   3.630
  404TIP3   OH2 1217   0.998   0.470   2.452
  404TIP3    H1 1218   1.078   0.439   2.411
  404TIP3    H2 1219   0.971   0.544   2.398
  405TIP3   OH2 1220   0.656   3.561   4.621
  405TIP3    H1 1221   0.676   3.553   4.528
  405TIP3    H2 1222   0.734   3.529   4.665
  406TIP3   OH2 1223   4.118   5.469   0.820
  406TIP3    H1 1224   4.024   5.480   0.806
  406TIP3    H2 1225   4.129   5.375   0.833
  407TIP3   OH2 1226   4.144   4.097   4.899
  407TIP3    H1 1227   4.057   4.058   4.897
  407TIP3    H2 1228   4.200   4.035   4.854
  408TIP3   OH2 1229   1.555   0.985   3.681
  408TIP3    H1 1230   1.463   0.964   3.697
  408TIP3    H2 1231   1.554   1.042   3.604
  409TIP3   OH2 1232   4.173   3.995   0.493
  409TIP3    H1 1233   4.125   3.975   0.574
  409TIP3    H2 1234   4.117   3.963   0.423
  410TIP3   OH2 1235   2.375   4.638   4.813
  410TIP3    H1 1236   2.369   4.551   4.775
  410TIP3    H2 1237   2.331   4.695   4.750
  411TIP3   OH2 1238   4.753   0.992   4.759
  411TIP3    H1 1239   4.728   1.064   4.701
  411TIP3    H2 1240   4.833   1.023   4.802
  412TIP3   OH2 1241   0.795   0.184   3.345
  412TIP3    H1 1242   0.849   0.182   3.267
  412TIP3    H2 1243   0.772   0.277   3.357
  413TIP3   OH2 1244   2.790   5.551   4.353
  413TIP3    H1 1245   2.703   5.521   4.325
  413TIP3    H2 1246   2.835   5.472   4.383
  414TIP3   OH2 1247   1.162   0.061   2.044
  414TIP3    H1 1248   1.179   0.015   2.126
  414TIP3    H2 1249   1.238   0.118   2.032
  415TIP3   OH2 1250   1.649   3.681   4.687
  415TIP3    H1 1251   1.694   3.762   4.711
  415TIP3    H2 1252   1.678   3.662   4.598
  416TIP3   OH2 1253   5.824   1.742   3.966
  416TIP3    H1 1254   5.853   1.829   3.938
  416TIP3    H2 1255   5.852   1.735   4.058
  417TIP3   OH2 1256   4.892   0.854   0.054
  417TIP3    H1 1257   4.853   0.795   0.118
  417TIP3    H2 1258   4.869   0.816  -0.031
  418TIP3   OH2 1259   0.512   5.882   0.633
  418TIP3    H1 1260   0.563   5.803   0.651
  418TIP3    H2 1261   0.424   5.862   0.664
  419TIP3   OH2 1262   0.030   3.520   0.169
  419TIP3    H1 1263   0.116   3.558   0.150
  419TIP3    H2 1264   0.020   3.450   0.104
  420TIP3   OH2 1265   2.261   5.178   1.935
  420TIP3    H1 1266   2.166   5.167   1.939
  420TIP3    H2 1267   2.294   5.120   2.004
  421TIP3   OH2 1268   0.371   3.160   0.561
  421TIP3    H1 1269   0.286   3.160   0.606
  421TIP3    H2 1270   0.413   3.241   0.591
  422TIP3   OH2 1271   1.718   4.559   3.482
  422TIP3    H1 1272   1.714   4.649   3.450
  422TIP3    H2 1273   1.768   4.565   3.564
  423TIP3   OH2 1274   5.785   1.601   0.617
  423TIP3    H1 1275   5.831   1.673   0.661
  423TIP3    H2 1276   5.699   1.599   0.658
  424TIP3   OH2 1277   4.226   3.796   1.689
  424TIP3    H1 1278   4.290   3.867   1.693
  424TIP3    H2 1279   4.143   3.841   1.669
  425TIP3   OH2 1280   2.227   4.142   2.241
  425TIP3    H1 1281   2.163   4.206   2.274
  425TIP3    H2 1282   2.205   4.060   2.286
  426TIP3   OH2 1283   2.108   2.940   0.406
  426TIP3    H1 1284   2.103   2.850   0.438
  426TIP3    H2 1285   2.106   2.994   0.485
  427TIP3   OH2 1286   0.727   4.155   1.238
  427TIP3    H1 1287   0.728   4.125   1.147
  427TIP3    H2 1288   0.720   4.250   1.233
  428TIP3   OH2 1289   2.225   5.585   4.308
  428TIP3    H1 1290   2.144   5.555   4.349
  428TIP3    H2 1291   2.246   5.517   4.244
  429TIP3   OH2 1292   4.775   2.830   3.578
  429TIP3    H1 1293   4.712   2.869   3.517
  429TIP3    H2 1294   4.795   2.900   3.639
  430TIP3   OH2 1295   3.927   4.998   2.937
  430TIP3    H1 1296   3.990   4.968   2.871
  430TIP3    H2 1297   3.852   5.028   2.886
  431TIP3   OH2 1298   5.448   1.443   3.112
  431TIP3    H1 1299   5.448   1.493   3.193
  431TIP3    H2 1300   5.393   1.367   3.130
  432TIP3   OH2 1301   5.655   4.894   3.497
  432TIP3    H1 1302   5.628   4.974   3.543
  432TIP3    H2 1303   5.623   4.823   3.552
  433TIP3   OH2 1304   0.523   2.635   1.998
  433TIP3    H1 1305   0.474   2.717   2.005
  433TIP3    H2 1306   0.592   2.642   2.064
  434TIP3   OH2 1307   4.609   3.650   4.279
  434TIP3    H1 1308   4.569   3.683   4.199
  434TIP3    H2 1309   4.564   3.568   4.297
  435TIP3   OH2 1310   0.239   5.837   1.571
  435TIP3    H1 1311   0.165   5.845   1.631
  435TIP3    H2 1312   0.201   5.847   1.484
  436TIP3   OH2 1313   2.667   1.312   1.610
  436TIP3    H1 1314   2.746   1.357   1.578
  436TIP3    H2 1315   2.679   1.306   1.704
  437TIP3   OH2 1316   3.504   1.741   2.145
  437TIP3    H1 1317   3.582   1.769   2.194
  437TIP3    H2 1318   3.499   1.801   2.071
  438TIP3   OH2 1319   4.046   3.731   3.883
  438TIP3    H1 1320   4.133   3.730   3.845
  438TIP3    H2 1321   3.987   3.736   3.809
  439TIP3   OH2 1322   1.737   3.923   3.687
  439TIP3    H1 1323   1.810   3.861   3.691
  439TIP3    H2 1324   1.779   4.009   3.695
  440TIP3   OH2 1325   5.748   3.593   3.858
  440TIP3    H1 1326   5.836   3.557   3.875
  440TIP3    H2 1327   5.694   3.559   3.929
  441TIP3   OH2 1328   5.436   0.414   2.949
  441TIP3    H1 1329   5.477   0.410   3.035
  441TIP3    H2 1330   5.346   0.387   2.964
  442TIP3   OH2 1331   3.306   3.790   4.771
  442TIP3    H1 1332   3.250   3.865   4.790
  442TIP3    H2 1333   3.294   3.732   4.847
  443TIP3   OH2 1334   4.993   2.969   4.261
  443TIP3    H1 1335   4.912   2.992   4.306
  443TIP3    H2 1336   4.966   2.904   4.196
  444TIP3   OH2 1337   3.630   1.638   0.962
  444TIP3    H1 1338   3.711   1.660   1.008
  444TIP3    H2 1339   3.604   1.719   0.919
  445TIP3   OH2 1340   5.330   1.956   0.603
  445TIP3    H1 1341   5.302   1.969   0.513
  445TIP3    H2 1342   5.353   1.863   0.608
  446TIP3   OH2 1343   1.934   5.360   4.889
  446TIP3    H1 1344   1.903   5.382   4.801
  446TIP3    H2 1345   1.876   5.290   4.919
  447TIP3   OH2 1346   5.835   5.375   3.164
  447TIP3    H1 1347   5.893   5.301   3.184
  447TIP3    H2 1348   5.757   5.334   3.127
  448TIP3   OH2 1349   2.706   1.598   4.418
  448TIP3    H1 1350   2.654   1.598   4.337
  448TIP3    H2 1351   2.656   1.544   4.478
  449TIP3   OH2 1352   0.473   4.448   0.684
  449TIP3    H1 1353   0.500   4.359   0.661
  449TIP3    H2 1354   0.397   4.435   0.742
  450TIP3   OH2 1355   1.165   3.206   2.601
  450TIP3    H1 1356   1.189   3.237   2.513
  450TIP3    H2 1357   1.092   3.264   2.626
  451TIP3   OH2 1358   3.060   3.027   1.729
  451TIP3    H1 1359   2.990   3.091   1.720
  451TIP3    H2 1360   3.026   2.962   1.791
  452TIP3   OH2 1361   1.189   3.577   2.417
  452TIP3    H1 1362   1.100   3.548   2.394
  452TIP3    H2 1363   1.214   3.635   2.345
  453TIP3   OH2 1364   5.587   2.242   1.607
  453TIP3    H1 1365   5.524   2.263   1.676
  453TIP3    H2 1366   5.638   2.322   1.595
  454TIP3   OH2 1367   2.160   3.991   4.264
  454TIP3    H1 1368   2.204   3.931   4.203
  454TIP3    H2 1369   2.211   4.072   4.259
  455TIP3   OH2 1370   3.140   5.448   4.154
  455TIP3    H1 1371   3.224   5.483   4.124
  455TIP3    H2 1372   3.103   5.516   4.209
  456TIP3   OH2 1373   4.476   4.131   2.587
  456TIP3    H1 1374   4.452   4.138   2.495
  456TIP3    H2 1375   4.533   4.054   2.592
  457TIP3   OH2 1376   2.538   1.488   4.874
  457TIP3    H1 1377   2.528   1.393   4.865
  457TIP3    H2 1378   2.630   1.500   4.896
  458TIP3   OH2 1379   4.937   3.748   2.002
  458TIP3    H1 1380   4.914   3.835   1.971
  458TIP3    H2 1381   5.021   3.759   2.047
  459TIP3   OH2 1382   2.098   5.440   4.559
  459TIP3    H1 1383   2.136   5.500   4.624
  459TIP3    H2 1384   2.014   5.480   4.536
  460TIP3   OH2 1385   1.951   2.516   1.479
  460TIP3    H1 1386   1.979   2.572   1.407
  460TIP3    H2 1387   1.883   2.567   1.523
  461TIP3   OH2 1388   5.162   5.113   3.625
  461TIP3    H1 1389   5.184   5.158   3.543
  461TIP3    H2 1390   5.203   5.167   3.693
  462TIP3   OH2 1391   3.258   0.963   4.384
  462TIP3    H1 1392   3.200   0.929   4.316
  462TIP3    H2 1393   3.205   1.028   4.430
  463TIP3   OH2 1394   1.482   4.160   0.173
  463TIP3    H1 1395   1.545   4.191   0.239
  463TIP3    H2 1396   1.529   4.090   0.128
  464TIP3   OH2 1397   2.408   3.668   3.889
  464TIP3    H1 1398   2.401   3.652   3.795
  464TIP3    H2 1399   2.346   3.739   3.907
  465TIP3   OH2 1400   2.679   0.477   4.424
  465TIP3    H1 1401   2.632   0.472   4.341
  465TIP3    H2 1402   2.693   0.571   4.438
  466TIP3   OH2 1403   1.721   1.363   1.434
  466TIP3    H1 1404   1.733   1.397   1.345
  466TIP3    H2 1405   1.650   1.416   1.471
  467TIP3   OH2 1406   6.203   1.989   5.125
  467TIP3    H1 1407   6.187   2.072   5.081
  467TIP3    H2 1408   6.298   1.981   5.128
  468TIP3   OH2 1409   1.204   2.465   4.339
  468TIP3    H1 1410   1.228   2.480   4.431
  468TIP3    H2 1411   1.278   2.498   4.289
  469TIP3   OH2 1412   0.110   4.779   1.176
  469TIP3    H1 1413   0.202   4.753   1.185
  469TIP3    H2 1414   0.066   4.736   1.249
  470TIP3   OH2 1415   2.796   5.854   2.813
  470TIP3    H1 1416   2.848   5.794   2.865
  470TIP3    H2 1417   2.859   5.900   2.759
  471TIP3   OH2 1418   3.701   3.830   2.952
  471TIP3    H1 1419   3.633   3.880   2.907
  471TIP3    H2 1420   3.657   3.750   2.980
  472TIP3   OH2 1421   0.247   0.280   2.919
  472TIP3    H1 1422   0.290   0.211   2.969
  472TIP3    H2 1423   0.319   0.339   2.893
  473TIP3   OH2 1424   0.269   1.419   4.132
  473TIP3    H1 1425   0.294   1.433   4.223
  473TIP3    H2 1426   0.247   1.506   4.099
  474TIP3   OH2 1427   0.315   3.882   3.311
  474TIP3    H1 1428   0.337   3.958   3.365
  474TIP3    H2 1429   0.247   3.913   3.251
  475TIP3   OH2 1430   4.457   5.306   3.284
  475TIP3    H1 1431   4.500   5.321   3.368
  475TIP3    H2 1432   4.431   5.393   3.255
  476TIP3   OH2 1433   1.005   5.530   1.748
  476TIP3    H1 1434   1.052   5.612   1.729
  476TIP3    H2 1435   1.007   5.523   1.843
  477TIP3   OH2 1436   4.234   0.308   5.186
  477TIP3    H1 1437   4.202   0.310   5.096
  477TIP3    H2 1438   4.310   0.250   5.184
  478TIP3   OH2 1439   0.756   0.286   0.583
  478TIP3    H1 1440   0.791   0.247   0.503
  478TIP3    H2 1441   0.745   0.212   0.642
  479TIP3   OH2 1442   3.687   3.553   4.118
  479TIP3    H1 1443   3.597   3.544   4.149
  479TIP3    H2 1444   3.725   3.466   4.130
  480TIP3   OH2 1445   1.765   3.209   1.308
  480TIP3    H1 1446   1.695   3.151   1.280
  480TIP3    H2 1447   1.721   3.277   1.360
  481TIP3   OH2 1448   0.188   0.625   0.749
  481TIP3    H1 1449   0.279   0.625   0.717
  481TIP3    H2 1450   0.145   0.556   0.700
  482TIP3   OH2 1451   2.633   0.012   2.490
  482TIP3    H1 1452   2.644  -0.067   2.543
  482TIP3    H2 1453   2.653   0.084   2.549
  483TIP3   OH2 1454   1.317   5.163   2.540
  483TIP3    H1 1455   1.228   5.198   2.536
  483TIP3    H2 1456   1.308   5.071   2.515
  484TIP3   OH2 1457   4.203   2.388   4.648
  484TIP3    H1 1458   4.123   2.405   4.699
  484TIP3    H2 1459   4.265   2.454   4.678
  485TIP3   OH2 1460   0.476   3.693   2.395
  485TIP3    H1 1461   0.413   3.716   2.327
  485TIP3    H2 1462   0.422   3.659   2.467
  486TIP3   OH2 1463   6.156   3.242   2.100
  486TIP3    H1 1464   6.066   3.270   2.084
  486TIP3    H2 1465   6.147   3.159   2.148
  487TIP3   OH2 1466   2.276   0.584   1.805
  487TIP3    H1 1467   2.308   0.561   1.892
  487TIP3    H2 1468   2.312   0.671   1.787
  488TIP3   OH2 1469   6.331   0.767   3.923
  488TIP3    H1 1470   6.316   0.760   3.829
  488TIP3    H2 1471   6.367   0.855   3.935
  489TIP3   OH2 1472   2.097   2.165   0.699
  489TIP3    H1 1473   2.165   2.103   0.673
  489TIP3    H2 1474   2.115   2.244   0.650
  490TIP3   OH2 1475   1.035   4.493   0.975
  490TIP3    H1 1476   0.954   4.534   0.945
  490TIP3    H2 1477   1.096   4.504   0.901
  491TIP3   OH2 1478   0.129   5.188   2.582
  491TIP3    H1 1479   0.152   5.173   2.490
  491TIP3    H2 1480   0.057   5.251   2.579
  492TIP3   OH2 1481   3.976   3.886   4.879
  492TIP3    H1 1482   4.026   3.813   4.916
  492TIP3    H2 1483   3.884   3.861   4.892
  493TIP3   OH2 1484   5.983   5.819   2.329
  493TIP3    H1 1485   5.994   5.896   2.273
  493TIP3    H2 1486   6.041   5.836   2.403
  494TIP3   OH2 1487   5.713   4.289   3.337
  494TIP3    H1 1488   5.770   4.256   3.268
  494TIP3    H2 1489   5.770   4.341   3.393
  495TIP3   OH2 1490   2.467   4.405   4.648
  495TIP3    H1 1491   2.536   4.444   4.593
  495TIP3    H2 1492   2.439   4.328   4.598
  496TIP3   OH2 1493   2.429   3.761   0.747
  496TIP3    H1 1494   2.358   3.698   0.740
  496TIP3    H2 1495   2.493   3.719   0.805
  497TIP3   OH2 1496   1.653   1.077   2.415
  497TIP3    H1 1497   1.692   1.043   2.335
  497TIP3    H2 1498   1.572   1.119   2.387
  498TIP3   OH2 1499   0.557   2.961   3.224
  498TIP3    H1 1500   0.607   3.043   3.224
  498TIP3    H2 1501   0.589   2.914   3.147
  499TIP3   OH2 1502   0.595   1.869   0.748
  499TIP3    H1 1503   0.600   1.909   0.835
  499TIP3    H2 1504   0.580   1.942   0.689
  500TIP3   OH2 1505   4.610   3.854   0.796
  500TIP3    H1 1506   4.516   3.841   0.809
  500TIP3    H2 1507   4.621   3.949   0.795
  501TIP3   OH2 1508   4.860   4.976   1.204
  501TIP3    H1 1509   4.818   5.057   1.233
  501TIP3    H2 1510   4.928   5.004   1.143
  502TIP3   OH2 1511   2.311   5.138   3.664
  502TIP3    H1 1512   2.250   5.077   3.623
  502TIP3    H2 1513   2.384   5.144   3.603
  503TIP3   OH2 1514   4.247   4.859   3.321
  503TIP3    H1 1515   4.250   4.953   3.304
  503TIP3    H2 1516   4.288   4.820   3.244
  504TIP3   OH2 1517   4.186   1.424   1.152
  504TIP3    H1 1518   4.152   1.444   1.064
  504TIP3    H2 1519   4.235   1.342   1.141
  505TIP3   OH2 1520   1.276   3.675   1.761
  505TIP3    H1 1521   1.197   3.680   1.814
  505TIP3    H2 1522   1.261   3.735   1.689
  506TIP3   OH2 1523   0.012   2.405   1.897
  506TIP3    H1 1524   0.036   2.316   1.924
  506TIP3    H2 1525   0.012   2.402   1.801
  507TIP3   OH2 1526   2.480   2.581   3.090
  507TIP3    H1 1527   2.439   2.627   3.162
  507TIP3    H2 1528   2.493   2.492   3.122
  508TIP3   OH2 1529   1.545   1.529   0.900
  508TIP3    H1 1530   1.614   1.593   0.918
  508TIP3    H2 1531   1.551   1.466   0.971
  509TIP3   OH2 1532   1.194   1.993   2.208
  509TIP3    H1 1533   1.268   1.962   2.260
  509TIP3    H2 1534   1.200   2.088   2.212
  510TIP3   OH2 1535   4.032   4.737   3.942
  510TIP3    H1 1536   4.011   4.829   3.959
  510TIP3    H2 1537   4.120   4.725   3.979
  511TIP3   OH2 1538   2.685   2.884   3.230
  511TIP3    H1 1539   2.645   2.899   3.145
  511TIP3    H2 1540   2.760   2.943   3.233
  512TIP3   OH2 1541   1.022   5.000   1.575
  512TIP3    H1 1542   0.977   4.916   1.584
  512TIP3    H2 1543   1.000   5.048   1.655
  513TIP3   OH2 1544   2.202   1.390   1.962
  513TIP3    H1 1545   2.132   1.428   1.910
  513TIP3    H2 1546   2.228   1.311   1.915
  514TIP3   OH2 1547   6.038   1.904   4.561
  514TIP3    H1 1548   5.972   1.912   4.492
  514TIP3    H2 1549   5.989   1.876   4.638
  515TIP3   OH2 1550   4.612   4.354   1.062
  515TIP3    H1 1551   4.564   4.326   0.985
  515TIP3    H2 1552   4.566   4.433   1.092
  516TIP3   OH2 1553   3.132   0.852   4.161
  516TIP3    H1 1554   3.207   0.847   4.101
  516TIP3    H2 1555   3.056   0.832   4.106
  517TIP3   OH2 1556   0.789   5.666   4.578
  517TIP3    H1 1557   0.700   5.633   4.569
  517TIP3    H2 1558   0.778   5.759   4.597
  518TIP3   OH2 1559   3.449   3.841   4.524
  518TIP3    H1 1560   3.522   3.782   4.541
  518TIP3    H2 1561   3.411   3.858   4.610
  519TIP3   OH2 1562   5.787   5.954   0.577
  519TIP3    H1 1563   5.796   5.872   0.625
  519TIP3    H2 1564   5.783   5.927   0.485
  520TIP3   OH2 1565   5.595   2.098   0.652
  520TIP3    H1 1566   5.598   2.072   0.560
  520TIP3    H2 1567   5.505   2.078   0.679
  521TIP3   OH2 1568   5.701   4.015   5.176
  521TIP3    H1 1569   5.754   3.936   5.167
  521TIP3    H2 1570   5.719   4.065   5.096
  522TIP3   OH2 1571   5.793   5.556   1.799
  522TIP3    H1 1572   5.879   5.570   1.839
  522TIP3    H2 1573   5.737   5.622   1.841
  523TIP3   OH2 1574   4.135   5.200   0.360
  523TIP3    H1 1575   4.179   5.248   0.430
  523TIP3    H2 1576   4.178   5.115   0.359
  524TIP3   OH2 1577   6.261   2.842   1.551
  524TIP3    H1 1578   6.265   2.835   1.647
  524TIP3    H2 1579   6.225   2.758   1.523
  525TIP3   OH2 1580   2.093   1.718   1.071
  525TIP3    H1 1581   1.997   1.714   1.064
  525TIP3    H2 1582   2.109   1.750   1.160
  526TIP3   OH2 1583   1.492   5.887   3.721
  526TIP3    H1 1584   1.460   5.805   3.758
  526TIP3    H2 1585   1.418   5.920   3.669
  527TIP3   OH2 1586   3.503   4.854   3.925
  527TIP3    H1 1587   3.432   4.901   3.967
  527TIP3    H2 1588   3.473   4.763   3.919
  528TIP3   OH2 1589   2.042   4.170   1.292
  528TIP3    H1 1590   2.063   4.249   1.242
  528TIP3    H2 1591   2.113   4.110   1.271
  529TIP3   OH2 1592   1.202   0.379   4.485
  529TIP3    H1 1593   1.270   0.313   4.502
  529TIP3    H2 1594   1.206   0.394   4.391
  530TIP3   OH2 1595   5.494   5.078   2.123
  530TIP3    H1 1596   5.459   5.144   2.183
  530TIP3    H2 1597   5.494   5.121   2.037
  531TIP3   OH2 1598   3.528   3.600   2.225
  531TIP3    H1 1599   3.543   3.511   2.193
  531TIP3    H2 1600   3.570   3.602   2.311
  532TIP3   OH2 1601   3.554   4.207   0.275
  532TIP3    H1 1602   3.559   4.111   0.272
  532TIP3    H2 1603   3.579   4.229   0.365
  533TIP3   OH2 1604   1.216   3.874   0.991
  533TIP3    H1 1605   1.151   3.919   1.045
  533TIP3    H2 1606   1.237   3.795   1.041
  534TIP3   OH2 1607   5.864   0.553   1.458
  534TIP3    H1 1608   5.795   0.487   1.456
  534TIP3    H2 1609   5.938   0.511   1.415
  535TIP3   OH2 1610   0.569   1.483   4.157
  535TIP3    H1 1611   0.505   1.471   4.227
  535TIP3    H2 1612   0.650   1.447   4.192
  536TIP3   OH2 1613   6.307   5.385   3.041
  536TIP3    H1 1614   6.228   5.411   3.088
  536TIP3    H2 1615   6.292   5.294   3.017
  537TIP3   OH2 1616   5.357   5.799   3.630
  537TIP3    H1 1617   5.328   5.807   3.539
  537TIP3    H2 1618   5.400   5.714   3.635
  538TIP3   OH2 1619   4.425   5.499   3.954
  538TIP3    H1 1620   4.476   5.464   3.881
  538TIP3    H2 1621   4.485   5.558   4.000
  539TIP3   OH2 1622   3.295   0.307   2.540
  539TIP3    H1 1623   3.201   0.316   2.530
  539TIP3    H2 1624   3.333   0.363   2.472
  540TIP3   OH2 1625   0.438   4.768   3.426
  540TIP3    H1 1626   0.459   4.684   3.467
  540TIP3    H2 1627   0.431   4.748   3.333
  541TIP3   OH2 1628   1.014   1.457   3.351
  541TIP3    H1 1629   1.030   1.535   3.297
  541TIP3    H2 1630   1.101   1.423   3.370
  542TIP3   OH2 1631   0.824   3.209   0.850
  542TIP3    H1 1632   0.834   3.218   0.755
  542TIP3    H2 1633   0.834   3.299   0.883
  543TIP3   OH2 1634   1.845   3.206   1.918
  543TIP3    H1 1635   1.832   3.159   1.835
  543TIP3    H2 1636   1.936   3.187   1.942
  544TIP3   OH2 1637   5.893   3.926   1.825
  544TIP3    H1 1638   5.970   3.886   1.865
  544TIP3    H2 1639   5.908   4.020   1.832
  545TIP3   OH2 1640   1.213   0.622   4.677
  545TIP3    H1 1641   1.221   0.717   4.666
  545TIP3    H2 1642   1.191   0.589   4.590
  546TIP3   OH2 1643   0.196   3.575   1.410
  546TIP3    H1 1644   0.249   3.500   1.386
  546TIP3    H2 1645   0.258   3.647   1.417
  547TIP3   OH2 1646   2.744   4.382   0.282
  547TIP3    H1 1647   2.694   4.457   0.314
  547TIP3    H2 1648   2.704   4.362   0.197
  548TIP3   OH2 1649   3.423   3.713   1.453
  548TIP3    H1 1650   3.366   3.646   1.489
  548TIP3    H2 1651   3.424   3.696   1.358
  549TIP3   OH2 1652   4.987   4.814   4.133
  549TIP3    H1 1653   4.945   4.837   4.215
  549TIP3    H2 1654   5.079   4.804   4.155
  550TIP3   OH2 1655   0.884   1.490   4.386
  550TIP3    H1 1656   0.938   1.438   4.446
  550TIP3    H2 1657   0.819   1.428   4.353
  551TIP3   OH2 1658   4.139   2.940   1.440
  551TIP3    H1 1659   4.222   2.967   1.480
  551TIP3    H2 1660   4.162   2.870   1.380
  552TIP3   OH2 1661   4.104   1.873   0.826
  552TIP3    H1 1662   4.166   1.823   0.880
  552TIP3    H2 1663   4.137   1.864   0.737
  553TIP3   OH2 1664   5.083   5.989   1.667
  553TIP3    H1 1665   5.103   5.895   1.660
  553TIP3    H2 1666   5.023   5.995   1.741
  554TIP3   OH2 1667   2.176   3.371   0.172
  554TIP3    H1 1668   2.086   3.369   0.207
  554TIP3    H2 1669   2.200   3.279   0.162
  555TIP3   OH2 1670   3.940   2.011   2.796
  555TIP3    H1 1671   3.874   2.039   2.860
  555TIP3    H2 1672   4.022   2.047   2.829
  556TIP3   OH2 1673  -0.023   2.162   0.219
  556TIP3    H1 1674   0.046   2.097   0.205
  556TIP3    H2 1675   0.021   2.234   0.264
  557TIP3   OH2 1676   5.167   2.719   1.153
  557TIP3    H1 1677   5.206   2.654   1.212
  557TIP3    H2 1678   5.206   2.701   1.068
  558TIP3   OH2 1679   1.943   1.204   0.350
  558TIP3    H1 1680   1.927   1.168   0.438
  558TIP3    H2 1681   1.969   1.295   0.366
  559TIP3   OH2 1682   4.623   1.059   1.275
  559TIP3    H1 1683   4.632   0.964   1.284
  559TIP3    H2 1684   4.693   1.084   1.215
  560TIP3   OH2 1685   4.932   2.269   2.843
  560TIP3    H1 1686   4.974   2.188   2.813
  560TIP3    H2 1687   5.003   2.321   2.880
  561TIP3   OH2 1688   0.490   5.129   0.936
  561TIP3    H1 1689   0.526   5.216   0.919
  561TIP3    H2 1690   0.511   5.078   0.857
  562TIP3   OH2 1691   0.951   5.465   4.698
  562TIP3    H1 1692   0.903   5.444   4.618
  562TIP3    H2 1693   0.901   5.536   4.739
  563TIP3   OH2 1694   6.286   0.286   4.023
  563TIP3    H1 1695   6.316   0.377   4.030
  563TIP3    H2 1696   6.362   0.238   3.992
  564TIP3   OH2 1697   4.446   5.592   1.893
  564TIP3    H1 1698   4.465   5.676   1.936
  564TIP3    H2 1699   4.487   5.601   1.806
  565TIP3   OH2 1700   2.613   1.367   0.014
  565TIP3    H1 1701   2.705   1.342   0.024
  565TIP3    H2 1702   2.611   1.423  -0.063
  566TIP3   OH2 1703   0.482   4.133   4.168
  566TIP3    H1 1704   0.492   4.049   4.124
  566TIP3    H2 1705   0.393   4.132   4.203
  567TIP3   OH2 1706   4.260   5.168   3.904
  567TIP3    H1 1707   4.294   5.250   3.941
  567TIP3    H2 1708   4.276   5.176   3.810
  568TIP3   OH2 1709   1.604   5.943   4.711
  568TIP3    H1 1710   1.581   6.001   4.639
  568TIP3    H2 1711   1.642   6.001   4.777
  569TIP3   OH2 1712   2.722   0.719   1.737
  569TIP3    H1 1713   2.717   0.669   1.818
  569TIP3    H2 1714   2.811   0.705   1.706
  570TIP3   OH2 1715   1.031   5.736   2.722
  570TIP3    H1 1716   1.074   5.803   2.775
  570TIP3    H2 1717   1.071   5.654   2.751
  571TIP3   OH2 1718   4.575   4.550   4.146
  571TIP3    H1 1719   4.604   4.589   4.228
  571TIP3    H2 1720   4.555   4.459   4.169
  572TIP3   OH2 1721   2.859   2.496   5.204
  572TIP3    H1 1722   2.879   2.492   5.110
  572TIP3    H2 1723   2.769   2.463   5.211
  573TIP3   OH2 1724   2.714   2.920   2.709
  573TIP3    H1 1725   2.709   2.825   2.697
  573TIP3    H2 1726   2.632   2.953   2.674
  574TIP3   OH2 1727   3.747   1.911   1.169
  574TIP3    H1 1728   3.824   1.952   1.208
  574TIP3    H2 1729   3.780   1.834   1.125
  575TIP3   OH2 1730   1.369   4.128   0.796
  575TIP3    H1 1731   1.273   4.129   0.794
  575TIP3    H2 1732   1.393   4.043   0.759
  576TIP3   OH2 1733   3.420   4.588   1.222
  576TIP3    H1 1734   3.487   4.548   1.168
  576TIP3    H2 1735   3.418   4.535   1.302
  577TIP3   OH2 1736   1.466   4.800   0.884
  577TIP3    H1 1737   1.478   4.715   0.928
  577TIP3    H2 1738   1.476   4.864   0.954
  578TIP3   OH2 1739   0.448   3.319   0.926
  578TIP3    H1 1740   0.474   3.402   0.966
  578TIP3    H2 1741   0.353   3.324   0.918
  579TIP3   OH2 1742   0.210   1.369   2.013
  579TIP3    H1 1743   0.119   1.343   2.025
  579TIP3    H2 1744   0.252   1.349   2.097
  580TIP3   OH2 1745   4.860   4.937   2.288
  580TIP3    H1 1746   4.935   4.989   2.318
  580TIP3    H2 1747   4.836   4.976   2.204
  581TIP3   OH2 1748   0.805   4.506   5.196
  581TIP3    H1 1749   0.730   4.545   5.151
  581TIP3    H2 1750   0.834   4.436   5.137
  582TIP3   OH2 1751   4.563   4.672   1.928
  582TIP3    H1 1752   4.597   4.627   2.005
  582TIP3    H2 1753   4.478   4.707   1.955
  583TIP3   OH2 1754   0.621   4.910   1.745
  583TIP3    H1 1755   0.546   4.862   1.780
  583TIP3    H2 1756   0.697   4.866   1.783
  584TIP3   OH2 1757   0.867   2.426   4.201
  584TIP3    H1 1758   0.949   2.399   4.158
  584TIP3    H2 1759   0.798   2.381   4.151
  585TIP3   OH2 1760   1.704   5.164   3.650
  585TIP3    H1 1761   1.783   5.206   3.686
  585TIP3    H2 1762   1.715   5.170   3.555
  586TIP3   OH2 1763   5.613   1.978   1.999
  586TIP3    H1 1764   5.694   2.025   1.979
  586TIP3    H2 1765   5.618   1.960   2.093
  587TIP3   OH2 1766   4.589   2.848   4.123
  587TIP3    H1 1767   4.667   2.825   4.073
  587TIP3    H2 1768   4.552   2.763   4.150
  588TIP3   OH2 1769   4.521   3.662   3.205
  588TIP3    H1 1770   4.477   3.745   3.225
  588TIP3    H2 1771   4.493   3.603   3.274
  589TIP3   OH2 1772   0.244   2.134   1.098
  589TIP3    H1 1773   0.183   2.089   1.040
  589TIP3    H2 1774   0.328   2.129   1.052
  590TIP3   OH2 1775   3.135   0.367   1.112
  590TIP3    H1 1776   3.182   0.430   1.058
  590TIP3    H2 1777   3.044   0.393   1.107
  591TIP3   OH2 1778   0.796   0.442   1.634
  591TIP3    H1 1779   0.830   0.524   1.596
  591TIP3    H2 1780   0.871   0.405   1.682
  592TIP3   OH2 1781   2.321   3.803   1.582
  592TIP3    H1 1782   2.259   3.870   1.610
  592TIP3    H2 1783   2.394   3.811   1.644
  593TIP3   OH2 1784   1.130   4.812   0.801
  593TIP3    H1 1785   1.206   4.856   0.762
  593TIP3    H2 1786   1.146   4.719   0.786
  594TIP3   OH2 1787   3.324   3.009   0.425
  594TIP3    H1 1788   3.373   2.936   0.462
  594TIP3    H2 1789   3.391   3.076   0.407
  595TIP3   OH2 1790   3.768   1.974   0.640
  595TIP3    H1 1791   3.807   1.894   0.604
  595TIP3    H2 1792   3.746   2.027   0.563
  596TIP3   OH2 1793   0.288   1.979   0.755
  596TIP3    H1 1794   0.339   1.951   0.678
  596TIP3    H2 1795   0.354   1.998   0.822
  597TIP3   OH2 1796   2.940   4.393   4.023
  597TIP3    H1 1797   2.901   4.352   4.100
  597TIP3    H2 1798   2.961   4.320   3.965
  598TIP3   OH2 1799   1.137   5.847   2.389
  598TIP3    H1 1800   1.207   5.799   2.434
  598TIP3    H2 1801   1.176   5.873   2.306
  599TIP3   OH2 1802   4.468   5.554   4.251
  599TIP3    H1 1803   4.424   5.589   4.328
  599TIP3    H2 1804   4.559   5.541   4.279
  600TIP3   OH2 1805   3.264   1.337   2.009
  600TIP3    H1 1806   3.202   1.306   1.944
  600TIP3    H2 1807   3.344   1.356   1.959
  601TIP3   OH2 1808   6.092   3.467   0.777
  601TIP3    H1 1809   6.048   3.526   0.839
  601TIP3    H2 1810   6.103   3.520   0.698
  602TIP3   OH2 1811   0.162   4.112   2.377
  602TIP3    H1 1812   0.248   4.073   2.367
  602TIP3    H2 1813   0.144   4.106   2.471
  603TIP3   OH2 1814   4.864   0.079   1.232
  603TIP3    H1 1815   4.811   0.154   1.258
  603TIP3    H2 1816   4.953   0.114   1.226
  604TIP3   OH2 1817   1.801   2.374   2.541
  604TIP3    H1 1818   1.715   2.333   2.539
  604TIP3    H2 1819   1.816   2.401   2.450
  605TIP3   OH2 1820   5.677   1.539   1.171
  605TIP3    H1 1821   5.716   1.626   1.170
  605TIP3    H2 1822   5.749   1.480   1.149
  606TIP3   OH2 1823   0.275   1.425   2.910
  606TIP3    H1 1824   0.284   1.443   3.004
  606TIP3    H2 1825   0.349   1.368   2.890
  607TIP3   OH2 1826   0.909   3.688   0.795
  607TIP3    H1 1827   0.991   3.736   0.783
  607TIP3    H2 1828   0.877   3.717   0.881
  608TIP3   OH2 1829   4.947   0.511   1.830
  608TIP3    H1 1830   4.926   0.456   1.754
  608TIP3    H2 1831   5.042   0.503   1.841
  609TIP3   OH2 1832   5.527   4.672   4.084
  609TIP3    H1 1833   5.552   4.752   4.130
  609TIP3    H2 1834   5.466   4.628   4.144
  610TIP3   OH2 1835   5.102   3.598   1.696
  610TIP3    H1 1836   5.146   3.524   1.737
  610TIP3    H2 1837   5.163   3.671   1.706
  611TIP3   OH2 1838   1.525   3.839   4.892
  611TIP3    H1 1839   1.471   3.879   4.824
  611TIP3    H2 1840   1.562   3.761   4.852
  612TIP3   OH2 1841   5.813   4.108   4.759
  612TIP3    H1 1842   5.871   4.032   4.769
  612TIP3    H2 1843   5.830   4.139   4.670
  613TIP3   OH2 1844   5.570   4.076   3.450
  613TIP3    H1 1845   5.633   4.011   3.420
  613TIP3    H2 1846   5.609   4.160   3.427
  614TIP3   OH2 1847   5.856   1.360   4.293
  614TIP3    H1 1848   5.883   1.301   4.223
  614TIP3    H2 1849   5.761   1.359   4.291
  615TIP3   OH2 1850   2.112   0.651   0.329
  615TIP3    H1 1851   2.080   0.709   0.399
  615TIP3    H2 1852   2.070   0.567   0.347
  616TIP3   OH2 1853   0.981   5.345   2.903
  616TIP3    H1 1854   0.891   5.357   2.872
  616TIP3    H2 1855   0.996   5.251   2.900
  617TIP3   OH2 1856   1.515  -0.001   2.028
  617TIP3    H1 1857   1.466   0.074   1.994
  617TIP3    H2 1858   1.547   0.028   2.113
  618TIP3   OH2 1859   1.356   3.383   4.389
  618TIP3    H1 1860   1.344   3.478   4.398
  618TIP3    H2 1861   1.411   3.359   4.463
  619TIP3   OH2 1862   3.896   4.906   2.544
  619TIP3    H1 1863   3.982   4.941   2.564
  619TIP3    H2 1864   3.839   4.983   2.538
  620TIP3   OH2 1865   3.910   0.492   0.531
  620TIP3    H1 1866   3.989   0.489   0.585
  620TIP3    H2 1867   3.921   0.571   0.478
  621TIP3   OH2 1868   0.445   4.579   1.291
  621TIP3    H1 1869   0.437   4.661   1.241
  621TIP3    H2 1870   0.427   4.511   1.227
  622TIP3   OH2 1871   1.938   1.845   2.071
  622TIP3    H1 1872   2.014   1.812   2.120
  622TIP3    H2 1873   1.866   1.841   2.134
  623TIP3   OH2 1874   2.064   1.580   4.990
  623TIP3    H1 1875   2.026   1.492   4.995
  623TIP3    H2 1876   2.158   1.565   4.979
  624TIP3   OH2 1877   4.186   0.372   2.191
  624TIP3    H1 1878   4.182   0.278   2.173
  624TIP3    H2 1879   4.266   0.383   2.242
  625TIP3   OH2 1880   1.987   0.425   0.599
  625TIP3    H1 1881   1.989   0.342   0.552
  625TIP3    H2 1882   1.976   0.401   0.691
  626TIP3   OH2 1883   3.952   3.595   3.369
  626TIP3    H1 1884   3.900   3.670   3.339
  626TIP3    H2 1885   3.945   3.597   3.464
  627TIP3   OH2 1886   3.558   5.630   2.320
  627TIP3    H1 1887   3.633   5.574   2.340
  627TIP3    H2 1888   3.576   5.666   2.234
  628TIP3   OH2 1889   4.052   5.560   3.424
  628TIP3    H1 1890   4.036   5.512   3.505
  628TIP3    H2 1891   3.998   5.639   3.432
  629TIP3   OH2 1892   2.141   2.861   3.641
  629TIP3    H1 1893   2.149   2.925   3.712
  629TIP3    H2 1894   2.139   2.776   3.686
  630TIP3   OH2 1895   5.953   4.439   1.687
  630TIP3    H1 1896   6.045   4.456   1.670
  630TIP3    H2 1897   5.927   4.506   1.750
  631TIP3   OH2 1898   1.354   0.094   4.815
  631TIP3    H1 1899   1.397   0.158   4.872
  631TIP3    H2 1900   1.349   0.137   4.730
  632TIP3   OH2 1901   4.165   0.416   3.334
  632TIP3    H1 1902   4.156   0.473   3.411
  632TIP3    H2 1903   4.103   0.452   3.271
  633TIP3   OH2 1904   2.837   4.956   4.444
  633TIP3    H1 1905   2.779   4.883   4.466
  633TIP3    H2 1906   2.789   5.034   4.471
  634TIP3   OH2 1907   4.037   2.674   1.075
  634TIP3    H1 1908   3.974   2.744   1.055
  634TIP3    H2 1909   4.011   2.643   1.161
  635TIP3   OH2 1910   5.907   1.400   1.099
  635TIP3    H1 1911   5.848   1.396   1.024
  635TIP3    H2 1912   5.890   1.319   1.147
  636TIP3   OH2 1913   4.663   2.317   4.187
  636TIP3    H1 1914   4.685   2.256   4.258
  636TIP3    H2 1915   4.579   2.286   4.154
  637TIP3   OH2 1916   1.108   1.913   4.378
  637TIP3    H1 1917   1.049   1.846   4.413
  637TIP3    H2 1918   1.084   1.993   4.424
  638TIP3   OH2 1919   0.382   1.375   1.621
  638TIP3    H1 1920   0.447   1.309   1.646
  638TIP3    H2 1921   0.374   1.430   1.699
  639TIP3   OH2 1922   1.537   4.740   1.658
  639TIP3    H1 1923   1.477   4.812   1.678
  639TIP3    H2 1924   1.621   4.783   1.644
  640TIP3   OH2 1925   4.396   4.488   1.753
  640TIP3    H1 1926   4.470   4.510   1.809
  640TIP3    H2 1927   4.408   4.541   1.675
  641TIP3   OH2 1928   5.590   2.159   4.033
  641TIP3    H1 1929   5.569   2.150   4.126
  641TIP3    H2 1930   5.505   2.163   3.989
  642TIP3   OH2 1931   5.004   4.268   0.879
  642TIP3    H1 1932   4.944   4.293   0.809
  642TIP3    H2 1933   5.046   4.188   0.848
  643TIP3   OH2 1934   2.035   1.497   0.570
  643TIP3    H1 1935   1.953   1.511   0.617
  643TIP3    H2 1936   2.101   1.544   0.622
  644TIP3   OH2 1937   4.712   0.570   4.159
  644TIP3    H1 1938   4.709   0.484   4.115
  644TIP3    H2 1939   4.706   0.549   4.252
  645TIP3   OH2 1940   2.158   1.820   1.316
  645TIP3    H1 1941   2.252   1.819   1.333
  645TIP3    H2 1942   2.125   1.892   1.370
  646TIP3   OH2 1943   5.611   1.973   1.573
  646TIP3    H1 1944   5.592   2.067   1.580
  646TIP3    H2 1945   5.706   1.969   1.567
  647TIP3   OH2 1946   2.529   5.264   2.828
  647TIP3    H1 1947   2.564   5.279   2.916
  647TIP3    H2 1948   2.449   5.317   2.824
  648TIP3   OH2 1949   4.403   2.551   3.858
  648TIP3    H1 1950   4.478   2.492   3.859
  648TIP3    H2 1951   4.338   2.507   3.913
  649TIP3   OH2 1952   2.220   2.773   2.644
  649TIP3    H1 1953   2.169   2.707   2.691
  649TIP3    H2 1954   2.192   2.856   2.683
  650TIP3   OH2 1955   0.492   4.000   1.556
  650TIP3    H1 1956   0.417   4.018   1.613
  650TIP3    H2 1957   0.568   4.034   1.604
  651TIP3   OH2 1958   3.989   5.311   4.069
  651TIP3    H1 1959   4.072   5.350   4.098
  651TIP3    H2 1960   3.950   5.276   4.150
  652TIP3   OH2 1961   1.974   4.110   4.588
  652TIP3    H1 1962   2.022   4.142   4.512
  652TIP3    H2 1963   2.020   4.148   4.663
  653TIP3   OH2 1964   2.424   2.367   3.931
  653TIP3    H1 1965   2.474   2.448   3.934
  653TIP3    H2 1966   2.456   2.322   3.852
  654TIP3   OH2 1967   3.184   2.469   4.459
  654TIP3    H1 1968   3.180   2.539   4.393
  654TIP3    H2 1969   3.156   2.390   4.411
  655TIP3   OH2 1970   0.490   4.366   4.036
  655TIP3    H1 1971   0.410   4.346   3.988
  655TIP3    H2 1972   0.509   4.287   4.087
  656TIP3   OH2 1973   4.416   1.957   2.189
  656TIP3    H1 1974   4.456   2.040   2.164
  656TIP3    H2 1975   4.392   1.969   2.281
  657TIP3   OH2 1976   4.398   0.735   0.854
  657TIP3    H1 1977   4.428   0.785   0.778
  657TIP3    H2 1978   4.385   0.801   0.922
  658TIP3   OH2 1979   0.631   5.786   5.104
  658TIP3    H1 1980   0.555   5.798   5.047
  658TIP3    H2 1981   0.683   5.866   5.092
  659TIP3   OH2 1982   3.859   0.943   3.723
  659TIP3    H1 1983   3.868   0.864   3.669
  659TIP3    H2 1984   3.915   0.927   3.798
  660TIP3   OH2 1985   3.482   0.800   0.230
  660TIP3    H1 1986   3.487   0.888   0.191
  660TIP3    H2 1987   3.451   0.744   0.159
  661TIP3   OH2 1988   2.629   1.342   1.120
  661TIP3    H1 1989   2.685   1.408   1.160
  661TIP3    H2 1990   2.574   1.390   1.059
  662TIP3   OH2 1991   2.870   3.202   1.668
  662TIP3    H1 1992   2.809   3.214   1.595
  662TIP3    H2 1993   2.851   3.274   1.727
  663TIP3   OH2 1994   4.623   0.506   3.572
  663TIP3    H1 1995   4.596   0.595   3.551
  663TIP3    H2 1996   4.547   0.452   3.551
  664TIP3   OH2 1997   4.957   5.444   1.232
  664TIP3    H1 1998   5.029   5.402   1.279
  664TIP3    H2 1999   4.979   5.537   1.233
  665TIP3   OH2 2000   4.089   5.983   1.553
  665TIP3    H1 2001   4.113   5.941   1.636
  665TIP3    H2 2002   4.170   5.980   1.501
  666TIP3   OH2 2003   4.939   3.496   3.372
  666TIP3    H1 2004   5.007   3.487   3.439
  666TIP3    H2 2005   4.873   3.431   3.396
  667TIP3   OH2 2006   2.422   2.616   0.638
  667TIP3    H1 2007   2.464   2.531   0.648
  667TIP3    H2 2008   2.464   2.671   0.704
  668TIP3   OH2 2009   3.888   1.128   2.042
  668TIP3    H1 2010   3.826   1.133   2.114
  668TIP3    H2 2011   3.899   1.219   2.014
  669TIP3   OH2 2012   0.756   5.736   3.218
  669TIP3    H1 2013   0.668   5.735   3.180
  669TIP3    H2 2014   0.791   5.649   3.198
  670TIP3   OH2 2015   1.814   3.288   0.739
  670TIP3    H1 2016   1.763   3.207   0.742
  670TIP3    H2 2017   1.865   3.287   0.821
  671TIP3   OH2 2018   1.409   0.167   0.336
  671TIP3    H1 2019   1.465   0.205   0.403
  671TIP3    H2 2020   1.376   0.086   0.375
  672TIP3   OH2 2021   4.189   0.072   4.147
  672TIP3    H1 2022   4.133   0.030   4.213
  672TIP3    H2 2023   4.131   0.136   4.105
  673TIP3   OH2 2024   1.631   0.232   1.388
  673TIP3    H1 2025   1.563   0.200   1.448
  673TIP3    H2 2026   1.713   0.201   1.426
  674TIP3   OH2 2027   2.195   4.158   4.784
  674TIP3    H1 2028   2.220   4.249   4.765
  674TIP3    H2 2029   2.252   4.132   4.856
  675TIP3   OH2 2030   3.071   5.247   2.959
  675TIP3    H1 2031   3.027   5.179   2.908
  675TIP3    H2 2032   3.152   5.264   2.912
  676TIP3   OH2 2033   2.900   2.500   0.911
  676TIP3    H1 2034   2.929   2.462   0.994
  676TIP3    H2 2035   2.806   2.486   0.909
  677TIP3   OH2 2036   5.378   4.880   3.293
  677TIP3    H1 2037   5.393   4.789   3.269
  677TIP3    H2 2038   5.378   4.881   3.388
  678TIP3   OH2 2039   2.449   3.698   0.414
  678TIP3    H1 2040   2.422   3.669   0.501
  678TIP3    H2 2041   2.396   3.776   0.397
  679TIP3   OH2 2042   1.229   5.711   1.028
  679TIP3    H1 2043   1.199   5.651   0.960
  679TIP3    H2 2044   1.148   5.745   1.067
  680TIP3   OH2 2045   0.088   4.077   1.476
  680TIP3    H1 2046   0.081   4.062   1.381
  680TIP3    H2 2047   0.005   4.045   1.511
  681TIP3   OH2 2048   1.657   5.121   3.381
  681TIP3    H1 2049   1.676   5.192   3.319
  681TIP3    H2 2050   1.562   5.123   3.392
  682TIP3   OH2 2051   2.128   2.344   3.556
  682TIP3    H1 2052   2.171   2.425   3.584
  682TIP3    H2 2053   2.199   2.280   3.553
  683TIP3   OH2 2054   3.387   2.681   3.179
  683TIP3    H1 2055   3.349   2.653   3.262
  683TIP3    H2 2056   3.339   2.761   3.156
  684TIP3   OH2 2057   1.896   5.217   1.631
  684TIP3    H1 2058   1.844   5.197   1.708
  684TIP3    H2 2059   1.984   5.187   1.653
  685TIP3   OH2 2060   3.708   1.626   0.028
  685TIP3    H1 2061   3.703   1.687   0.102
  685TIP3    H2 2062   3.656   1.551   0.056
  686TIP3   OH2 2063   4.239   5.355   0.566
  686TIP3    H1 2064   4.204   5.305   0.640
  686TIP3    H2 2065   4.314   5.401   0.602
  687TIP3   OH2 2066   0.908   3.948   0.563
  687TIP3    H1 2067   0.958   3.930   0.642
  687TIP3    H2 2068   0.859   3.867   0.547
  688TIP3   OH2 2069   6.040   2.383   5.189
  688TIP3    H1 2070   6.015   2.304   5.239
  688TIP3    H2 2071   5.972   2.392   5.123
  689TIP3   OH2 2072   1.638   2.849   2.611
  689TIP3    H1 2073   1.651   2.932   2.658
  689TIP3    H2 2074   1.671   2.782   2.671
  690TIP3   OH2 2075   0.279   1.216   0.407
  690TIP3    H1 2076   0.290   1.292   0.464
  690TIP3    H2 2077   0.188   1.190   0.419
  691TIP3   OH2 2078   1.834   0.481   4.019
  691TIP3    H1 2079   1.920   0.439   4.009
  691TIP3    H2 2080   1.794   0.437   4.094
  692TIP3   OH2 2081   2.348   3.640   3.615
  692TIP3    H1 2082   2.352   3.735   3.625
  692TIP3    H2 2083   2.408   3.622   3.543
  693TIP3   OH2 2084   0.471   5.228   3.353
  693TIP3    H1 2085   0.559   5.254   3.381
  693TIP3    H2 2086   0.484   5.148   3.302
  694TIP3   OH2 2087   5.256   2.188   1.625
  694TIP3    H1 2088   5.271   2.186   1.720
  694TIP3    H2 2089   5.180   2.132   1.611
  695TIP3   OH2 2090   2.021   1.267   1.311
  695TIP3    H1 2091   2.091   1.331   1.323
  695TIP3    H2 2092   1.943   1.310   1.347
  696TIP3   OH2 2093   0.140   0.324   1.688
  696TIP3    H1 2094   0.209   0.260   1.669
  696TIP3    H2 2095   0.177   0.408   1.661
  697TIP3   OH2 2096   2.747   4.979   4.001
  697TIP3    H1 2097   2.748   5.073   4.015
  697TIP3    H2 2098   2.836   4.958   3.972
  698TIP3   OH2 2099   2.553   1.557   1.792
  698TIP3    H1 2100   2.512   1.542   1.707
  698TIP3    H2 2101   2.545   1.652   1.806
  699TIP3   OH2 2102   5.035   2.751   4.502
  699TIP3    H1 2103   4.971   2.781   4.566
  699TIP3    H2 2104   4.987   2.751   4.419
  700TIP3   OH2 2105   3.749   5.392   1.220
  700TIP3    H1 2106   3.756   5.315   1.164
  700TIP3    H2 2107   3.667   5.379   1.268
  701TIP3   OH2 2108   0.293   4.585   0.171
  701TIP3    H1 2109   0.287   4.655   0.237
  701TIP3    H2 2110   0.386   4.564   0.168
  702TIP3   OH2 2111   3.948   1.768   3.250
  702TIP3    H1 2112   3.967   1.833   3.319
  702TIP3    H2 2113   3.933   1.687   3.298
  703TIP3   OH2 2114   1.874   0.945   0.321
  703TIP3    H1 2115   1.928   0.905   0.388
  703TIP3    H2 2116   1.904   1.036   0.316
  704TIP3   OH2 2117   5.773   0.784   1.841
  704TIP3    H1 2118   5.857   0.826   1.823
  704TIP3    H2 2119   5.716   0.814   1.770
  705TIP3   OH2 2120   5.294   4.954   3.976
  705TIP3    H1 2121   5.302   4.901   4.056
  705TIP3    H2 2122   5.373   5.008   3.975
  706TIP3   OH2 2123   5.828   1.755   1.887
  706TIP3    H1 2124   5.814   1.844   1.854
  706TIP3    H2 2125   5.877   1.768   1.969
  707TIP3   OH2 2126   5.692   5.167   1.294
  707TIP3    H1 2127   5.762   5.194   1.233
  707TIP3    H2 2128   5.619   5.144   1.237
  708TIP3   OH2 2129   2.448   1.815   1.910
  708TIP3    H1 2130   2.427   1.849   1.824
  708TIP3    H2 2131   2.392   1.864   1.970
  709TIP3   OH2 2132   5.430   1.940   4.919
  709TIP3    H1 2133   5.456   1.897   4.837
  709TIP3    H2 2134   5.380   2.017   4.891
  710TIP3   OH2 2135   3.651   5.477   1.550
  710TIP3    H1 2136   3.741   5.446   1.548
  710TIP3    H2 2137   3.600   5.404   1.512
  711TIP3   OH2 2138   1.022   4.325   3.951
  711TIP3    H1 2139   1.067   4.390   3.898
  711TIP3    H2 2140   0.930   4.332   3.925
  712TIP3   OH2 2141   5.267   0.492   1.887
  712TIP3    H1 2142   5.299   0.541   1.812
  712TIP3    H2 2143   5.237   0.409   1.850
  713TIP3   OH2 2144   3.581   4.588   4.921
  713TIP3    H1 2145   3.658   4.534   4.904
  713TIP3    H2 2146   3.520   4.528   4.966
  714TIP3   OH2 2147   2.033   3.305   3.248
  714TIP3    H1 2148   2.006   3.394   3.272
  714TIP3    H2 2149   2.110   3.318   3.193
  715TIP3   OH2 2150   6.302   5.748   1.272
  715TIP3    H1 2151   6.386   5.794   1.278
  715TIP3    H2 2152   6.287   5.712   1.359
  716TIP3   OH2 2153   1.310   5.639   4.064
  716TIP3    H1 2154   1.249   5.707   4.036
  716TIP3    H2 2155   1.309   5.643   4.159
  717TIP3   OH2 2156   1.573   0.740   3.810
  717TIP3    H1 2157   1.616   0.753   3.894
  717TIP3    H2 2158   1.556   0.829   3.777
  718TIP3   OH2 2159   4.761   4.052   0.191
  718TIP3    H1 2160   4.799   4.136   0.214
  718TIP3    H2 2161   4.746   4.057   0.096
  719TIP3   OH2 2162   3.912   2.941   4.783
  719TIP3    H1 2163   3.966   2.866   4.807
  719TIP3    H2 2164   3.950   2.973   4.701
  720TIP3   OH2 2165   3.987   2.250   1.231
  720TIP3    H1 2166   3.949   2.269   1.317
  720TIP3    H2 2167   4.080   2.240   1.248
  721TIP3   OH2 2168   5.524   4.895   0.561
  721TIP3    H1 2169   5.532   4.988   0.542
  721TIP3    H2 2170   5.540   4.888   0.655
  722TIP3   OH2 2171   1.068   4.561   2.889
  722TIP3    H1 2172   1.030   4.576   2.976
  722TIP3    H2 2173   1.004   4.505   2.844
  723TIP3   OH2 2174   2.227   0.328   3.700
  723TIP3    H1 2175   2.144   0.362   3.665
  723TIP3    H2 2176   2.293   0.354   3.635
  724TIP3   OH2 2177   5.750   0.351   2.947
  724TIP3    H1 2178   5.710   0.340   2.861
  724TIP3    H2 2179   5.680   0.388   3.002
  725TIP3   OH2 2180   1.712   5.400   0.635
  725TIP3    H1 2181   1.691   5.307   0.634
  725TIP3    H2 2182   1.775   5.411   0.563
  726TIP3   OH2 2183   5.628   1.280   2.270
  726TIP3    H1 2184   5.577   1.361   2.278
  726TIP3    H2 2185   5.654   1.277   2.178
  727TIP3   OH2 2186   1.642   5.611   1.013
  727TIP3    H1 2187   1.631   5.642   0.923
  727TIP3    H2 2188   1.578   5.661   1.064
  728TIP3   OH2 2189  -0.013   1.750   1.749
  728TIP3    H1 2190   0.029   1.818   1.697
  728TIP3    H2 2191   0.028   1.669   1.720
  729TIP3   OH2 2192   1.652   1.640   2.636
  729TIP3    H1 2193   1.570   1.648   2.685
  729TIP3    H2 2194   1.665   1.546   2.626
  730TIP3   OH2 2195   0.501   5.003   2.424
  730TIP3    H1 2196   0.578   4.946   2.418
  730TIP3    H2 2197   0.429   4.949   2.393
  731TIP3   OH2 2198   2.469   3.484   2.016
  731TIP3    H1 2199   2.420   3.566   2.014
  731TIP3    H2 2200   2.410   3.420   1.977
  732TIP3   OH2 2201   1.989   1.475   3.811
  732TIP3    H1 2202   1.949   1.505   3.893
  732TIP3    H2 2203   1.917   1.473   3.748
  733TIP3   OH2 2204   6.336   3.838   0.925
  733TIP3    H1 2205   6.261   3.874   0.879
  733TIP3    H2 2206   6.298   3.791   0.999
  734TIP3   OH2 2207   5.642   0.537   3.990
  734TIP3    H1 2208   5.720   0.541   3.935
  734TIP3    H2 2209   5.647   0.616   4.044
  735TIP3   OH2 2210   4.149   2.969   2.356
  735TIP3    H1 2211   4.203   3.011   2.289
  735TIP3    H2 2212   4.089   2.913   2.307
  736TIP3   OH2 2213   2.738   3.819   4.583
  736TIP3    H1 2214   2.792   3.892   4.612
  736TIP3    H2 2215   2.648   3.846   4.600
  737TIP3   OH2 2216   3.287   4.556   3.486
  737TIP3    H1 2217   3.199   4.540   3.452
  737TIP3    H2 2218   3.274   4.606   3.566
  738TIP3   OH2 2219  -0.004   5.815   3.885
  738TIP3    H1 2220   0.034   5.889   3.838
  738TIP3    H2 2221   0.063   5.792   3.950
  739TIP3   OH2 2222   2.049   2.713   4.421
  739TIP3    H1 2223   2.045   2.795   4.372
  739TIP3    H2 2224   2.139   2.709   4.453
  740TIP3   OH2 2225   0.919   1.584   0.528
  740TIP3    H1 2226   0.912   1.494   0.497
  740TIP3    H2 2227   0.957   1.632   0.454
  741TIP3   OH2 2228   3.985   2.825   2.187
  741TIP3    H1 2229   3.950   2.739   2.208
  741TIP3    H2 2230   3.911   2.885   2.197
  742TIP3   OH2 2231   2.520   5.499   4.873
  742TIP3    H1 2232   2.610   5.480   4.846
  742TIP3    H2 2233   2.524   5.589   4.906
  743TIP3   OH2 2234   5.711   3.927   2.909
  743TIP3    H1 2235   5.783   3.910   2.848
  743TIP3    H2 2236   5.743   3.998   2.965
  744TIP3   OH2 2237   2.905   5.416   0.555
  744TIP3    H1 2238   2.861   5.395   0.638
  744TIP3    H2 2239   2.843   5.390   0.487
  745TIP3   OH2 2240   0.452   1.505   2.438
  745TIP3    H1 2241   0.545   1.494   2.455
  745TIP3    H2 2242   0.445   1.591   2.397
  746TIP3   OH2 2243   0.154   4.322   0.357
  746TIP3    H1 2244   0.162   4.227   0.357
  746TIP3    H2 2245   0.225   4.353   0.301
  747TIP3   OH2 2246   0.331   4.933   1.546
  747TIP3    H1 2247   0.380   4.975   1.476
  747TIP3    H2 2248   0.284   5.004   1.589
  748TIP3   OH2 2249   4.354   3.569   0.756
  748TIP3    H1 2250   4.320   3.625   0.686
  748TIP3    H2 2251   4.337   3.618   0.836
  749TIP3   OH2 2252   2.948   4.239   1.700
  749TIP3    H1 2253   2.868   4.266   1.654
  749TIP3    H2 2254   3.017   4.246   1.635
  750TIP3   OH2 2255   3.582   3.180   3.710
  750TIP3    H1 2256   3.611   3.261   3.752
  750TIP3    H2 2257   3.534   3.134   3.778
  751TIP3   OH2 2258   4.822   3.510   3.790
  751TIP3    H1 2259   4.754   3.537   3.851
  751TIP3    H2 2260   4.876   3.588   3.778
  752TIP3   OH2 2261   4.925   3.824   0.851
  752TIP3    H1 2262   4.989   3.816   0.780
  752TIP3    H2 2263   4.970   3.872   0.920
  753TIP3   OH2 2264   6.260   5.756   0.023
  753TIP3    H1 2265   6.241   5.850   0.023
  753TIP3    H2 2266   6.352   5.750  -0.002
  754TIP3   OH2 2267   2.722   1.886   1.686
  754TIP3    H1 2268   2.752   1.795   1.675
  754TIP3    H2 2269   2.744   1.928   1.603
  755TIP3   OH2 2270   2.613   2.708   1.657
  755TIP3    H1 2271   2.550   2.759   1.606
  755TIP3    H2 2272   2.682   2.685   1.593
  756TIP3   OH2 2273   1.126   1.049   1.111
  756TIP3    H1 2274   1.159   0.986   1.046
  756TIP3    H2 2275   1.103   1.126   1.059
  757TIP3   OH2 2276   1.564   2.637   0.087
  757TIP3    H1 2277   1.627   2.584   0.039
  757TIP3    H2 2278   1.489   2.579   0.100
  758TIP3   OH2 2279   6.020   0.439   2.869
  758TIP3    H1 2280   5.928   0.423   2.889
  758TIP3    H2 2281   6.056   0.352   2.848
  759TIP3   OH2 2282   0.478   0.744   3.046
  759TIP3    H1 2283   0.567   0.766   3.018
  759TIP3    H2 2284   0.442   0.827   3.078
  760TIP3   OH2 2285   6.158   3.668   4.268
  760TIP3    H1 2286   6.230   3.606   4.268
  760TIP3    H2 2287   6.193   3.746   4.311
  761TIP3   OH2 2288   0.517   2.539   2.396
  761TIP3    H1 2289   0.529   2.563   2.488
  761TIP3    H2 2290   0.602   2.506   2.368
  762TIP3   OH2 2291   4.194   5.763   3.171
  762TIP3    H1 2292   4.201   5.816   3.250
  762TIP3    H2 2293   4.108   5.784   3.135
  763TIP3   OH2 2294   2.971   2.215   4.487
  763TIP3    H1 2295   2.948   2.137   4.537
  763TIP3    H2 2296   2.887   2.247   4.454
  764TIP3   OH2 2297   2.528   1.761   4.863
  764TIP3    H1 2298   2.535   1.799   4.950
  764TIP3    H2 2299   2.509   1.668   4.878
  765TIP3   OH2 2300   0.978   2.329   4.724
  765TIP3    H1 2301   0.978   2.315   4.819
  765TIP3    H2 2302   0.956   2.422   4.714
  766TIP3   OH2 2303   6.269   0.668   1.974
  766TIP3    H1 2304   6.278   0.761   1.992
  766TIP3    H2 2305   6.355   0.631   1.997
  767TIP3   OH2 2306   6.120   2.634   2.762
  767TIP3    H1 2307   6.212   2.608   2.769
  767TIP3    H2 2308   6.102   2.678   2.846
  768TIP3   OH2 2309   5.206   3.714   1.226
  768TIP3    H1 2310   5.116   3.692   1.204
  768TIP3    H2 2311   5.204   3.808   1.244
  769TIP3   OH2 2312   0.842   3.233   2.888
  769TIP3    H1 2313   0.929   3.215   2.925
  769TIP3    H2 2314   0.812   3.149   2.854
  770TIP3   OH2 2315   1.690   1.603   3.160
  770TIP3    H1 2316   1.696   1.615   3.065
  770TIP3    H2 2317   1.599   1.625   3.180
  771TIP3   OH2 2318   0.922   4.800   4.379
  771TIP3    H1 2319   0.995   4.855   4.350
  771TIP3    H2 2320   0.936   4.788   4.473
  772TIP3   OH2 2321   3.640   3.477   4.549
  772TIP3    H1 2322   3.585   3.536   4.599
  772TIP3    H2 2323   3.701   3.535   4.503
  773TIP3   OH2 2324   0.752   1.760   2.888
  773TIP3    H1 2325   0.668   1.722   2.914
  773TIP3    H2 2326   0.772   1.824   2.956
  774TIP3   OH2 2327   3.283   2.343   0.450
  774TIP3    H1 2328   3.193   2.333   0.480
  774TIP3    H2 2329   3.284   2.427   0.404
  775TIP3   OH2 2330   6.063   3.651   1.950
  775TIP3    H1 2331   5.999   3.607   2.006
  775TIP3    H2 2332   6.075   3.737   1.991
  776TIP3   OH2 2333   2.808   5.528   1.194
  776TIP3    H1 2334   2.753   5.565   1.124
  776TIP3    H2 2335   2.753   5.532   1.272
  777TIP3   OH2 2336   1.632   0.966   4.251
  777TIP3    H1 2337   1.555   0.947   4.198
  777TIP3    H2 2338   1.646   0.887   4.303
  778TIP3   OH2 2339   1.349   4.187   5.134
  778TIP3    H1 2340   1.293   4.205   5.209
  778TIP3    H2 2341   1.377   4.096   5.145
  779TIP3   OH2 2342   6.275   5.830   3.491
  779TIP3    H1 2343   6.284   5.763   3.422
  779TIP3    H2 2344   6.301   5.785   3.571
  780TIP3   OH2 2345   4.308   4.645   2.791
  780TIP3    H1 2346   4.396   4.606   2.795
  780TIP3    H2 2347   4.261   4.591   2.728
  781TIP3   OH2 2348   0.182   4.537   3.088
  781TIP3    H1 2349   0.163   4.527   3.181
  781TIP3    H2 2350   0.100   4.570   3.050
  782TIP3   OH2 2351   1.464   5.137   3.812
  782TIP3    H1 2352   1.482   5.173   3.899
  782TIP3    H2 2353   1.549   5.136   3.768
  783TIP3   OH2 2354   1.258   2.343   2.906
  783TIP3    H1 2355   1.312   2.335   2.827
  783TIP3    H2 2356   1.315   2.313   2.977
  784TIP3   OH2 2357   2.416   3.252   0.996
  784TIP3    H1 2358   2.497   3.206   0.974
  784TIP3    H2 2359   2.349   3.210   0.941
  785TIP3   OH2 2360   4.260   5.286   0.116
  785TIP3    H1 2361   4.240   5.255   0.204
  785TIP3    H2 2362   4.179   5.329   0.088
  786TIP3   OH2 2363   2.974   3.029   5.149
  786TIP3    H1 2364   3.042   3.049   5.086
  786TIP3    H2 2365   2.892   3.053   5.105
  787TIP3   OH2 2366   3.725   5.725   4.780
  787TIP3    H1 2367   3.768   5.805   4.750
  787TIP3    H2 2368   3.713   5.738   4.874
  788TIP3   OH2 2369   1.993   2.087   1.922
  788TIP3    H1 2370   1.950   2.012   1.963
  788TIP3    H2 2371   1.945   2.100   1.840
  789TIP3   OH2 2372   0.959   3.789   2.298
  789TIP3    H1 2373   0.867   3.815   2.292
  789TIP3    H2 2374   0.989   3.786   2.207
  790TIP3   OH2 2375   3.938   1.239   3.945
  790TIP3    H1 2376   4.025   1.281   3.951
  790TIP3    H2 2377   3.900   1.274   3.865
  791TIP3   OH2 2378   0.648  -0.030   4.785
  791TIP3    H1 2379   0.666   0.053   4.740
  791TIP3    H2 2380   0.576  -0.010   4.845
  792TIP3   OH2 2381   5.612   2.771   3.194
  792TIP3    H1 2382   5.516   2.771   3.199
  792TIP3    H2 2383   5.632   2.750   3.103
  793TIP3   OH2 2384   5.516   0.256   0.978
  793TIP3    H1 2385   5.521   0.161   0.984
  793TIP3    H2 2386   5.513   0.274   0.884
  794TIP3   OH2 2387   0.903   4.695   4.109
  794TIP3    H1 2388   0.875   4.726   4.023
  794TIP3    H2 2389   0.999   4.703   4.107
  795TIP3   OH2 2390   2.168   2.986   3.899
  795TIP3    H1 2391   2.241   2.935   3.864
  795TIP3    H2 2392   2.198   3.015   3.985
  796TIP3   OH2 2393   4.419   2.139   1.228
  796TIP3    H1 2394   4.339   2.106   1.187
  796TIP3    H2 2395   4.391   2.166   1.315
  797TIP3   OH2 2396   1.003   4.600   3.665
  797TIP3    H1 2397   1.085   4.569   3.704
  797TIP3    H2 2398   1.031   4.670   3.605
  798TIP3   OH2 2399   4.251   4.454   4.145
  798TIP3    H1 2400   4.214   4.441   4.232
  798TIP3    H2 2401   4.264   4.548   4.138
  799TIP3   OH2 2402   3.163   4.923   1.228
  799TIP3    H1 2403   3.109   4.864   1.281
  799TIP3    H2 2404   3.135   4.906   1.138
  800TIP3   OH2 2405   5.767   4.024   0.785
  800TIP3    H1 2406   5.706   3.954   0.811
  800TIP3    H2 2407   5.745   4.042   0.694
  801TIP3   OH2 2408   4.361   2.336   2.217
  801TIP3    H1 2409   4.446   2.307   2.250
  801TIP3    H2 2410   4.381   2.407   2.156
  802TIP3   OH2 2411   1.062   3.472   0.356
  802TIP3    H1 2412   1.134   3.462   0.419
  802TIP3    H2 2413   1.098   3.529   0.288
  803TIP3   OH2 2414   2.224   2.079   3.480
  803TIP3    H1 2415   2.288   2.025   3.526
  803TIP3    H2 2416   2.187   2.021   3.414
  804TIP3   OH2 2417   0.906   4.563   3.109
  804TIP3    H1 2418   0.940   4.536   3.194
  804TIP3    H2 2419   0.851   4.639   3.128
  805TIP3   OH2 2420   3.113   1.219   2.546
  805TIP3    H1 2421   3.139   1.182   2.462
  805TIP3    H2 2422   3.119   1.314   2.533
  806TIP3   OH2 2423   6.085   2.550   1.927
  806TIP3    H1 2424   6.132   2.633   1.923
  806TIP3    H2 2425   6.060   2.542   2.019
  807TIP3   OH2 2426   3.954   1.517   3.439
  807TIP3    H1 2427   3.880   1.461   3.417
  807TIP3    H2 2428   4.027   1.482   3.389
  808TIP3   OH2 2429   4.131   5.126   1.149
  808TIP3    H1 2430   4.057   5.113   1.208
  808TIP3    H2 2431   4.123   5.056   1.084
  809TIP3   OH2 2432   5.485   0.670   3.236
  809TIP3    H1 2433   5.425   0.744   3.239
  809TIP3    H2 2434   5.434   0.595   3.264
  810TIP3   OH2 2435   1.125   5.885   1.452
  810TIP3    H1 2436   1.060   5.955   1.453
  810TIP3    H2 2437   1.099   5.829   1.378
  811TIP3   OH2 2438   1.818   1.105   3.953
  811TIP3    H1 2439   1.771   1.170   4.005
  811TIP3    H2 2440   1.810   1.134   3.863
  812TIP3   OH2 2441   1.854   2.003   4.578
  812TIP3    H1 2442   1.929   2.061   4.565
  812TIP3    H2 2443   1.845   1.957   4.495
  813TIP3   OH2 2444   5.954   4.769   3.561
  813TIP3    H1 2445   5.861   4.790   3.547
  813TIP3    H2 2446   5.959   4.675   3.545
  814TIP3   OH2 2447   3.245   3.552   1.543
  814TIP3    H1 2448   3.186   3.627   1.554
  814TIP3    H2 2449   3.189   3.482   1.508
  815TIP3   OH2 2450   0.968   1.137   0.690
  815TIP3    H1 2451   0.947   1.145   0.784
  815TIP3    H2 2452   1.041   1.198   0.677
  816TIP3   OH2 2453   4.692   2.614   4.792
  816TIP3    H1 2454   4.710   2.696   4.836
  816TIP3    H2 2455   4.655   2.639   4.707
  817TIP3   OH2 2456   4.109   0.981   1.995
  817TIP3    H1 2457   4.031   1.033   2.016
  817TIP3    H2 2458   4.075   0.892   1.982
  818TIP3   OH2 2459   6.044   2.877   1.770
  818TIP3    H1 2460   6.065   2.967   1.746
  818TIP3    H2 2461   5.980   2.849   1.704
  819TIP3   OH2 2462   1.974   1.887   0.077
  819TIP3    H1 2463   2.010   1.828   0.011
  819TIP3    H2 2464   1.909   1.834   0.123
  820TIP3   OH2 2465   0.028   3.263   2.570
  820TIP3    H1 2466   0.067   3.231   2.489
  820TIP3    H2 2467  -0.061   3.289   2.546
  821TIP3   OH2 2468   4.181   3.574   0.316
  821TIP3    H1 2469   4.272   3.595   0.294
  821TIP3    H2 2470   4.181   3.480   0.332
  822TIP3   OH2 2471   1.764   1.717   0.938
  822TIP3    H1 2472   1.749   1.804   0.903
  822TIP3    H2 2473   1.788   1.732   1.030
  823TIP3   OH2 2474   2.463   0.825   2.529
  823TIP3    H1 2475   2.497   0.819   2.618
  823TIP3    H2 2476   2.500   0.749   2.483
  824TIP3   OH2 2477   2.814   2.397   1.674
  824TIP3    H1 2478   2.751   2.331   1.645
  824TIP3    H2 2479   2.805   2.399   1.770
  825TIP3   OH2 2480   5.585   5.132   0.421
  825TIP3    H1 2481   5.618   5.145   0.510
  825TIP3    H2 2482   5.601   5.215   0.377
  826TIP3   OH2 2483   0.160   5.525   2.372
  826TIP3    H1 2484   0.108   5.579   2.313
  826TIP3    H2 2485   0.229   5.583   2.404
  827TIP3   OH2 2486   2.923   1.376   0.902
  827TIP3    H1 2487   2.853   1.310   0.911
  827TIP3    H2 2488   2.993   1.330   0.856
  828TIP3   OH2 2489   4.747   3.027   2.877
  828TIP3    H1 2490   4.672   2.972   2.900
  828TIP3    H2 2491   4.710   3.115   2.865
  829TIP3   OH2 2492   0.901   4.177   0.414
  829TIP3    H1 2493   0.870   4.096   0.454
  829TIP3    H2 2494   0.995   4.179   0.434
  830TIP3   OH2 2495   1.132   3.854   0.728
  830TIP3    H1 2496   1.173   3.863   0.814
  830TIP3    H2 2497   1.200   3.815   0.673
  831TIP3   OH2 2498   4.961   5.526   0.482
  831TIP3    H1 2499   4.915   5.581   0.545
  831TIP3    H2 2500   4.906   5.529   0.403
  832TIP3   OH2 2501   4.463   1.033   0.276
  832TIP3    H1 2502   4.557   1.042   0.266
  832TIP3    H2 2503   4.428   1.119   0.253
  833TIP3   OH2 2504   3.523   3.402   0.871
  833TIP3    H1 2505   3.616   3.381   0.878
  833TIP3    H2 2506   3.521   3.490   0.833
  834TIP3   OH2 2507   3.141   2.997   3.738
  834TIP3    H1 2508   3.197   2.941   3.684
  834TIP3    H2 2509   3.129   2.948   3.820
  835TIP3   OH2 2510   6.171   1.439   3.694
  835TIP3    H1 2511   6.090   1.448   3.745
  835TIP3    H2 2512   6.205   1.353   3.718
  836TIP3   OH2 2513   0.461   2.284   4.498
  836TIP3    H1 2514   0.546   2.242   4.484
  836TIP3    H2 2515   0.480   2.377   4.498
  837TIP3   OH2 2516   5.953   1.586   0.351
  837TIP3    H1 2517   5.921   1.650   0.415
  837TIP3    H2 2518   5.883   1.580   0.286
  838TIP3   OH2 2519   5.890   5.854   2.797
  838TIP3    H1 2520   5.841   5.789   2.747
  838TIP3    H2 2521   5.855   5.938   2.770
  839TIP3   OH2 2522   4.449   2.536   2.939
  839TIP3    H1 2523   4.441   2.483   3.018
  839TIP3    H2 2524   4.496   2.480   2.877
  840TIP3   OH2 2525   4.546   0.499   3.015
  840TIP3    H1 2526   4.450   0.496   3.017
  840TIP3    H2 2527   4.573   0.417   3.057
  841TIP3   OH2 2528   1.235   1.762   0.972
  841TIP3    H1 2529   1.194   1.847   0.987
  841TIP3    H2 2530   1.167   1.698   0.992
  842TIP3   OH2 2531   0.134   4.737   0.360
  842TIP3    H1 2532   0.125   4.686   0.441
  842TIP3    H2 2533   0.179   4.817   0.387
  843TIP3   OH2 2534   4.110   2.236   4.445
  843TIP3    H1 2535   4.146   2.289   4.516
  843TIP3    H2 2536   4.071   2.300   4.386
  844TIP3   OH2 2537   2.045   1.585   1.408
  844TIP3    H1 2538   2.126   1.541   1.432
  844TIP3    H2 2539   2.072   1.675   1.387
  845TIP3   OH2 2540   1.757   5.423   4.673
  845TIP3    H1 2541   1.685   5.437   4.612
  845TIP3    H2 2542   1.718   5.439   4.759
  846TIP3   OH2 2543   3.713   0.091   1.279
  846TIP3    H1 2544   3.657   0.030   1.231
  846TIP3    H2 2545   3.684   0.178   1.252
  847TIP3   OH2 2546   2.535   3.989   1.277
  847TIP3    H1 2547   2.567   3.910   1.232
  847TIP3    H2 2548   2.582   3.990   1.360
  848TIP3   OH2 2549   1.634   4.748   2.397
  848TIP3    H1 2550   1.694   4.774   2.328
  848TIP3    H2 2551   1.555   4.719   2.351
  849TIP3   OH2 2552   0.026   3.630   1.994
  849TIP3    H1 2553   0.002   3.554   1.942
  849TIP3    H2 2554  -0.056   3.676   2.009
  850TIP3   OH2 2555   1.417   3.878   1.230
  850TIP3    H1 2556   1.421   3.939   1.156
  850TIP3    H2 2557   1.486   3.909   1.289
  851TIP3   OH2 2558   5.841   2.795   1.612
  851TIP3    H1 2559   5.750   2.768   1.613
  851TIP3    H2 2560   5.843   2.874   1.558
  852TIP3   OH2 2561   5.952   0.273   0.226
  852TIP3    H1 2562   5.986   0.253   0.138
  852TIP3    H2 2563   5.951   0.189   0.271
  853TIP3   OH2 2564   2.088   2.344   1.639
  853TIP3    H1 2565   2.020   2.294   1.684
  853TIP3    H2 2566   2.040   2.406   1.585
  854TIP3   OH2 2567   2.850   0.598   0.089
  854TIP3    H1 2568   2.924   0.578   0.031
  854TIP3    H2 2569   2.861   0.690   0.111
  855TIP3   OH2 2570   3.964   0.970   1.519
  855TIP3    H1 2571   4.057   0.975   1.542
  855TIP3    H2 2572   3.951   0.880   1.490
  856TIP3   OH2 2573   2.558   0.613   3.885
  856TIP3    H1 2574   2.508   0.684   3.843
  856TIP3    H2 2575   2.491   0.549   3.910
  857TIP3   OH2 2576   5.953   2.642   4.027
  857TIP3    H1 2577   6.014   2.692   3.973
  857TIP3    H2 2578   5.918   2.707   4.089
  858TIP3   OH2 2579   5.495   1.673   2.065
  858TIP3    H1 2580   5.491   1.617   1.988
  858TIP3    H2 2581   5.559   1.741   2.043
  859TIP3   OH2 2582   1.373   0.068   0.772
  859TIP3    H1 2583   1.417   0.128   0.832
  859TIP3    H2 2584   1.441   0.040   0.711
  860TIP3   OH2 2585   0.541   2.522   4.228
  860TIP3    H1 2586   0.592   2.449   4.263
  860TIP3    H2 2587   0.584   2.600   4.262
  861TIP3   OH2 2588   1.211   3.933   1.877
  861TIP3    H1 2589   1.164   3.872   1.934
  861TIP3    H2 2590   1.143   3.989   1.841
  862TIP3   OH2 2591   5.112   2.985   1.659
  862TIP3    H1 2592   5.190   2.938   1.632
  862TIP3    H2 2593   5.110   2.976   1.754
  863TIP3   OH2 2594   1.747   3.368   3.848
  863TIP3    H1 2595   1.709   3.283   3.869
  863TIP3    H2 2596   1.748   3.415   3.932
  864TIP3   OH2 2597   3.365   2.730   5.068
  864TIP3    H1 2598   3.456   2.758   5.052
  864TIP3    H2 2599   3.357   2.729   5.163
  865TIP3   OH2 2600   3.439   4.755   0.715
  865TIP3    H1 2601   3.493   4.721   0.644
  865TIP3    H2 2602   3.499   4.762   0.789
  866TIP3   OH2 2603   3.029   2.823   1.028
  866TIP3    H1 2604   3.114   2.785   1.003
  866TIP3    H2 2605   3.016   2.895   0.967
  867TIP3   OH2 2606   4.176   1.584   3.561
  867TIP3    H1 2607   4.226   1.608   3.483
  867TIP3    H2 2608   4.088   1.564   3.529
  868TIP3   OH2 2609   1.209   4.913   4.625
  868TIP3    H1 2610   1.262   4.888   4.550
  868TIP3    H2 2611   1.269   4.913   4.699
  869TIP3   OH2 2612   2.914   4.591   0.275
  869TIP3    H1 2613   2.905   4.496   0.264
  869TIP3    H2 2614   3.008   4.606   0.274
  870TIP3   OH2 2615   5.882   5.602   4.863
  870TIP3    H1 2616   5.935   5.640   4.792
  870TIP3    H2 2617   5.801   5.652   4.861
  871TIP3   OH2 2618   0.018   1.223   5.118
  871TIP3    H1 2619   0.072   1.203   5.041
  871TIP3    H2 2620   0.035   1.316   5.135
  872TIP3   OH2 2621   2.269   4.942   1.457
  872TIP3    H1 2622   2.190   4.902   1.422
  872TIP3    H2 2623   2.328   4.947   1.381
  873TIP3   OH2 2624   5.341   3.213   4.980
  873TIP3    H1 2625   5.348   3.251   4.892
  873TIP3    H2 2626   5.258   3.248   5.014
  874TIP3   OH2 2627   5.683   5.504   4.022
  874TIP3    H1 2628   5.763   5.549   4.048
  874TIP3    H2 2629   5.697   5.483   3.930
  875TIP3   OH2 2630   3.001   0.285   2.503
  875TIP3    H1 2631   2.961   0.280   2.590
  875TIP3    H2 2632   2.932   0.257   2.443
  876TIP3   OH2 2633   2.971   2.778   0.236
  876TIP3    H1 2634   2.918   2.806   0.162
  876TIP3    H2 2635   2.921   2.804   0.313
  877TIP3   OH2 2636   2.083   1.007   5.122
  877TIP3    H1 2637   1.988   1.001   5.114
  877TIP3    H2 2638   2.108   1.080   5.065
  878TIP3   OH2 2639   3.972   0.206   3.834
  878TIP3    H1 2640   3.901   0.194   3.770
  878TIP3    H2 2641   4.023   0.126   3.828
  879TIP3   OH2 2642   0.273   4.111   1.700
  879TIP3    H1 2643   0.241   4.051   1.767
  879TIP3    H2 2644   0.210   4.104   1.629
  880TIP3   OH2 2645   1.617   5.265   3.042
  880TIP3    H1 2646   1.675   5.302   3.109
  880TIP3    H2 2647   1.648   5.175   3.031
  881TIP3   OH2 2648   1.627   5.125   0.050
  881TIP3    H1 2649   1.566   5.051   0.061
  881TIP3    H2 2650   1.576   5.202   0.076
  882TIP3   OH2 2651   5.830   3.310   1.458
  882TIP3    H1 2652   5.821   3.227   1.505
  882TIP3    H2 2653   5.902   3.355   1.503
  883TIP3   OH2 2654   3.930   1.445   4.503
  883TIP3    H1 2655   3.963   1.529   4.535
  883TIP3    H2 2656   3.839   1.443   4.531
  884TIP3   OH2 2657   2.025   0.377   4.376
  884TIP3    H1 2658   2.056   0.287   4.382
  884TIP3    H2 2659   1.945   0.379   4.430
  885TIP3   OH2 2660   1.847   1.335   3.371
  885TIP3    H1 2661   1.894   1.397   3.315
  885TIP3    H2 2662   1.852   1.252   3.324
  886TIP3   OH2 2663   3.114   2.450   1.323
  886TIP3    H1 2664   3.206   2.445   1.348
  886TIP3    H2 2665   3.100   2.543   1.304
  887TIP3   OH2 2666   1.728   1.805   2.391
  887TIP3    H1 2667   1.693   1.724   2.429
  887TIP3    H2 2668   1.707   1.798   2.298
  888TIP3   OH2 2669   6.079   4.226   3.316
  888TIP3    H1 2670   6.012   4.189   3.259
  888TIP3    H2 2671   6.055   4.197   3.404
  889TIP3   OH2 2672   3.257   5.757   2.038
  889TIP3    H1 2673   3.347   5.777   2.012
  889TIP3    H2 2674   3.263   5.739   2.132
  890TIP3   OH2 2675   5.634   4.290   0.219
  890TIP3    H1 2676   5.615   4.252   0.133
  890TIP3    H2 2677   5.707   4.239   0.253
  891TIP3   OH2 2678   3.736   4.236   2.350
  891TIP3    H1 2679   3.817   4.205   2.309
  891TIP3    H2 2680   3.739   4.331   2.342
  892TIP3   OH2 2681   3.192   1.848   1.206
  892TIP3    H1 2682   3.286   1.837   1.218
  892TIP3    H2 2683   3.184   1.910   1.133
  893TIP3   OH2 2684   1.358   5.483   0.811
  893TIP3    H1 2685   1.346   5.442   0.725
  893TIP3    H2 2686   1.437   5.536   0.802
  894TIP3   OH2 2687   5.801   0.639   1.068
  894TIP3    H1 2688   5.845   0.688   1.138
  894TIP3    H2 2689   5.849   0.556   1.063
  895TIP3   OH2 2690   0.688   4.148   3.581
  895TIP3    H1 2691   0.605   4.194   3.599
  895TIP3    H2 2692   0.755   4.207   3.614
  896TIP3   OH2 2693   4.608   1.508   4.518
  896TIP3    H1 2694   4.549   1.543   4.585
  896TIP3    H2 2695   4.568   1.534   4.435
  897TIP3   OH2 2696   3.643   1.501   0.329
  897TIP3    H1 2697   3.562   1.545   0.357
  897TIP3    H2 2698   3.613   1.434   0.268
  898TIP3   OH2 2699   3.081   5.849   3.340
  898TIP3    H1 2700   3.007   5.804   3.298
  898TIP3    H2 2701   3.117   5.905   3.271
  899TIP3   OH2 2702   3.234   0.757   2.509
  899TIP3    H1 2703   3.231   0.748   2.604
  899TIP3    H2 2704   3.320   0.794   2.491
  900TIP3   OH2 2705   1.022   2.127   4.529
  900TIP3    H1 2706   1.016   2.203   4.586
  900TIP3    H2 2707   0.931   2.106   4.506
  901TIP3   OH2 2708   6.288   5.844   4.579
  901TIP3    H1 2709   6.375   5.826   4.616
  901TIP3    H2 2710   6.304   5.857   4.486
  902TIP3   OH2 2711   1.577   0.172   4.010
  902TIP3    H1 2712   1.504   0.184   4.071
  902TIP3    H2 2713   1.655   0.199   4.059
  903TIP3   OH2 2714   3.216   2.008   4.965
  903TIP3    H1 2715   3.156   2.082   4.976
  903TIP3    H2 2716   3.187   1.965   4.885
  904TIP3   OH2 2717   5.236   2.870   4.962
  904TIP3    H1 2718   5.186   2.788   4.971
  904TIP3    H2 2719   5.282   2.879   5.046
  905TIP3   OH2 2720   5.946   0.911   1.157
  905TIP3    H1 2721   6.013   0.843   1.155
  905TIP3    H2 2722   5.913   0.909   1.247
  906TIP3   OH2 2723   2.349   5.843   1.955
  906TIP3    H1 2724   2.320   5.881   1.872
  906TIP3    H2 2725   2.442   5.827   1.944
  907TIP3   OH2 2726   3.424   1.721   3.849
  907TIP3    H1 2727   3.454   1.762   3.930
  907TIP3    H2 2728   3.466   1.772   3.780
  908TIP3   OH2 2729   0.276   0.569   3.162
  908TIP3    H1 2730   0.309   0.570   3.252
  908TIP3    H2 2731   0.323   0.640   3.118
  909TIP3   OH2 2732   3.546   2.499   2.853
  909TIP3    H1 2733   3.639   2.481   2.869
  909TIP3    H2 2734   3.501   2.463   2.930
  910TIP3   OH2 2735   5.323   3.579   0.385
  910TIP3    H1 2736   5.233   3.585   0.354
  910TIP3    H2 2737   5.371   3.540   0.312
  911TIP3   OH2 2738   1.252   5.071   2.213
  911TIP3    H1 2739   1.347   5.070   2.209
  911TIP3    H2 2740   1.230   5.035   2.299
  912TIP3   OH2 2741   5.505   5.014   1.450
  912TIP3    H1 2742   5.463   5.095   1.478
  912TIP3    H2 2743   5.588   5.041   1.411
  913TIP3   OH2 2744   5.731   3.789   1.183
  913TIP3    H1 2745   5.795   3.839   1.234
  913TIP3    H2 2746   5.659   3.773   1.244
  914TIP3   OH2 2747   1.970   3.760   3.736
  914TIP3    H1 2748   2.028   3.820   3.689
  914TIP3    H2 2749   1.991   3.673   3.700
  915TIP3   OH2 2750   4.583   0.783   2.037
  915TIP3    H1 2751   4.503   0.772   1.986
  915TIP3    H2 2752   4.554   0.794   2.127
  916TIP3   OH2 2753   5.014   0.560   0.128
  916TIP3    H1 2754   5.051   0.598   0.208
  916TIP3    H2 2755   4.919   0.562   0.143
  917TIP3   OH2 2756   3.176   2.983   2.162
  917TIP3    H1 2757   3.253   3.022   2.121
  917TIP3    H2 2758   3.102   3.031   2.124
  918TIP3   OH2 2759   4.645   5.431   3.768
  918TIP3    H1 2760   4.697   5.509   3.751
  918TIP3    H2 2761   4.704   5.372   3.815
  919TIP3   OH2 2762   1.356   0.432   4.785
  919TIP3    H1 2763   1.280   0.479   4.750
  919TIP3    H2 2764   1.430   0.465   4.735
  920TIP3   OH2 2765   0.373   0.732   4.153
  920TIP3    H1 2766   0.369   0.803   4.217
  920TIP3    H2 2767   0.305   0.670   4.182
  921TIP3   OH2 2768   3.491   5.959   3.459
  921TIP3    H1 2769   3.575   5.934   3.420
  921TIP3    H2 2770   3.508   6.044   3.500
  922TIP3   OH2 2771   1.717   4.312   0.618
  922TIP3    H1 2772   1.694   4.326   0.526
  922TIP3    H2 2773   1.736   4.218   0.623
  923TIP3   OH2 2774   4.624   5.429   2.078
  923TIP3    H1 2775   4.584   5.386   2.154
  923TIP3    H2 2776   4.562   5.414   2.007
  924TIP3   OH2 2777   5.012   4.656   1.239
  924TIP3    H1 2778   4.948   4.726   1.251
  924TIP3    H2 2779   4.985   4.612   1.159
  925TIP3   OH2 2780   0.571   2.587   4.557
  925TIP3    H1 2781   0.588   2.681   4.543
  925TIP3    H2 2782   0.656   2.546   4.544
  926TIP3   OH2 2783   5.704   3.453   4.304
  926TIP3    H1 2784   5.620   3.413   4.328
  926TIP3    H2 2785   5.680   3.521   4.240
  927TIP3   OH2 2786   3.368   2.232   1.625
  927TIP3    H1 2787   3.290   2.282   1.652
  927TIP3    H2 2788   3.348   2.201   1.537
  928TIP3   OH2 2789   5.102   4.258   3.685
  928TIP3    H1 2790   5.084   4.350   3.707
  928TIP3    H2 2791   5.163   4.264   3.611
  929TIP3   OH2 2792   0.375   5.158   1.764
  929TIP3    H1 2793   0.344   5.244   1.737
  929TIP3    H2 2794   0.463   5.173   1.798
  930TIP3   OH2 2795   5.419   3.273   2.388
  930TIP3    H1 2796   5.393   3.312   2.472
  930TIP3    H2 2797   5.377   3.328   2.322
  931TIP3   OH2 2798   1.839   1.518   1.229
  931TIP3    H1 2799   1.771   1.586   1.223
  931TIP3    H2 2800   1.908   1.559   1.280
  932TIP3   OH2 2801   3.812   0.485   4.787
  932TIP3    H1 2802   3.762   0.537   4.724
  932TIP3    H2 2803   3.746   0.442   4.841
  933TIP3   OH2 2804   4.107   1.588   0.094
  933TIP3    H1 2805   4.197   1.580   0.125
  933TIP3    H2 2806   4.053   1.558   0.167
  934TIP3   OH2 2807   1.459   3.830   2.959
  934TIP3    H1 2808   1.380   3.857   2.913
  934TIP3    H2 2809   1.501   3.766   2.901
  935TIP3   OH2 2810   0.747   0.844   1.019
  935TIP3    H1 2811   0.837   0.836   0.989
  935TIP3    H2 2812   0.720   0.754   1.037
  936TIP3   OH2 2813   4.248   2.478   1.346
  936TIP3    H1 2814   4.282   2.398   1.386
  936TIP3    H2 2815   4.162   2.491   1.386
  937TIP3   OH2 2816   0.651   1.431   1.750
  937TIP3    H1 2817   0.725   1.405   1.804
  937TIP3    H2 2818   0.609   1.502   1.798
  938TIP3   OH2 2819   4.930   2.710   0.833
  938TIP3    H1 2820   4.876   2.776   0.876
  938TIP3    H2 2821   4.868   2.658   0.781
  939TIP3   OH2 2822   1.014   2.408   0.092
  939TIP3    H1 2823   1.078   2.480   0.093
  939TIP3    H2 2824   0.957   2.425   0.167
  940TIP3   OH2 2825   4.980   1.828   4.702
  940TIP3    H1 2826   4.908   1.791   4.650
  940TIP3    H2 2827   5.025   1.751   4.738
  941TIP3   OH2 2828   2.655   3.419   4.761
  941TIP3    H1 2829   2.750   3.430   4.760
  941TIP3    H2 2830   2.623   3.487   4.701
  942TIP3   OH2 2831   5.674   1.741   3.673
  942TIP3    H1 2832   5.663   1.776   3.762
  942TIP3    H2 2833   5.729   1.806   3.629
  943TIP3   OH2 2834   1.813   0.810   1.320
  943TIP3    H1 2835   1.873   0.750   1.275
  943TIP3    H2 2836   1.842   0.897   1.293
  944TIP3   OH2 2837   3.052   5.590   4.767
  944TIP3    H1 2838   3.133   5.605   4.719
  944TIP3    H2 2839   3.030   5.675   4.805
  945TIP3   OH2 2840   1.357   1.282   4.753
  945TIP3    H1 2841   1.385   1.320   4.670
  945TIP3    H2 2842   1.310   1.352   4.797
  946TIP3   OH2 2843   2.958   5.473   2.721
  946TIP3    H1 2844   2.960   5.466   2.817
  946TIP3    H2 2845   2.868   5.499   2.702
  947TIP3   OH2 2846   1.711   4.031   3.326
  947TIP3    H1 2847   1.654   4.060   3.255
  947TIP3    H2 2848   1.717   4.107   3.384
  948TIP3   OH2 2849   4.776   1.695   3.645
  948TIP3    H1 2850   4.730   1.724   3.724
  948TIP3    H2 2851   4.787   1.774   3.593
  949TIP3   OH2 2852   5.839   0.524   3.819
  949TIP3    H1 2853   5.912   0.465   3.801
  949TIP3    H2 2854   5.813   0.557   3.733
  950TIP3   OH2 2855   1.300   2.125   1.928
  950TIP3    H1 2856   1.286   2.137   2.022
  950TIP3    H2 2857   1.358   2.049   1.922
  951TIP3   OH2 2858   6.043   5.291   0.558
  951TIP3    H1 2859   6.036   5.205   0.516
  951TIP3    H2 2860   6.126   5.326   0.528
  952TIP3   OH2 2861   4.416   1.410   0.434
  952TIP3    H1 2862   4.398   1.375   0.347
  952TIP3    H2 2863   4.502   1.453   0.425
  953TIP3   OH2 2864   0.359   2.124   2.808
  953TIP3    H1 2865   0.423   2.138   2.738
  953TIP3    H2 2866   0.365   2.030   2.827
  954TIP3   OH2 2867  -0.004   3.322   3.287
  954TIP3    H1 2868   0.090   3.336   3.275
  954TIP3    H2 2869  -0.014   3.227   3.278
  955TIP3   OH2 2870   4.707   3.238   2.667
  955TIP3    H1 2871   4.716   3.292   2.746
  955TIP3    H2 2872   4.633   3.277   2.620
  956TIP3   OH2 2873   0.606   2.115   0.293
  956TIP3    H1 2874   0.575   2.028   0.267
  956TIP3    H2 2875   0.530   2.172   0.282
  957TIP3   OH2 2876   1.763   0.304   1.684
  957TIP3    H1 2877   1.791   0.225   1.638
  957TIP3    H2 2878   1.819   0.373   1.649
  958TIP3   OH2 2879   3.837   0.688   4.433
  958TIP3    H1 2880   3.818   0.758   4.495
  958TIP3    H2 2881   3.795   0.611   4.471
  959TIP3   OH2 2882   6.192   5.447   1.739
  959TIP3    H1 2883   6.146   5.468   1.820
  959TIP3    H2 2884   6.276   5.413   1.767
  960TIP3   OH2 2885   1.098   1.326   3.084
  960TIP3    H1 2886   1.105   1.359   3.174
  960TIP3    H2 2887   1.004   1.326   3.066
  961TIP3   OH2 2888   5.997   3.116   0.920
  961TIP3    H1 2889   6.011   3.140   1.011
  961TIP3    H2 2890   6.076   3.070   0.894
  962TIP3   OH2 2891   1.625   2.358   1.289
  962TIP3    H1 2892   1.654   2.329   1.375
  962TIP3    H2 2893   1.706   2.382   1.243
  963TIP3   OH2 2894   3.941   4.439   4.213
  963TIP3    H1 2895   3.863   4.484   4.181
  963TIP3    H2 2896   3.974   4.391   4.137
  964TIP3   OH2 2897   0.604   0.374   0.988
  964TIP3    H1 2898   0.585   0.280   0.991
  964TIP3    H2 2899   0.557   0.405   0.910
  965TIP3   OH2 2900   1.362   0.638   4.382
  965TIP3    H1 2901   1.416   0.691   4.322
  965TIP3    H2 2902   1.377   0.548   4.354
  966TIP3   OH2 2903   5.389   4.747   1.009
  966TIP3    H1 2904   5.436   4.665   0.997
  966TIP3    H2 2905   5.378   4.755   1.103
  967TIP3   OH2 2906  -0.003   0.287   2.240
  967TIP3    H1 2907   0.042   0.372   2.248
  967TIP3    H2 2908   0.041   0.244   2.167
  968TIP3   OH2 2909   2.129   4.269   2.584
  968TIP3    H1 2910   2.166   4.357   2.598
  968TIP3    H2 2911   2.070   4.280   2.510
  969TIP3   OH2 2912   4.470   2.932   4.785
  969TIP3    H1 2913   4.391   2.899   4.827
  969TIP3    H2 2914   4.476   2.882   4.703
  970TIP3   OH2 2915   6.138   3.349   4.133
  970TIP3    H1 2916   6.140   3.360   4.228
  970TIP3    H2 2917   6.215   3.297   4.112
  971TIP3   OH2 2918   3.133   0.225   0.829
  971TIP3    H1 2919   3.185   0.305   0.832
  971TIP3    H2 2920   3.116   0.212   0.735
  972TIP3   OH2 2921   5.278   2.187   2.717
  972TIP3    H1 2922   5.368   2.178   2.685
  972TIP3    H2 2923   5.224   2.150   2.647
  973TIP3   OH2 2924   0.871   3.901   1.851
  973TIP3    H1 2925   0.931   3.934   1.784
  973TIP3    H2 2926   0.922   3.837   1.900
  974TIP3   OH2 2927   3.292   4.086   1.593
  974TIP3    H1 2928   3.343   4.016   1.634
  974TIP3    H2 2929   3.259   4.047   1.512
  975TIP3   OH2 2930   4.813   0.340   0.318
  975TIP3    H1 2931   4.905   0.362   0.334
  975TIP3    H2 2932   4.786   0.292   0.397
  976TIP3   OH2 2933   2.443   1.380   3.862
  976TIP3    H1 2934   2.375   1.351   3.923
  976TIP3    H2 2935   2.400   1.378   3.777
  977TIP3   OH2 2936   4.430   1.289   0.193
  977TIP3    H1 2937   4.369   1.287   0.120
  977TIP3    H2 2938   4.506   1.337   0.160
  978TIP3   OH2 2939   3.623   4.788   0.090
  978TIP3    H1 2940   3.632   4.808   0.183
  978TIP3    H2 2941   3.692   4.725   0.071
  979TIP3   OH2 2942   5.409   4.369   3.982
  979TIP3    H1 2943   5.390   4.288   4.031
  979TIP3    H2 2944   5.395   4.439   4.046
  980TIP3   OH2 2945   0.091   0.867   2.378
  980TIP3    H1 2946   0.036   0.800   2.338
  980TIP3    H2 2947   0.153   0.891   2.309
  981TIP3   OH2 2948   2.277   4.648   1.710
  981TIP3    H1 2949   2.336   4.578   1.683
  981TIP3    H2 2950   2.190   4.615   1.692
  982TIP3   OH2 2951   2.724   5.511   1.468
  982TIP3    H1 2952   2.757   5.465   1.545
  982TIP3    H2 2953   2.730   5.604   1.491
  983TIP3   OH2 2954   6.168   3.736   0.161
  983TIP3    H1 2955   6.095   3.726   0.099
  983TIP3    H2 2956   6.226   3.663   0.140
  984TIP3   OH2 2957   4.520   1.468   3.074
  984TIP3    H1 2958   4.588   1.442   3.011
  984TIP3    H2 2959   4.555   1.441   3.159
  985TIP3   OH2 2960   2.894   5.739   4.160
  985TIP3    H1 2961   2.809   5.709   4.128
  985TIP3    H2 2962   2.913   5.682   4.234
  986TIP3   OH2 2963   5.277   1.136   4.908
  986TIP3    H1 2964   5.271   1.230   4.927
  986TIP3    H2 2965   5.297   1.132   4.814
  987TIP3   OH2 2966   3.105   0.627   0.276
  987TIP3    H1 2967   3.169   0.561   0.299
  987TIP3    H2 2968   3.043   0.582   0.218
  988TIP3   OH2 2969   3.983   3.292   0.360
  988TIP3    H1 2970   3.911   3.303   0.422
  988TIP3    H2 2971   4.059   3.273   0.414
  989TIP3   OH2 2972   5.010   2.172   3.383
  989TIP3    H1 2973   5.003   2.147   3.290
  989TIP3    H2 2974   4.954   2.249   3.391
  990TIP3   OH2 2975   4.225   2.961   0.749
  990TIP3    H1 2976   4.209   2.867   0.749
  990TIP3    H2 2977   4.214   2.988   0.840
  991TIP3   OH2 2978   3.465   5.289   2.972
  991TIP3    H1 2979   3.408   5.298   3.048
  991TIP3    H2 2980   3.553   5.289   3.008
  992TIP3   OH2 2981   3.017   2.734   2.150
  992TIP3    H1 2982   3.038   2.811   2.096
  992TIP3    H2 2983   2.921   2.730   2.147
  993TIP3   OH2 2984   2.271   1.139   2.925
  993TIP3    H1 2985   2.285   1.229   2.954
  993TIP3    H2 2986   2.278   1.087   3.005
  994TIP3   OH2 2987   1.528   2.774   1.386
  994TIP3    H1 2988   1.509   2.717   1.312
  994TIP3    H2 2989   1.568   2.852   1.347
  995TIP3   OH2 2990   2.293   1.744   2.624
  995TIP3    H1 2991   2.343   1.791   2.691
  995TIP3    H2 2992   2.242   1.812   2.581
  996TIP3   OH2 2993   1.887   0.326   4.656
  996TIP3    H1 2994   1.905   0.233   4.670
  996TIP3    H2 2995   1.962   0.371   4.695
  997TIP3   OH2 2996   0.535   0.406   1.681
  997TIP3    H1 2997   0.624   0.433   1.660
  997TIP3    H2 2998   0.496   0.482   1.725
  998TIP3   OH2 2999   3.011   0.246   3.362
  998TIP3    H1 3000   3.064   0.298   3.303
  998TIP3    H2 3001   3.074   0.209   3.424
  999TIP3   OH2 3002   3.282   1.710   5.148
  999TIP3    H1 3003   3.315   1.721   5.237
  999TIP3    H2 3004   3.349   1.749   5.093
 1000TIP3   OH2 3005   2.405   5.447   4.013
 1000TIP3    H1 3006   2.440   5.448   4.103
 1000TIP3    H2 3007   2.311   5.439   4.025
 1001TIP3   OH2 3008   2.463   4.149   0.108
 1001TIP3    H1 3009   2.536   4.089   0.094
 1001TIP3    H2 3010   2.385   4.094   0.099
 1002TIP3   OH2 3011   1.637   5.890   1.504
 1002TIP3    H1 3012   1.616   5.976   1.467
 1002TIP3    H2 3013   1.637   5.905   1.598
 1003TIP3   OH2 3014   0.759   4.493   3.642
 1003TIP3    H1 3015   0.739   4.449   3.725
 1003TIP3    H2 3016   0.850   4.521   3.651
 1004TIP3   OH2 3017   1.258   5.199   3.058
 1004TIP3    H1 3018   1.251   5.217   2.964
 1004TIP3    H2 3019   1.328   5.133   3.064
 1005TIP3   OH2 3020   2.078   5.890   2.018
 1005TIP3    H1 3021   2.038   5.810   1.985
 1005TIP3    H2 3022   2.167   5.864   2.041
 1006TIP3   OH2 3023   5.157   5.344   1.428
 1006TIP3    H1 3024   5.252   5.338   1.431
 1006TIP3    H2 3025   5.126   5.277   1.490
 1007TIP3   OH2 3026   2.625   4.793   3.266
 1007TIP3    H1 3027   2.639   4.749   3.182
 1007TIP3    H2 3028   2.683   4.870   3.263
 1008TIP3   OH2 3029   2.367   5.596   0.710
 1008TIP3    H1 3030   2.408   5.681   0.695
 1008TIP3    H2 3031   2.437   5.532   0.695
 1009TIP3   OH2 3032   1.441   1.281   2.588
 1009TIP3    H1 3033   1.441   1.250   2.678
 1009TIP3    H2 3034   1.376   1.227   2.544
 1010TIP3   OH2 3035   2.416   2.812   2.245
 1010TIP3    H1 3036   2.370   2.755   2.307
 1010TIP3    H2 3037   2.403   2.900   2.279
 1011TIP3   OH2 3038   0.884   3.520   4.763
 1011TIP3    H1 3039   0.906   3.588   4.700
 1011TIP3    H2 3040   0.935   3.541   4.841
 1012TIP3   OH2 3041   3.586   2.577   0.385
 1012TIP3    H1 3042   3.500   2.594   0.424
 1012TIP3    H2 3043   3.635   2.658   0.399
 1013TIP3   OH2 3044   3.803   2.606   3.059
 1013TIP3    H1 3045   3.742   2.549   3.106
 1013TIP3    H2 3046   3.785   2.694   3.093
 1014TIP3   OH2 3047   2.989   4.074   1.918
 1014TIP3    H1 3048   3.078   4.038   1.923
 1014TIP3    H2 3049   2.996   4.147   1.857
 1015TIP3   OH2 3050   0.086   1.162   4.548
 1015TIP3    H1 3051   0.174   1.155   4.511
 1015TIP3    H2 3052   0.047   1.076   4.530
 1016TIP3   OH2 3053   1.801   3.882   2.774
 1016TIP3    H1 3054   1.730   3.947   2.765
 1016TIP3    H2 3055   1.833   3.894   2.863
 1017TIP3   OH2 3056   5.703   0.909   3.741
 1017TIP3    H1 3057   5.797   0.926   3.737
 1017TIP3    H2 3058   5.694   0.817   3.717
 1018TIP3   OH2 3059  -0.012   0.586   3.448
 1018TIP3    H1 3060   0.044   0.514   3.420
 1018TIP3    H2 3061   0.013   0.659   3.392
 1019TIP3   OH2 3062   2.216   2.557   5.004
 1019TIP3    H1 3063   2.150   2.498   4.966
 1019TIP3    H2 3064   2.178   2.644   4.993
 1020TIP3   OH2 3065   2.154   5.414   4.086
 1020TIP3    H1 3066   2.071   5.455   4.063
 1020TIP3    H2 3067   2.131   5.340   4.141
 1021TIP3   OH2 3068   5.590   0.723   0.176
 1021TIP3    H1 3069   5.644   0.648   0.200
 1021TIP3    H2 3070   5.603   0.786   0.247
 1022TIP3   OH2 3071   2.759   1.427   0.293
 1022TIP3    H1 3072   2.765   1.404   0.386
 1022TIP3    H2 3073   2.681   1.482   0.287
 1023TIP3   OH2 3074   2.892   3.354   0.171
 1023TIP3    H1 3075   2.979   3.349   0.209
 1023TIP3    H2 3076   2.890   3.438   0.125
 1024TIP3   OH2 3077   2.587   3.576   4.514
 1024TIP3    H1 3078   2.638   3.647   4.552
 1024TIP3    H2 3079   2.626   3.560   4.429
 1025TIP3   OH2 3080   5.946   2.241   3.674
 1025TIP3    H1 3081   5.863   2.237   3.720
 1025TIP3    H2 3082   6.000   2.301   3.725
 1026TIP3   OH2 3083   1.317   1.209   2.069
 1026TIP3    H1 3084   1.363   1.127   2.087
 1026TIP3    H2 3085   1.278   1.196   1.982
 1027TIP3   OH2 3086   5.856   2.036   4.013
 1027TIP3    H1 3087   5.913   2.066   4.083
 1027TIP3    H2 3088   5.781   2.096   4.016
 1028TIP3   OH2 3089   4.992   2.832   4.760
 1028TIP3    H1 3090   4.913   2.879   4.785
 1028TIP3    H2 3091   4.985   2.747   4.804
 1029TIP3   OH2 3092   2.232   5.978   3.740
 1029TIP3    H1 3093   2.272   6.037   3.676
 1029TIP3    H2 3094   2.277   5.894   3.725
 1030TIP3   OH2 3095   1.075   3.012   1.192
 1030TIP3    H1 3096   1.082   2.982   1.102
 1030TIP3    H2 3097   1.011   3.082   1.190
 1031TIP3   OH2 3098   4.439   4.724   2.481
 1031TIP3    H1 3099   4.347   4.730   2.458
 1031TIP3    H2 3100   4.444   4.653   2.545
 1032TIP3   OH2 3101   5.959   0.651   0.727
 1032TIP3    H1 3102   6.030   0.616   0.782
 1032TIP3    H2 3103   5.913   0.712   0.784
 1033TIP3   OH2 3104   1.897   5.407   0.438
 1033TIP3    H1 3105   1.928   5.368   0.356
 1033TIP3    H2 3106   1.953   5.370   0.506
 1034TIP3   OH2 3107   3.773   1.675   4.846
 1034TIP3    H1 3108   3.794   1.586   4.876
 1034TIP3    H2 3109   3.838   1.731   4.887
 1035TIP3   OH2 3110   5.854   2.132   2.547
 1035TIP3    H1 3111   5.781   2.162   2.600
 1035TIP3    H2 3112   5.921   2.104   2.610
 1036TIP3   OH2 3113   4.024   0.124   3.052
 1036TIP3    H1 3114   4.082   0.062   3.009
 1036TIP3    H2 3115   4.008   0.087   3.139
 1037TIP3   OH2 3116   0.429   4.385   3.241
 1037TIP3    H1 3117   0.506   4.414   3.289
 1037TIP3    H2 3118   0.452   4.394   3.149
 1038TIP3   OH2 3119   4.224   0.651   4.973
 1038TIP3    H1 3120   4.273   0.684   4.898
 1038TIP3    H2 3121   4.267   0.690   5.049
 1039TIP3   OH2 3122   0.024   3.424   2.163
 1039TIP3    H1 3123  -0.056   3.380   2.133
 1039TIP3    H2 3124   0.029   3.503   2.109
 1040TIP3   OH2 3125   5.200   5.301   0.723
 1040TIP3    H1 3126   5.185   5.387   0.684
 1040TIP3    H2 3127   5.198   5.241   0.648
 1041TIP3   OH2 3128   5.423   5.397   4.291
 1041TIP3    H1 3129   5.371   5.469   4.328
 1041TIP3    H2 3130   5.473   5.363   4.365
 1042TIP3   OH2 3131   4.585   3.719   2.923
 1042TIP3    H1 3132   4.561   3.736   3.014
 1042TIP3    H2 3133   4.676   3.746   2.916
 1043TIP3   OH2 3134   0.925   3.553   1.764
 1043TIP3    H1 3135   0.959   3.599   1.841
 1043TIP3    H2 3136   0.973   3.470   1.763
 1044TIP3   OH2 3137   1.495   1.522   2.398
 1044TIP3    H1 3138   1.439   1.565   2.334
 1044TIP3    H2 3139   1.489   1.429   2.378
 1045TIP3   OH2 3140   0.154   0.898   3.081
 1045TIP3    H1 3141   0.122   0.983   3.052
 1045TIP3    H2 3142   0.111   0.835   3.022
 1046TIP3   OH2 3143   0.429   1.736   4.024
 1046TIP3    H1 3144   0.460   1.649   4.047
 1046TIP3    H2 3145   0.430   1.738   3.929
 1047TIP3   OH2 3146   1.961   5.663   1.915
 1047TIP3    H1 3147   1.891   5.666   1.981
 1047TIP3    H2 3148   1.991   5.572   1.918
 1048TIP3   OH2 3149   5.230   4.330   2.904
 1048TIP3    H1 3150   5.227   4.357   2.996
 1048TIP3    H2 3151   5.142   4.346   2.872
 1049TIP3   OH2 3152   5.327   3.593   1.918
 1049TIP3    H1 3153   5.392   3.630   1.978
 1049TIP3    H2 3154   5.370   3.517   1.880
 1050TIP3   OH2 3155   4.583   2.406   5.042
 1050TIP3    H1 3156   4.570   2.417   5.136
 1050TIP3    H2 3157   4.678   2.401   5.031
 1051TIP3   OH2 3158   4.010   1.453   3.036
 1051TIP3    H1 3159   4.100   1.472   3.009
 1051TIP3    H2 3160   3.960   1.454   2.954
 1052TIP3   OH2 3161   5.843   4.409   2.598
 1052TIP3    H1 3162   5.804   4.347   2.659
 1052TIP3    H2 3163   5.777   4.421   2.529
 1053TIP3   OH2 3164   3.692   0.570   2.261
 1053TIP3    H1 3165   3.695   0.665   2.252
 1053TIP3    H2 3166   3.782   0.542   2.244
 1054TIP3   OH2 3167   4.696   0.399   4.427
 1054TIP3    H1 3168   4.756   0.337   4.386
 1054TIP3    H2 3169   4.634   0.345   4.476
 1055TIP3   OH2 3170   4.394   2.376   1.715
 1055TIP3    H1 3171   4.488   2.358   1.713
 1055TIP3    H2 3172   4.360   2.316   1.782
 1056TIP3   OH2 3173   4.824   5.070   3.251
 1056TIP3    H1 3174   4.872   5.126   3.189
 1056TIP3    H2 3175   4.872   4.987   3.251
 1057TIP3   OH2 3176   4.844   5.251   3.820
 1057TIP3    H1 3177   4.889   5.287   3.743
 1057TIP3    H2 3178   4.897   5.176   3.846
 1058TIP3   OH2 3179   3.010   3.735   3.572
 1058TIP3    H1 3180   3.061   3.763   3.648
 1058TIP3    H2 3181   3.076   3.713   3.507
 1059TIP3   OH2 3182   3.945   2.965   3.713
 1059TIP3    H1 3183   4.033   2.928   3.717
 1059TIP3    H2 3184   3.913   2.959   3.803
 1060TIP3   OH2 3185   0.185   3.797   1.199
 1060TIP3    H1 3186   0.094   3.779   1.175
 1060TIP3    H2 3187   0.196   3.752   1.283
 1061TIP3   OH2 3188   4.317   3.324   3.962
 1061TIP3    H1 3189   4.340   3.334   3.870
 1061TIP3    H2 3190   4.278   3.236   3.968
 1062TIP3   OH2 3191   3.729   2.947   2.099
 1062TIP3    H1 3192   3.783   2.968   2.023
 1062TIP3    H2 3193   3.662   2.888   2.066
 1063TIP3   OH2 3194   3.380   0.054   2.235
 1063TIP3    H1 3195   3.404   0.131   2.184
 1063TIP3    H2 3196   3.463   0.016   2.264
 1064TIP3   OH2 3197   2.258   5.463   2.515
 1064TIP3    H1 3198   2.293   5.499   2.597
 1064TIP3    H2 3199   2.319   5.493   2.448
 1065TIP3   OH2 3200   3.707   4.909   2.128
 1065TIP3    H1 3201   3.715   5.000   2.102
 1065TIP3    H2 3202   3.797   4.877   2.132
 1066TIP3   OH2 3203   5.490   2.995   5.036
 1066TIP3    H1 3204   5.425   3.064   5.031
 1066TIP3    H2 3205   5.512   2.975   4.945
 1067TIP3   OH2 3206   5.058   5.697   1.251
 1067TIP3    H1 3207   5.140   5.679   1.299
 1067TIP3    H2 3208   5.087   5.744   1.173
 1068TIP3   OH2 3209   2.209   1.111   0.442
 1068TIP3    H1 3210   2.205   1.166   0.520
 1068TIP3    H2 3211   2.139   1.143   0.386
 1069TIP3   OH2 3212   5.074   1.829   3.232
 1069TIP3    H1 3213   5.056   1.739   3.207
 1069TIP3    H2 3214   5.076   1.827   3.328
 1070TIP3   OH2 3215   1.038   5.300   0.686
 1070TIP3    H1 3216   1.048   5.208   0.662
 1070TIP3    H2 3217   0.958   5.302   0.739
 1071TIP3   OH2 3218   1.107   5.894   2.925
 1071TIP3    H1 3219   1.193   5.930   2.902
 1071TIP3    H2 3220   1.052   5.970   2.937
 1072TIP3   OH2 3221   3.557   5.623   2.882
 1072TIP3    H1 3222   3.556   5.587   2.794
 1072TIP3    H2 3223   3.629   5.577   2.926
 1073TIP3   OH2 3224   1.140   1.491   3.678
 1073TIP3    H1 3225   1.050   1.460   3.664
 1073TIP3    H2 3226   1.130   1.566   3.737
 1074TIP3   OH2 3227   1.069   3.477   4.325
 1074TIP3    H1 3228   1.153   3.520   4.340
 1074TIP3    H2 3229   1.069   3.458   4.231
 1075TIP3   OH2 3230   3.047   5.568   2.448
 1075TIP3    H1 3231   2.989   5.492   2.456
 1075TIP3    H2 3232   3.057   5.580   2.353
 1076TIP3   OH2 3233   3.346   4.996   2.742
 1076TIP3    H1 3234   3.336   5.085   2.774
 1076TIP3    H2 3235   3.428   4.997   2.692
 1077TIP3   OH2 3236   0.443   0.782   1.148
 1077TIP3    H1 3237   0.459   0.688   1.134
 1077TIP3    H2 3238   0.375   0.784   1.215
 1078TIP3   OH2 3239   5.358   1.709   0.071
 1078TIP3    H1 3240   5.275   1.663   0.088
 1078TIP3    H2 3241   5.334   1.801   0.068
 1079TIP3   OH2 3242   1.514   5.114   1.952
 1079TIP3    H1 3243   1.479   5.203   1.961
 1079TIP3    H2 3244   1.439   5.057   1.966
 1080TIP3   OH2 3245   5.552   5.844   0.401
 1080TIP3    H1 3246   5.554   5.763   0.451
 1080TIP3    H2 3247   5.521   5.818   0.314
 1081TIP3   OH2 3248   3.728   3.751   3.914
 1081TIP3    H1 3249   3.640   3.757   3.951
 1081TIP3    H2 3250   3.780   3.709   3.982
 1082TIP3   OH2 3251   4.088   2.326   2.450
 1082TIP3    H1 3252   4.180   2.328   2.479
 1082TIP3    H2 3253   4.042   2.278   2.519
 1083TIP3   OH2 3254   2.359   5.042   3.041
 1083TIP3    H1 3255   2.393   4.965   2.996
 1083TIP3    H2 3256   2.319   5.094   2.971
 1084TIP3   OH2 3257   6.053   1.117   5.067
 1084TIP3    H1 3258   6.014   1.055   5.005
 1084TIP3    H2 3259   6.002   1.197   5.055
 1085TIP3   OH2 3260   4.648   3.256   3.258
 1085TIP3    H1 3261   4.716   3.284   3.197
 1085TIP3    H2 3262   4.592   3.197   3.208
 1086TIP3   OH2 3263   0.346   4.316   2.224
 1086TIP3    H1 3264   0.394   4.320   2.307
 1086TIP3    H2 3265   0.255   4.336   2.247
 1087TIP3   OH2 3266   1.262   2.192   4.282
 1087TIP3    H1 3267   1.207   2.262   4.318
 1087TIP3    H2 3268   1.347   2.235   4.269
 1088TIP3   OH2 3269   2.368   1.343   3.286
 1088TIP3    H1 3270   2.404   1.332   3.198
 1088TIP3    H2 3271   2.425   1.406   3.329
 1089TIP3   OH2 3272   6.356   3.420   1.829
 1089TIP3    H1 3273   6.408   3.339   1.832
 1089TIP3    H2 3274   6.266   3.391   1.843
 1090TIP3   OH2 3275   0.248   3.109   5.159
 1090TIP3    H1 3276   0.273   3.018   5.147
 1090TIP3    H2 3277   0.293   3.156   5.088
 1091TIP3   OH2 3278   1.829   3.071   3.154
 1091TIP3    H1 3279   1.836   2.990   3.205
 1091TIP3    H2 3280   1.901   3.126   3.186
 1092TIP3   OH2 3281   0.238   1.871   2.803
 1092TIP3    H1 3282   0.238   1.852   2.709
 1092TIP3    H2 3283   0.221   1.786   2.844
 1093TIP3   OH2 3284   3.161   0.584   4.879
 1093TIP3    H1 3285   3.082   0.623   4.841
 1093TIP3    H2 3286   3.137   0.492   4.893
 1094TIP3   OH2 3287   3.964   1.471   0.653
 1094TIP3    H1 3288   3.937   1.403   0.591
 1094TIP3    H2 3289   4.055   1.489   0.630
 1095TIP3   OH2 3290   0.495   3.801   3.800
 1095TIP3    H1 3291   0.456   3.718   3.773
 1095TIP3    H2 3292   0.516   3.846   3.718
 1096TIP3   OH2 3293   3.781   1.288   4.303
 1096TIP3    H1 3294   3.812   1.377   4.285
 1096TIP3    H2 3295   3.719   1.299   4.376
 1097TIP3   OH2 3296   0.346   1.940   0.084
 1097TIP3    H1 3297   0.278   1.944   0.152
 1097TIP3    H2 3298   0.331   1.856   0.041
 1098TIP3   OH2 3299   5.158   3.595   5.047
 1098TIP3    H1 3300   5.246   3.624   5.025
 1098TIP3    H2 3301   5.151   3.507   5.010
 1099TIP3   OH2 3302   4.328   5.710   5.032
 1099TIP3    H1 3303   4.420   5.685   5.025
 1099TIP3    H2 3304   4.298   5.717   4.941
 1100TIP3   OH2 3305   4.785   0.492   4.817
 1100TIP3    H1 3306   4.824   0.462   4.899
 1100TIP3    H2 3307   4.691   0.474   4.827
 1101TIP3   OH2 3308   0.767   4.019   3.344
 1101TIP3    H1 3309   0.786   4.082   3.413
 1101TIP3    H2 3310   0.842   4.024   3.285
 1102TIP3   OH2 3311   4.848   0.896   1.432
 1102TIP3    H1 3312   4.897   0.824   1.471
 1102TIP3    H2 3313   4.780   0.855   1.380
 1103TIP3   OH2 3314   0.768   2.008   4.471
 1103TIP3    H1 3315   0.757   1.946   4.399
 1103TIP3    H2 3316   0.732   1.963   4.548
 1104TIP3   OH2 3317   0.045   1.624   2.828
 1104TIP3    H1 3318  -0.013   1.640   2.903
 1104TIP3    H2 3319   0.103   1.554   2.858
 1105TIP3   OH2 3320   0.433   5.531   1.201
 1105TIP3    H1 3321   0.465   5.621   1.199
 1105TIP3    H2 3322   0.401   5.515   1.112
 1106TIP3   OH2 3323   2.211   4.486  -0.018
 1106TIP3    H1 3324   2.281   4.502   0.044
 1106TIP3    H2 3325   2.149   4.558  -0.004
 1107TIP3   OH2 3326   0.267   2.620   4.310
 1107TIP3    H1 3327   0.196   2.560   4.289
 1107TIP3    H2 3328   0.345   2.578   4.273
 1108TIP3   OH2 3329   5.044   5.582   4.491
 1108TIP3    H1 3330   4.974   5.643   4.514
 1108TIP3    H2 3331   4.999   5.509   4.448
 1109TIP3   OH2 3332   5.134   3.952   2.882
 1109TIP3    H1 3333   5.217   3.966   2.836
 1109TIP3    H2 3334   5.069   3.946   2.812
 1110TIP3   OH2 3335   1.937   0.264   0.806
 1110TIP3    H1 3336   1.901   0.283   0.892
 1110TIP3    H2 3337   1.860   0.238   0.753
 1111TIP3   OH2 3338   0.956   2.378   3.583
 1111TIP3    H1 3339   0.874   2.365   3.537
 1111TIP3    H2 3340   0.940   2.346   3.672
 1112TIP3   OH2 3341   3.583   2.826   4.246
 1112TIP3    H1 3342   3.592   2.777   4.165
 1112TIP3    H2 3343   3.511   2.783   4.293
 1113TIP3   OH2 3344   5.667   2.463   2.191
 1113TIP3    H1 3345   5.626   2.415   2.263
 1113TIP3    H2 3346   5.643   2.414   2.112
 1114TIP3   OH2 3347   1.124   5.775   1.695
 1114TIP3    H1 3348   1.125   5.810   1.605
 1114TIP3    H2 3349   1.199   5.817   1.737
 1115TIP3   OH2 3350   0.415   0.130   2.565
 1115TIP3    H1 3351   0.501   0.108   2.601
 1115TIP3    H2 3352   0.430   0.208   2.512
 1116TIP3   OH2 3353   6.002   1.189   2.556
 1116TIP3    H1 3354   5.957   1.274   2.552
 1116TIP3    H2 3355   5.931   1.125   2.546
 1117TIP3   OH2 3356   1.593   5.701   3.240
 1117TIP3    H1 3357   1.542   5.730   3.164
 1117TIP3    H2 3358   1.556   5.750   3.314
 1118TIP3   OH2 3359   2.987   5.869   0.273
 1118TIP3    H1 3360   2.990   5.794   0.332
 1118TIP3    H2 3361   2.895   5.896   0.273
 1119TIP3   OH2 3362   4.397   1.323   2.129
 1119TIP3    H1 3363   4.346   1.271   2.067
 1119TIP3    H2 3364   4.344   1.400   2.145
 1120TIP3   OH2 3365   4.640   4.069   1.220
 1120TIP3    H1 3366   4.573   4.123   1.180
 1120TIP3    H2 3367   4.603   4.044   1.305
 1121TIP3   OH2 3368   2.154   1.270   3.916
 1121TIP3    H1 3369   2.147   1.270   4.012
 1121TIP3    H2 3370   2.098   1.343   3.889
 1122TIP3   OH2 3371   2.039   0.867   3.231
 1122TIP3    H1 3372   2.017   0.798   3.168
 1122TIP3    H2 3373   1.960   0.919   3.238
 1123TIP3   OH2 3374   0.854   2.704   2.895
 1123TIP3    H1 3375   0.889   2.616   2.903
 1123TIP3    H2 3376   0.879   2.748   2.977
 1124TIP3   OH2 3377   3.283   0.961   4.719
 1124TIP3    H1 3378   3.370   0.991   4.746
 1124TIP3    H2 3379   3.230   1.040   4.718
 1125TIP3   OH2 3380   3.015   5.619   3.544
 1125TIP3    H1 3381   3.005   5.524   3.535
 1125TIP3    H2 3382   3.058   5.646   3.463
 1126TIP3   OH2 3383   4.697   2.036   1.226
 1126TIP3    H1 3384   4.771   2.067   1.279
 1126TIP3    H2 3385   4.623   2.088   1.258
 1127TIP3   OH2 3386   0.906   2.711   4.138
 1127TIP3    H1 3387   0.900   2.620   4.167
 1127TIP3    H2 3388   0.999   2.733   4.146
 1128TIP3   OH2 3389   4.144   3.061  -0.013
 1128TIP3    H1 3390   4.070   3.084   0.044
 1128TIP3    H2 3391   4.150   2.966  -0.007
 1129TIP3   OH2 3392   4.496   1.989   2.490
 1129TIP3    H1 3393   4.524   2.036   2.568
 1129TIP3    H2 3394   4.403   1.974   2.503
 1130TIP3   OH2 3395   5.229   0.287   2.480
 1130TIP3    H1 3396   5.292   0.340   2.529
 1130TIP3    H2 3397   5.255   0.296   2.389
 1131TIP3   OH2 3398   6.179   4.177   2.552
 1131TIP3    H1 3399   6.272   4.167   2.573
 1131TIP3    H2 3400   6.134   4.139   2.628
 1132TIP3   OH2 3401   4.212   2.963   3.658
 1132TIP3    H1 3402   4.198   2.879   3.614
 1132TIP3    H2 3403   4.304   2.960   3.686
 1133TIP3   OH2 3404   2.954   2.725   2.415
 1133TIP3    H1 3405   3.002   2.692   2.339
 1133TIP3    H2 3406   2.874   2.763   2.378
 1134TIP3   OH2 3407   2.534   0.444   3.588
 1134TIP3    H1 3408   2.550   0.538   3.578
 1134TIP3    H2 3409   2.515   0.413   3.500
 1135TIP3   OH2 3410   1.191   4.290   4.675
 1135TIP3    H1 3411   1.258   4.295   4.744
 1135TIP3    H2 3412   1.125   4.231   4.710
 1136TIP3   OH2 3413   5.546   0.791   4.891
 1136TIP3    H1 3414   5.510   0.817   4.976
 1136TIP3    H2 3415   5.544   0.871   4.839
 1137TIP3   OH2 3416   4.099   3.899   1.421
 1137TIP3    H1 3417   4.005   3.898   1.403
 1137TIP3    H2 3418   4.119   3.809   1.449
 1138TIP3   OH2 3419   3.425   2.460   1.090
 1138TIP3    H1 3420   3.387   2.527   1.147
 1138TIP3    H2 3421   3.513   2.447   1.124
 1139TIP3   OH2 3422   2.230   2.855   3.238
 1139TIP3    H1 3423   2.166   2.887   3.302
 1139TIP3    H2 3424   2.205   2.764   3.222
 1140TIP3   OH2 3425   3.328   2.088   4.048
 1140TIP3    H1 3426   3.385   2.013   4.032
 1140TIP3    H2 3427   3.241   2.050   4.063
 1141TIP3   OH2 3428   5.616   3.999   1.639
 1141TIP3    H1 3429   5.565   3.979   1.561
 1141TIP3    H2 3430   5.674   4.070   1.612
 1142TIP3   OH2 3431   5.758   0.564   2.101
 1142TIP3    H1 3432   5.820   0.625   2.140
 1142TIP3    H2 3433   5.807   0.482   2.094
 1143TIP3   OH2 3434   5.892   4.735   3.875
 1143TIP3    H1 3435   5.886   4.800   3.945
 1143TIP3    H2 3436   5.983   4.741   3.845
 1144TIP3   OH2 3437   1.812   2.614   4.086
 1144TIP3    H1 3438   1.865   2.573   4.017
 1144TIP3    H2 3439   1.730   2.636   4.042
 1145TIP3   OH2 3440   5.433   5.257   2.596
 1145TIP3    H1 3441   5.426   5.249   2.691
 1145TIP3    H2 3442   5.475   5.175   2.568
 1146TIP3   OH2 3443   4.902   1.143   5.102
 1146TIP3    H1 3444   4.931   1.181   5.185
 1146TIP3    H2 3445   4.814   1.178   5.089
 1147TIP3   OH2 3446   1.099   4.065   0.219
 1147TIP3    H1 3447   1.020   4.118   0.233
 1147TIP3    H2 3448   1.163   4.127   0.184
 1148TIP3   OH2 3449   1.729   1.484   1.960
 1148TIP3    H1 3450   1.760   1.403   2.000
 1148TIP3    H2 3451   1.808   1.530   1.933
 1149TIP3   OH2 3452   3.429   1.407   3.851
 1149TIP3    H1 3453   3.503   1.386   3.908
 1149TIP3    H2 3454   3.410   1.499   3.869
 1150TIP3   OH2 3455   0.358   3.244   4.656
 1150TIP3    H1 3456   0.410   3.296   4.596
 1150TIP3    H2 3457   0.292   3.202   4.600
 1151TIP3   OH2 3458   2.883   2.067   3.512
 1151TIP3    H1 3459   2.953   2.117   3.554
 1151TIP3    H2 3460   2.874   2.106   3.425
 1152TIP3   OH2 3461   4.490   0.451   5.067
 1152TIP3    H1 3462   4.525   0.392   5.001
 1152TIP3    H2 3463   4.555   0.449   5.138
 1153TIP3   OH2 3464   0.650   0.471   2.558
 1153TIP3    H1 3465   0.699   0.522   2.494
 1153TIP3    H2 3466   0.716   0.417   2.602
 1154TIP3   OH2 3467   4.007   1.206   0.126
 1154TIP3    H1 3468   4.087   1.249   0.156
 1154TIP3    H2 3469   3.990   1.245   0.040
 1155TIP3   OH2 3470   5.057   3.209   3.756
 1155TIP3    H1 3471   5.146   3.187   3.785
 1155TIP3    H2 3472   5.036   3.291   3.801
 1156TIP3   OH2 3473   2.624   4.299   5.131
 1156TIP3    H1 3474   2.593   4.215   5.166
 1156TIP3    H2 3475   2.553   4.329   5.075
 1157TIP3   OH2 3476   0.018   3.922   4.300
 1157TIP3    H1 3477   0.082   3.897   4.233
 1157TIP3    H2 3478   0.036   3.865   4.374
 1158TIP3   OH2 3479   2.693   5.201   1.968
 1158TIP3    H1 3480   2.734   5.286   1.952
 1158TIP3    H2 3481   2.622   5.195   1.904
 1159TIP3   OH2 3482   1.359   3.968   4.232
 1159TIP3    H1 3483   1.318   4.052   4.212
 1159TIP3    H2 3484   1.301   3.903   4.192
 1160TIP3   OH2 3485   0.020   2.864   3.904
 1160TIP3    H1 3486   0.046   2.779   3.939
 1160TIP3    H2 3487   0.055   2.864   3.815
 1161TIP3   OH2 3488   1.511   0.737   4.178
 1161TIP3    H1 3489   1.441   0.763   4.118
 1161TIP3    H2 3490   1.584   0.713   4.122
 1162TIP3   OH2 3491   1.469   4.457   1.748
 1162TIP3    H1 3492   1.440   4.542   1.715
 1162TIP3    H2 3493   1.412   4.393   1.704
 1163TIP3   OH2 3494   4.310   1.786   2.726
 1163TIP3    H1 3495   4.266   1.805   2.810
 1163TIP3    H2 3496   4.238   1.759   2.668
 1164TIP3   OH2 3497   0.321   1.730   1.274
 1164TIP3    H1 3498   0.403   1.764   1.238
 1164TIP3    H2 3499   0.253   1.773   1.222
 1165TIP3   OH2 3500   0.412   2.405   0.831
 1165TIP3    H1 3501   0.380   2.439   0.748
 1165TIP3    H2 3502   0.505   2.386   0.815
 1166TIP3   OH2 3503   1.134   2.277   1.638
 1166TIP3    H1 3504   1.098   2.209   1.694
 1166TIP3    H2 3505   1.146   2.352   1.697
 1167TIP3   OH2 3506   0.742   0.287   4.893
 1167TIP3    H1 3507   0.656   0.326   4.878
 1167TIP3    H2 3508   0.781   0.280   4.805
 1168TIP3   OH2 3509   1.917   1.358   0.995
 1168TIP3    H1 3510   1.891   1.431   1.051
 1168TIP3    H2 3511   1.863   1.284   1.026
 1169TIP3   OH2 3512   2.541   1.831   3.315
 1169TIP3    H1 3513   2.537   1.857   3.406
 1169TIP3    H2 3514   2.609   1.886   3.277
 1170TIP3   OH2 3515   0.295   1.244   0.121
 1170TIP3    H1 3516   0.251   1.163   0.148
 1170TIP3    H2 3517   0.361   1.258   0.188
 1171TIP3   OH2 3518   2.920   3.403   4.649
 1171TIP3    H1 3519   2.897   3.477   4.592
 1171TIP3    H2 3520   3.016   3.406   4.653
 1172TIP3   OH2 3521   6.187   2.348   3.843
 1172TIP3    H1 3522   6.232   2.268   3.816
 1172TIP3    H2 3523   6.252   2.417   3.832
 1173TIP3   OH2 3524   4.438   4.988   4.323
 1173TIP3    H1 3525   4.421   4.893   4.324
 1173TIP3    H2 3526   4.359   5.025   4.282
 1174TIP3   OH2 3527   2.324   0.370   0.907
 1174TIP3    H1 3528   2.293   0.300   0.850
 1174TIP3    H2 3529   2.414   0.347   0.927
 1175TIP3   OH2 3530   4.741   3.519   2.673
 1175TIP3    H1 3531   4.690   3.589   2.633
 1175TIP3    H2 3532   4.778   3.470   2.599
 1176TIP3   OH2 3533   2.272   1.625   2.976
 1176TIP3    H1 3534   2.303   1.535   2.988
 1176TIP3    H2 3535   2.302   1.672   3.053
 1177TIP3   OH2 3536   4.060   3.464   3.985
 1177TIP3    H1 3537   4.057   3.552   3.948
 1177TIP3    H2 3538   4.151   3.452   4.011
 1178TIP3   OH2 3539   0.837   2.210   2.788
 1178TIP3    H1 3540   0.791   2.175   2.712
 1178TIP3    H2 3541   0.906   2.147   2.805
 1179TIP3   OH2 3542   5.214   1.097   0.007
 1179TIP3    H1 3543   5.173   1.169  -0.040
 1179TIP3    H2 3544   5.288   1.136   0.053
 1180TIP3   OH2 3545   1.113   1.497   4.811
 1180TIP3    H1 3546   1.151   1.578   4.847
 1180TIP3    H2 3547   1.022   1.498   4.843
 1181TIP3   OH2 3548   0.285   2.664   0.511
 1181TIP3    H1 3549   0.340   2.740   0.495
 1181TIP3    H2 3550   0.219   2.667   0.442
 1182TIP3   OH2 3551   5.705   0.938   2.788
 1182TIP3    H1 3552   5.705   0.843   2.801
 1182TIP3    H2 3553   5.619   0.958   2.752
 1183TIP3   OH2 3554   3.474   0.531   1.965
 1183TIP3    H1 3555   3.462   0.616   2.008
 1183TIP3    H2 3556   3.444   0.545   1.876
 1184TIP3   OH2 3557   0.237   0.824   4.918
 1184TIP3    H1 3558   0.218   0.772   4.840
 1184TIP3    H2 3559   0.253   0.913   4.885
 1185TIP3   OH2 3560   1.128   3.236   1.612
 1185TIP3    H1 3561   1.200   3.289   1.578
 1185TIP3    H2 3562   1.060   3.241   1.544
 1186TIP3   OH2 3563   0.717   3.922   2.256
 1186TIP3    H1 3564   0.634   3.896   2.216
 1186TIP3    H2 3565   0.743   4.001   2.208
 1187TIP3   OH2 3566   6.054   0.809   2.479
 1187TIP3    H1 3567   6.107   0.764   2.413
 1187TIP3    H2 3568   6.014   0.882   2.432
 1188TIP3   OH2 3569   4.464   0.237   3.136
 1188TIP3    H1 3570   4.410   0.185   3.196
 1188TIP3    H2 3571   4.425   0.223   3.050
 1189TIP3   OH2 3572   4.175   2.566   2.818
 1189TIP3    H1 3573   4.232   2.551   2.893
 1189TIP3    H2 3574   4.194   2.656   2.791
 1190TIP3   OH2 3575   5.383   4.041   1.154
 1190TIP3    H1 3576   5.321   4.018   1.223
 1190TIP3    H2 3577   5.408   4.132   1.174
 1191TIP3   OH2 3578   5.118   3.385   2.896
 1191TIP3    H1 3579   5.122   3.477   2.869
 1191TIP3    H2 3580   5.135   3.388   2.991
 1192TIP3   OH2 3581   1.599   5.371   2.754
 1192TIP3    H1 3582   1.649   5.340   2.829
 1192TIP3    H2 3583   1.611   5.466   2.755
 1193TIP3   OH2 3584   1.088   4.382   2.548
 1193TIP3    H1 3585   1.003   4.428   2.548
 1193TIP3    H2 3586   1.081   4.320   2.476
 1194TIP3   OH2 3587   6.191   4.988   3.981
 1194TIP3    H1 3588   6.112   4.960   4.028
 1194TIP3    H2 3589   6.160   5.006   3.892
 1195TIP3   OH2 3590   5.437   3.779   3.153
 1195TIP3    H1 3591   5.349   3.813   3.171
 1195TIP3    H2 3592   5.491   3.814   3.224
 1196TIP3   OH2 3593   5.705   5.837   3.041
 1196TIP3    H1 3594   5.691   5.751   3.002
 1196TIP3    H2 3595   5.705   5.897   2.966
 1197TIP3   OH2 3596   5.453   2.679   3.908
 1197TIP3    H1 3597   5.385   2.619   3.880
 1197TIP3    H2 3598   5.416   2.766   3.897
 1198TIP3   OH2 3599   2.156   1.265   0.644
 1198TIP3    H1 3600   2.105   1.339   0.612
 1198TIP3    H2 3601   2.173   1.286   0.736
 1199TIP3   OH2 3602   0.620   0.806   3.688
 1199TIP3    H1 3603   0.659   0.877   3.739
 1199TIP3    H2 3604   0.579   0.748   3.754
 1200TIP3   OH2 3605   3.032   2.545   0.653
 1200TIP3    H1 3606   3.076   2.630   0.661
 1200TIP3    H2 3607   2.985   2.534   0.735
 1201TIP3   OH2 3608   2.746   4.924   2.026
 1201TIP3    H1 3609   2.711   4.869   1.956
 1201TIP3    H2 3610   2.715   5.012   2.005
 1202TIP3   OH2 3611   4.566   1.136   1.847
 1202TIP3    H1 3612   4.609   1.062   1.891
 1202TIP3    H2 3613   4.636   1.200   1.833
 1203TIP3   OH2 3614   4.958   2.540   2.482
 1203TIP3    H1 3615   5.019   2.610   2.461
 1203TIP3    H2 3616   4.876   2.567   2.441
 1204TIP3   OH2 3617   4.853   2.533   2.149
 1204TIP3    H1 3618   4.892   2.448   2.171
 1204TIP3    H2 3619   4.812   2.563   2.230
 1205TIP3   OH2 3620   6.145   4.388   4.759
 1205TIP3    H1 3621   6.228   4.344   4.738
 1205TIP3    H2 3622   6.172   4.475   4.790
 1206TIP3   OH2 3623   3.347   2.044   3.070
 1206TIP3    H1 3624   3.318   1.967   3.118
 1206TIP3    H2 3625   3.275   2.065   3.011
 1207TIP3   OH2 3626   4.365   4.103   2.850
 1207TIP3    H1 3627   4.410   4.155   2.784
 1207TIP3    H2 3628   4.401   4.134   2.933
 1208TIP3   OH2 3629   5.147   5.992   0.646
 1208TIP3    H1 3630   5.088   5.929   0.606
 1208TIP3    H2 3631   5.209   6.015   0.577
 1209TIP3   OH2 3632   0.894   5.924   2.555
 1209TIP3    H1 3633   0.970   5.954   2.504
 1209TIP3    H2 3634   0.932   5.877   2.629
 1210TIP3   OH2 3635   4.082   4.319   3.991
 1210TIP3    H1 3636   4.143   4.352   4.056
 1210TIP3    H2 3637   4.086   4.224   4.000
 1211TIP3   OH2 3638   5.123   4.916   2.869
 1211TIP3    H1 3639   5.072   4.972   2.927
 1211TIP3    H2 3640   5.072   4.911   2.788
 1212TIP3   OH2 3641   2.439   1.385   0.901
 1212TIP3    H1 3642   2.472   1.365   0.813
 1212TIP3    H2 3643   2.344   1.379   0.893
 1213TIP3   OH2 3644   5.755   2.973   5.099
 1213TIP3    H1 3645   5.666   2.997   5.075
 1213TIP3    H2 3646   5.760   2.879   5.083
 1214TIP3   OH2 3647   6.287   0.315   2.676
 1214TIP3    H1 3648   6.246   0.346   2.595
 1214TIP3    H2 3649   6.216   0.273   2.724
 1215TIP3   OH2 3650   2.680   3.472   0.795
 1215TIP3    H1 3651   2.633   3.412   0.737
 1215TIP3    H2 3652   2.772   3.464   0.771
 1216TIP3   OH2 3653   4.486   1.163   2.319
 1216TIP3    H1 3654   4.398   1.139   2.347
 1216TIP3    H2 3655   4.473   1.222   2.245
 1217TIP3   OH2 3656   1.276   3.437   3.172
 1217TIP3    H1 3657   1.359   3.398   3.148
 1217TIP3    H2 3658   1.256   3.497   3.100
 1218TIP3   OH2 3659   5.972   1.018   3.689
 1218TIP3    H1 3660   5.915   1.084   3.649
 1218TIP3    H2 3661   6.058   1.061   3.693
 1219TIP3   OH2 3662   1.917   1.769   3.131
 1219TIP3    H1 3663   1.845   1.723   3.174
 1219TIP3    H2 3664   1.994   1.745   3.182
 1220TIP3   OH2 3665   6.289   1.276   2.249
 1220TIP3    H1 3666   6.221   1.219   2.213
 1220TIP3    H2 3667   6.270   1.362   2.212
 1221TIP3   OH2 3668   0.739   5.755   2.851
 1221TIP3    H1 3669   0.769   5.681   2.798
 1221TIP3    H2 3670   0.671   5.719   2.908
 1222TIP3   OH2 3671   2.232   4.070   2.706
 1222TIP3    H1 3672   2.302   4.123   2.744
 1222TIP3    H2 3673   2.181   4.132   2.654
 1223TIP3   OH2 3674   1.793   0.811   4.449
 1223TIP3    H1 3675   1.884   0.828   4.427
 1223TIP3    H2 3676   1.770   0.878   4.513
 1224TIP3   OH2 3677   3.365   0.066   2.576
 1224TIP3    H1 3678   3.340   0.026   2.493
 1224TIP3    H2 3679   3.325   0.153   2.575
 1225TIP3   OH2 3680   1.350   0.642   2.763
 1225TIP3    H1 3681   1.329   0.704   2.834
 1225TIP3    H2 3682   1.267   0.627   2.718
 1226TIP3   OH2 3683   5.309   4.907   3.553
 1226TIP3    H1 3684   5.372   4.943   3.614
 1226TIP3    H2 3685   5.230   4.959   3.565
 1227TIP3   OH2 3686   3.445   4.627   2.376
 1227TIP3    H1 3687   3.480   4.716   2.377
 1227TIP3    H2 3688   3.383   4.626   2.304
 1228TIP3   OH2 3689   2.729   3.433   1.364
 1228TIP3    H1 3690   2.704   3.519   1.331
 1228TIP3    H2 3691   2.696   3.372   1.298
 1229TIP3   OH2 3692   0.098   0.508   2.390
 1229TIP3    H1 3693   0.086   0.514   2.485
 1229TIP3    H2 3694   0.184   0.548   2.375
 1230TIP3   OH2 3695   1.022   2.095   3.551
 1230TIP3    H1 3696   0.934   2.066   3.572
 1230TIP3    H2 3697   1.025   2.186   3.579
 1231TIP3   OH2 3698   0.581   1.596   4.458
 1231TIP3    H1 3699   0.517   1.611   4.527
 1231TIP3    H2 3700   0.636   1.525   4.492
 1232TIP3   OH2 3701   2.244   3.917   0.514
 1232TIP3    H1 3702   2.195   3.982   0.563
 1232TIP3    H2 3703   2.319   3.964   0.478
 1233TIP3   OH2 3704   5.432   3.377   4.273
 1233TIP3    H1 3705   5.350   3.413   4.239
 1233TIP3    H2 3706   5.442   3.293   4.228
 1234TIP3   OH2 3707   6.139   0.673   4.617
 1234TIP3    H1 3708   6.124   0.627   4.535
 1234TIP3    H2 3709   6.211   0.625   4.659
 1235TIP3   OH2 3710   3.075   5.954   4.961
 1235TIP3    H1 3711   3.043   6.043   4.946
 1235TIP3    H2 3712   2.998   5.898   4.954
 1236TIP3   OH2 3713   1.436   0.823   4.575
 1236TIP3    H1 3714   1.396   0.776   4.501
 1236TIP3    H2 3715   1.447   0.912   4.543
 1237TIP3   OH2 3716   2.416   5.757   2.313
 1237TIP3    H1 3717   2.452   5.835   2.355
 1237TIP3    H2 3718   2.335   5.739   2.361
 1238TIP3   OH2 3719   3.812   5.497   2.960
 1238TIP3    H1 3720   3.807   5.401   2.956
 1238TIP3    H2 3721   3.882   5.515   3.023
 1239TIP3   OH2 3722   2.266   0.409   3.318
 1239TIP3    H1 3723   2.190   0.419   3.261
 1239TIP3    H2 3724   2.241   0.451   3.400
 1240TIP3   OH2 3725   0.088   5.889   4.311
 1240TIP3    H1 3726   0.089   5.843   4.227
 1240TIP3    H2 3727   0.171   5.865   4.353
 1241TIP3   OH2 3728   1.927   1.348   1.625
 1241TIP3    H1 3729   1.848   1.369   1.576
 1241TIP3    H2 3730   1.905   1.369   1.716
 1242TIP3   OH2 3731   4.373   0.816   1.380
 1242TIP3    H1 3732   4.466   0.827   1.361
 1242TIP3    H2 3733   4.371   0.753   1.452
 1243TIP3   OH2 3734   0.131   3.364   0.665
 1243TIP3    H1 3735   0.088   3.372   0.580
 1243TIP3    H2 3736   0.198   3.433   0.664
 1244TIP3   OH2 3737   2.121   3.908   2.370
 1244TIP3    H1 3738   2.076   3.892   2.453
 1244TIP3    H2 3739   2.138   3.820   2.334
 1245TIP3   OH2 3740   3.221   5.143   0.112
 1245TIP3    H1 3741   3.198   5.112   0.024
 1245TIP3    H2 3742   3.174   5.084   0.171
 1246TIP3   OH2 3743   0.484   1.230   2.922
 1246TIP3    H1 3744   0.558   1.273   2.879
 1246TIP3    H2 3745   0.464   1.155   2.866
 1247TIP3   OH2 3746   1.660   0.663   2.972
 1247TIP3    H1 3747   1.592   0.609   3.011
 1247TIP3    H2 3748   1.638   0.752   2.998
 1248TIP3   OH2 3749   3.438   2.950   3.894
 1248TIP3    H1 3750   3.403   2.886   3.831
 1248TIP3    H2 3751   3.362   2.976   3.946
 1249TIP3   OH2 3752   5.944   0.442   4.493
 1249TIP3    H1 3753   5.914   0.446   4.584
 1249TIP3    H2 3754   5.985   0.355   4.486
 1250TIP3   OH2 3755   2.445   5.409   4.287
 1250TIP3    H1 3756   2.509   5.371   4.347
 1250TIP3    H2 3757   2.399   5.474   4.340
 1251TIP3   OH2 3758   0.219   0.254   0.856
 1251TIP3    H1 3759   0.231   0.184   0.920
 1251TIP3    H2 3760   0.302   0.258   0.809
 1252TIP3   OH2 3761   5.381   1.240   1.690
 1252TIP3    H1 3762   5.453   1.283   1.736
 1252TIP3    H2 3763   5.303   1.260   1.742
 1253TIP3   OH2 3764   0.416   5.256   2.425
 1253TIP3    H1 3765   0.474   5.283   2.496
 1253TIP3    H2 3766   0.447   5.168   2.401
 1254TIP3   OH2 3767   0.062   0.697   1.473
 1254TIP3    H1 3768   0.082   0.614   1.430
 1254TIP3    H2 3769   0.027   0.671   1.559
 1255TIP3   OH2 3770   4.747   1.231   2.344
 1255TIP3    H1 3771   4.660   1.193   2.332
 1255TIP3    H2 3772   4.733   1.326   2.344
 1256TIP3   OH2 3773   1.951   0.246   2.056
 1256TIP3    H1 3774   1.990   0.293   2.129
 1256TIP3    H2 3775   2.024   0.223   1.999
 1257TIP3   OH2 3776   1.185   0.196   3.687
 1257TIP3    H1 3777   1.094   0.203   3.657
 1257TIP3    H2 3778   1.229   0.147   3.618
 1258TIP3   OH2 3779   1.996   2.165   4.051
 1258TIP3    H1 3780   2.058   2.181   4.122
 1258TIP3    H2 3781   2.041   2.195   3.972
 1259TIP3   OH2 3782   4.312   0.801   4.127
 1259TIP3    H1 3783   4.346   0.834   4.044
 1259TIP3    H2 3784   4.229   0.847   4.139
 1260TIP3   OH2 3785   0.809   3.275   0.585
 1260TIP3    H1 3786   0.813   3.350   0.526
 1260TIP3    H2 3787   0.724   3.234   0.566
 1261TIP3   OH2 3788   5.046   5.084   1.019
 1261TIP3    H1 3789   5.006   5.088   0.932
 1261TIP3    H2 3790   5.119   5.147   1.014
 1262TIP3   OH2 3791   4.513   0.752   0.193
 1262TIP3    H1 3792   4.452   0.824   0.210
 1262TIP3    H2 3793   4.600   0.791   0.203
 1263TIP3   OH2 3794   0.158   1.040   4.182
 1263TIP3    H1 3795   0.064   1.045   4.201
 1263TIP3    H2 3796   0.199   1.036   4.268
 1264TIP3   OH2 3797   4.975   2.006   1.236
 1264TIP3    H1 3798   5.071   2.004   1.241
 1264TIP3    H2 3799   4.951   1.920   1.201
 1265TIP3   OH2 3800   2.170   2.398   2.952
 1265TIP3    H1 3801   2.248   2.437   2.914
 1265TIP3    H2 3802   2.109   2.390   2.878
 1266TIP3   OH2 3803   2.291   0.230   0.094
 1266TIP3    H1 3804   2.207   0.230   0.140
 1266TIP3    H2 3805   2.356   0.229   0.164
 1267TIP3   OH2 3806   3.358   0.815   0.495
 1267TIP3    H1 3807   3.263   0.808   0.488
 1267TIP3    H2 3808   3.377   0.908   0.485
 1268TIP3   OH2 3809   5.093   1.273   4.117
 1268TIP3    H1 3810   5.091   1.302   4.026
 1268TIP3    H2 3811   5.020   1.212   4.125
 1269TIP3   OH2 3812   4.444   1.261   0.791
 1269TIP3    H1 3813   4.512   1.301   0.846
 1269TIP3    H2 3814   4.490   1.193   0.742
 1270TIP3   OH2 3815   1.288   4.775   3.635
 1270TIP3    H1 3816   1.330   4.858   3.660
 1270TIP3    H2 3817   1.357   4.710   3.644
 1271TIP3   OH2 3818   4.091   0.975   2.899
 1271TIP3    H1 3819   4.109   0.889   2.861
 1271TIP3    H2 3820   4.064   0.957   2.989
 1272TIP3   OH2 3821   0.948   4.064   3.136
 1272TIP3    H1 3822   1.003   4.086   3.061
 1272TIP3    H2 3823   0.875   4.127   3.132
 1273TIP3   OH2 3824   5.121   4.173   0.111
 1273TIP3    H1 3825   5.052   4.111   0.089
 1273TIP3    H2 3826   5.145   4.214   0.028
 1274TIP3   OH2 3827   6.016   0.908   4.555
 1274TIP3    H1 3828   6.035   0.821   4.592
 1274TIP3    H2 3829   5.920   0.912   4.555
 1275TIP3   OH2 3830   4.844   3.772   4.985
 1275TIP3    H1 3831   4.933   3.798   4.961
 1275TIP3    H2 3832   4.854   3.687   5.028
 1276TIP3   OH2 3833   6.022   5.715   4.655
 1276TIP3    H1 3834   6.098   5.762   4.622
 1276TIP3    H2 3835   5.966   5.703   4.579
 1277TIP3   OH2 3836   0.674   3.501   2.346
 1277TIP3    H1 3837   0.630   3.457   2.273
 1277TIP3    H2 3838   0.611   3.566   2.376
 1278TIP3   OH2 3839   3.628   0.643   0.444
 1278TIP3    H1 3840   3.699   0.583   0.422
 1278TIP3    H2 3841   3.673   0.721   0.477
 1279TIP3   OH2 3842   4.429   0.357   3.386
 1279TIP3    H1 3843   4.477   0.335   3.306
 1279TIP3    H2 3844   4.343   0.387   3.356
 1280TIP3   OH2 3845   0.769   2.444   1.041
 1280TIP3    H1 3846   0.703   2.511   1.062
 1280TIP3    H2 3847   0.793   2.406   1.125
 1281TIP3   OH2 3848   6.155   0.082   3.555
 1281TIP3    H1 3849   6.151  -0.001   3.603
 1281TIP3    H2 3850   6.192   0.144   3.618
 1282TIP3   OH2 3851   4.163   2.695   0.815
 1282TIP3    H1 3852   4.119   2.668   0.896
 1282TIP3    H2 3853   4.245   2.735   0.845
 1283TIP3   OH2 3854   3.776   2.206   1.809
 1283TIP3    H1 3855   3.782   2.116   1.776
 1283TIP3    H2 3856   3.739   2.256   1.737
 1284TIP3   OH2 3857   1.416   1.968   0.280
 1284TIP3    H1 3858   1.374   1.882   0.285
 1284TIP3    H2 3859   1.506   1.949   0.255
 1285TIP3   OH2 3860   3.688   1.071   1.195
 1285TIP3    H1 3861   3.678   1.064   1.100
 1285TIP3    H2 3862   3.769   1.119   1.208
 1286TIP3   OH2 3863   5.902   2.383   4.042
 1286TIP3    H1 3864   5.982   2.335   4.021
 1286TIP3    H2 3865   5.922   2.473   4.019
 1287TIP3   OH2 3866   5.397   3.415   0.133
 1287TIP3    H1 3867   5.484   3.403   0.094
 1287TIP3    H2 3868   5.398   3.359   0.210
 1288TIP3   OH2 3869   5.423   2.026   3.701
 1288TIP3    H1 3870   5.333   2.011   3.674
 1288TIP3    H2 3871   5.437   1.964   3.773
 1289TIP3   OH2 3872   5.839   1.215   0.161
 1289TIP3    H1 3873   5.829   1.138   0.106
 1289TIP3    H2 3874   5.866   1.180   0.246
 1290TIP3   OH2 3875   3.123   1.958   0.659
 1290TIP3    H1 3876   3.119   1.863   0.665
 1290TIP3    H2 3877   3.054   1.989   0.718
 1291TIP3   OH2 3878   2.152   0.480   2.062
 1291TIP3    H1 3879   2.096   0.552   2.032
 1291TIP3    H2 3880   2.135   0.409   2.001
 1292TIP3   OH2 3881   0.201   3.868   1.849
 1292TIP3    H1 3882   0.256   3.816   1.908
 1292TIP3    H2 3883   0.169   3.805   1.784
 1293TIP3   OH2 3884   4.364   2.852   2.500
 1293TIP3    H1 3885   4.300   2.858   2.429
 1293TIP3    H2 3886   4.311   2.843   2.579
 1294TIP3   OH2 3887   6.103   0.441   2.518
 1294TIP3    H1 3888   6.102   0.354   2.479
 1294TIP3    H2 3889   6.049   0.494   2.459
 1295TIP3   OH2 3890   3.607   0.543   4.185
 1295TIP3    H1 3891   3.619   0.448   4.181
 1295TIP3    H2 3892   3.691   0.576   4.215
 1296TIP3   OH2 3893   0.407   2.607   3.240
 1296TIP3    H1 3894   0.497   2.597   3.209
 1296TIP3    H2 3895   0.401   2.700   3.265
 1297TIP3   OH2 3896   0.504   2.243   1.433
 1297TIP3    H1 3897   0.500   2.250   1.528
 1297TIP3    H2 3898   0.553   2.321   1.406
 1298TIP3   OH2 3899   5.535   1.887   1.308
 1298TIP3    H1 3900   5.584   1.933   1.376
 1298TIP3    H2 3901   5.533   1.796   1.335
 1299TIP3   OH2 3902   4.252  -0.017   4.952
 1299TIP3    H1 3903   4.180   0.046   4.954
 1299TIP3    H2 3904   4.215  -0.096   4.992
 1300TIP3   OH2 3905   1.495   0.383   1.746
 1300TIP3    H1 3906   1.582   0.344   1.738
 1300TIP3    H2 3907   1.511   0.466   1.791
 1301TIP3   OH2 3908   0.005   3.140   1.893
 1301TIP3    H1 3909   0.058   3.077   1.845
 1301TIP3    H2 3910   0.022   3.119   1.985
 1302TIP3   OH2 3911   2.264   0.734   4.887
 1302TIP3    H1 3912   2.210   0.793   4.834
 1302TIP3    H2 3913   2.203   0.692   4.947
 1303TIP3   OH2 3914   4.269   5.886   1.106
 1303TIP3    H1 3915   4.212   5.956   1.074
 1303TIP3    H2 3916   4.250   5.811   1.050
 1304TIP3   OH2 3917   4.223   0.005   2.683
 1304TIP3    H1 3918   4.261   0.027   2.768
 1304TIP3    H2 3919   4.157   0.072   2.668
 1305TIP3   OH2 3920   1.003   0.863   0.568
 1305TIP3    H1 3921   1.000   0.928   0.638
 1305TIP3    H2 3922   1.092   0.828   0.572
 1306TIP3   OH2 3923   5.218   0.601   1.383
 1306TIP3    H1 3924   5.123   0.595   1.373
 1306TIP3    H2 3925   5.253   0.566   1.301
 1307TIP3   OH2 3926   0.587   4.050   2.842
 1307TIP3    H1 3927   0.661   4.110   2.835
 1307TIP3    H2 3928   0.594   4.014   2.931
 1308TIP3   OH2 3929   4.647   5.394   0.887
 1308TIP3    H1 3930   4.603   5.472   0.919
 1308TIP3    H2 3931   4.587   5.323   0.906
 1309TIP3   OH2 3932   1.497   2.852   3.690
 1309TIP3    H1 3933   1.568   2.881   3.632
 1309TIP3    H2 3934   1.528   2.770   3.726
 1310TIP3   OH2 3935   5.294   1.145   0.509
 1310TIP3    H1 3936   5.223   1.081   0.506
 1310TIP3    H2 3937   5.369   1.100   0.471
 1311TIP3   OH2 3938   5.711   0.226   1.938
 1311TIP3    H1 3939   5.798   0.221   1.897
 1311TIP3    H2 3940   5.685   0.318   1.928
 1312TIP3   OH2 3941   3.636   3.032   4.985
 1312TIP3    H1 3942   3.641   3.056   5.078
 1312TIP3    H2 3943   3.727   3.040   4.954
 1313TIP3   OH2 3944   6.100   0.926   0.471
 1313TIP3    H1 3945   6.139   0.839   0.475
 1313TIP3    H2 3946   6.165   0.979   0.425
 1314TIP3   OH2 3947   4.285   2.639   1.800
 1314TIP3    H1 3948   4.329   2.566   1.757
 1314TIP3    H2 3949   4.195   2.635   1.767
 1315TIP3   OH2 3950   6.194   2.815   2.518
 1315TIP3    H1 3951   6.242   2.894   2.545
 1315TIP3    H2 3952   6.189   2.762   2.597
 1316TIP3   OH2 3953   2.335   3.268   0.568
 1316TIP3    H1 3954   2.423   3.258   0.605
 1316TIP3    H2 3955   2.344   3.241   0.477
 1317TIP3   OH2 3956   5.530   2.297   2.004
 1317TIP3    H1 3957   5.506   2.307   1.912
 1317TIP3    H2 3958   5.454   2.257   2.045
 1318TIP3   OH2 3959   6.078   0.233   2.312
 1318TIP3    H1 3960   6.159   0.277   2.286
 1318TIP3    H2 3961   6.088   0.144   2.279
 1319TIP3   OH2 3962   6.065   2.934   3.277
 1319TIP3    H1 3963   6.087   2.896   3.192
 1319TIP3    H2 3964   5.969   2.926   3.283
 1320TIP3   OH2 3965   3.067   4.120   0.532
 1320TIP3    H1 3966   3.029   4.198   0.571
 1320TIP3    H2 3967   3.012   4.101   0.456
 1321TIP3   OH2 3968   0.177   2.667   1.418
 1321TIP3    H1 3969   0.193   2.584   1.372
 1321TIP3    H2 3970   0.210   2.651   1.507
 1322TIP3   OH2 3971   5.480   4.220   3.174
 1322TIP3    H1 3972   5.538   4.200   3.247
 1322TIP3    H2 3973   5.519   4.296   3.131
 1323TIP3   OH2 3974   3.877   3.121   2.432
 1323TIP3    H1 3975   3.863   3.035   2.471
 1323TIP3    H2 3976   3.804   3.132   2.372
 1324TIP3   OH2 3977   3.162   1.219   2.252
 1324TIP3    H1 3978   3.192   1.268   2.175
 1324TIP3    H2 3979   3.227   1.150   2.263
 1325TIP3   OH2 3980   1.177   1.998   4.117
 1325TIP3    H1 3981   1.164   1.939   4.191
 1325TIP3    H2 3982   1.227   2.071   4.153
 1326TIP3   OH2 3983   1.033   5.240   0.353
 1326TIP3    H1 3984   0.959   5.191   0.389
 1326TIP3    H2 3985   1.049   5.201   0.267
 1327TIP3   OH2 3986   1.753   5.764   0.208
 1327TIP3    H1 3987   1.760   5.854   0.239
 1327TIP3    H2 3988   1.821   5.717   0.257
 1328TIP3   OH2 3989   4.717   1.317   3.882
 1328TIP3    H1 3990   4.653   1.248   3.895
 1328TIP3    H2 3991   4.777   1.309   3.956
 1329TIP3   OH2 3992   0.292   0.787   3.599
 1329TIP3    H1 3993   0.348   0.834   3.537
 1329TIP3    H2 3994   0.234   0.855   3.634
 1330TIP3   OH2 3995   0.977   0.796   0.901
 1330TIP3    H1 3996   0.959   0.711   0.861
 1330TIP3    H2 3997   1.073   0.804   0.897
 1331TIP3   OH2 3998   1.830   3.677   1.894
 1331TIP3    H1 3999   1.754   3.728   1.868
 1331TIP3    H2 4000   1.843   3.615   1.822
 1332TIP3   OH2 4001   5.332   5.210   2.293
 1332TIP3    H1 4002   5.315   5.136   2.350
 1332TIP3    H2 4003   5.251   5.221   2.243
 1333TIP3   OH2 4004   0.166   0.370   3.396
 1333TIP3    H1 4005   0.163   0.302   3.463
 1333TIP3    H2 4006   0.255   0.406   3.401
 1334TIP3   OH2 4007   5.693   4.354   3.828
 1334TIP3    H1 4008   5.670   4.264   3.806
 1334TIP3    H2 4009   5.635   4.377   3.900
 1335TIP3   OH2 4010   1.155   4.270   0.464
 1335TIP3    H1 4011   1.199   4.254   0.381
 1335TIP3    H2 4012   1.183   4.358   0.489
 1336TIP3   OH2 4013   1.023   5.011   0.665
 1336TIP3    H1 4014   1.013   4.936   0.723
 1336TIP3    H2 4015   1.034   4.972   0.578
 1337TIP3   OH2 4016   1.314   0.465   0.594
 1337TIP3    H1 4017   1.231   0.438   0.554
 1337TIP3    H2 4018   1.315   0.419   0.678
 1338TIP3   OH2 4019   4.615   2.503   1.430
 1338TIP3    H1 4020   4.521   2.516   1.436
 1338TIP3    H2 4021   4.636   2.521   1.339
 1339TIP3   OH2 4022   0.001   5.773   5.165
 1339TIP3    H1 4023   0.088   5.792   5.197
 1339TIP3    H2 4024   0.010   5.688   5.121
 1340TIP3   OH2 4025   3.545   2.303   4.806
 1340TIP3    H1 4026   3.547   2.391   4.843
 1340TIP3    H2 4027   3.484   2.254   4.861
 1341TIP3   OH2 4028   3.679   1.838   0.241
 1341TIP3    H1 4029   3.661   1.826   0.334
 1341TIP3    H2 4030   3.772   1.861   0.238
 1342TIP3   OH2 4031   1.396   3.399   2.018
 1342TIP3    H1 4032   1.415   3.424   1.927
 1342TIP3    H2 4033   1.332   3.328   2.010
 1343TIP3   OH2 4034   1.390   0.204   4.558
 1343TIP3    H1 4035   1.448   0.274   4.587
 1343TIP3    H2 4036   1.450   0.130   4.541
 1344TIP3   OH2 4037   0.417   1.231   0.951
 1344TIP3    H1 4038   0.406   1.305   1.011
 1344TIP3    H2 4039   0.430   1.155   1.008
 1345TIP3   OH2 4040   6.168   0.259   1.608
 1345TIP3    H1 4041   6.258   0.286   1.592
 1345TIP3    H2 4042   6.166   0.166   1.585
 1346TIP3   OH2 4043   1.559   0.721   2.629
 1346TIP3    H1 4044   1.480   0.710   2.682
 1346TIP3    H2 4045   1.535   0.688   2.543
 1347TIP3   OH2 4046   5.693   4.747   1.325
 1347TIP3    H1 4047   5.733   4.763   1.239
 1347TIP3    H2 4048   5.738   4.808   1.384
 1348TIP3   OH2 4049   1.469   1.837   1.110
 1348TIP3    H1 4050   1.528   1.887   1.053
 1348TIP3    H2 4051   1.404   1.799   1.051
 1349TIP3   OH2 4052   0.271   4.956   0.424
 1349TIP3    H1 4053   0.208   5.008   0.473
 1349TIP3    H2 4054   0.356   4.978   0.462
 1350TIP3   OH2 4055   4.001   4.224   2.244
 1350TIP3    H1 4056   4.079   4.184   2.206
 1350TIP3    H2 4057   4.033   4.274   2.319
 1351TIP3   OH2 4058   0.539   0.357   2.222
 1351TIP3    H1 4059   0.519   0.406   2.142
 1351TIP3    H2 4060   0.627   0.323   2.208
 1352TIP3   OH2 4061   1.132   1.338   2.251
 1352TIP3    H1 4062   1.186   1.310   2.177
 1352TIP3    H2 4063   1.169   1.422   2.277
 1353TIP3   OH2 4064   1.792   4.841   1.785
 1353TIP3    H1 4065   1.870   4.842   1.840
 1353TIP3    H2 4066   1.738   4.771   1.822
 1354TIP3   OH2 4067   3.059   3.116   0.395
 1354TIP3    H1 4068   3.151   3.092   0.387
 1354TIP3    H2 4069   3.058   3.211   0.385
 1355TIP3   OH2 4070   5.948   5.179   3.470
 1355TIP3    H1 4071   5.937   5.089   3.438
 1355TIP3    H2 4072   5.862   5.202   3.507
 1356TIP3   OH2 4073   0.700   3.875   4.661
 1356TIP3    H1 4074   0.618   3.826   4.657
 1356TIP3    H2 4075   0.748   3.848   4.583
 1357TIP3   OH2 4076   4.420   2.497   2.013
 1357TIP3    H1 4077   4.473   2.571   2.045
 1357TIP3    H2 4078   4.378   2.530   1.934
 1358TIP3   OH2 4079   0.193   0.896   0.612
 1358TIP3    H1 4080   0.217   0.804   0.616
 1358TIP3    H2 4081   0.259   0.941   0.664
 1359TIP3   OH2 4082   1.288   3.868   0.105
 1359TIP3    H1 4083   1.353   3.925   0.063
 1359TIP3    H2 4084   1.206   3.887   0.059
 1360TIP3   OH2 4085   4.732   5.119   4.037
 1360TIP3    H1 4086   4.701   5.166   4.114
 1360TIP3    H2 4087   4.770   5.187   3.981
 1361TIP3   OH2 4088   4.187   0.345   1.197
 1361TIP3    H1 4089   4.092   0.356   1.193
 1361TIP3    H2 4090   4.222   0.429   1.167
 1362TIP3   OH2 4091   4.956   3.072   0.370
 1362TIP3    H1 4092   4.927   3.044   0.283
 1362TIP3    H2 4093   5.034   3.020   0.387
 1363TIP3   OH2 4094   2.451   1.184   0.146
 1363TIP3    H1 4095   2.510   1.250   0.110
 1363TIP3    H2 4096   2.502   1.102   0.141
 1364TIP3   OH2 4097   4.041   2.499   1.554
 1364TIP3    H1 4098   4.039   2.411   1.591
 1364TIP3    H2 4099   4.015   2.556   1.626
 1365TIP3   OH2 4100   3.827   2.014   4.778
 1365TIP3    H1 4101   3.902   1.961   4.804
 1365TIP3    H2 4102   3.856   2.060   4.699
 1366TIP3   OH2 4103   0.877   0.066   1.998
 1366TIP3    H1 4104   0.869   0.130   2.069
 1366TIP3    H2 4105   0.971   0.046   1.995
 1367TIP3   OH2 4106   0.099   4.157   2.651
 1367TIP3    H1 4107   0.046   4.095   2.702
 1367TIP3    H2 4108   0.180   4.166   2.701
 1368TIP3   OH2 4109   3.628   3.133   1.083
 1368TIP3    H1 4110   3.723   3.126   1.075
 1368TIP3    H2 4111   3.595   3.121   0.994
 1369TIP3   OH2 4112   0.777   3.017   2.511
 1369TIP3    H1 4113   0.837   3.062   2.452
 1369TIP3    H2 4114   0.697   3.070   2.509
 1370TIP3   OH2 4115   4.631   2.685   2.041
 1370TIP3    H1 4116   4.684   2.651   2.113
 1370TIP3    H2 4117   4.658   2.777   2.033
 1371TIP3   OH2 4118   0.039   3.535   4.261
 1371TIP3    H1 4119   0.089   3.475   4.317
 1371TIP3    H2 4120   0.104   3.596   4.227
 1372TIP3   OH2 4121   4.847   1.394   3.666
 1372TIP3    H1 4122   4.790   1.361   3.735
 1372TIP3    H2 4123   4.821   1.486   3.654
 1373TIP3   OH2 4124   4.339   3.795   1.256
 1373TIP3    H1 4125   4.408   3.862   1.259
 1373TIP3    H2 4126   4.257   3.844   1.257
 1374TIP3   OH2 4127   4.741   3.338   4.993
 1374TIP3    H1 4128   4.692   3.386   5.060
 1374TIP3    H2 4129   4.771   3.405   4.932
 1375TIP3   OH2 4130   1.217   3.550   3.416
 1375TIP3    H1 4131   1.237   3.470   3.465
 1375TIP3    H2 4132   1.250   3.534   3.328
 1376TIP3   OH2 4133   4.517   4.565   3.439
 1376TIP3    H1 4134   4.474   4.578   3.355
 1376TIP3    H2 4135   4.495   4.643   3.490
 1377TIP3   OH2 4136   0.780   5.629   0.981
 1377TIP3    H1 4137   0.821   5.715   0.980
 1377TIP3    H2 4138   0.849   5.570   1.010
 1378TIP3   OH2 4139   4.099   3.560   4.617
 1378TIP3    H1 4140   4.066   3.515   4.695
 1378TIP3    H2 4141   4.162   3.500   4.579
 1379TIP3   OH2 4142   4.935   3.505   4.846
 1379TIP3    H1 4143   4.968   3.427   4.801
 1379TIP3    H2 4144   4.951   3.577   4.784
 1380TIP3   OH2 4145   0.339   4.854   2.284
 1380TIP3    H1 4146   0.401   4.793   2.245
 1380TIP3    H2 4147   0.329   4.924   2.220
 1381TIP3   OH2 4148   4.358   2.159   4.734
 1381TIP3    H1 4149   4.312   2.229   4.688
 1381TIP3    H2 4150   4.392   2.103   4.665
 1382TIP3   OH2 4151   3.348   2.856   2.394
 1382TIP3    H1 4152   3.333   2.762   2.397
 1382TIP3    H2 4153   3.314   2.884   2.309
 1383TIP3   OH2 4154   1.081   4.907   1.060
 1383TIP3    H1 4155   1.080   4.870   0.972
 1383TIP3    H2 4156   1.170   4.889   1.092
 1384TIP3   OH2 4157   4.846   0.339   4.028
 1384TIP3    H1 4158   4.923   0.381   3.990
 1384TIP3    H2 4159   4.816   0.277   3.961
 1385TIP3   OH2 4160   0.097   5.116   1.603
 1385TIP3    H1 4161   0.015   5.100   1.650
 1385TIP3    H2 4162   0.119   5.207   1.624
 1386TIP3   OH2 4163   4.341   3.366   3.709
 1386TIP3    H1 4164   4.255   3.349   3.670
 1386TIP3    H2 4165   4.396   3.392   3.635
 1387TIP3   OH2 4166   0.800   2.081   4.124
 1387TIP3    H1 4167   0.734   2.026   4.081
 1387TIP3    H2 4168   0.866   2.096   4.057
 1388TIP3   OH2 4169   5.804   5.346   4.782
 1388TIP3    H1 4170   5.871   5.288   4.746
 1388TIP3    H2 4171   5.853   5.423   4.812
 1389TIP3   OH2 4172   3.359   5.450   2.042
 1389TIP3    H1 4173   3.286   5.453   2.103
 1389TIP3    H2 4174   3.322   5.412   1.962
 1390TIP3   OH2 4175   4.110   0.152   0.613
 1390TIP3    H1 4176   4.087   0.190   0.698
 1390TIP3    H2 4177   4.058   0.072   0.607
 1391TIP3   OH2 4178   0.871   2.993   1.906
 1391TIP3    H1 4179   0.899   3.048   1.833
 1391TIP3    H2 4180   0.832   2.916   1.865
 1392TIP3   OH2 4181   4.388   5.563   3.208
 1392TIP3    H1 4182   4.457   5.618   3.171
 1392TIP3    H2 4183   4.310   5.619   3.207
 1393TIP3   OH2 4184   5.557   0.189   4.551
 1393TIP3    H1 4185   5.515   0.275   4.545
 1393TIP3    H2 4186   5.527   0.153   4.635
 1394TIP3   OH2 4187   3.197   5.722   3.934
 1394TIP3    H1 4188   3.109   5.736   3.899
 1394TIP3    H2 4189   3.217   5.631   3.912
 1395TIP3   OH2 4190   3.220   2.060   4.441
 1395TIP3    H1 4191   3.195   2.029   4.354
 1395TIP3    H2 4192   3.141   2.101   4.476
 1396TIP3   OH2 4193   1.934   4.258   2.793
 1396TIP3    H1 4194   1.931   4.238   2.699
 1396TIP3    H2 4195   1.985   4.339   2.798
 1397TIP3   OH2 4196   0.556   5.054   4.686
 1397TIP3    H1 4197   0.491   5.095   4.743
 1397TIP3    H2 4198   0.505   5.022   4.612
 1398TIP3   OH2 4199   5.040   4.907   4.747
 1398TIP3    H1 4200   4.961   4.959   4.761
 1398TIP3    H2 4201   5.008   4.826   4.708
 1399TIP3   OH2 4202   5.914   2.525   1.717
 1399TIP3    H1 4203   5.888   2.613   1.692
 1399TIP3    H2 4204   5.973   2.538   1.792
 1400TIP3   OH2 4205   5.339   2.425   4.286
 1400TIP3    H1 4206   5.251   2.388   4.286
 1400TIP3    H2 4207   5.327   2.516   4.261
 1401TIP3   OH2 4208   5.493   1.315   1.187
 1401TIP3    H1 4209   5.526   1.404   1.174
 1401TIP3    H2 4210   5.463   1.314   1.277
 1402TIP3   OH2 4211   4.889   3.449   2.451
 1402TIP3    H1 4212   4.829   3.381   2.421
 1402TIP3    H2 4213   4.882   3.518   2.384
 1403TIP3   OH2 4214   5.089   1.317   2.716
 1403TIP3    H1 4215   5.125   1.371   2.645
 1403TIP3    H2 4216   4.999   1.347   2.726
 1404TIP3   OH2 4217   0.809   3.400   3.895
 1404TIP3    H1 4218   0.741   3.458   3.931
 1404TIP3    H2 4219   0.798   3.407   3.800
 1405TIP3   OH2 4220   2.671   4.182   0.510
 1405TIP3    H1 4221   2.634   4.224   0.588
 1405TIP3    H2 4222   2.712   4.253   0.461
 1406TIP3   OH2 4223   2.448   2.126   4.850
 1406TIP3    H1 4224   2.498   2.075   4.786
 1406TIP3    H2 4225   2.377   2.166   4.800
 1407TIP3   OH2 4226   6.243   5.645   4.282
 1407TIP3    H1 4227   6.171   5.582   4.277
 1407TIP3    H2 4228   6.205   5.727   4.250
 1408TIP3   OH2 4229   2.627   0.854   0.660
 1408TIP3    H1 4230   2.686   0.831   0.588
 1408TIP3    H2 4231   2.549   0.800   0.645
 1409TIP3   OH2 4232   4.577   0.442   0.914
 1409TIP3    H1 4233   4.505   0.503   0.932
 1409TIP3    H2 4234   4.545   0.390   0.840
 1410TIP3   OH2 4235   4.574   2.156   4.558
 1410TIP3    H1 4236   4.651   2.175   4.505
 1410TIP3    H2 4237   4.582   2.214   4.634
 1411TIP3   OH2 4238   1.328   1.158   0.896
 1411TIP3    H1 4239   1.386   1.105   0.842
 1411TIP3    H2 4240   1.347   1.131   0.986
 1412TIP3   OH2 4241   1.422   1.622   3.196
 1412TIP3    H1 4242   1.361   1.603   3.125
 1412TIP3    H2 4243   1.377   1.591   3.275
 1413TIP3   OH2 4244   1.482   0.742   3.329
 1413TIP3    H1 4245   1.522   0.695   3.402
 1413TIP3    H2 4246   1.396   0.701   3.318
 1414TIP3   OH2 4247   0.257   0.354   3.988
 1414TIP3    H1 4248   0.239   0.346   3.894
 1414TIP3    H2 4249   0.330   0.294   4.003
 1415TIP3   OH2 4250   1.971   3.862   0.979
 1415TIP3    H1 4251   1.904   3.854   1.047
 1415TIP3    H2 4252   2.013   3.776   0.976
 1416TIP3   OH2 4253   0.400   0.985   4.011
 1416TIP3    H1 4254   0.328   1.027   4.060
 1416TIP3    H2 4255   0.380   0.892   4.015
 1417TIP3   OH2 4256   5.641   5.749   1.905
 1417TIP3    H1 4257   5.680   5.828   1.943
 1417TIP3    H2 4258   5.576   5.721   1.969
 1418TIP3   OH2 4259   4.027   0.791   0.051
 1418TIP3    H1 4260   4.039   0.874   0.097
 1418TIP3    H2 4261   4.066   0.726   0.110
 1419TIP3   OH2 4262   3.984   0.511   1.913
 1419TIP3    H1 4263   4.075   0.502   1.884
 1419TIP3    H2 4264   3.981   0.597   1.957
 1420TIP3   OH2 4265   2.885   5.029   2.465
 1420TIP3    H1 4266   2.911   5.095   2.529
 1420TIP3    H2 4267   2.907   5.067   2.381
 1421TIP3   OH2 4268   0.784   3.803   2.528
 1421TIP3    H1 4269   0.824   3.721   2.557
 1421TIP3    H2 4270   0.726   3.778   2.456
 1422TIP3   OH2 4271   1.355   1.574   2.706
 1422TIP3    H1 4272   1.395   1.546   2.623
 1422TIP3    H2 4273   1.326   1.664   2.689
 1423TIP3   OH2 4274   0.858   5.764   4.258
 1423TIP3    H1 4275   0.872   5.783   4.165
 1423TIP3    H2 4276   0.826   5.674   4.259
 1424TIP3   OH2 4277   5.895   1.746   4.244
 1424TIP3    H1 4278   5.969   1.807   4.236
 1424TIP3    H2 4279   5.821   1.803   4.265
 1425TIP3   OH2 4280   1.856   5.725   3.272
 1425TIP3    H1 4281   1.865   5.820   3.280
 1425TIP3    H2 4282   1.768   5.712   3.236
 1426TIP3   OH2 4283   2.786   2.605   1.997
 1426TIP3    H1 4284   2.709   2.654   1.969
 1426TIP3    H2 4285   2.852   2.623   1.929
 1427TIP3   OH2 4286   4.100   2.233   1.654
 1427TIP3    H1 4287   4.175   2.250   1.711
 1427TIP3    H2 4288   4.097   2.138   1.646
 1428TIP3   OH2 4289   0.610   0.199   4.602
 1428TIP3    H1 4290   0.521   0.172   4.624
 1428TIP3    H2 4291   0.598   0.269   4.537
 1429TIP3   OH2 4292   0.572   5.961   3.579
 1429TIP3    H1 4293   0.588   6.026   3.511
 1429TIP3    H2 4294   0.624   5.885   3.552
 1430TIP3   OH2 4295   5.819   1.410   2.438
 1430TIP3    H1 4296   5.817   1.336   2.377
 1430TIP3    H2 4297   5.736   1.455   2.425
 1431TIP3   OH2 4298   3.149   2.585   0.372
 1431TIP3    H1 4299   3.108   2.524   0.310
 1431TIP3    H2 4300   3.112   2.670   0.350
 1432TIP3   OH2 4301   2.651   3.612   0.046
 1432TIP3    H1 4302   2.569   3.599   0.094
 1432TIP3    H2 4303   2.625   3.614  -0.046
 1433TIP3   OH2 4304   3.422   3.873   1.677
 1433TIP3    H1 4305   3.464   3.821   1.745
 1433TIP3    H2 4306   3.424   3.817   1.599
 1434TIP3   OH2 4307   4.078   3.667   2.433
 1434TIP3    H1 4308   4.087   3.638   2.524
 1434TIP3    H2 4309   3.998   3.625   2.403
 1435TIP3   OH2 4310   1.998   4.925   2.419
 1435TIP3    H1 4311   1.959   4.963   2.497
 1435TIP3    H2 4312   2.086   4.899   2.445
 1436TIP3   OH2 4313   0.833   5.081   4.681
 1436TIP3    H1 4314   0.827   5.069   4.776
 1436TIP3    H2 4315   0.744   5.100   4.653
 1437TIP3   OH2 4316   4.229   4.297   4.690
 1437TIP3    H1 4317   4.312   4.334   4.659
 1437TIP3    H2 4318   4.251   4.209   4.719
 1438TIP3   OH2 4319   5.407   4.924   1.799
 1438TIP3    H1 4320   5.390   5.018   1.805
 1438TIP3    H2 4321   5.500   4.915   1.819
 1439TIP3   OH2 4322   4.361   4.701   4.084
 1439TIP3    H1 4323   4.410   4.620   4.100
 1439TIP3    H2 4324   4.427   4.762   4.051
 1440TIP3   OH2 4325   1.264   1.396   3.405
 1440TIP3    H1 4326   1.252   1.414   3.498
 1440TIP3    H2 4327   1.359   1.401   3.392
 1441TIP3   OH2 4328   1.086   1.326   0.235
 1441TIP3    H1 4329   1.162   1.289   0.281
 1441TIP3    H2 4330   1.060   1.258   0.173
 1442TIP3   OH2 4331   4.702   0.273   3.711
 1442TIP3    H1 4332   4.615   0.280   3.749
 1442TIP3    H2 4333   4.723   0.363   3.684
 1443TIP3   OH2 4334   1.690   0.543   1.511
 1443TIP3    H1 4335   1.764   0.550   1.449
 1443TIP3    H2 4336   1.673   0.449   1.517
 1444TIP3   OH2 4337   2.739   4.104   3.860
 1444TIP3    H1 4338   2.728   4.009   3.865
 1444TIP3    H2 4339   2.832   4.115   3.840
 1445TIP3   OH2 4340   4.065   4.848   0.200
 1445TIP3    H1 4341   4.032   4.933   0.171
 1445TIP3    H2 4342   4.107   4.867   0.284
 1446TIP3   OH2 4343   4.320   0.029   3.265
 1446TIP3    H1 4344   4.379  -0.030   3.311
 1446TIP3    H2 4345   4.265   0.067   3.334
 1447TIP3   OH2 4346   0.200   4.038   0.345
 1447TIP3    H1 4347   0.252   4.035   0.265
 1447TIP3    H2 4348   0.146   3.959   0.341
 1448TIP3   OH2 4349   0.624  -0.011   3.955
 1448TIP3    H1 4350   0.702   0.043   3.940
 1448TIP3    H2 4351   0.648  -0.068   4.029
 1449TIP3   OH2 4352   3.728   1.124   2.334
 1449TIP3    H1 4353   3.700   1.116   2.425
 1449TIP3    H2 4354   3.653   1.095   2.282
 1450TIP3   OH2 4355   3.599   5.502   2.638
 1450TIP3    H1 4356   3.520   5.479   2.589
 1450TIP3    H2 4357   3.669   5.499   2.574
 1451TIP3   OH2 4358   0.773   1.929   2.335
 1451TIP3    H1 4359   0.824   1.862   2.380
 1451TIP3    H2 4360   0.773   1.902   2.244
 1452TIP3   OH2 4361   2.727   1.120   4.769
 1452TIP3    H1 4362   2.726   1.200   4.821
 1452TIP3    H2 4363   2.644   1.121   4.721
 1453TIP3   OH2 4364   4.117   2.305   3.838
 1453TIP3    H1 4365   4.134   2.367   3.767
 1453TIP3    H2 4366   4.058   2.240   3.800
 1454TIP3   OH2 4367   0.583   1.808   2.061
 1454TIP3    H1 4368   0.623   1.891   2.039
 1454TIP3    H2 4369   0.634   1.742   2.013
 1455TIP3   OH2 4370   1.595   2.325   3.923
 1455TIP3    H1 4371   1.640   2.284   3.849
 1455TIP3    H2 4372   1.576   2.414   3.893
 1456TIP3   OH2 4373   0.762   5.265   2.437
 1456TIP3    H1 4374   0.780   5.175   2.466
 1456TIP3    H2 4375   0.721   5.307   2.512
 1457TIP3   OH2 4376   5.556   5.243   4.772
 1457TIP3    H1 4377   5.643   5.276   4.796
 1457TIP3    H2 4378   5.559   5.236   4.677
 1458TIP3   OH2 4379   2.760   0.728   5.002
 1458TIP3    H1 4380   2.691   0.731   5.068
 1458TIP3    H2 4381   2.757   0.639   4.967
 1459TIP3   OH2 4382   5.325   4.684   4.807
 1459TIP3    H1 4383   5.380   4.645   4.876
 1459TIP3    H2 4384   5.360   4.647   4.726
 1460TIP3   OH2 4385   0.923   0.228   4.304
 1460TIP3    H1 4386   1.006   0.264   4.273
 1460TIP3    H2 4387   0.893   0.289   4.371
 1461TIP3   OH2 4388   5.151   2.006   4.845
 1461TIP3    H1 4389   5.218   1.947   4.881
 1461TIP3    H2 4390   5.128   1.968   4.761
 1462TIP3   OH2 4391   3.170   4.520   2.613
 1462TIP3    H1 4392   3.261   4.502   2.591
 1462TIP3    H2 4393   3.123   4.510   2.530
 1463TIP3   OH2 4394   0.339   3.432   2.384
 1463TIP3    H1 4395   0.283   3.361   2.415
 1463TIP3    H2 4396   0.316   3.507   2.440
 1464TIP3   OH2 4397   4.647   4.470   2.084
 1464TIP3    H1 4398   4.683   4.448   2.170
 1464TIP3    H2 4399   4.571   4.413   2.074
 1465TIP3   OH2 4400   4.016   5.704   1.348
 1465TIP3    H1 4401   3.923   5.713   1.371
 1465TIP3    H2 4402   4.039   5.788   1.308
 1466TIP3   OH2 4403   3.667   3.063   3.997
 1466TIP3    H1 4404   3.594   3.008   3.966
 1466TIP3    H2 4405   3.746   3.014   3.972
 1467TIP3   OH2 4406   3.944   2.475   3.374
 1467TIP3    H1 4407   3.928   2.568   3.355
 1467TIP3    H2 4408   3.857   2.436   3.371
 1468TIP3   OH2 4409   0.890   4.770   3.860
 1468TIP3    H1 4410   0.911   4.693   3.808
 1468TIP3    H2 4411   0.842   4.827   3.800
 1469TIP3   OH2 4412   1.072   4.703   2.102
 1469TIP3    H1 4413   1.166   4.720   2.105
 1469TIP3    H2 4414   1.033   4.773   2.153
 1470TIP3   OH2 4415   2.204   2.617   4.699
 1470TIP3    H1 4416   2.250   2.675   4.760
 1470TIP3    H2 4417   2.239   2.639   4.613
 1471TIP3   OH2 4418   5.157   0.114   1.170
 1471TIP3    H1 4419   5.238   0.072   1.141
 1471TIP3    H2 4420   5.186   0.191   1.219
 1472TIP3   OH2 4421   4.349   4.556   0.115
 1472TIP3    H1 4422   4.360   4.512   0.030
 1472TIP3    H2 4423   4.341   4.649   0.092
 1473TIP3   OH2 4424   3.272   1.976   0.937
 1473TIP3    H1 4425   3.227   2.055   0.965
 1473TIP3    H2 4426   3.344   2.007   0.882
 1474TIP3   OH2 4427   0.990   1.127   2.372
 1474TIP3    H1 4428   1.018   1.203   2.320
 1474TIP3    H2 4429   0.965   1.062   2.306
 1475TIP3   OH2 4430   3.123   0.139   2.270
 1475TIP3    H1 4431   3.051   0.083   2.297
 1475TIP3    H2 4432   3.201   0.085   2.280
 1476TIP3   OH2 4433   0.942   3.243   0.045
 1476TIP3    H1 4434   0.938   3.334   0.075
 1476TIP3    H2 4435   1.031   3.233   0.010
 1477TIP3   OH2 4436   2.853   1.449   2.057
 1477TIP3    H1 4437   2.825   1.540   2.047
 1477TIP3    H2 4438   2.878   1.442   2.149
 1478TIP3   OH2 4439   3.619   1.607   2.918
 1478TIP3    H1 4440   3.690   1.666   2.943
 1478TIP3    H2 4441   3.543   1.664   2.909
 1479TIP3   OH2 4442   5.940   1.460   3.405
 1479TIP3    H1 4443   5.903   1.453   3.493
 1479TIP3    H2 4444   5.898   1.389   3.355
 1480TIP3   OH2 4445   2.043   1.186   3.634
 1480TIP3    H1 4446   2.081   1.258   3.684
 1480TIP3    H2 4447   2.097   1.181   3.555
 1481TIP3   OH2 4448   2.461   5.588   2.748
 1481TIP3    H1 4449   2.547   5.572   2.785
 1481TIP3    H2 4450   2.442   5.679   2.767
 1482TIP3   OH2 4451   1.126   1.742   3.820
 1482TIP3    H1 4452   1.061   1.803   3.786
 1482TIP3    H2 4453   1.110   1.740   3.915
 1483TIP3   OH2 4454   3.851   2.738   5.156
 1483TIP3    H1 4455   3.892   2.697   5.232
 1483TIP3    H2 4456   3.924   2.767   5.102
 1484TIP3   OH2 4457   4.706   1.253   4.612
 1484TIP3    H1 4458   4.689   1.347   4.606
 1484TIP3    H2 4459   4.684   1.219   4.525
 1485TIP3   OH2 4460   0.540   0.123   0.974
 1485TIP3    H1 4461   0.536   0.044   1.028
 1485TIP3    H2 4462   0.487   0.102   0.898
 1486TIP3   OH2 4463   4.060   2.505   3.625
 1486TIP3    H1 4464   4.049   2.452   3.546
 1486TIP3    H2 4465   3.981   2.558   3.630
 1487TIP3   OH2 4466   5.371   2.653   0.912
 1487TIP3    H1 4467   5.295   2.603   0.884
 1487TIP3    H2 4468   5.414   2.681   0.831
 1488TIP3   OH2 4469   3.704   4.525   2.346
 1488TIP3    H1 4470   3.742   4.554   2.429
 1488TIP3    H2 4471   3.612   4.547   2.353
 1489TIP3   OH2 4472   2.093   1.743   1.669
 1489TIP3    H1 4473   2.130   1.656   1.685
 1489TIP3    H2 4474   2.167   1.803   1.678
 1490TIP3   OH2 4475   4.376   2.663   0.578
 1490TIP3    H1 4476   4.294   2.690   0.538
 1490TIP3    H2 4477   4.443   2.715   0.534
 1491TIP3   OH2 4478   4.635   4.217   3.975
 1491TIP3    H1 4479   4.663   4.196   3.886
 1491TIP3    H2 4480   4.546   4.251   3.965
 1492TIP3   OH2 4481   2.132   2.088   0.219
 1492TIP3    H1 4482   2.158   2.025   0.286
 1492TIP3    H2 4483   2.073   2.039   0.161
 1493TIP3   OH2 4484   0.977   3.647   2.651
 1493TIP3    H1 4485   1.065   3.685   2.642
 1493TIP3    H2 4486   0.964   3.641   2.746
 1494TIP3   OH2 4487   0.342   2.165   3.350
 1494TIP3    H1 4488   0.342   2.147   3.256
 1494TIP3    H2 4489   0.303   2.252   3.359
 1495TIP3   OH2 4490   1.938   0.104   1.063
 1495TIP3    H1 4491   1.924   0.043   0.991
 1495TIP3    H2 4492   2.033   0.116   1.068
 1496TIP3   OH2 4493   2.117   4.425   0.461
 1496TIP3    H1 4494   2.199   4.472   0.449
 1496TIP3    H2 4495   2.083   4.458   0.544
 1497TIP3   OH2 4496   5.983   3.898   4.871
 1497TIP3    H1 4497   5.941   3.880   4.955
 1497TIP3    H2 4498   6.010   3.812   4.838
 1498TIP3   OH2 4499   5.843   0.992   0.635
 1498TIP3    H1 4500   5.931   0.992   0.595
 1498TIP3    H2 4501   5.855   0.947   0.718
 1499TIP3   OH2 4502   4.589   3.101   3.666
 1499TIP3    H1 4503   4.532   3.077   3.739
 1499TIP3    H2 4504   4.678   3.084   3.698
 1500TIP3   OH2 4505   4.252   4.951   0.783
 1500TIP3    H1 4506   4.268   4.929   0.691
 1500TIP3    H2 4507   4.290   4.877   0.831
 1501TIP3   OH2 4508   6.131   1.560   1.019
 1501TIP3    H1 4509   6.062   1.512   1.065
 1501TIP3    H2 4510   6.144   1.510   0.938
 1502TIP3   OH2 4511   5.130   5.724   2.109
 1502TIP3    H1 4512   5.041   5.759   2.120
 1502TIP3    H2 4513   5.134   5.700   2.016
 1503TIP3   OH2 4514   3.826   3.983   3.823
 1503TIP3    H1 4515   3.904   3.958   3.774
 1503TIP3    H2 4516   3.794   3.901   3.860
 1504TIP3   OH2 4517   2.017   1.470   3.121
 1504TIP3    H1 4518   1.937   1.426   3.094
 1504TIP3    H2 4519   2.071   1.472   3.042
 1505TIP3   OH2 4520   5.161   1.333   4.400
 1505TIP3    H1 4521   5.165   1.427   4.382
 1505TIP3    H2 4522   5.165   1.292   4.314
 1506TIP3   OH2 4523   5.514   1.355   4.041
 1506TIP3    H1 4524   5.483   1.445   4.055
 1506TIP3    H2 4525   5.465   1.302   4.103
 1507TIP3   OH2 4526   3.826   4.613   4.671
 1507TIP3    H1 4527   3.742   4.592   4.632
 1507TIP3    H2 4528   3.872   4.528   4.676
 1508TIP3   OH2 4529   4.764   3.495   3.132
 1508TIP3    H1 4530   4.839   3.506   3.190
 1508TIP3    H2 4531   4.703   3.564   3.156
 1509TIP3   OH2 4532   6.100   5.330   4.028
 1509TIP3    H1 4533   6.178   5.374   3.992
 1509TIP3    H2 4534   6.063   5.283   3.954
 1510TIP3   OH2 4535   6.271   2.775   0.524
 1510TIP3    H1 4536   6.249   2.683   0.541
 1510TIP3    H2 4537   6.349   2.791   0.577
 1511TIP3   OH2 4538   4.950   3.355   4.012
 1511TIP3    H1 4539   4.930   3.408   3.935
 1511TIP3    H2 4540   4.883   3.287   4.014
 1512TIP3   OH2 4541   0.424   5.066   0.208
 1512TIP3    H1 4542   0.357   5.092   0.144
 1512TIP3    H2 4543   0.376   5.058   0.290
 1513TIP3   OH2 4544   1.480   3.860   1.957
 1513TIP3    H1 4545   1.389   3.867   1.929
 1513TIP3    H2 4546   1.490   3.770   1.987
 1514TIP3   OH2 4547   0.700   5.818   3.794
 1514TIP3    H1 4548   0.774   5.873   3.767
 1514TIP3    H2 4549   0.623   5.860   3.755
 1515TIP3   OH2 4550   0.215   3.080   3.123
 1515TIP3    H1 4551   0.254   3.052   3.206
 1515TIP3    H2 4552   0.160   3.007   3.097
 1516TIP3   OH2 4553   5.966   5.769   3.030
 1516TIP3    H1 4554   5.873   5.774   3.053
 1516TIP3    H2 4555   5.970   5.799   2.940
 1517TIP3   OH2 4556   1.039   5.114   4.502
 1517TIP3    H1 4557   1.109   5.065   4.545
 1517TIP3    H2 4558   0.974   5.128   4.572
 1518TIP3   OH2 4559   4.144   4.711   1.486
 1518TIP3    H1 4560   4.063   4.740   1.529
 1518TIP3    H2 4561   4.211   4.769   1.521
 1519TIP3   OH2 4562   1.410   4.958   2.967
 1519TIP3    H1 4563   1.442   4.939   2.878
 1519TIP3    H2 4564   1.370   4.876   2.995
 1520TIP3   OH2 4565   0.077   0.190   0.130
 1520TIP3    H1 4566   0.043   0.106   0.101
 1520TIP3    H2 4567   0.006   0.252   0.112
 1521TIP3   OH2 4568   2.611   2.889   0.114
 1521TIP3    H1 4569   2.619   2.860   0.205
 1521TIP3    H2 4570   2.669   2.964   0.107
 1522TIP3   OH2 4571   6.070   4.628   1.035
 1522TIP3    H1 4572   6.150   4.579   1.053
 1522TIP3    H2 4573   6.006   4.562   1.012
 1523TIP3   OH2 4574   5.803   1.190   3.545
 1523TIP3    H1 4575   5.735   1.195   3.478
 1523TIP3    H2 4576   5.787   1.266   3.602
 1524TIP3   OH2 4577   4.490   3.462   2.813
 1524TIP3    H1 4578   4.493   3.471   2.718
 1524TIP3    H2 4579   4.531   3.542   2.847
 1525TIP3   OH2 4580   3.757   0.325   1.531
 1525TIP3    H1 4581   3.773   0.404   1.479
 1525TIP3    H2 4582   3.826   0.325   1.597
 1526TIP3   OH2 4583   5.822   2.326   1.911
 1526TIP3    H1 4584   5.836   2.420   1.901
 1526TIP3    H2 4585   5.735   2.318   1.951
 1527TIP3   OH2 4586   3.430   0.634   1.708
 1527TIP3    H1 4587   3.376   0.661   1.634
 1527TIP3    H2 4588   3.482   0.561   1.673
 1528TIP3   OH2 4589   1.613   2.540   4.977
 1528TIP3    H1 4590   1.638   2.528   4.885
 1528TIP3    H2 4591   1.565   2.461   5.000
 1529TIP3   OH2 4592   0.611   3.562   3.476
 1529TIP3    H1 4593   0.542   3.570   3.541
 1529TIP3    H2 4594   0.616   3.649   3.436
 1530TIP3   OH2 4595   5.196   4.427   3.182
 1530TIP3    H1 4596   5.140   4.438   3.259
 1530TIP3    H2 4597   5.217   4.517   3.155
 1531TIP3   OH2 4598   5.394   2.183   4.753
 1531TIP3    H1 4599   5.342   2.262   4.765
 1531TIP3    H2 4600   5.362   2.146   4.671
 1532TIP3   OH2 4601   5.963   1.665   5.024
 1532TIP3    H1 4602   5.973   1.754   4.991
 1532TIP3    H2 4603   6.049   1.625   5.011
 1533TIP3   OH2 4604   3.270   5.695   2.309
 1533TIP3    H1 4605   3.240   5.670   2.397
 1533TIP3    H2 4606   3.365   5.684   2.312
 1534TIP3   OH2 4607   1.235   0.742   3.822
 1534TIP3    H1 4608   1.232   0.817   3.763
 1534TIP3    H2 4609   1.281   0.674   3.773
 1535TIP3   OH2 4610   2.318   5.705   5.193
 1535TIP3    H1 4611   2.365   5.624   5.215
 1535TIP3    H2 4612   2.246   5.676   5.137
 1536TIP3   OH2 4613   5.284   4.827   2.597
 1536TIP3    H1 4614   5.215   4.764   2.581
 1536TIP3    H2 4615   5.339   4.787   2.664
 1537TIP3   OH2 4616   1.427   3.521   4.061
 1537TIP3    H1 4617   1.477   3.503   4.141
 1537TIP3    H2 4618   1.468   3.599   4.025
 1538TIP3   OH2 4619   3.350   5.516   4.436
 1538TIP3    H1 4620   3.363   5.554   4.349
 1538TIP3    H2 4621   3.369   5.588   4.496
 1539TIP3   OH2 4622   4.464   0.506   4.589
 1539TIP3    H1 4623   4.478   0.551   4.672
 1539TIP3    H2 4624   4.505   0.420   4.602
 1540TIP3   OH2 4625   0.838   5.943   3.045
 1540TIP3    H1 4626   0.822   5.904   3.131
 1540TIP3    H2 4627   0.837   5.870   2.984
 1541TIP3   OH2 4628   1.511   5.396   1.623
 1541TIP3    H1 4629   1.516   5.404   1.528
 1541TIP3    H2 4630   1.532   5.304   1.641
 1542TIP3   OH2 4631   5.805   5.492   1.145
 1542TIP3    H1 4632   5.781   5.532   1.228
 1542TIP3    H2 4633   5.851   5.411   1.169
 1543TIP3   OH2 4634   6.062   5.900   1.258
 1543TIP3    H1 4635   6.142   5.852   1.278
 1543TIP3    H2 4636   6.085   5.954   1.182
 1544TIP3   OH2 4637   0.433   2.798   2.814
 1544TIP3    H1 4638   0.502   2.780   2.750
 1544TIP3    H2 4639   0.419   2.892   2.808
 1545TIP3   OH2 4640   3.635   4.213   4.505
 1545TIP3    H1 4641   3.725   4.192   4.482
 1545TIP3    H2 4642   3.587   4.206   4.423
 1546TIP3   OH2 4643   2.724   1.581   5.067
 1546TIP3    H1 4644   2.807   1.629   5.079
 1546TIP3    H2 4645   2.656   1.646   5.084
 1547TIP3   OH2 4646   5.922   2.564   2.177
 1547TIP3    H1 4647   5.838   2.517   2.177
 1547TIP3    H2 4648   5.948   2.566   2.269
 1548TIP3   OH2 4649   1.278   3.025   3.164
 1548TIP3    H1 4650   1.345   2.958   3.151
 1548TIP3    H2 4651   1.302   3.068   3.246
 1549TIP3   OH2 4652   4.326   1.664   3.843
 1549TIP3    H1 4653   4.267   1.738   3.827
 1549TIP3    H2 4654   4.338   1.624   3.757
 1550TIP3   OH2 4655   0.749   4.640   0.043
 1550TIP3    H1 4656   0.761   4.727   0.082
 1550TIP3    H2 4657   0.813   4.637  -0.028
 1551TIP3   OH2 4658   1.503   5.356   2.497
 1551TIP3    H1 4659   1.434   5.290   2.489
 1551TIP3    H2 4660   1.526   5.356   2.590
 1552TIP3   OH2 4661   2.495   3.113   3.150
 1552TIP3    H1 4662   2.478   3.032   3.102
 1552TIP3    H2 4663   2.436   3.177   3.111
 1553TIP3   OH2 4664   4.535   0.760   3.530
 1553TIP3    H1 4665   4.578   0.826   3.475
 1553TIP3    H2 4666   4.477   0.811   3.587
 1554TIP3   OH2 4667   2.812   1.025   2.624
 1554TIP3    H1 4668   2.722   1.039   2.595
 1554TIP3    H2 4669   2.865   1.035   2.545
 1555TIP3   OH2 4670   2.415   1.891   2.893
 1555TIP3    H1 4671   2.413   1.960   2.958
 1555TIP3    H2 4672   2.345   1.831   2.919
 1556TIP3   OH2 4673   4.076   5.088   5.038
 1556TIP3    H1 4674   3.981   5.097   5.030
 1556TIP3    H2 4675   4.087   5.017   5.101
 1557TIP3   OH2 4676   0.200   5.268   3.464
 1557TIP3    H1 4677   0.288   5.242   3.435
 1557TIP3    H2 4678   0.157   5.302   3.386
 1558TIP3   OH2 4679   2.743   0.167   3.391
 1558TIP3    H1 4680   2.721   0.119   3.311
 1558TIP3    H2 4681   2.835   0.192   3.380
 1559TIP3   OH2 4682   5.783   5.152   2.485
 1559TIP3    H1 4683   5.757   5.060   2.484
 1559TIP3    H2 4684   5.787   5.175   2.578
 1560TIP3   OH2 4685   4.264   0.787   3.086
 1560TIP3    H1 4686   4.283   0.879   3.106
 1560TIP3    H2 4687   4.317   0.737   3.148
 1561TIP3   OH2 4688   1.139   3.704   1.324
 1561TIP3    H1 4689   1.216   3.750   1.290
 1561TIP3    H2 4690   1.069   3.770   1.322
 1562TIP3   OH2 4691   5.500   2.695   2.341
 1562TIP3    H1 4692   5.477   2.772   2.289
 1562TIP3    H2 4693   5.595   2.689   2.335
 1563TIP3   OH2 4694   1.251   2.647   3.018
 1563TIP3    H1 4695   1.176   2.700   2.995
 1563TIP3    H2 4696   1.255   2.580   2.949
 1564TIP3   OH2 4697   4.825   4.172   1.520
 1564TIP3    H1 4698   4.830   4.080   1.544
 1564TIP3    H2 4699   4.896   4.184   1.456
 1565TIP3   OH2 4700   1.474   5.294   4.664
 1565TIP3    H1 4701   1.491   5.317   4.573
 1565TIP3    H2 4702   1.380   5.309   4.676
 1566TIP3   OH2 4703   5.332   0.676   4.293
 1566TIP3    H1 4704   5.294   0.653   4.378
 1566TIP3    H2 4705   5.349   0.592   4.251
 1567TIP3   OH2 4706   1.623   2.866   0.919
 1567TIP3    H1 4707   1.535   2.851   0.885
 1567TIP3    H2 4708   1.640   2.790   0.975
 1568TIP3   OH2 4709   0.097   1.494   4.901
 1568TIP3    H1 4710   0.109   1.517   4.994
 1568TIP3    H2 4711   0.179   1.452   4.876
 1569TIP3   OH2 4712   1.284   4.937   1.951
 1569TIP3    H1 4713   1.278   4.997   2.026
 1569TIP3    H2 4714   1.286   4.850   1.991
 1570TIP3   OH2 4715   5.430   2.796   0.663
 1570TIP3    H1 4716   5.423   2.781   0.569
 1570TIP3    H2 4717   5.342   2.825   0.690
 1571TIP3   OH2 4718   0.928   0.175   3.617
 1571TIP3    H1 4719   0.868   0.246   3.639
 1571TIP3    H2 4720   0.903   0.148   3.529
 1572TIP3   OH2 4721   2.721   5.598   2.252
 1572TIP3    H1 4722   2.802   5.550   2.237
 1572TIP3    H2 4723   2.740   5.656   2.326
 1573TIP3   OH2 4724   4.493   0.600   4.839
 1573TIP3    H1 4725   4.458   0.688   4.851
 1573TIP3    H2 4726   4.480   0.557   4.923
 1574TIP3   OH2 4727   0.934   2.348   3.842
 1574TIP3    H1 4728   0.981   2.398   3.909
 1574TIP3    H2 4729   0.959   2.257   3.859
 1575TIP3   OH2 4730   0.743   1.105   0.305
 1575TIP3    H1 4731   0.671   1.098   0.368
 1575TIP3    H2 4732   0.788   1.021   0.311
 1576TIP3   OH2 4733   5.331   0.028   2.443
 1576TIP3    H1 4734   5.292   0.116   2.450
 1576TIP3    H2 4735   5.273  -0.020   2.384
 1577TIP3   OH2 4736   1.763   4.948   2.240
 1577TIP3    H1 4737   1.727   5.034   2.262
 1577TIP3    H2 4738   1.851   4.949   2.277
 1578TIP3   OH2 4739   3.779   1.798   3.038
 1578TIP3    H1 4740   3.792   1.890   3.016
 1578TIP3    H2 4741   3.836   1.783   3.113
 1579TIP3   OH2 4742   1.481   0.419   2.567
 1579TIP3    H1 4743   1.466   0.479   2.494
 1579TIP3    H2 4744   1.489   0.476   2.643
 1580TIP3   OH2 4745   3.274   0.153   1.268
 1580TIP3    H1 4746   3.263   0.092   1.194
 1580TIP3    H2 4747   3.247   0.238   1.233
 1581TIP3   OH2 4748   5.236   0.888   4.132
 1581TIP3    H1 4749   5.142   0.877   4.119
 1581TIP3    H2 4750   5.265   0.803   4.166
 1582TIP3   OH2 4751   1.788   1.382   4.711
 1582TIP3    H1 4752   1.696   1.364   4.692
 1582TIP3    H2 4753   1.788   1.470   4.749
 1583TIP3   OH2 4754   2.040   2.952   1.517
 1583TIP3    H1 4755   2.009   2.895   1.447
 1583TIP3    H2 4756   2.089   2.895   1.576
 1584TIP3   OH2 4757   1.645   5.022   2.510
 1584TIP3    H1 4758   1.726   5.068   2.534
 1584TIP3    H2 4759   1.670   4.967   2.435
 1585TIP3   OH2 4760   4.370   1.545   1.344
 1585TIP3    H1 4761   4.404   1.455   1.354
 1585TIP3    H2 4762   4.284   1.533   1.304
 1586TIP3   OH2 4763   6.072   3.499   2.996
 1586TIP3    H1 4764   6.127   3.435   3.041
 1586TIP3    H2 4765   6.127   3.533   2.926
 1587TIP3   OH2 4766   2.991   2.782   3.540
 1587TIP3    H1 4767   2.897   2.792   3.527
 1587TIP3    H2 4768   3.030   2.800   3.454
 1588TIP3   OH2 4769   3.921   4.753   4.883
 1588TIP3    H1 4770   3.838   4.799   4.895
 1588TIP3    H2 4771   3.908   4.702   4.803
 1589TIP3   OH2 4772   1.155   2.672   4.917
 1589TIP3    H1 4773   1.241   2.696   4.952
 1589TIP3    H2 4774   1.144   2.728   4.840
 1590TIP3   OH2 4775   6.235   2.581   3.236
 1590TIP3    H1 4776   6.204   2.578   3.326
 1590TIP3    H2 4777   6.196   2.503   3.195
 1591TIP3   OH2 4778   2.718   4.184   3.029
 1591TIP3    H1 4779   2.634   4.157   3.067
 1591TIP3    H2 4780   2.695   4.222   2.945
 1592TIP3   OH2 4781   3.909   2.222   0.124
 1592TIP3    H1 4782   3.995   2.180   0.128
 1592TIP3    H2 4783   3.862   2.175   0.055
 1593TIP3   OH2 4784   3.396   0.675   2.792
 1593TIP3    H1 4785   3.473   0.642   2.748
 1593TIP3    H2 4786   3.427   0.750   2.842
 1594TIP3   OH2 4787   4.385   3.836   0.052
 1594TIP3    H1 4788   4.313   3.885   0.012
 1594TIP3    H2 4789   4.386   3.865   0.143
 1595TIP3   OH2 4790   3.775   5.113   4.988
 1595TIP3    H1 4791   3.723   5.032   4.981
 1595TIP3    H2 4792   3.766   5.154   4.902
 1596TIP3   OH2 4793   0.221   5.477   3.658
 1596TIP3    H1 4794   0.211   5.418   3.583
 1596TIP3    H2 4795   0.131   5.506   3.677
 1597TIP3   OH2 4796   6.049   0.496   2.006
 1597TIP3    H1 4797   6.059   0.402   2.021
 1597TIP3    H2 4798   6.136   0.526   1.982
 1598TIP3   OH2 4799   1.415   2.265   0.677
 1598TIP3    H1 4800   1.355   2.249   0.750
 1598TIP3    H2 4801   1.425   2.360   0.676
 1599TIP3   OH2 4802   2.495   0.601   4.780
 1599TIP3    H1 4803   2.449   0.554   4.710
 1599TIP3    H2 4804   2.425   0.643   4.830
 1600TIP3   OH2 4805   3.267   2.005   3.426
 1600TIP3    H1 4806   3.316   2.069   3.476
 1600TIP3    H2 4807   3.180   2.042   3.417
 1601TIP3   OH2 4808   5.509   1.024   0.916
 1601TIP3    H1 4809   5.545   1.005   0.829
 1601TIP3    H2 4810   5.461   0.945   0.940
 1602TIP3   OH2 4811   1.480   5.089   4.849
 1602TIP3    H1 4812   1.485   5.156   4.780
 1602TIP3    H2 4813   1.477   5.006   4.802
 1603TIP3   OH2 4814   0.733   1.757   0.090
 1603TIP3    H1 4815   0.793   1.704   0.143
 1603TIP3    H2 4816   0.661   1.778   0.149
 1604TIP3   OH2 4817   5.202   0.269   3.011
 1604TIP3    H1 4818   5.240   0.232   3.090
 1604TIP3    H2 4819   5.110   0.284   3.033
 1605TIP3   OH2 4820   0.754   0.646   3.496
 1605TIP3    H1 4821   0.731   0.697   3.418
 1605TIP3    H2 4822   0.702   0.684   3.566
 1606TIP3   OH2 4823   4.863   0.227   4.301
 1606TIP3    H1 4824   4.876   0.132   4.297
 1606TIP3    H2 4825   4.854   0.254   4.209
 1607TIP3   OH2 4826   0.439   3.269   2.650
 1607TIP3    H1 4827   0.511   3.285   2.589
 1607TIP3    H2 4828   0.454   3.180   2.682
 1608TIP3   OH2 4829   4.258   1.883   1.966
 1608TIP3    H1 4830   4.344   1.888   2.008
 1608TIP3    H2 4831   4.276   1.896   1.873
 1609TIP3   OH2 4832   5.158   5.827   4.165
 1609TIP3    H1 4833   5.087   5.865   4.217
 1609TIP3    H2 4834   5.114   5.769   4.103
 1610TIP3   OH2 4835   0.483   4.302   0.264
 1610TIP3    H1 4836   0.473   4.362   0.337
 1610TIP3    H2 4837   0.490   4.358   0.187
 1611TIP3   OH2 4838   4.616   5.060   5.038
 1611TIP3    H1 4839   4.676   5.044   4.965
 1611TIP3    H2 4840   4.574   4.976   5.054
 1612TIP3   OH2 4841   2.944   3.037   3.289
 1612TIP3    H1 4842   2.998   3.046   3.367
 1612TIP3    H2 4843   2.921   3.127   3.265
 1613TIP3   OH2 4844   0.188   0.473   1.438
 1613TIP3    H1 4845   0.221   0.415   1.370
 1613TIP3    H2 4846   0.259   0.536   1.453
 1614TIP3   OH2 4847   1.633   2.380   2.912
 1614TIP3    H1 4848   1.603   2.364   2.823
 1614TIP3    H2 4849   1.554   2.380   2.965
 1615TIP3   OH2 4850   4.887   0.725   5.008
 1615TIP3    H1 4851   4.888   0.632   5.033
 1615TIP3    H2 4852   4.902   0.724   4.914
 1616TIP3   OH2 4853   6.112   4.959   3.693
 1616TIP3    H1 4854   6.041   4.900   3.668
 1616TIP3    H2 4855   6.185   4.934   3.637
 1617TIP3   OH2 4856   5.516   1.773   4.380
 1617TIP3    H1 4857   5.525   1.712   4.453
 1617TIP3    H2 4858   5.594   1.829   4.384
 1618TIP3   OH2 4859   5.518   0.347   3.206
 1618TIP3    H1 4860   5.497   0.267   3.254
 1618TIP3    H2 4861   5.510   0.417   3.270
 1619TIP3   OH2 4862   3.722   5.122   2.506
 1619TIP3    H1 4863   3.793   5.156   2.452
 1619TIP3    H2 4864   3.727   5.173   2.586
 1620TIP3   OH2 4865   2.316   4.203   4.222
 1620TIP3    H1 4866   2.364   4.281   4.247
 1620TIP3    H2 4867   2.375   4.155   4.164
 1621TIP3   OH2 4868   3.795   5.662   1.875
 1621TIP3    H1 4869   3.861   5.679   1.943
 1621TIP3    H2 4870   3.712   5.682   1.917
 1622TIP3   OH2 4871   2.499   3.315   2.255
 1622TIP3    H1 4872   2.576   3.304   2.310
 1622TIP3    H2 4873   2.510   3.401   2.214
 1623TIP3   OH2 4874   0.803   4.708   3.409
 1623TIP3    H1 4875   0.867   4.774   3.435
 1623TIP3    H2 4876   0.850   4.625   3.418
 1624TIP3   OH2 4877   0.438   2.938   4.739
 1624TIP3    H1 4878   0.435   2.877   4.666
 1624TIP3    H2 4879   0.382   3.010   4.713
 1625TIP3   OH2 4880   1.400   4.592   2.350
 1625TIP3    H1 4881   1.361   4.610   2.265
 1625TIP3    H2 4882   1.327   4.600   2.412
 1626TIP3   OH2 4883   0.620   1.837   3.374
 1626TIP3    H1 4884   0.544   1.887   3.404
 1626TIP3    H2 4885   0.646   1.785   3.450
 1627TIP3   OH2 4886   2.096   3.094   5.030
 1627TIP3    H1 4887   2.018   3.062   4.984
 1627TIP3    H2 4888   2.151   3.016   5.041
 1628TIP3   OH2 4889   1.027   1.638   3.147
 1628TIP3    H1 4890   1.059   1.582   3.076
 1628TIP3    H2 4891   1.079   1.718   3.139
 1629TIP3   OH2 4892   3.932   5.232   4.325
 1629TIP3    H1 4893   3.883   5.192   4.397
 1629TIP3    H2 4894   3.975   5.308   4.364
 1630TIP3   OH2 4895   3.009   2.424   4.710
 1630TIP3    H1 4896   2.998   2.422   4.615
 1630TIP3    H2 4897   3.103   2.417   4.723
 1631TIP3   OH2 4898   1.170   0.699   1.297
 1631TIP3    H1 4899   1.118   0.657   1.366
 1631TIP3    H2 4900   1.153   0.647   1.219
 1632TIP3   OH2 4901   3.157   1.491   2.520
 1632TIP3    H1 4902   3.164   1.572   2.570
 1632TIP3    H2 4903   3.240   1.485   2.473
 1633TIP3   OH2 4904   0.577   3.520   3.960
 1633TIP3    H1 4905   0.506   3.544   3.901
 1633TIP3    H2 4906   0.534   3.494   4.041
 1634TIP3   OH2 4907   5.529   4.560   0.219
 1634TIP3    H1 4908   5.583   4.482   0.206
 1634TIP3    H2 4909   5.439   4.528   0.216
 1635TIP3   OH2 4910   1.282   0.249   1.288
 1635TIP3    H1 4911   1.288   0.301   1.368
 1635TIP3    H2 4912   1.190   0.225   1.282
 1636TIP3   OH2 4913   1.729   4.201   1.179
 1636TIP3    H1 4914   1.671   4.260   1.226
 1636TIP3    H2 4915   1.773   4.151   1.247
 1637TIP3   OH2 4916   3.600   3.386   3.278
 1637TIP3    H1 4917   3.678   3.331   3.286
 1637TIP3    H2 4918   3.553   3.373   3.360
 1638TIP3   OH2 4919   2.130   1.568   3.350
 1638TIP3    H1 4920   2.097   1.510   3.282
 1638TIP3    H2 4921   2.205   1.612   3.310
 1639TIP3   OH2 4922   4.878   5.172   2.979
 1639TIP3    H1 4923   4.945   5.238   2.963
 1639TIP3    H2 4924   4.796   5.215   2.954
 1640TIP3   OH2 4925   5.914   2.919   0.290
 1640TIP3    H1 4926   5.899   3.012   0.307
 1640TIP3    H2 4927   5.900   2.877   0.375
 1641TIP3   OH2 4928   5.190   0.313   1.376
 1641TIP3    H1 4929   5.248   0.383   1.346
 1641TIP3    H2 4930   5.245   0.260   1.434
 1642TIP3   OH2 4931   5.381   2.888   1.665
 1642TIP3    H1 4932   5.368   2.829   1.591
 1642TIP3    H2 4933   5.404   2.830   1.738
 1643TIP3   OH2 4934   5.489   2.954   3.822
 1643TIP3    H1 4935   5.517   2.912   3.740
 1643TIP3    H2 4936   5.570   2.984   3.862
 1644TIP3   OH2 4937   2.598   1.115   2.499
 1644TIP3    H1 4938   2.535   1.052   2.533
 1644TIP3    H2 4939   2.581   1.117   2.405
 1645TIP3   OH2 4940   0.390   4.699   3.163
 1645TIP3    H1 4941   0.339   4.639   3.110
 1645TIP3    H2 4942   0.455   4.736   3.103
 1646TIP3   OH2 4943   3.079   0.432   3.172
 1646TIP3    H1 4944   3.013   0.371   3.138
 1646TIP3    H2 4945   3.132   0.455   3.096
 1647TIP3   OH2 4946   1.551   3.509   3.420
 1647TIP3    H1 4947   1.593   3.542   3.499
 1647TIP3    H2 4948   1.495   3.438   3.451
 1648TIP3   OH2 4949   5.050   0.291   2.702
 1648TIP3    H1 4950   5.053   0.379   2.741
 1648TIP3    H2 4951   5.093   0.301   2.617
 1649TIP3   OH2 4952   5.233   5.662   1.863
 1649TIP3    H1 4953   5.281   5.744   1.859
 1649TIP3    H2 4954   5.195   5.652   1.776
 1650TIP3   OH2 4955   2.975   3.939   4.144
 1650TIP3    H1 4956   2.994   4.007   4.209
 1650TIP3    H2 4957   2.925   3.984   4.076
 1651TIP3   OH2 4958   5.076   2.312   4.008
 1651TIP3    H1 4959   5.018   2.249   3.965
 1651TIP3    H2 4960   5.047   2.314   4.099
 1652TIP3   OH2 4961   5.793   4.560   3.655
 1652TIP3    H1 4962   5.761   4.483   3.703
 1652TIP3    H2 4963   5.808   4.625   3.723
 1653TIP3   OH2 4964   4.437   5.892   2.938
 1653TIP3    H1 4965   4.508   5.863   2.997
 1653TIP3    H2 4966   4.474   5.883   2.850
 1654TIP3   OH2 4967   4.421   1.256   4.848
 1654TIP3    H1 4968   4.505   1.251   4.892
 1654TIP3    H2 4969   4.414   1.174   4.799
 1655TIP3   OH2 4970   2.349   2.189   1.923
 1655TIP3    H1 4971   2.434   2.202   1.966
 1655TIP3    H2 4972   2.285   2.216   1.989
 1656TIP3   OH2 4973   2.707   4.581   0.519
 1656TIP3    H1 4974   2.755   4.626   0.450
 1656TIP3    H2 4975   2.615   4.604   0.503
 1657TIP3   OH2 4976   1.594   1.766   3.458
 1657TIP3    H1 4977   1.594   1.862   3.447
 1657TIP3    H2 4978   1.686   1.741   3.455
 1658TIP3   OH2 4979   2.618   3.114   1.435
 1658TIP3    H1 4980   2.571   3.087   1.514
 1658TIP3    H2 4981   2.573   3.193   1.405
 1659TIP3   OH2 4982   1.267   2.614   3.915
 1659TIP3    H1 4983   1.258   2.656   3.829
 1659TIP3    H2 4984   1.277   2.521   3.895
 1660TIP3   OH2 4985   3.305   1.743   2.630
 1660TIP3    H1 4986   3.357   1.714   2.554
 1660TIP3    H2 4987   3.262   1.823   2.600
 1661TIP3   OH2 4988   2.944   0.792   1.948
 1661TIP3    H1 4989   2.997   0.715   1.926
 1661TIP3    H2 4990   3.007   0.863   1.959
 1662TIP3   OH2 4991   3.045   4.988   2.093
 1662TIP3    H1 4992   2.976   5.054   2.098
 1662TIP3    H2 4993   3.004   4.908   2.125
 1663TIP3   OH2 4994   0.461   2.865   0.506
 1663TIP3    H1 4995   0.399   2.928   0.542
 1663TIP3    H2 4996   0.501   2.825   0.583
 1664TIP3   OH2 4997   5.743   1.066   5.072
 1664TIP3    H1 4998   5.723   1.097   4.984
 1664TIP3    H2 4999   5.689   1.120   5.129
 1665TIP3   OH2 5000   0.744   5.683   0.660
 1665TIP3    H1 5001   0.768   5.664   0.750
 1665TIP3    H2 5002   0.794   5.762   0.638
 1666TIP3   OH2 5003   3.056   4.143   2.359
 1666TIP3    H1 5004   3.099   4.120   2.441
 1666TIP3    H2 5005   3.114   4.206   2.317
 1667TIP3   OH2 5006   5.416   3.416   0.641
 1667TIP3    H1 5007   5.327   3.382   0.651
 1667TIP3    H2 5008   5.411   3.471   0.563
 1668TIP3   OH2 5009   2.437   1.523   2.631
 1668TIP3    H1 5010   2.377   1.598   2.626
 1668TIP3    H2 5011   2.433   1.485   2.544
 1669TIP3   OH2 5012   6.057   5.848   3.830
 1669TIP3    H1 5013   6.062   5.943   3.840
 1669TIP3    H2 5014   6.138   5.814   3.869
 1670TIP3   OH2 5015   0.691   1.355   4.592
 1670TIP3    H1 5016   0.721   1.282   4.537
 1670TIP3    H2 5017   0.759   1.365   4.658
 1671TIP3   OH2 5018   1.842   0.210   3.020
 1671TIP3    H1 5019   1.824   0.148   2.949
 1671TIP3    H2 5020   1.872   0.289   2.976
 1672TIP3   OH2 5021   6.091   2.344   3.160
 1672TIP3    H1 5022   6.061   2.294   3.235
 1672TIP3    H2 5023   6.144   2.283   3.109
 1673TIP3   OH2 5024   3.598   2.748   1.247
 1673TIP3    H1 5025   3.591   2.660   1.208
 1673TIP3    H2 5026   3.679   2.784   1.211
 1674TIP3   OH2 5027   0.470   5.944   4.122
 1674TIP3    H1 5028   0.470   5.988   4.037
 1674TIP3    H2 5029   0.539   5.988   4.172
 1675TIP3   OH2 5030   1.041   5.986   4.797
 1675TIP3    H1 5031   1.106   6.035   4.748
 1675TIP3    H2 5032   1.057   5.894   4.774
 1676TIP3   OH2 5033   1.184   3.863   2.812
 1676TIP3    H1 5034   1.105   3.900   2.774
 1676TIP3    H2 5035   1.243   3.849   2.738
 1677TIP3   OH2 5036   1.097   3.286   2.212
 1677TIP3    H1 5037   1.055   3.345   2.275
 1677TIP3    H2 5038   1.103   3.337   2.132
 1678TIP3   OH2 5039   2.735   3.700   2.547
 1678TIP3    H1 5040   2.814   3.727   2.594
 1678TIP3    H2 5041   2.745   3.738   2.460
 1679TIP3   OH2 5042   4.364   2.189   0.223
 1679TIP3    H1 5043   4.350   2.239   0.142
 1679TIP3    H2 5044   4.412   2.248   0.280
 1680TIP3   OH2 5045   2.012   4.035   0.165
 1680TIP3    H1 5046   2.071   4.068   0.232
 1680TIP3    H2 5047   1.940   3.994   0.213
 1681TIP3   OH2 5048   1.626   1.712   0.566
 1681TIP3    H1 5049   1.554   1.715   0.630
 1681TIP3    H2 5050   1.585   1.683   0.485
 1682TIP3   OH2 5051   5.558   1.316   5.084
 1682TIP3    H1 5052   5.553   1.318   4.988
 1682TIP3    H2 5053   5.627   1.378   5.106
 1683TIP3   OH2 5054   2.485   5.942   0.282
 1683TIP3    H1 5055   2.415   5.887   0.317
 1683TIP3    H2 5056   2.506   5.903   0.198
 1684TIP3   OH2 5057   0.641   5.408   4.770
 1684TIP3    H1 5058   0.706   5.359   4.721
 1684TIP3    H2 5059   0.693   5.469   4.824
 1685TIP3   OH2 5060   1.118   3.284   1.907
 1685TIP3    H1 5061   1.121   3.280   1.812
 1685TIP3    H2 5062   1.146   3.197   1.936
 1686TIP3   OH2 5063   3.476   5.465   0.853
 1686TIP3    H1 5064   3.463   5.442   0.945
 1686TIP3    H2 5065   3.415   5.538   0.837
 1687TIP3   OH2 5066   4.633   2.324   4.761
 1687TIP3    H1 5067   4.627   2.303   4.854
 1687TIP3    H2 5068   4.679   2.408   4.758
 1688TIP3   OH2 5069   0.589   1.525   3.430
 1688TIP3    H1 5070   0.590   1.443   3.480
 1688TIP3    H2 5071   0.496   1.547   3.422
 1689TIP3   OH2 5072   5.421   3.009   2.305
 1689TIP3    H1 5073   5.411   3.103   2.287
 1689TIP3    H2 5074   5.368   2.994   2.383
 1690TIP3   OH2 5075   3.088   4.142   3.899
 1690TIP3    H1 5076   3.115   4.170   3.812
 1690TIP3    H2 5077   3.162   4.091   3.931
 1691TIP3   OH2 5078   3.984   0.011   3.323
 1691TIP3    H1 5079   3.913   0.059   3.366
 1691TIP3    H2 5080   4.056   0.013   3.386
 1692TIP3   OH2 5081   2.301   5.599   3.356
 1692TIP3    H1 5082   2.273   5.650   3.280
 1692TIP3    H2 5083   2.342   5.663   3.413
 1693TIP3   OH2 5084   5.267   3.829   1.691
 1693TIP3    H1 5085   5.206   3.892   1.653
 1693TIP3    H2 5086   5.298   3.872   1.771
 1694TIP3   OH2 5087   0.281   2.513   5.154
 1694TIP3    H1 5088   0.200   2.492   5.108
 1694TIP3    H2 5089   0.347   2.457   5.113
 1695TIP3   OH2 5090   3.903   2.999   1.312
 1695TIP3    H1 5091   3.858   3.052   1.378
 1695TIP3    H2 5092   3.982   2.967   1.358
 1696TIP3   OH2 5093   0.832   1.098   1.756
 1696TIP3    H1 5094   0.796   1.116   1.670
 1696TIP3    H2 5095   0.926   1.089   1.742
 1697TIP3   OH2 5096   0.140   2.667   0.756
 1697TIP3    H1 5097   0.177   2.660   0.668
 1697TIP3    H2 5098   0.080   2.593   0.763
 1698TIP3   OH2 5099   0.924   4.765   2.538
 1698TIP3    H1 5100   0.956   4.840   2.589
 1698TIP3    H2 5101   0.833   4.787   2.517
 1699TIP3   OH2 5102   3.707   1.781   3.503
 1699TIP3    H1 5103   3.658   1.706   3.535
 1699TIP3    H2 5104   3.701   1.776   3.408
 1700TIP3   OH2 5105   3.866   2.049   4.495
 1700TIP3    H1 5106   3.818   2.129   4.518
 1700TIP3    H2 5107   3.937   2.079   4.438
 1701TIP3   OH2 5108   0.393   3.330   4.134
 1701TIP3    H1 5109   0.408   3.333   4.229
 1701TIP3    H2 5110   0.340   3.252   4.120
 1702TIP3   OH2 5111   3.293   4.085   0.113
 1702TIP3    H1 5112   3.207   4.052   0.084
 1702TIP3    H2 5113   3.356   4.044   0.054
 1703TIP3   OH2 5114   3.386   0.950   3.557
 1703TIP3    H1 5115   3.478   0.977   3.548
 1703TIP3    H2 5116   3.378   0.874   3.500
 1704TIP3   OH2 5117   5.454   5.315   3.501
 1704TIP3    H1 5118   5.383   5.324   3.564
 1704TIP3    H2 5119   5.452   5.397   3.450
 1705TIP3   OH2 5120   6.338   1.690   4.586
 1705TIP3    H1 5121   6.254   1.653   4.613
 1705TIP3    H2 5122   6.343   1.773   4.634
 1706TIP3   OH2 5123   2.941   5.184   1.698
 1706TIP3    H1 5124   2.945   5.095   1.735
 1706TIP3    H2 5125   2.851   5.194   1.670
 1707TIP3   OH2 5126   0.300   1.284   2.267
 1707TIP3    H1 5127   0.360   1.315   2.335
 1707TIP3    H2 5128   0.214   1.285   2.310
 1708TIP3   OH2 5129   4.211   1.985   2.448
 1708TIP3    H1 5130   4.154   1.909   2.457
 1708TIP3    H2 5131   4.175   2.051   2.507
 1709TIP3   OH2 5132   4.594   1.541   2.015
 1709TIP3    H1 5133   4.533   1.479   2.057
 1709TIP3    H2 5134   4.545   1.575   1.940
 1710TIP3   OH2 5135   2.849   4.180   5.007
 1710TIP3    H1 5136   2.817   4.091   4.990
 1710TIP3    H2 5137   2.771   4.230   5.028
 1711TIP3   OH2 5138   4.215   5.683   1.559
 1711TIP3    H1 5139   4.290   5.728   1.521
 1711TIP3    H2 5140   4.145   5.693   1.494
 1712TIP3   OH2 5141   2.182   0.018   3.298
 1712TIP3    H1 5142   2.169   0.048   3.208
 1712TIP3    H2 5143   2.275   0.033   3.316
 1713TIP3   OH2 5144   4.524   1.728   1.201
 1713TIP3    H1 5145   4.579   1.743   1.278
 1713TIP3    H2 5146   4.461   1.662   1.230
 1714TIP3   OH2 5147   3.790   1.789   1.929
 1714TIP3    H1 5148   3.774   1.742   2.010
 1714TIP3    H2 5149   3.771   1.881   1.950
 1715TIP3   OH2 5150   2.368   3.384   3.249
 1715TIP3    H1 5151   2.360   3.343   3.336
 1715TIP3    H2 5152   2.460   3.409   3.243
 1716TIP3   OH2 5153   5.078   0.439   0.391
 1716TIP3    H1 5154   5.144   0.402   0.332
 1716TIP3    H2 5155   5.128   0.472   0.466
 1717TIP3   OH2 5156   0.788   4.163   2.521
 1717TIP3    H1 5157   0.761   4.089   2.575
 1717TIP3    H2 5158   0.792   4.128   2.432
 1718TIP3   OH2 5159   3.909   4.444   3.822
 1718TIP3    H1 5160   3.900   4.539   3.821
 1718TIP3    H2 5161   3.967   4.426   3.896
 1719TIP3   OH2 5162   3.461   0.689   3.107
 1719TIP3    H1 5163   3.472   0.762   3.046
 1719TIP3    H2 5164   3.470   0.729   3.194
 1720TIP3   OH2 5165   6.016   4.772   1.701
 1720TIP3    H1 5166   5.961   4.739   1.772
 1720TIP3    H2 5167   6.095   4.804   1.745
 1721TIP3   OH2 5168   1.789   2.752   4.568
 1721TIP3    H1 5169   1.716   2.789   4.618
 1721TIP3    H2 5170   1.747   2.698   4.501
 1722TIP3   OH2 5171   1.939   1.731   3.479
 1722TIP3    H1 5172   1.909   1.651   3.524
 1722TIP3    H2 5173   2.024   1.707   3.443
 1723TIP3   OH2 5174   3.176   3.223   4.097
 1723TIP3    H1 5175   3.209   3.141   4.134
 1723TIP3    H2 5176   3.087   3.230   4.130
 1724TIP3   OH2 5177   5.821   1.176   0.444
 1724TIP3    H1 5178   5.815   1.129   0.527
 1724TIP3    H2 5179   5.761   1.251   0.455
 1725TIP3   OH2 5180   5.234   2.542   3.332
 1725TIP3    H1 5181   5.286   2.622   3.322
 1725TIP3    H2 5182   5.155   2.559   3.282
 1726TIP3   OH2 5183   2.234   1.966   4.109
 1726TIP3    H1 5184   2.170   1.925   4.050
 1726TIP3    H2 5185   2.311   1.980   4.054
 1727TIP3   OH2 5186   1.194   1.226   4.321
 1727TIP3    H1 5187   1.148   1.251   4.402
 1727TIP3    H2 5188   1.152   1.278   4.253
 1728TIP3   OH2 5189   4.512   3.056   3.121
 1728TIP3    H1 5190   4.470   3.123   3.067
 1728TIP3    H2 5191   4.532   2.984   3.061
 1729TIP3   OH2 5192   2.615   1.746   2.198
 1729TIP3    H1 5193   2.670   1.760   2.121
 1729TIP3    H2 5194   2.540   1.697   2.165
 1730TIP3   OH2 5195   1.337   2.794   0.364
 1730TIP3    H1 5196   1.289   2.712   0.380
 1730TIP3    H2 5197   1.429   2.768   0.367
 1731TIP3   OH2 5198   3.910   2.032   2.511
 1731TIP3    H1 5199   3.936   2.014   2.601
 1731TIP3    H2 5200   3.818   2.057   2.517
 1732TIP3   OH2 5201   2.703   0.248   0.617
 1732TIP3    H1 5202   2.742   0.174   0.572
 1732TIP3    H2 5203   2.622   0.214   0.654
 1733TIP3   OH2 5204   0.129   3.750   4.520
 1733TIP3    H1 5205   0.156   3.665   4.553
 1733TIP3    H2 5206   0.056   3.776   4.576
 1734TIP3   OH2 5207   1.726   0.717   0.547
 1734TIP3    H1 5208   1.669   0.760   0.483
 1734TIP3    H2 5209   1.674   0.714   0.628
 1735TIP3   OH2 5210   2.038   3.604   4.269
 1735TIP3    H1 5211   1.988   3.588   4.189
 1735TIP3    H2 5212   2.016   3.529   4.325
 1736TIP3   OH2 5213   0.374   1.379   4.395
 1736TIP3    H1 5214   0.318   1.414   4.465
 1736TIP3    H2 5215   0.463   1.398   4.424
 1737TIP3   OH2 5216   5.664   2.700   4.157
 1737TIP3    H1 5217   5.699   2.787   4.137
 1737TIP3    H2 5218   5.609   2.679   4.081
 1738TIP3   OH2 5219   4.858   1.952   2.001
 1738TIP3    H1 5220   4.942   1.989   1.970
 1738TIP3    H2 5221   4.860   1.862   1.971
 1739TIP3   OH2 5222   3.939   0.304   2.414
 1739TIP3    H1 5223   3.965   0.374   2.354
 1739TIP3    H2 5224   3.866   0.340   2.463
 1740TIP3   OH2 5225   1.193   5.734   5.080
 1740TIP3    H1 5226   1.142   5.791   5.138
 1740TIP3    H2 5227   1.174   5.646   5.110
 1741TIP3   OH2 5228   2.784   3.108   2.276
 1741TIP3    H1 5229   2.786   3.201   2.297
 1741TIP3    H2 5230   2.848   3.068   2.336
 1742TIP3   OH2 5231   5.140   2.637   3.732
 1742TIP3    H1 5232   5.187   2.594   3.803
 1742TIP3    H2 5233   5.173   2.727   3.732
 1743TIP3   OH2 5234   6.073   5.361   0.825
 1743TIP3    H1 5235   5.999   5.409   0.862
 1743TIP3    H2 5236   6.043   5.336   0.737
 1744TIP3   OH2 5237   5.332   0.653   3.971
 1744TIP3    H1 5238   5.427   0.648   3.973
 1744TIP3    H2 5239   5.304   0.595   4.042
 1745TIP3   OH2 5240   1.798   1.344   3.031
 1745TIP3    H1 5241   1.725   1.380   3.081
 1745TIP3    H2 5242   1.765   1.340   2.941
 1746TIP3   OH2 5243   1.914   4.941   4.502
 1746TIP3    H1 5244   1.868   5.014   4.542
 1746TIP3    H2 5245   1.915   4.873   4.570
 1747TIP3   OH2 5246   5.921   3.141   4.080
 1747TIP3    H1 5247   5.966   3.225   4.076
 1747TIP3    H2 5248   5.989   3.078   4.104
 1748TIP3   OH2 5249   0.058   2.005   0.951
 1748TIP3    H1 5250   0.098   1.964   0.874
 1748TIP3    H2 5251  -0.013   2.058   0.915
 1749TIP3   OH2 5252   2.250   4.962   3.268
 1749TIP3    H1 5253   2.210   5.037   3.313
 1749TIP3    H2 5254   2.276   4.996   3.183
 1750TIP3   OH2 5255   1.978   4.169   1.683
 1750TIP3    H1 5256   1.998   4.091   1.631
 1750TIP3    H2 5257   1.920   4.138   1.752
 1751TIP3   OH2 5258   2.731   4.591   3.437
 1751TIP3    H1 5259   2.696   4.676   3.407
 1751TIP3    H2 5260   2.661   4.555   3.492
 1752TIP3   OH2 5261   2.190   2.791   1.692
 1752TIP3    H1 5262   2.248   2.845   1.745
 1752TIP3    H2 5263   2.194   2.704   1.732
 1753TIP3   OH2 5264   3.756   1.094   4.075
 1753TIP3    H1 5265   3.728   1.138   4.155
 1753TIP3    H2 5266   3.823   1.151   4.037
 1754TIP3   OH2 5267   3.498   2.349   0.648
 1754TIP3    H1 5268   3.438   2.349   0.573
 1754TIP3    H2 5269   3.582   2.378   0.611
 1755TIP3   OH2 5270   4.513   5.024   2.683
 1755TIP3    H1 5271   4.561   4.953   2.640
 1755TIP3    H2 5272   4.427   5.022   2.641
 1756TIP3   OH2 5273   6.229   0.334   4.689
 1756TIP3    H1 5274   6.162   0.287   4.638
 1756TIP3    H2 5275   6.194   0.336   4.778
 1757TIP3   OH2 5276   3.451   0.115   3.483
 1757TIP3    H1 5277   3.417   0.062   3.555
 1757TIP3    H2 5278   3.467   0.201   3.522
 1758TIP3   OH2 5279   5.963   5.926   1.843
 1758TIP3    H1 5280   5.957   5.871   1.765
 1758TIP3    H2 5281   5.895   5.892   1.901
 1759TIP3   OH2 5282   6.057   4.773   2.567
 1759TIP3    H1 5283   6.057   4.680   2.589
 1759TIP3    H2 5284   6.047   4.776   2.472
 1760TIP3   OH2 5285   1.525   3.848   3.550
 1760TIP3    H1 5286   1.577   3.849   3.469
 1760TIP3    H2 5287   1.588   3.867   3.619
 1761TIP3   OH2 5288   0.598   1.043   4.697
 1761TIP3    H1 5289   0.646   1.010   4.773
 1761TIP3    H2 5290   0.664   1.088   4.644
 1762TIP3   OH2 5291   2.487   4.971   3.902
 1762TIP3    H1 5292   2.454   5.045   3.851
 1762TIP3    H2 5293   2.580   4.991   3.915
 1763TIP3   OH2 5294   0.741   5.342   4.501
 1763TIP3    H1 5295   0.758   5.377   4.413
 1763TIP3    H2 5296   0.652   5.308   4.496
 1764TIP3   OH2 5297   1.400   5.068   4.243
 1764TIP3    H1 5298   1.461   5.020   4.300
 1764TIP3    H2 5299   1.451   5.089   4.165
 1765TIP3   OH2 5300   1.096   1.710   4.071
 1765TIP3    H1 5301   1.003   1.691   4.080
 1765TIP3    H2 5302   1.109   1.792   4.118
 1766TIP3   OH2 5303   3.569   1.486   4.410
 1766TIP3    H1 5304   3.562   1.483   4.506
 1766TIP3    H2 5305   3.480   1.475   4.379
 1767TIP3   OH2 5306   2.202   0.851   3.463
 1767TIP3    H1 5307   2.137   0.850   3.393
 1767TIP3    H2 5308   2.170   0.918   3.524
 1768TIP3   OH2 5309   4.091   4.662   4.599
 1768TIP3    H1 5310   3.997   4.669   4.616
 1768TIP3    H2 5311   4.130   4.737   4.645
 1769TIP3   OH2 5312   5.398   5.007   2.871
 1769TIP3    H1 5313   5.323   4.948   2.869
 1769TIP3    H2 5314   5.361   5.094   2.855
 1770TIP3   OH2 5315   6.027   2.201   0.155
 1770TIP3    H1 5316   6.033   2.165   0.243
 1770TIP3    H2 5317   6.113   2.240   0.139
 1771TIP3   OH2 5318   5.038   0.831   2.053
 1771TIP3    H1 5319   5.021   0.826   2.147
 1771TIP3    H2 5320   4.958   0.868   2.015
 1772TIP3   OH2 5321   2.678   5.355   0.921
 1772TIP3    H1 5322   2.664   5.303   0.843
 1772TIP3    H2 5323   2.652   5.444   0.897
 1773TIP3   OH2 5324   3.198   1.643   4.416
 1773TIP3    H1 5325   3.123   1.684   4.459
 1773TIP3    H2 5326   3.238   1.588   4.484
 1774TIP3   OH2 5327   0.923   5.528   2.552
 1774TIP3    H1 5328   0.954   5.607   2.596
 1774TIP3    H2 5329   0.865   5.486   2.615
 1775TIP3   OH2 5330   0.430   5.521   2.905
 1775TIP3    H1 5331   0.518   5.516   2.867
 1775TIP3    H2 5332   0.379   5.459   2.854
 1776TIP3   OH2 5333   0.949   1.960   5.076
 1776TIP3    H1 5334   0.884   1.975   5.008
 1776TIP3    H2 5335   0.957   1.864   5.082
 1777TIP3   OH2 5336   2.110   3.579   1.677
 1777TIP3    H1 5337   2.158   3.661   1.663
 1777TIP3    H2 5338   2.065   3.564   1.595
 1778TIP3   OH2 5339   1.721   3.457   2.917
 1778TIP3    H1 5340   1.758   3.526   2.972
 1778TIP3    H2 5341   1.669   3.404   2.978
 1779TIP3   OH2 5342   4.717   3.628   0.028
 1779TIP3    H1 5343   4.658   3.689   0.073
 1779TIP3    H2 5344   4.752   3.573   0.098
 1780TIP3   OH2 5345   5.073   2.831   1.899
 1780TIP3    H1 5346   5.158   2.825   1.943
 1780TIP3    H2 5347   5.042   2.741   1.894
 1781TIP3   OH2 5348   5.556   1.006   4.064
 1781TIP3    H1 5349   5.485   1.051   4.110
 1781TIP3    H2 5350   5.515   0.976   3.982
 1782TIP3   OH2 5351   2.271   2.789   1.065
 1782TIP3    H1 5352   2.366   2.796   1.075
 1782TIP3    H2 5353   2.253   2.829   0.980
 1783TIP3   OH2 5354   4.044   4.309   2.860
 1783TIP3    H1 5355   4.055   4.223   2.820
 1783TIP3    H2 5356   4.083   4.370   2.798
 1784TIP3   OH2 5357   4.882   3.113   1.532
 1784TIP3    H1 5358   4.799   3.074   1.560
 1784TIP3    H2 5359   4.948   3.073   1.589
 1785TIP3   OH2 5360   5.335   3.588   4.021
 1785TIP3    H1 5361   5.270   3.656   4.002
 1785TIP3    H2 5362   5.293   3.532   4.085
 1786TIP3   OH2 5363   2.537   4.813   1.372
 1786TIP3    H1 5364   2.482   4.861   1.310
 1786TIP3    H2 5365   2.619   4.797   1.324
 1787TIP3   OH2 5366   5.469   3.253   0.344
 1787TIP3    H1 5367   5.415   3.224   0.418
 1787TIP3    H2 5368   5.551   3.281   0.383
 1788TIP3   OH2 5369   6.187   1.100   1.106
 1788TIP3    H1 5370   6.166   1.145   1.024
 1788TIP3    H2 5371   6.152   1.012   1.095
 1789TIP3   OH2 5372   0.429   5.376   4.940
 1789TIP3    H1 5373   0.506   5.384   4.884
 1789TIP3    H2 5374   0.453   5.420   5.022
 1790TIP3   OH2 5375   5.109   4.259   2.468
 1790TIP3    H1 5376   5.123   4.187   2.407
 1790TIP3    H2 5377   5.196   4.293   2.486
 1791TIP3   OH2 5378   2.305   1.473   5.026
 1791TIP3    H1 5379   2.385   1.488   4.977
 1791TIP3    H2 5380   2.259   1.405   4.977
 1792TIP3   OH2 5381   1.233   4.170   4.052
 1792TIP3    H1 5382   1.155   4.211   4.014
 1792TIP3    H2 5383   1.286   4.244   4.084
 1793TIP3   OH2 5384   2.673   5.918   3.332
 1793TIP3    H1 5385   2.749   5.860   3.324
 1793TIP3    H2 5386   2.680   5.955   3.420
 1794TIP3   OH2 5387   3.404   5.772   5.050
 1794TIP3    H1 5388   3.495   5.757   5.025
 1794TIP3    H2 5389   3.392   5.867   5.040
 1795TIP3   OH2 5390   0.291   0.710   2.762
 1795TIP3    H1 5391   0.372   0.663   2.743
 1795TIP3    H2 5392   0.261   0.675   2.846
 1796TIP3   OH2 5393   2.683   3.496   4.271
 1796TIP3    H1 5394   2.675   3.507   4.176
 1796TIP3    H2 5395   2.773   3.465   4.284
 1797TIP3   OH2 5396   5.051   4.301   1.381
 1797TIP3    H1 5397   5.109   4.377   1.390
 1797TIP3    H2 5398   5.002   4.317   1.300
 1798TIP3   OH2 5399   3.653   3.358   0.089
 1798TIP3    H1 5400   3.682   3.446   0.066
 1798TIP3    H2 5401   3.565   3.371   0.124
 1799TIP3   OH2 5402   5.115   0.210   3.867
 1799TIP3    H1 5403   5.146   0.163   3.944
 1799TIP3    H2 5404   5.192   0.215   3.810
 1800TIP3   OH2 5405   1.458   3.765   2.345
 1800TIP3    H1 5406   1.542   3.719   2.340
 1800TIP3    H2 5407   1.411   3.737   2.267
 1801TIP3   OH2 5408   5.753   4.497   4.620
 1801TIP3    H1 5409   5.735   4.584   4.583
 1801TIP3    H2 5410   5.697   4.491   4.697
 1802TIP3   OH2 5411   1.588   4.240   1.892
 1802TIP3    H1 5412   1.573   4.291   1.812
 1802TIP3    H2 5413   1.502   4.231   1.931
 1803TIP3   OH2 5414   4.874   4.018   0.645
 1803TIP3    H1 5415   4.876   3.956   0.718
 1803TIP3    H2 5416   4.791   4.064   0.655
 1804TIP3   OH2 5417   3.969   4.621   2.324
 1804TIP3    H1 5418   3.912   4.592   2.253
 1804TIP3    H2 5419   3.912   4.625   2.401
 1805TIP3   OH2 5420   0.402   4.203   3.648
 1805TIP3    H1 5421   0.351   4.237   3.575
 1805TIP3    H2 5422   0.398   4.108   3.639
 1806TIP3   OH2 5423   3.184   0.891   1.277
 1806TIP3    H1 5424   3.225   0.831   1.339
 1806TIP3    H2 5425   3.253   0.956   1.257
 1807TIP3   OH2 5426   6.262   4.915   3.470
 1807TIP3    H1 5427   6.260   4.875   3.383
 1807TIP3    H2 5428   6.335   4.871   3.514
 1808TIP3   OH2 5429   3.773   4.759   1.782
 1808TIP3    H1 5430   3.820   4.693   1.730
 1808TIP3    H2 5431   3.836   4.784   1.850
 1809TIP3   OH2 5432   4.243   2.305   0.555
 1809TIP3    H1 5433   4.178   2.238   0.534
 1809TIP3    H2 5434   4.247   2.305   0.651
 1810TIP3   OH2 5435   1.028   1.758   3.427
 1810TIP3    H1 5436   1.111   1.791   3.393
 1810TIP3    H2 5437   1.052   1.704   3.502
 1811TIP3   OH2 5438   4.871   1.284   2.115
 1811TIP3    H1 5439   4.951   1.301   2.165
 1811TIP3    H2 5440   4.813   1.242   2.178
 1812TIP3   OH2 5441   1.978   5.954   3.827
 1812TIP3    H1 5442   1.925   5.876   3.811
 1812TIP3    H2 5443   2.065   5.930   3.796
 1813TIP3   OH2 5444   0.980   2.356   5.009
 1813TIP3    H1 5445   0.954   2.448   4.997
 1813TIP3    H2 5446   1.066   2.361   5.050
 1814TIP3   OH2 5447   0.737   5.891   1.177
 1814TIP3    H1 5448   0.738   5.968   1.234
 1814TIP3    H2 5449   0.667   5.836   1.213
 1815TIP3   OH2 5450   0.094   2.149   1.945
 1815TIP3    H1 5451   0.020   2.089   1.944
 1815TIP3    H2 5452   0.149   2.118   2.017
 1816TIP3   OH2 5453   2.458   2.964   1.227
 1816TIP3    H1 5454   2.377   2.974   1.275
 1816TIP3    H2 5455   2.526   2.994   1.287
 1817TIP3   OH2 5456   3.110   2.795   0.707
 1817TIP3    H1 5457   3.177   2.778   0.773
 1817TIP3    H2 5458   3.113   2.890   0.694
 1818TIP3   OH2 5459   1.197   2.467   1.840
 1818TIP3    H1 5460   1.246   2.477   1.921
 1818TIP3    H2 5461   1.123   2.528   1.849
 1819TIP3   OH2 5462   2.361   0.111   1.950
 1819TIP3    H1 5463   2.393   0.151   2.031
 1819TIP3    H2 5464   2.375   0.017   1.963
 1820TIP3   OH2 5465   6.195   3.503   2.723
 1820TIP3    H1 5466   6.258   3.474   2.658
 1820TIP3    H2 5467   6.143   3.425   2.742
 1821TIP3   OH2 5468   2.907   0.251   3.038
 1821TIP3    H1 5469   2.820   0.286   3.054
 1821TIP3    H2 5470   2.899   0.157   3.057
 1822TIP3   OH2 5471   4.441   5.045   3.200
 1822TIP3    H1 5472   4.522   5.015   3.159
 1822TIP3    H2 5473   4.459   5.135   3.226
 1823TIP3   OH2 5474   4.253   0.272   1.489
 1823TIP3    H1 5475   4.252   0.321   1.407
 1823TIP3    H2 5476   4.181   0.210   1.481
 1824TIP3   OH2 5477   4.349   0.898   5.116
 1824TIP3    H1 5478   4.432   0.920   5.073
 1824TIP3    H2 5479   4.287   0.964   5.084
 1825TIP3   OH2 5480   1.702   4.667   2.645
 1825TIP3    H1 5481   1.639   4.615   2.695
 1825TIP3    H2 5482   1.659   4.683   2.561
 1826TIP3   OH2 5483   1.015   2.106   3.922
 1826TIP3    H1 5484   1.069   2.078   3.996
 1826TIP3    H2 5485   0.977   2.025   3.888
 1827TIP3   OH2 5486   2.657   2.505   3.439
 1827TIP3    H1 5487   2.612   2.451   3.374
 1827TIP3    H2 5488   2.665   2.449   3.516
 1828TIP3   OH2 5489   3.072   3.166   3.527
 1828TIP3    H1 5490   3.014   3.236   3.557
 1828TIP3    H2 5491   3.099   3.121   3.607
 1829TIP3   OH2 5492   0.737   4.498   2.057
 1829TIP3    H1 5493   0.731   4.523   2.150
 1829TIP3    H2 5494   0.790   4.419   2.057
 1830TIP3   OH2 5495   4.000   5.852   4.345
 1830TIP3    H1 5496   3.917   5.814   4.372
 1830TIP3    H2 5497   3.978   5.910   4.272
 1831TIP3   OH2 5498   3.412   2.135   2.617
 1831TIP3    H1 5499   3.329   2.096   2.645
 1831TIP3    H2 5500   3.387   2.211   2.564
 1832TIP3   OH2 5501   5.469   3.771   0.481
 1832TIP3    H1 5502   5.406   3.721   0.429
 1832TIP3    H2 5503   5.500   3.708   0.547
 1833TIP3   OH2 5504   1.245   1.937   3.557
 1833TIP3    H1 5505   1.159   1.977   3.543
 1833TIP3    H2 5506   1.278   1.979   3.637
 1834TIP3   OH2 5507   4.227   5.934   2.451
 1834TIP3    H1 5508   4.181   5.953   2.369
 1834TIP3    H2 5509   4.192   5.849   2.479
 1835TIP3   OH2 5510   5.650   0.533   1.789
 1835TIP3    H1 5511   5.583   0.575   1.735
 1835TIP3    H2 5512   5.685   0.605   1.842
 1836TIP3   OH2 5513   3.952   4.043   2.768
 1836TIP3    H1 5514   3.952   3.950   2.747
 1836TIP3    H2 5515   3.878   4.079   2.719
 1837TIP3   OH2 5516   2.716   3.452   1.629
 1837TIP3    H1 5517   2.639   3.405   1.660
 1837TIP3    H2 5518   2.699   3.468   1.536
 1838TIP3   OH2 5519   4.051   5.502   3.082
 1838TIP3    H1 5520   4.096   5.519   3.165
 1838TIP3    H2 5521   4.057   5.407   3.070
 1839TIP3   OH2 5522   3.861   3.009   1.881
 1839TIP3    H1 5523   3.809   2.947   1.829
 1839TIP3    H2 5524   3.950   2.998   1.850
 1840TIP3   OH2 5525   0.724   2.193   1.648
 1840TIP3    H1 5526   0.641   2.209   1.693
 1840TIP3    H2 5527   0.761   2.280   1.635
 1841TIP3   OH2 5528   3.820   3.387   2.572
 1841TIP3    H1 5529   3.793   3.387   2.664
 1841TIP3    H2 5530   3.818   3.295   2.547
 1842TIP3   OH2 5531   2.490   1.802  -0.005
 1842TIP3    H1 5532   2.433   1.728   0.017
 1842TIP3    H2 5533   2.563   1.795   0.055
 1843TIP3   OH2 5534   1.950   4.309   3.317
 1843TIP3    H1 5535   1.862   4.299   3.279
 1843TIP3    H2 5536   1.990   4.223   3.308
 1844TIP3   OH2 5537   5.917   0.022   4.744
 1844TIP3    H1 5538   5.882   0.084   4.809
 1844TIP3    H2 5539   5.917   0.071   4.662
 1845TIP3   OH2 5540   5.052   5.887   5.148
 1845TIP3    H1 5541   5.099   5.866   5.067
 1845TIP3    H2 5542   5.030   5.979   5.140
 1846TIP3   OH2 5543   0.868   2.747   2.486
 1846TIP3    H1 5544   0.837   2.835   2.505
 1846TIP3    H2 5545   0.950   2.739   2.535
 1847TIP3   OH2 5546   2.868   0.246   0.949
 1847TIP3    H1 5547   2.864   0.320   1.010
 1847TIP3    H2 5548   2.961   0.231   0.935
 1848TIP3   OH2 5549   2.458   5.294   1.810
 1848TIP3    H1 5550   2.392   5.246   1.860
 1848TIP3    H2 5551   2.423   5.299   1.721
 1849TIP3   OH2 5552   1.304   5.560   4.335
 1849TIP3    H1 5553   1.231   5.612   4.370
 1849TIP3    H2 5554   1.289   5.472   4.368
 1850TIP3   OH2 5555   3.940   1.474   0.299
 1850TIP3    H1 5556   3.845   1.491   0.295
 1850TIP3    H2 5557   3.947   1.390   0.344
 1851TIP3   OH2 5558   5.128   0.072  -0.003
 1851TIP3    H1 5559   5.061   0.057   0.064
 1851TIP3    H2 5560   5.097   0.023  -0.079
 1852TIP3   OH2 5561   4.671   2.451   3.615
 1852TIP3    H1 5562   4.761   2.422   3.631
 1852TIP3    H2 5563   4.678   2.506   3.537
 1853TIP3   OH2 5564   5.018   1.813   4.057
 1853TIP3    H1 5565   5.042   1.891   4.107
 1853TIP3    H2 5566   4.949   1.772   4.108
 1854TIP3   OH2 5567   3.778   2.928   4.390
 1854TIP3    H1 5568   3.737   2.932   4.476
 1854TIP3    H2 5569   3.716   2.878   4.337
 1855TIP3   OH2 5570   5.802   1.495   4.846
 1855TIP3    H1 5571   5.854   1.568   4.881
 1855TIP3    H2 5572   5.851   1.417   4.870
 1856TIP3   OH2 5573   0.216   1.280   3.863
 1856TIP3    H1 5574   0.191   1.317   3.947
 1856TIP3    H2 5575   0.311   1.281   3.863
 1857TIP3   OH2 5576   0.122   3.427   5.066
 1857TIP3    H1 5577   0.132   3.412   5.160
 1857TIP3    H2 5578   0.073   3.351   5.035
 1858TIP3   OH2 5579   4.402   4.369   3.932
 1858TIP3    H1 5580   4.344   4.403   3.864
 1858TIP3    H2 5581   4.348   4.369   4.011
 1859TIP3   OH2 5582   3.163   0.929   1.701
 1859TIP3    H1 5583   3.153   0.957   1.792
 1859TIP3    H2 5584   3.222   0.994   1.662
 1860TIP3   OH2 5585   4.025   4.594   0.082
 1860TIP3    H1 5586   4.102   4.565   0.034
 1860TIP3    H2 5587   4.058   4.664   0.139
 1861TIP3   OH2 5588   5.666   4.739   4.388
 1861TIP3    H1 5589   5.756   4.762   4.413
 1861TIP3    H2 5590   5.643   4.805   4.322
 1862TIP3   OH2 5591   0.747   3.443   1.312
 1862TIP3    H1 5592   0.745   3.478   1.401
 1862TIP3    H2 5593   0.698   3.507   1.260
 1863TIP3   OH2 5594   6.126   0.318   4.943
 1863TIP3    H1 5595   6.032   0.300   4.946
 1863TIP3    H2 5596   6.166   0.246   4.993
 1864TIP3   OH2 5597   3.560   0.568   2.579
 1864TIP3    H1 5598   3.607   0.640   2.535
 1864TIP3    H2 5599   3.487   0.549   2.520
 1865TIP3   OH2 5600   4.971   3.122   3.008
 1865TIP3    H1 5601   4.911   3.070   2.954
 1865TIP3    H2 5602   5.010   3.185   2.947
 1866TIP3   OH2 5603   4.912   4.034   1.252
 1866TIP3    H1 5604   4.826   4.063   1.222
 1866TIP3    H2 5605   4.914   3.940   1.233
 1867TIP3   OH2 5606   3.768   2.662   4.600
 1867TIP3    H1 5607   3.687   2.625   4.566
 1867TIP3    H2 5608   3.743   2.748   4.634
 1868TIP3   OH2 5609   0.846   3.218   1.717
 1868TIP3    H1 5610   0.772   3.221   1.656
 1868TIP3    H2 5611   0.923   3.233   1.662
 1869TIP3   OH2 5612   4.134   1.119   1.293
 1869TIP3    H1 5613   4.177   1.071   1.222
 1869TIP3    H2 5614   4.185   1.097   1.371
 1870TIP3   OH2 5615   0.989   1.250   0.955
 1870TIP3    H1 5616   1.024   1.337   0.974
 1870TIP3    H2 5617   0.896   1.256   0.978
 1871TIP3   OH2 5618   0.792   5.573   3.703
 1871TIP3    H1 5619   0.871   5.538   3.743
 1871TIP3    H2 5620   0.782   5.660   3.743
 1872TIP3   OH2 5621   3.751   2.021   5.033
 1872TIP3    H1 5622   3.755   1.928   5.054
 1872TIP3    H2 5623   3.792   2.028   4.947
 1873TIP3   OH2 5624   1.958   5.673   0.701
 1873TIP3    H1 5625   1.965   5.646   0.793
 1873TIP3    H2 5626   2.009   5.607   0.653
 1874TIP3   OH2 5627   1.994   0.455   3.215
 1874TIP3    H1 5628   1.998   0.501   3.131
 1874TIP3    H2 5629   1.948   0.515   3.273
 1875TIP3   OH2 5630   2.651   1.169   3.723
 1875TIP3    H1 5631   2.578   1.189   3.664
 1875TIP3    H2 5632   2.711   1.243   3.713
 1876TIP3   OH2 5633   2.818   0.750   1.049
 1876TIP3    H1 5634   2.732   0.783   1.023
 1876TIP3    H2 5635   2.872   0.762   0.971
 1877TIP3   OH2 5636   5.621   5.311   4.484
 1877TIP3    H1 5637   5.611   5.215   4.484
 1877TIP3    H2 5638   5.705   5.326   4.441
 1878TIP3   OH2 5639   2.133   2.166   1.178
 1878TIP3    H1 5640   2.121   2.258   1.157
 1878TIP3    H2 5641   2.064   2.121   1.130
 1879TIP3   OH2 5642   1.018   0.008   0.226
 1879TIP3    H1 5643   0.956   0.036   0.159
 1879TIP3    H2 5644   1.104   0.027   0.189
 1880TIP3   OH2 5645   3.776   0.401   2.616
 1880TIP3    H1 5646   3.710   0.470   2.609
 1880TIP3    H2 5647   3.774   0.376   2.709
 1881TIP3   OH2 5648   5.423   5.629   2.993
 1881TIP3    H1 5649   5.397   5.702   2.937
 1881TIP3    H2 5650   5.518   5.622   2.982
 1882TIP3   OH2 5651   1.626   1.009   2.686
 1882TIP3    H1 5652   1.601   0.917   2.689
 1882TIP3    H2 5653   1.623   1.033   2.594
 1883TIP3   OH2 5654   0.939   0.762   0.090
 1883TIP3    H1 5655   0.994   0.827   0.134
 1883TIP3    H2 5656   0.954   0.776  -0.003
 1884TIP3   OH2 5657   1.348   3.928   0.387
 1884TIP3    H1 5658   1.295   4.007   0.396
 1884TIP3    H2 5659   1.332   3.900   0.296
 1885TIP3   OH2 5660   3.539   0.917   4.847
 1885TIP3    H1 5661   3.623   0.952   4.818
 1885TIP3    H2 5662   3.521   0.963   4.929
 1886TIP3   OH2 5663   1.091   0.105   2.665
 1886TIP3    H1 5664   1.184   0.126   2.654
 1886TIP3    H2 5665   1.089   0.044   2.739
 1887TIP3   OH2 5666   2.816   4.591   5.011
 1887TIP3    H1 5667   2.747   4.651   4.984
 1887TIP3    H2 5668   2.816   4.597   5.107
 1888TIP3   OH2 5669   4.293   0.572   2.035
 1888TIP3    H1 5670   4.231   0.505   2.064
 1888TIP3    H2 5671   4.342   0.595   2.113
 1889TIP3   OH2 5672   3.211   3.100   4.434
 1889TIP3    H1 5673   3.178   3.041   4.502
 1889TIP3    H2 5674   3.255   3.170   4.483
 1890TIP3   OH2 5675   5.835   2.775   0.942
 1890TIP3    H1 5676   5.864   2.829   1.015
 1890TIP3    H2 5677   5.912   2.767   0.886
 1891TIP3   OH2 5678   5.402   1.210   2.021
 1891TIP3    H1 5679   5.409   1.115   2.019
 1891TIP3    H2 5680   5.308   1.227   2.014
 1892TIP3   OH2 5681   2.733   4.547   1.055
 1892TIP3    H1 5682   2.720   4.475   1.116
 1892TIP3    H2 5683   2.768   4.506   0.976
 1893TIP3   OH2 5684   1.249   1.126   2.985
 1893TIP3    H1 5685   1.193   1.197   3.014
 1893TIP3    H2 5686   1.194   1.074   2.926
 1894TIP3   OH2 5687   5.511   0.419   4.280
 1894TIP3    H1 5688   5.549   0.467   4.206
 1894TIP3    H2 5689   5.437   0.372   4.243
 1895TIP3   OH2 5690   1.102   0.823   1.601
 1895TIP3    H1 5691   1.167   0.852   1.537
 1895TIP3    H2 5692   1.074   0.904   1.644
 1896TIP3   OH2 5693   0.594   5.641   0.153
 1896TIP3    H1 5694   0.675   5.607   0.117
 1896TIP3    H2 5695   0.607   5.639   0.248
 1897TIP3   OH2 5696   3.536   5.310   4.513
 1897TIP3    H1 5697   3.481   5.241   4.551
 1897TIP3    H2 5698   3.476   5.382   4.497
 1898TIP3   OH2 5699   5.495   4.306   1.175
 1898TIP3    H1 5700   5.554   4.340   1.242
 1898TIP3    H2 5701   5.441   4.380   1.150
 1899TIP3   OH2 5702   4.968   4.478   2.813
 1899TIP3    H1 5703   4.950   4.395   2.769
 1899TIP3    H2 5704   4.882   4.517   2.828
 1900TIP3   OH2 5705   2.510   1.121   4.104
 1900TIP3    H1 5706   2.475   1.032   4.103
 1900TIP3    H2 5707   2.557   1.129   4.021
 1901TIP3   OH2 5708   6.096   4.420   3.642
 1901TIP3    H1 5709   6.178   4.370   3.646
 1901TIP3    H2 5710   6.030   4.354   3.622
 1902TIP3   OH2 5711   3.759   4.142   1.069
 1902TIP3    H1 5712   3.702   4.065   1.066
 1902TIP3    H2 5713   3.760   4.167   1.162
 1903TIP3   OH2 5714   5.472   4.987   2.465
 1903TIP3    H1 5715   5.553   4.942   2.491
 1903TIP3    H2 5716   5.402   4.934   2.503
 1904TIP3   OH2 5717   1.283   0.843   0.599
 1904TIP3    H1 5718   1.340   0.920   0.603
 1904TIP3    H2 5719   1.325   0.779   0.658
 1905TIP3   OH2 5720   2.382   2.907   3.006
 1905TIP3    H1 5721   2.325   2.870   3.074
 1905TIP3    H2 5722   2.327   2.915   2.929
 1906TIP3   OH2 5723   1.641   5.370   4.042
 1906TIP3    H1 5724   1.546   5.361   4.036
 1906TIP3    H2 5725   1.669   5.390   3.952
 1907TIP3   OH2 5726   0.376   1.446   1.128
 1907TIP3    H1 5727   0.411   1.490   1.205
 1907TIP3    H2 5728   0.282   1.460   1.133
 1908TIP3   OH2 5729   0.949   3.153   4.128
 1908TIP3    H1 5730   1.019   3.106   4.176
 1908TIP3    H2 5731   0.996   3.209   4.066
 1909TIP3   OH2 5732   2.950   2.658   1.770
 1909TIP3    H1 5733   2.923   2.576   1.730
 1909TIP3    H2 5734   3.043   2.667   1.748
 1910TIP3   OH2 5735   5.996   5.157   4.680
 1910TIP3    H1 5736   5.937   5.088   4.711
 1910TIP3    H2 5737   6.084   5.123   4.698
 1911TIP3   OH2 5738   4.678   3.823   1.084
 1911TIP3    H1 5739   4.681   3.825   0.988
 1911TIP3    H2 5740   4.653   3.912   1.108
 1912TIP3   OH2 5741   5.464   1.828   4.669
 1912TIP3    H1 5742   5.417   1.880   4.603
 1912TIP3    H2 5743   5.521   1.771   4.619
 1913TIP3   OH2 5744   3.561   5.839   1.788
 1913TIP3    H1 5745   3.605   5.906   1.839
 1913TIP3    H2 5746   3.599   5.846   1.700
 1914TIP3   OH2 5747   1.834   4.077   0.840
 1914TIP3    H1 5748   1.759   4.020   0.856
 1914TIP3    H2 5749   1.909   4.017   0.837
 1915TIP3   OH2 5750   5.900   5.752   1.630
 1915TIP3    H1 5751   5.843   5.677   1.643
 1915TIP3    H2 5752   5.883   5.779   1.540
 1916TIP3   OH2 5753   5.539   5.003   1.133
 1916TIP3    H1 5754   5.530   4.925   1.188
 1916TIP3    H2 5755   5.466   4.997   1.071
 1917TIP3   OH2 5756   5.707   4.426   2.055
 1917TIP3    H1 5757   5.621   4.452   2.087
 1917TIP3    H2 5758   5.711   4.332   2.071
 1918TIP3   OH2 5759   5.006   5.733   3.940
 1918TIP3    H1 5760   5.065   5.749   3.866
 1918TIP3    H2 5761   4.919   5.751   3.905
 1919TIP3   OH2 5762   5.555   0.001   0.320
 1919TIP3    H1 5763   5.601   0.004   0.236
 1919TIP3    H2 5764   5.475  -0.047   0.301
 1920TIP3   OH2 5765   1.687   2.077   1.897
 1920TIP3    H1 5766   1.749   2.124   1.840
 1920TIP3    H2 5767   1.666   1.997   1.849
 1921TIP3   OH2 5768   0.443   0.260   1.915
 1921TIP3    H1 5769   0.483   0.272   1.829
 1921TIP3    H2 5770   0.431   0.349   1.948
 1922TIP3   OH2 5771   0.866   3.013   0.626
 1922TIP3    H1 5772   0.873   3.106   0.604
 1922TIP3    H2 5773   0.951   2.976   0.603
 1923TIP3   OH2 5774   4.055   3.835   4.615
 1923TIP3    H1 5775   4.026   3.849   4.706
 1923TIP3    H2 5776   4.072   3.741   4.610
 1924TIP3   OH2 5777   0.749   4.035   0.981
 1924TIP3    H1 5778   0.671   4.026   0.925
 1924TIP3    H2 5779   0.808   4.091   0.931
 1925TIP3   OH2 5780   1.964   1.928   0.536
 1925TIP3    H1 5781   1.919   1.970   0.609
 1925TIP3    H2 5782   1.906   1.942   0.461
 1926TIP3   OH2 5783   4.301   1.461   2.464
 1926TIP3    H1 5784   4.340   1.543   2.433
 1926TIP3    H2 5785   4.273   1.480   2.553
 1927TIP3   OH2 5786   3.980   5.810   0.941
 1927TIP3    H1 5787   3.957   5.717   0.946
 1927TIP3    H2 5788   3.930   5.851   1.012
 1928TIP3   OH2 5789   0.802   1.514   3.888
 1928TIP3    H1 5790   0.745   1.551   3.820
 1928TIP3    H2 5791   0.773   1.555   3.969
 1929TIP3   OH2 5792   0.253   4.962   4.268
 1929TIP3    H1 5793   0.295   4.940   4.185
 1929TIP3    H2 5794   0.191   4.890   4.283
 1930TIP3   OH2 5795   2.509   4.487   1.896
 1930TIP3    H1 5796   2.578   4.554   1.897
 1930TIP3    H2 5797   2.504   4.459   1.805
 1931TIP3   OH2 5798   1.300   5.616   2.561
 1931TIP3    H1 5799   1.371   5.555   2.538
 1931TIP3    H2 5800   1.247   5.568   2.624
 1932TIP3   OH2 5801   2.163   3.063   1.086
 1932TIP3    H1 5802   2.233   3.047   1.149
 1932TIP3    H2 5803   2.141   2.976   1.052
 1933TIP3   OH2 5804   4.879   4.693   2.165
 1933TIP3    H1 5805   4.888   4.781   2.203
 1933TIP3    H2 5806   4.785   4.680   2.156
 1934TIP3   OH2 5807   4.400   1.911   4.022
 1934TIP3    H1 5808   4.378   1.999   3.991
 1934TIP3    H2 5809   4.484   1.892   3.979
 1935TIP3   OH2 5810   6.012   5.486   4.264
 1935TIP3    H1 5811   6.015   5.399   4.303
 1935TIP3    H2 5812   6.027   5.471   4.170
 1936TIP3   OH2 5813   1.077   0.596   0.412
 1936TIP3    H1 5814   0.996   0.555   0.442
 1936TIP3    H2 5815   1.108   0.647   0.487
 1937TIP3   OH2 5816   2.722   2.657   0.037
 1937TIP3    H1 5817   2.775   2.672  -0.041
 1937TIP3    H2 5818   2.689   2.743   0.062
 1938TIP3   OH2 5819   2.491   4.264   1.189
 1938TIP3    H1 5820   2.501   4.172   1.214
 1938TIP3    H2 5821   2.538   4.272   1.106
 1939TIP3   OH2 5822   3.465   4.900   2.287
 1939TIP3    H1 5823   3.535   4.935   2.232
 1939TIP3    H2 5824   3.386   4.908   2.233
 1940TIP3   OH2 5825   6.090   4.514   3.307
 1940TIP3    H1 5826   5.995   4.514   3.311
 1940TIP3    H2 5827   6.117   4.451   3.374
 1941TIP3   OH2 5828   5.049   1.611   4.851
 1941TIP3    H1 5829   5.144   1.603   4.856
 1941TIP3    H2 5830   5.016   1.521   4.862
 1942TIP3   OH2 5831   5.234   4.211   3.392
 1942TIP3    H1 5832   5.306   4.178   3.337
 1942TIP3    H2 5833   5.201   4.287   3.344
 1943TIP3   OH2 5834   6.080   2.314   0.632
 1943TIP3    H1 5835   6.108   2.247   0.569
 1943TIP3    H2 5836   6.007   2.273   0.680
 1944TIP3   OH2 5837   5.289   2.502   2.344
 1944TIP3    H1 5838   5.231   2.524   2.416
 1944TIP3    H2 5839   5.354   2.573   2.344
 1945TIP3   OH2 5840   4.384   0.390   2.389
 1945TIP3    H1 5841   4.383   0.486   2.397
 1945TIP3    H2 5842   4.394   0.359   2.479
 1946TIP3   OH2 5843   1.371   4.727   2.082
 1946TIP3    H1 5844   1.464   4.748   2.082
 1946TIP3    H2 5845   1.368   4.632   2.068
 1947TIP3   OH2 5846   2.703   3.721   0.316
 1947TIP3    H1 5847   2.612   3.699   0.337
 1947TIP3    H2 5848   2.716   3.686   0.228
 1948TIP3   OH2 5849   4.122   1.378   3.276
 1948TIP3    H1 5850   4.188   1.317   3.245
 1948TIP3    H2 5851   4.063   1.390   3.202
 1949TIP3   OH2 5852   6.206   2.952   0.870
 1949TIP3    H1 5853   6.212   3.022   0.805
 1949TIP3    H2 5854   6.261   2.982   0.943
 1950TIP3   OH2 5855   0.988   0.296   4.623
 1950TIP3    H1 5856   0.933   0.368   4.655
 1950TIP3    H2 5857   1.061   0.339   4.578
 1951TIP3   OH2 5858   4.853   4.363   0.694
 1951TIP3    H1 5859   4.802   4.321   0.624
 1951TIP3    H2 5860   4.843   4.457   0.678
 1952TIP3   OH2 5861   4.026   0.701   1.295
 1952TIP3    H1 5862   4.011   0.772   1.233
 1952TIP3    H2 5863   4.117   0.675   1.282
 1953TIP3   OH2 5864   0.765   1.364   0.208
 1953TIP3    H1 5865   0.843   1.397   0.254
 1953TIP3    H2 5866   0.761   1.272   0.231
 1954TIP3   OH2 5867   1.329   3.851   2.564
 1954TIP3    H1 5868   1.249   3.900   2.545
 1954TIP3    H2 5869   1.344   3.797   2.487
 1955TIP3   OH2 5870   4.448   1.790   3.038
 1955TIP3    H1 5871   4.432   1.748   2.953
 1955TIP3    H2 5872   4.542   1.780   3.052
 1956TIP3   OH2 5873   3.808   4.644   2.571
 1956TIP3    H1 5874   3.774   4.632   2.659
 1956TIP3    H2 5875   3.829   4.737   2.566
 1957TIP3   OH2 5876   2.405   5.936   1.250
 1957TIP3    H1 5877   2.316   5.940   1.284
 1957TIP3    H2 5878   2.456   5.988   1.312
 1958TIP3   OH2 5879   6.003   5.846   4.233
 1958TIP3    H1 5880   5.962   5.810   4.155
 1958TIP3    H2 5881   5.945   5.822   4.305
 1959TIP3   OH2 5882   2.057   0.733   4.092
 1959TIP3    H1 5883   2.029   0.673   4.160
 1959TIP3    H2 5884   2.017   0.817   4.115
 1960TIP3   OH2 5885   1.577   2.092   4.856
 1960TIP3    H1 5886   1.558   2.034   4.929
 1960TIP3    H2 5887   1.493   2.132   4.834
 1961TIP3   OH2 5888   0.472   2.521   0.082
 1961TIP3    H1 5889   0.549   2.479   0.042
 1961TIP3    H2 5890   0.509   2.595   0.131
 1962TIP3   OH2 5891   2.709   2.852   4.086
 1962TIP3    H1 5892   2.696   2.790   4.014
 1962TIP3    H2 5893   2.715   2.937   4.043
 1963TIP3   OH2 5894   6.079   5.869   3.260
 1963TIP3    H1 5895   6.054   5.865   3.168
 1963TIP3    H2 5896   6.027   5.800   3.302
 1964TIP3   OH2 5897   2.192   5.325   1.116
 1964TIP3    H1 5898   2.138   5.247   1.131
 1964TIP3    H2 5899   2.184   5.375   1.197
 1965TIP3   OH2 5900   2.526   1.529   4.224
 1965TIP3    H1 5901   2.464   1.580   4.172
 1965TIP3    H2 5902   2.472   1.471   4.277
 1966TIP3   OH2 5903   4.968   3.968   2.661
 1966TIP3    H1 5904   4.959   3.879   2.628
 1966TIP3    H2 5905   4.993   4.020   2.585
 1967TIP3   OH2 5906   3.908   5.738   2.240
 1967TIP3    H1 5907   3.878   5.661   2.191
 1967TIP3    H2 5908   3.829   5.791   2.251
 1968TIP3   OH2 5909   2.962   3.175   4.351
 1968TIP3    H1 5910   2.977   3.269   4.351
 1968TIP3    H2 5911   3.048   3.137   4.368
 1969TIP3   OH2 5912   1.131   2.858   2.874
 1969TIP3    H1 5913   1.044   2.857   2.833
 1969TIP3    H2 5914   1.126   2.930   2.937
 1970TIP3   OH2 5915   6.246   3.830   3.930
 1970TIP3    H1 5916   6.197   3.856   4.008
 1970TIP3    H2 5917   6.194   3.864   3.856
 1971TIP3   OH2 5918   4.079   3.387   2.841
 1971TIP3    H1 5919   4.159   3.335   2.837
 1971TIP3    H2 5920   4.010   3.324   2.864
 1972TIP3   OH2 5921   0.328   4.969   2.003
 1972TIP3    H1 5922   0.317   4.894   1.945
 1972TIP3    H2 5923   0.410   5.010   1.975
 1973TIP3   OH2 5924   3.068   3.679   4.081
 1973TIP3    H1 5925   3.033   3.625   4.152
 1973TIP3    H2 5926   3.046   3.769   4.106
 1974TIP3   OH2 5927   0.216   5.829   1.294
 1974TIP3    H1 5928   0.287   5.890   1.312
 1974TIP3    H2 5929   0.220   5.814   1.199
 1975TIP3   OH2 5930   0.082   2.411   4.634
 1975TIP3    H1 5931   0.163   2.407   4.686
 1975TIP3    H2 5932   0.013   2.425   4.699
 1976TIP3   OH2 5933   6.211   3.511   3.568
 1976TIP3    H1 5934   6.181   3.437   3.514
 1976TIP3    H2 5935   6.227   3.581   3.505
 1977TIP3   OH2 5936   2.601   3.271   0.615
 1977TIP3    H1 5937   2.654   3.191   0.614
 1977TIP3    H2 5938   2.604   3.303   0.525
 1978TIP3   OH2 5939   0.506   4.710   2.144
 1978TIP3    H1 5940   0.563   4.751   2.078
 1978TIP3    H2 5941   0.465   4.637   2.098
 1979TIP3   OH2 5942   2.301   3.921   3.335
 1979TIP3    H1 5943   2.358   3.999   3.335
 1979TIP3    H2 5944   2.307   3.887   3.424
 1980TIP3   OH2 5945   1.603   3.885   0.146
 1980TIP3    H1 5946   1.669   3.897   0.078
 1980TIP3    H2 5947   1.570   3.796   0.131
 1981TIP3   OH2 5948   5.604   2.139   3.460
 1981TIP3    H1 5949   5.529   2.192   3.433
 1981TIP3    H2 5950   5.583   2.111   3.549
 1982TIP3   OH2 5951   2.646   3.438   1.068
 1982TIP3    H1 5952   2.595   3.391   1.002
 1982TIP3    H2 5953   2.654   3.527   1.033
 1983TIP3   OH2 5954   0.461   2.660   3.620
 1983TIP3    H1 5955   0.528   2.719   3.586
 1983TIP3    H2 5956   0.382   2.714   3.625
 1984TIP3   OH2 5957   4.947   4.383   1.130
 1984TIP3    H1 5958   4.861   4.389   1.087
 1984TIP3    H2 5959   4.999   4.328   1.071
 1985TIP3   OH2 5960   4.026   4.735   3.191
 1985TIP3    H1 5961   4.058   4.812   3.239
 1985TIP3    H2 5962   4.066   4.742   3.105
 1986TIP3   OH2 5963   5.282   0.473   0.571
 1986TIP3    H1 5964   5.321   0.435   0.492
 1986TIP3    H2 5965   5.353   0.521   0.612
 1987TIP3   OH2 5966   1.455   0.438   2.930
 1987TIP3    H1 5967   1.405   0.507   2.886
 1987TIP3    H2 5968   1.391   0.398   2.989
 1988TIP3   OH2 5969   0.645   4.175   1.740
 1988TIP3    H1 5970   0.598   4.151   1.819
 1988TIP3    H2 5971   0.594   4.247   1.703
 1989TIP3   OH2 5972   2.229   3.770   4.081
 1989TIP3    H1 5973   2.149   3.760   4.134
 1989TIP3    H2 5974   2.283   3.695   4.106
 1990TIP3   OH2 5975   4.443   4.008   3.571
 1990TIP3    H1 5976   4.525   4.022   3.525
 1990TIP3    H2 5977   4.387   4.081   3.545
 1991TIP3   OH2 5978   3.210   1.604   3.629
 1991TIP3    H1 5979   3.193   1.596   3.723
 1991TIP3    H2 5980   3.281   1.668   3.622
 1992TIP3   OH2 5981   4.562   1.047   3.896
 1992TIP3    H1 5982   4.592   1.060   3.806
 1992TIP3    H2 5983   4.620   0.979   3.930
 1993TIP3   OH2 5984   4.165   5.839   1.763
 1993TIP3    H1 5985   4.143   5.785   1.839
 1993TIP3    H2 5986   4.188   5.776   1.695
 1994TIP3   OH2 5987   3.116   3.780   1.555
 1994TIP3    H1 5988   3.026   3.786   1.586
 1994TIP3    H2 5989   3.164   3.843   1.609
 1995TIP3   OH2 5990   3.555   4.758   3.600
 1995TIP3    H1 5991   3.553   4.689   3.666
 1995TIP3    H2 5992   3.464   4.786   3.591
 1996TIP3   OH2 5993   0.004   4.183   2.164
 1996TIP3    H1 5994   0.062   4.136   2.224
 1996TIP3    H2 5995   0.017   4.275   2.187
 1997TIP3   OH2 5996   5.893   1.876   0.827
 1997TIP3    H1 5997   5.930   1.927   0.899
 1997TIP3    H2 5998   5.881   1.939   0.756
 1998TIP3   OH2 5999   1.184   4.587   0.090
 1998TIP3    H1 6000   1.109   4.631   0.049
 1998TIP3    H2 6001   1.260   4.635   0.057
 1999TIP3   OH2 6002   3.009   3.191   2.080
 1999TIP3    H1 6003   2.957   3.251   2.028
 1999TIP3    H2 6004   2.947   3.150   2.140
 2000TIP3   OH2 6005   6.166   2.771   3.526
 2000TIP3    H1 6006   6.085   2.764   3.578
 2000TIP3    H2 6007   6.142   2.824   3.451
 2001TIP3   OH2 6008   4.174   5.085   4.303
 2001TIP3    H1 6009   4.124   5.004   4.309
 2001TIP3    H2 6010   4.109   5.153   4.324
 2002TIP3   OH2 6011   4.512   0.292   0.693
 2002TIP3    H1 6012   4.542   0.276   0.604
 2002TIP3    H2 6013   4.442   0.229   0.707
 2003TIP3   OH2 6014   1.705   2.374   0.397
 2003TIP3    H1 6015   1.766   2.400   0.328
 2003TIP3    H2 6016   1.626   2.426   0.380
 2004TIP3   OH2 6017   5.430   1.712   0.518
 2004TIP3    H1 6018   5.505   1.658   0.493
 2004TIP3    H2 6019   5.354   1.669   0.480
 2005TIP3   OH2 6020   0.520   3.711   3.215
 2005TIP3    H1 6021   0.488   3.746   3.132
 2005TIP3    H2 6022   0.488   3.772   3.281
 2006TIP3   OH2 6023   5.345   0.845   2.456
 2006TIP3    H1 6024   5.259   0.870   2.488
 2006TIP3    H2 6025   5.375   0.920   2.404
 2007TIP3   OH2 6026   1.200   1.887   3.193
 2007TIP3    H1 6027   1.261   1.840   3.251
 2007TIP3    H2 6028   1.255   1.927   3.126
 2008TIP3   OH2 6029   3.804   3.876   0.805
 2008TIP3    H1 6030   3.766   3.789   0.799
 2008TIP3    H2 6031   3.736   3.929   0.847
 2009TIP3   OH2 6032   3.534   3.656   4.716
 2009TIP3    H1 6033   3.442   3.677   4.733
 2009TIP3    H2 6034   3.581   3.690   4.793
 2010TIP3   OH2 6035   1.036   5.696   0.206
 2010TIP3    H1 6036   1.090   5.724   0.133
 2010TIP3    H2 6037   1.097   5.681   0.278
 2011TIP3   OH2 6038   0.602   2.324   3.196
 2011TIP3    H1 6039   0.562   2.309   3.111
 2011TIP3    H2 6040   0.638   2.412   3.190
 2012TIP3   OH2 6041   1.958   4.463   0.671
 2012TIP3    H1 6042   1.948   4.461   0.766
 2012TIP3    H2 6043   1.870   4.445   0.637
 2013TIP3   OH2 6044   2.407   5.564   1.816
 2013TIP3    H1 6045   2.443   5.476   1.831
 2013TIP3    H2 6046   2.357   5.584   1.896
 2014TIP3   OH2 6047   5.310   2.254   3.037
 2014TIP3    H1 6048   5.373   2.207   2.981
 2014TIP3    H2 6049   5.295   2.196   3.111
 2015TIP3   OH2 6050   4.430   4.945   3.859
 2015TIP3    H1 6051   4.398   5.028   3.892
 2015TIP3    H2 6052   4.499   4.919   3.920
 2016TIP3   OH2 6053   6.277   4.539   0.321
 2016TIP3    H1 6054   6.247   4.583   0.401
 2016TIP3    H2 6055   6.366   4.572   0.308
 2017TIP3   OH2 6056   5.796   4.888   1.521
 2017TIP3    H1 6057   5.859   4.854   1.584
 2017TIP3    H2 6058   5.728   4.929   1.574
 2018TIP3   OH2 6059   1.958   0.371   1.255
 2018TIP3    H1 6060   2.012   0.306   1.211
 2018TIP3    H2 6061   1.877   0.374   1.205
 2019TIP3   OH2 6062   2.824   1.491   2.729
 2019TIP3    H1 6063   2.784   1.556   2.671
 2019TIP3    H2 6064   2.751   1.434   2.754
 2020TIP3   OH2 6065   1.336   5.604   1.728
 2020TIP3    H1 6066   1.254   5.628   1.685
 2020TIP3    H2 6067   1.370   5.531   1.676
 2021TIP3   OH2 6068   4.180   0.710   4.423
 2021TIP3    H1 6069   4.084   0.714   4.420
 2021TIP3    H2 6070   4.208   0.728   4.333
 2022TIP3   OH2 6071   2.103   1.500   4.382
 2022TIP3    H1 6072   2.047   1.507   4.459
 2022TIP3    H2 6073   2.127   1.590   4.361
 2023TIP3   OH2 6074   0.585   1.983   3.957
 2023TIP3    H1 6075   0.621   1.936   3.882
 2023TIP3    H2 6076   0.547   1.915   4.013
 2024TIP3   OH2 6077   3.198   4.597   0.275
 2024TIP3    H1 6078   3.220   4.508   0.304
 2024TIP3    H2 6079   3.263   4.616   0.207
 2025TIP3   OH2 6080   1.871   1.790   5.049
 2025TIP3    H1 6081   1.938   1.726   5.023
 2025TIP3    H2 6082   1.863   1.777   5.144
 2026TIP3   OH2 6083   0.491   1.298   3.968
 2026TIP3    H1 6084   0.514   1.363   4.035
 2026TIP3    H2 6085   0.548   1.224   3.986
 2027TIP3   OH2 6086   0.566   2.739   4.946
 2027TIP3    H1 6087   0.524   2.679   4.885
 2027TIP3    H2 6088   0.659   2.719   4.940
 2028TIP3   OH2 6089   2.288   0.507   3.952
 2028TIP3    H1 6090   2.226   0.569   3.912
 2028TIP3    H2 6091   2.317   0.551   4.032
 2029TIP3   OH2 6092   2.217   1.060   4.293
 2029TIP3    H1 6093   2.177   1.137   4.253
 2029TIP3    H2 6094   2.266   1.018   4.222
 2030TIP3   OH2 6095   4.892   5.319   4.359
 2030TIP3    H1 6096   4.954   5.323   4.286
 2030TIP3    H2 6097   4.806   5.324   4.317
 2031TIP3   OH2 6098   5.574   3.428   4.835
 2031TIP3    H1 6099   5.572   3.473   4.751
 2031TIP3    H2 6100   5.654   3.375   4.832
 2032TIP3   OH2 6101   1.479   5.787   1.132
 2032TIP3    H1 6102   1.387   5.765   1.118
 2032TIP3    H2 6103   1.492   5.779   1.226
 2033TIP3   OH2 6104   3.303   2.415   2.150
 2033TIP3    H1 6105   3.226   2.427   2.205
 2033TIP3    H2 6106   3.271   2.367   2.073
 2034TIP3   OH2 6107   3.193   0.468   4.156
 2034TIP3    H1 6108   3.101   0.476   4.180
 2034TIP3    H2 6109   3.192   0.456   4.061
 2035TIP3   OH2 6110   3.673   1.100   2.614
 2035TIP3    H1 6111   3.588   1.138   2.595
 2035TIP3    H2 6112   3.696   1.134   2.700
 2036TIP3   OH2 6113   2.448   3.520   0.192
 2036TIP3    H1 6114   2.431   3.583   0.263
 2036TIP3    H2 6115   2.363   3.478   0.177
 2037TIP3   OH2 6116   0.469   0.504   2.752
 2037TIP3    H1 6117   0.517   0.461   2.823
 2037TIP3    H2 6118   0.528   0.498   2.677
 2038TIP3   OH2 6119   0.192   2.306   2.725
 2038TIP3    H1 6120   0.121   2.248   2.754
 2038TIP3    H2 6121   0.272   2.256   2.744
 2039TIP3   OH2 6122   0.995   0.563   3.150
 2039TIP3    H1 6123   0.960   0.493   3.096
 2039TIP3    H2 6124   0.951   0.552   3.235
 2040TIP3   OH2 6125   5.458   1.347   3.758
 2040TIP3    H1 6126   5.460   1.252   3.747
 2040TIP3    H2 6127   5.464   1.361   3.852
 2041TIP3   OH2 6128   3.736   4.406   3.311
 2041TIP3    H1 6129   3.765   4.396   3.402
 2041TIP3    H2 6130   3.789   4.343   3.262
 2042TIP3   OH2 6131   5.924   2.647   0.048
 2042TIP3    H1 6132   6.002   2.661   0.102
 2042TIP3    H2 6133   5.871   2.726   0.061
 2043TIP3   OH2 6134   2.845   0.298   4.939
 2043TIP3    H1 6135   2.937   0.326   4.948
 2043TIP3    H2 6136   2.797   0.379   4.921
 2044TIP3   OH2 6137   5.401   2.743   1.875
 2044TIP3    H1 6138   5.489   2.707   1.876
 2044TIP3    H2 6139   5.350   2.684   1.931
 2045TIP3   OH2 6140   3.392   5.283   3.267
 2045TIP3    H1 6141   3.345   5.347   3.321
 2045TIP3    H2 6142   3.335   5.207   3.264
 2046TIP3   OH2 6143   3.932   2.900   0.259
 2046TIP3    H1 6144   3.995   2.922   0.328
 2046TIP3    H2 6145   3.892   2.984   0.236
 2047TIP3   OH2 6146   3.262   3.943   1.931
 2047TIP3    H1 6147   3.289   3.917   1.843
 2047TIP3    H2 6148   3.307   3.881   1.989
 2048TIP3   OH2 6149   2.737   4.602   2.545
 2048TIP3    H1 6150   2.701   4.612   2.457
 2048TIP3    H2 6151   2.773   4.688   2.567
 2049TIP3   OH2 6152   2.171   0.031   1.705
 2049TIP3    H1 6153   2.249   0.033   1.761
 2049TIP3    H2 6154   2.102  -0.002   1.761
 2050TIP3   OH2 6155   4.687   1.070   0.621
 2050TIP3    H1 6156   4.762   1.065   0.681
 2050TIP3    H2 6157   4.722   1.038   0.538
 2051TIP3   OH2 6158   5.729   3.455   4.587
 2051TIP3    H1 6159   5.734   3.360   4.598
 2051TIP3    H2 6160   5.715   3.467   4.493
 2052TIP3   OH2 6161   2.558   3.179   4.082
 2052TIP3    H1 6162   2.468   3.211   4.091
 2052TIP3    H2 6163   2.589   3.170   4.172
 2053TIP3   OH2 6164   6.315   1.898   4.837
 2053TIP3    H1 6165   6.377   1.951   4.786
 2053TIP3    H2 6166   6.306   1.945   4.920
 2054TIP3   OH2 6167   0.258   1.115   1.550
 2054TIP3    H1 6168   0.330   1.143   1.607
 2054TIP3    H2 6169   0.296   1.113   1.462
 2055TIP3   OH2 6170   3.762   2.080   2.981
 2055TIP3    H1 6171   3.749   2.122   3.066
 2055TIP3    H2 6172   3.721   2.139   2.918
 2056TIP3   OH2 6173   0.358   4.617   4.488
 2056TIP3    H1 6174   0.419   4.570   4.544
 2056TIP3    H2 6175   0.298   4.660   4.548
 2057TIP3   OH2 6176   0.769   5.627   4.913
 2057TIP3    H1 6177   0.719   5.687   4.969
 2057TIP3    H2 6178   0.851   5.674   4.895
 2058TIP3   OH2 6179   1.768   2.857   4.228
 2058TIP3    H1 6180   1.775   2.765   4.204
 2058TIP3    H2 6181   1.857   2.883   4.252
 2059TIP3   OH2 6182   1.660   5.604   1.752
 2059TIP3    H1 6183   1.634   5.524   1.706
 2059TIP3    H2 6184   1.658   5.581   1.844
 2060TIP3   OH2 6185   3.150   3.953   5.093
 2060TIP3    H1 6186   3.114   3.975   5.007
 2060TIP3    H2 6187   3.155   4.036   5.140
 2061TIP3   OH2 6188   3.057   3.836   2.956
 2061TIP3    H1 6189   3.049   3.928   2.980
 2061TIP3    H2 6190   3.041   3.788   3.037
 2062TIP3   OH2 6191   4.089   2.003   3.400
 2062TIP3    H1 6192   4.167   1.960   3.365
 2062TIP3    H2 6193   4.108   2.097   3.393
 2063TIP3   OH2 6194   1.095   3.254   3.310
 2063TIP3    H1 6195   1.017   3.291   3.268
 2063TIP3    H2 6196   1.167   3.304   3.273
 2064TIP3   OH2 6197   3.307   5.286   4.907
 2064TIP3    H1 6198   3.270   5.374   4.905
 2064TIP3    H2 6199   3.379   5.292   4.969
 2065TIP3   OH2 6200   5.106   2.416   3.007
 2065TIP3    H1 6201   5.073   2.407   3.096
 2065TIP3    H2 6202   5.189   2.368   3.008
 2066TIP3   OH2 6203   0.901   3.542   5.066
 2066TIP3    H1 6204   0.858   3.517   5.148
 2066TIP3    H2 6205   0.965   3.608   5.091
 2067TIP3   OH2 6206   3.555   0.350   3.905
 2067TIP3    H1 6207   3.550   0.446   3.900
 2067TIP3    H2 6208   3.560   0.331   3.999
 2068TIP3   OH2 6209   3.527   4.767   2.937
 2068TIP3    H1 6210   3.488   4.795   2.854
 2068TIP3    H2 6211   3.495   4.678   2.950
 2069TIP3   OH2 6212   0.623   4.204   0.645
 2069TIP3    H1 6213   0.614   4.133   0.708
 2069TIP3    H2 6214   0.596   4.166   0.561
 2070TIP3   OH2 6215   5.134   3.293   0.298
 2070TIP3    H1 6216   5.142   3.276   0.391
 2070TIP3    H2 6217   5.135   3.389   0.290
 2071TIP3   OH2 6218   5.360   2.854   4.182
 2071TIP3    H1 6219   5.456   2.848   4.181
 2071TIP3    H2 6220   5.341   2.923   4.245
 2072TIP3   OH2 6221   5.081   0.883   5.162
 2072TIP3    H1 6222   5.045   0.954   5.108
 2072TIP3    H2 6223   5.030   0.806   5.137
 2073TIP3   OH2 6224   1.635   3.620   0.729
 2073TIP3    H1 6225   1.613   3.530   0.705
 2073TIP3    H2 6226   1.606   3.627   0.820
 2074TIP3   OH2 6227   5.166   5.288   4.205
 2074TIP3    H1 6228   5.154   5.228   4.278
 2074TIP3    H2 6229   5.260   5.307   4.205
 2075TIP3   OH2 6230   2.034   4.140   3.947
 2075TIP3    H1 6231   1.982   4.061   3.957
 2075TIP3    H2 6232   2.097   4.137   4.019
 2076TIP3   OH2 6233   3.489   1.267   1.362
 2076TIP3    H1 6234   3.567   1.213   1.379
 2076TIP3    H2 6235   3.519   1.331   1.298
 2077TIP3   OH2 6236   0.014   2.037   2.350
 2077TIP3    H1 6237   0.077   2.098   2.388
 2077TIP3    H2 6238   0.055   2.008   2.269
 2078TIP3   OH2 6239   3.224   0.600   2.975
 2078TIP3    H1 6240   3.291   0.621   3.040
 2078TIP3    H2 6241   3.264   0.626   2.892
 2079TIP3   OH2 6242   0.155   5.376   1.618
 2079TIP3    H1 6243   0.180   5.435   1.690
 2079TIP3    H2 6244   0.178   5.425   1.539
 2080TIP3   OH2 6245   3.326   4.159   2.467
 2080TIP3    H1 6246   3.380   4.158   2.388
 2080TIP3    H2 6247   3.329   4.250   2.497
 2081TIP3   OH2 6248   3.604   5.337   4.045
 2081TIP3    H1 6249   3.647   5.408   3.998
 2081TIP3    H2 6250   3.627   5.351   4.137
 2082TIP3   OH2 6251   4.038   0.886   1.074
 2082TIP3    H1 6252   4.115   0.856   1.026
 2082TIP3    H2 6253   3.980   0.922   1.007
 2083TIP3   OH2 6254   2.248   4.438   3.564
 2083TIP3    H1 6255   2.225   4.505   3.628
 2083TIP3    H2 6256   2.321   4.476   3.515
 2084TIP3   OH2 6257   1.169   0.044   0.565
 2084TIP3    H1 6258   1.226   0.048   0.642
 2084TIP3    H2 6259   1.226   0.009   0.496
 2085TIP3   OH2 6260   4.943   0.133   1.854
 2085TIP3    H1 6261   4.859   0.169   1.882
 2085TIP3    H2 6262   4.991   0.119   1.936
 2086TIP3   OH2 6263   1.716   1.770   3.944
 2086TIP3    H1 6264   1.697   1.834   3.876
 2086TIP3    H2 6265   1.632   1.758   3.989
 2087TIP3   OH2 6266   3.129   3.918   1.024
 2087TIP3    H1 6267   3.179   3.920   0.942
 2087TIP3    H2 6268   3.066   3.847   1.011
 2088TIP3   OH2 6269   2.184   2.243   4.982
 2088TIP3    H1 6270   2.140   2.158   4.974
 2088TIP3    H2 6271   2.113   2.307   4.973
 2089TIP3   OH2 6272   3.024   0.630   0.761
 2089TIP3    H1 6273   2.942   0.583   0.744
 2089TIP3    H2 6274   2.996   0.714   0.797
 2090TIP3   OH2 6275   1.390   2.933   5.192
 2090TIP3    H1 6276   1.397   2.862   5.127
 2090TIP3    H2 6277   1.329   2.995   5.152
 2091TIP3   OH2 6278   3.298   3.006   4.191
 2091TIP3    H1 6279   3.391   2.986   4.202
 2091TIP3    H2 6280   3.267   3.024   4.280
 2092TIP3   OH2 6281   0.041   5.274   2.224
 2092TIP3    H1 6282  -0.010   5.355   2.224
 2092TIP3    H2 6283   0.130   5.302   2.203
 2093TIP3   OH2 6284   0.024   5.785   2.379
 2093TIP3    H1 6285   0.041   5.817   2.291
 2093TIP3    H2 6286   0.100   5.814   2.430
 2094TIP3   OH2 6287   0.909   4.626   1.895
 2094TIP3    H1 6288   0.968   4.640   1.970
 2094TIP3    H2 6289   0.841   4.569   1.930
 2095TIP3   OH2 6290   4.301   1.476   4.451
 2095TIP3    H1 6291   4.319   1.465   4.545
 2095TIP3    H2 6292   4.241   1.405   4.430
 2096TIP3   OH2 6293   6.202   5.592   1.066
 2096TIP3    H1 6294   6.206   5.637   1.151
 2096TIP3    H2 6295   6.248   5.509   1.082
 2097TIP3   OH2 6296   3.733   1.428   0.826
 2097TIP3    H1 6297   3.701   1.505   0.873
 2097TIP3    H2 6298   3.804   1.461   0.772
 2098TIP3   OH2 6299   5.663   1.668   4.595
 2098TIP3    H1 6300   5.704   1.711   4.670
 2098TIP3    H2 6301   5.728   1.604   4.566
 2099TIP3   OH2 6302   6.162   3.121   3.569
 2099TIP3    H1 6303   6.224   3.096   3.502
 2099TIP3    H2 6304   6.212   3.119   3.651
 2100TIP3   OH2 6305   3.339   3.247   4.749
 2100TIP3    H1 6306   3.296   3.314   4.695
 2100TIP3    H2 6307   3.428   3.242   4.714
 2101TIP3   OH2 6308   4.082   2.051   0.552
 2101TIP3    H1 6309   4.049   1.961   0.549
 2101TIP3    H2 6310   4.047   2.086   0.635
 2102TIP3   OH2 6311   6.261   5.382   0.426
 2102TIP3    H1 6312   6.222   5.463   0.395
 2102TIP3    H2 6313   6.265   5.325   0.349
 2103TIP3   OH2 6314   3.728   5.832   5.034
 2103TIP3    H1 6315   3.728   5.795   5.122
 2103TIP3    H2 6316   3.698   5.922   5.047
 2104TIP3   OH2 6317   6.007   0.218   1.840
 2104TIP3    H1 6318   6.076   0.186   1.899
 2104TIP3    H2 6319   6.055   0.268   1.774
 2105TIP3   OH2 6320   4.088   1.757   2.134
 2105TIP3    H1 6321   4.040   1.829   2.175
 2105TIP3    H2 6322   4.129   1.797   2.057
 2106TIP3   OH2 6323   5.836   1.493   4.518
 2106TIP3    H1 6324   5.853   1.479   4.424
 2106TIP3    H2 6325   5.812   1.406   4.550
 2107TIP3   OH2 6326   3.711   2.513   1.114
 2107TIP3    H1 6327   3.791   2.490   1.161
 2107TIP3    H2 6328   3.738   2.524   1.023
 2108TIP3   OH2 6329   3.397   0.759   3.362
 2108TIP3    H1 6330   3.437   0.706   3.432
 2108TIP3    H2 6331   3.318   0.710   3.338
 2109TIP3   OH2 6332   2.278   0.964   4.037
 2109TIP3    H1 6333   2.271   0.961   3.942
 2109TIP3    H2 6334   2.261   0.874   4.065
 2110TIP3   OH2 6335   4.177   2.472   4.980
 2110TIP3    H1 6336   4.143   2.384   4.965
 2110TIP3    H2 6337   4.203   2.473   5.072
 2111TIP3   OH2 6338   1.977   0.448   1.526
 2111TIP3    H1 6339   1.970   0.402   1.442
 2111TIP3    H2 6340   2.016   0.533   1.503
 2112TIP3   OH2 6341   5.435   3.639   4.982
 2112TIP3    H1 6342   5.459   3.726   4.950
 2112TIP3    H2 6343   5.477   3.578   4.922
 2113TIP3   OH2 6344   3.585   1.686   2.550
 2113TIP3    H1 6345   3.612   1.769   2.511
 2113TIP3    H2 6346   3.550   1.710   2.636
 2114TIP3   OH2 6347   3.751   5.159   1.582
 2114TIP3    H1 6348   3.748   5.114   1.497
 2114TIP3    H2 6349   3.811   5.232   1.567
 2115TIP3   OH2 6350   4.278   5.721   4.749
 2115TIP3    H1 6351   4.353   5.780   4.739
 2115TIP3    H2 6352   4.210   5.760   4.694
 2116TIP3   OH2 6353   5.406   5.655   1.078
 2116TIP3    H1 6354   5.423   5.582   1.138
 2116TIP3    H2 6355   5.331   5.627   1.026
 2117TIP3   OH2 6356   1.347   5.285   2.804
 2117TIP3    H1 6357   1.435   5.314   2.829
 2117TIP3    H2 6358   1.362   5.228   2.729
 2118TIP3   OH2 6359   3.725   0.389   1.975
 2118TIP3    H1 6360   3.652   0.451   1.975
 2118TIP3    H2 6361   3.802   0.442   1.997
 2119TIP3   OH2 6362   3.247   5.742   0.505
 2119TIP3    H1 6363   3.279   5.696   0.428
 2119TIP3    H2 6364   3.239   5.833   0.476
 2120TIP3   OH2 6365   1.067   5.284   2.490
 2120TIP3    H1 6366   1.060   5.295   2.395
 2120TIP3    H2 6367   0.994   5.335   2.526
 2121TIP3   OH2 6368   1.270   4.468   2.739
 2121TIP3    H1 6369   1.218   4.519   2.801
 2121TIP3    H2 6370   1.205   4.432   2.678
 2122TIP3   OH2 6371   1.879   1.137   3.180
 2122TIP3    H1 6372   1.849   1.062   3.128
 2122TIP3    H2 6373   1.862   1.213   3.124
 2123TIP3   OH2 6374   5.334   0.909   3.878
 2123TIP3    H1 6375   5.276   0.946   3.945
 2123TIP3    H2 6376   5.341   0.816   3.902
 2124TIP3   OH2 6377   3.554   2.464   1.997
 2124TIP3    H1 6378   3.609   2.401   2.043
 2124TIP3    H2 6379   3.496   2.499   2.064
 2125TIP3   OH2 6380   3.128   0.065   0.560
 2125TIP3    H1 6381   3.165   0.108   0.483
 2125TIP3    H2 6382   3.189  -0.006   0.580
 2126TIP3   OH2 6383   3.060   4.464   2.366
 2126TIP3    H1 6384   3.079   4.427   2.280
 2126TIP3    H2 6385   2.969   4.493   2.361
 2127TIP3   OH2 6386   0.451   4.100   4.565
 2127TIP3    H1 6387   0.401   4.052   4.631
 2127TIP3    H2 6388   0.464   4.036   4.494
 2128TIP3   OH2 6389   5.476   1.998   1.016
 2128TIP3    H1 6390   5.548   2.000   1.079
 2128TIP3    H2 6391   5.499   1.927   0.956
 2129TIP3   OH2 6392   5.215   1.091   2.850
 2129TIP3    H1 6393   5.224   1.034   2.774
 2129TIP3    H2 6394   5.142   1.150   2.827
 2130TIP3   OH2 6395   2.897   1.230   2.295
 2130TIP3    H1 6396   2.868   1.304   2.348
 2130TIP3    H2 6397   2.989   1.250   2.275
 2131TIP3   OH2 6398   5.493   5.007   3.724
 2131TIP3    H1 6399   5.530   5.079   3.775
 2131TIP3    H2 6400   5.536   4.929   3.758
 2132TIP3   OH2 6401   4.777   5.242   1.191
 2132TIP3    H1 6402   4.774   5.235   1.095
 2132TIP3    H2 6403   4.845   5.307   1.208
 2133TIP3   OH2 6404   5.260   1.304   3.302
 2133TIP3    H1 6405   5.172   1.266   3.302
 2133TIP3    H2 6406   5.267   1.349   3.386
 2134TIP3   OH2 6407   4.932   3.706   2.739
 2134TIP3    H1 6408   5.016   3.674   2.772
 2134TIP3    H2 6409   4.878   3.627   2.731
 2135TIP3   OH2 6410   5.344   5.391   3.187
 2135TIP3    H1 6411   5.341   5.472   3.136
 2135TIP3    H2 6412   5.416   5.341   3.148
 2136TIP3   OH2 6413   3.974   5.915   2.693
 2136TIP3    H1 6414   3.903   5.924   2.630
 2136TIP3    H2 6415   4.037   5.857   2.650
 2137TIP3   OH2 6416   4.383   3.478   4.185
 2137TIP3    H1 6417   4.345   3.452   4.268
 2137TIP3    H2 6418   4.339   3.423   4.120
 2138TIP3   OH2 6419   4.359   1.654   0.194
 2138TIP3    H1 6420   4.411   1.710   0.252
 2138TIP3    H2 6421   4.420   1.628   0.125
 2139TIP3   OH2 6422   2.193   1.332   4.781
 2139TIP3    H1 6423   2.137   1.265   4.743
 2139TIP3    H2 6424   2.248   1.362   4.709
 2140TIP3   OH2 6425   2.325   0.792   4.474
 2140TIP3    H1 6426   2.289   0.704   4.478
 2140TIP3    H2 6427   2.274   0.842   4.538
 2141TIP3   OH2 6428   1.360   3.930   4.695
 2141TIP3    H1 6429   1.397   3.966   4.615
 2141TIP3    H2 6430   1.339   4.007   4.748
 2142TIP3   OH2 6431   3.564   5.134   3.867
 2142TIP3    H1 6432   3.567   5.049   3.911
 2142TIP3    H2 6433   3.551   5.197   3.938
 2143TIP3   OH2 6434   1.580   2.505   1.749
 2143TIP3    H1 6435   1.521   2.431   1.737
 2143TIP3    H2 6436   1.545   2.573   1.691
 2144TIP3   OH2 6437   4.812   0.077   3.563
 2144TIP3    H1 6438   4.793   0.151   3.619
 2144TIP3    H2 6439   4.902   0.053   3.584
 2145TIP3   OH2 6440   3.470   4.505   0.229
 2145TIP3    H1 6441   3.561   4.528   0.208
 2145TIP3    H2 6442   3.473   4.411   0.245
 2146TIP3   OH2 6443   2.498   0.168   4.866
 2146TIP3    H1 6444   2.495   0.239   4.931
 2146TIP3    H2 6445   2.517   0.090   4.918
 2147TIP3   OH2 6446   2.167   2.838   0.743
 2147TIP3    H1 6447   2.086   2.797   0.773
 2147TIP3    H2 6448   2.193   2.787   0.666
 2148TIP3   OH2 6449   5.043   3.982   4.128
 2148TIP3    H1 6450   4.992   3.940   4.196
 2148TIP3    H2 6451   5.087   4.055   4.171
 2149TIP3   OH2 6452   1.878   3.847   0.314
 2149TIP3    H1 6453   1.786   3.839   0.339
 2149TIP3    H2 6454   1.916   3.762   0.333
 2150TIP3   OH2 6455   1.036   0.640   4.954
 2150TIP3    H1 6456   1.072   0.552   4.964
 2150TIP3    H2 6457   0.983   0.653   5.032
 2151TIP3   OH2 6458   0.296   0.176   0.284
 2151TIP3    H1 6459   0.281   0.082   0.280
 2151TIP3    H2 6460   0.228   0.214   0.229
 2152TIP3   OH2 6461   0.444   3.712   4.682
 2152TIP3    H1 6462   0.519   3.653   4.685
 2152TIP3    H2 6463   0.370   3.657   4.708
 2153TIP3   OH2 6464   3.066   2.095   0.337
 2153TIP3    H1 6465   2.978   2.057   0.331
 2153TIP3    H2 6466   3.068   2.137   0.422
 2154TIP3   OH2 6467   2.515   3.923   4.705
 2154TIP3    H1 6468   2.431   3.877   4.713
 2154TIP3    H2 6469   2.491   4.016   4.701
 2155TIP3   OH2 6470   1.516   3.190   3.692
 2155TIP3    H1 6471   1.472   3.224   3.770
 2155TIP3    H2 6472   1.528   3.096   3.711
 2156TIP3   OH2 6473   2.650   3.680   1.313
 2156TIP3    H1 6474   2.561   3.699   1.280
 2156TIP3    H2 6475   2.695   3.764   1.308
 2157TIP3   OH2 6476   5.444   5.195   1.835
 2157TIP3    H1 6477   5.523   5.230   1.793
 2157TIP3    H2 6478   5.384   5.269   1.837
 2158TIP3   OH2 6479   2.230   0.064   3.740
 2158TIP3    H1 6480   2.269   0.036   3.657
 2158TIP3    H2 6481   2.212   0.158   3.727
 2159TIP3   OH2 6482   5.402   0.110   0.034
 2159TIP3    H1 6483   5.452   0.192   0.031
 2159TIP3    H2 6484   5.313   0.138   0.054
 2160TIP3   OH2 6485   1.608   3.105   0.751
 2160TIP3    H1 6486   1.584   3.043   0.820
 2160TIP3    H2 6487   1.590   3.059   0.670
 2161TIP3   OH2 6488   3.754   3.055   3.525
 2161TIP3    H1 6489   3.669   3.087   3.557
 2161TIP3    H2 6490   3.814   3.069   3.598
 2162TIP3   OH2 6491   5.092   4.516   4.989
 2162TIP3    H1 6492   5.155   4.445   4.976
 2162TIP3    H2 6493   5.144   4.588   5.025
 2163TIP3   OH2 6494   0.222   4.498   3.374
 2163TIP3    H1 6495   0.198   4.427   3.433
 2163TIP3    H2 6496   0.295   4.462   3.323
 2164TIP3   OH2 6497   0.825   5.793   0.332
 2164TIP3    H1 6498   0.792   5.731   0.397
 2164TIP3    H2 6499   0.908   5.755   0.302
 2165TIP3   OH2 6500   5.191   0.602   2.673
 2165TIP3    H1 6501   5.159   0.599   2.583
 2165TIP3    H2 6502   5.158   0.685   2.708
 2166TIP3   OH2 6503   0.201   0.007   1.816
 2166TIP3    H1 6504   0.109  -0.011   1.796
 2166TIP3    H2 6505   0.226   0.074   1.753
 2167TIP3   OH2 6506   0.160   2.803   2.631
 2167TIP3    H1 6507   0.246   2.824   2.594
 2167TIP3    H2 6508   0.153   2.708   2.622
 2168TIP3   OH2 6509   0.083   4.822   1.527
 2168TIP3    H1 6510   0.054   4.846   1.615
 2168TIP3    H2 6511   0.168   4.865   1.517
 2169TIP3   OH2 6512   2.319   1.925   4.987
 2169TIP3    H1 6513   2.359   2.010   4.967
 2169TIP3    H2 6514   2.273   1.902   4.906
 2170TIP3   OH2 6515   2.433   0.537   1.119
 2170TIP3    H1 6516   2.367   0.487   1.166
 2170TIP3    H2 6517   2.465   0.478   1.051
 2171TIP3   OH2 6518   5.102   0.642   3.319
 2171TIP3    H1 6519   5.036   0.598   3.373
 2171TIP3    H2 6520   5.147   0.702   3.379
 2172TIP3   OH2 6521   4.450   4.551   0.367
 2172TIP3    H1 6522   4.545   4.544   0.358
 2172TIP3    H2 6523   4.416   4.537   0.278
 2173TIP3   OH2 6524   5.624   1.852   2.750
 2173TIP3    H1 6525   5.588   1.765   2.766
 2173TIP3    H2 6526   5.702   1.857   2.805
 2174TIP3   OH2 6527   4.845   2.380   5.076
 2174TIP3    H1 6528   4.923   2.376   5.020
 2174TIP3    H2 6529   4.873   2.339   5.158
 2175TIP3   OH2 6530   6.253   2.015   4.482
 2175TIP3    H1 6531   6.179   2.002   4.540
 2175TIP3    H2 6532   6.258   1.935   4.430
 2176TIP3   OH2 6533   1.677   4.019   2.101
 2176TIP3    H1 6534   1.645   3.964   2.029
 2176TIP3    H2 6535   1.612   4.090   2.107
 2177TIP3   OH2 6536   4.640   2.374   1.919
 2177TIP3    H1 6537   4.701   2.440   1.952
 2177TIP3    H2 6538   4.560   2.387   1.970
 2178TIP3   OH2 6539   3.948   1.207   3.646
 2178TIP3    H1 6540   3.941   1.186   3.553
 2178TIP3    H2 6541   3.917   1.128   3.690
 2179TIP3   OH2 6542   5.711   3.627   3.254
 2179TIP3    H1 6543   5.648   3.683   3.299
 2179TIP3    H2 6544   5.675   3.538   3.263
 2180TIP3   OH2 6545   3.759   5.207   0.573
 2180TIP3    H1 6546   3.817   5.278   0.602
 2180TIP3    H2 6547   3.679   5.219   0.625
 2181TIP3   OH2 6548   3.802   4.445   2.836
 2181TIP3    H1 6549   3.892   4.412   2.834
 2181TIP3    H2 6550   3.809   4.532   2.875
 2182TIP3   OH2 6551   2.709   3.590   2.001
 2182TIP3    H1 6552   2.628   3.540   1.995
 2182TIP3    H2 6553   2.690   3.660   2.064
 2183TIP3   OH2 6554   0.919   2.596   4.826
 2183TIP3    H1 6555   1.010   2.613   4.849
 2183TIP3    H2 6556   0.871   2.671   4.862
 2184TIP3   OH2 6557   5.619   0.013   3.003
 2184TIP3    H1 6558   5.538  -0.003   2.954
 2184TIP3    H2 6559   5.602   0.095   3.049
 2185TIP3   OH2 6560   4.850   5.168   0.490
 2185TIP3    H1 6561   4.920   5.229   0.465
 2185TIP3    H2 6562   4.778   5.189   0.430
 2186TIP3   OH2 6563   5.816   0.355   1.672
 2186TIP3    H1 6564   5.894   0.396   1.710
 2186TIP3    H2 6565   5.749   0.423   1.674
 2187TIP3   OH2 6566   6.192   0.778   1.055
 2187TIP3    H1 6567   6.274   0.823   1.033
 2187TIP3    H2 6568   6.177   0.718   0.983
 2188TIP3   OH2 6569   4.550   4.124   3.281
 2188TIP3    H1 6570   4.460   4.154   3.270
 2188TIP3    H2 6571   4.548   4.032   3.256
 2189TIP3   OH2 6572   0.606   5.914   2.186
 2189TIP3    H1 6573   0.535   5.892   2.246
 2189TIP3    H2 6574   0.686   5.896   2.236
 2190TIP3   OH2 6575   4.026   2.691   4.919
 2190TIP3    H1 6576   4.090   2.623   4.936
 2190TIP3    H2 6577   3.942   2.651   4.941
 2191TIP3   OH2 6578   3.326   3.236   3.208
 2191TIP3    H1 6579   3.255   3.295   3.235
 2191TIP3    H2 6580   3.404   3.270   3.252
 2192TIP3   OH2 6581   3.555   1.960   3.246
 2192TIP3    H1 6582   3.510   1.876   3.244
 2192TIP3    H2 6583   3.499   2.018   3.193
 2193TIP3   OH2 6584   1.753   2.788   5.001
 2193TIP3    H1 6585   1.707   2.706   4.983
 2193TIP3    H2 6586   1.714   2.820   5.083
 2194TIP3   OH2 6587   3.550   3.126   0.301
 2194TIP3    H1 6588   3.480   3.187   0.276
 2194TIP3    H2 6589   3.631   3.175   0.284
 2195TIP3   OH2 6590   3.451   0.919   2.469
 2195TIP3    H1 6591   3.445   1.008   2.502
 2195TIP3    H2 6592   3.541   0.892   2.486
 2196TIP3   OH2 6593   5.060   2.304   4.295
 2196TIP3    H1 6594   5.035   2.396   4.298
 2196TIP3    H2 6595   5.089   2.284   4.384
 2197TIP3   OH2 6596   4.299   2.859   4.165
 2197TIP3    H1 6597   4.381   2.811   4.169
 2197TIP3    H2 6598   4.242   2.817   4.229
 2198TIP3   OH2 6599   4.197   5.497   1.210
 2198TIP3    H1 6600   4.148   5.566   1.255
 2198TIP3    H2 6601   4.143   5.475   1.134
 2199TIP3   OH2 6602   0.734   1.214   3.596
 2199TIP3    H1 6603   0.744   1.119   3.590
 2199TIP3    H2 6604   0.639   1.228   3.599
 2200TIP3   OH2 6605   5.778   5.484   3.769
 2200TIP3    H1 6606   5.740   5.425   3.704
 2200TIP3    H2 6607   5.787   5.568   3.723
 2201TIP3   OH2 6608   1.726   4.864   4.849
 2201TIP3    H1 6609   1.666   4.847   4.922
 2201TIP3    H2 6610   1.783   4.934   4.881
 2202TIP3   OH2 6611   3.264   2.455   0.051
 2202TIP3    H1 6612   3.330   2.406   0.002
 2202TIP3    H2 6613   3.202   2.388   0.082
 2203TIP3   OH2 6614   3.378   2.253   1.902
 2203TIP3    H1 6615   3.457   2.301   1.926
 2203TIP3    H2 6616   3.357   2.283   1.814
 2204TIP3   OH2 6617   2.753   5.515   4.728
 2204TIP3    H1 6618   2.724   5.551   4.645
 2204TIP3    H2 6619   2.830   5.568   4.751
 2205TIP3   OH2 6620   5.452   0.588   2.430
 2205TIP3    H1 6621   5.446   0.536   2.511
 2205TIP3    H2 6622   5.381   0.652   2.438
 2206TIP3   OH2 6623   1.459   4.080   4.494
 2206TIP3    H1 6624   1.466   4.008   4.432
 2206TIP3    H2 6625   1.393   4.138   4.456
 2207TIP3   OH2 6626   3.292   4.294   3.157
 2207TIP3    H1 6627   3.201   4.312   3.135
 2207TIP3    H2 6628   3.301   4.199   3.151
 2208TIP3   OH2 6629   5.982   3.914   4.536
 2208TIP3    H1 6630   5.949   3.952   4.455
 2208TIP3    H2 6631   6.016   3.989   4.585
 2209TIP3   OH2 6632   2.604   2.251   3.015
 2209TIP3    H1 6633   2.553   2.299   3.080
 2209TIP3    H2 6634   2.556   2.263   2.933
 2210TIP3   OH2 6635   2.096   3.732   0.662
 2210TIP3    H1 6636   2.004   3.750   0.641
 2210TIP3    H2 6637   2.145   3.795   0.610
 2211TIP3   OH2 6638   0.983   2.432   0.570
 2211TIP3    H1 6639   0.935   2.515   0.581
 2211TIP3    H2 6640   1.034   2.445   0.490
 2212TIP3   OH2 6641   4.614   1.754   2.435
 2212TIP3    H1 6642   4.559   1.830   2.448
 2212TIP3    H2 6643   4.679   1.781   2.370
 2213TIP3   OH2 6644   0.890   2.838   0.866
 2213TIP3    H1 6645   0.964   2.885   0.828
 2213TIP3    H2 6646   0.814   2.892   0.847
 2214TIP3   OH2 6647   1.102   1.345   4.547
 2214TIP3    H1 6648   1.050   1.285   4.601
 2214TIP3    H2 6649   1.131   1.413   4.607
 2215TIP3   OH2 6650   0.120   5.231   0.920
 2215TIP3    H1 6651   0.164   5.173   0.858
 2215TIP3    H2 6652   0.077   5.296   0.864
 2216TIP3   OH2 6653   2.804   2.777   4.771
 2216TIP3    H1 6654   2.861   2.853   4.776
 2216TIP3    H2 6655   2.790   2.752   4.863
 2217TIP3   OH2 6656   3.900   3.136   1.031
 2217TIP3    H1 6657   3.972   3.072   1.028
 2217TIP3    H2 6658   3.918   3.189   1.108
 2218TIP3   OH2 6659   5.268   5.946   1.362
 2218TIP3    H1 6660   5.334   5.888   1.398
 2218TIP3    H2 6661   5.288   5.950   1.269
 2219TIP3   OH2 6662   3.154   1.244   0.798
 2219TIP3    H1 6663   3.121   1.256   0.709
 2219TIP3    H2 6664   3.248   1.261   0.791
 2220TIP3   OH2 6665   1.246   0.369   3.961
 2220TIP3    H1 6666   1.222   0.313   3.887
 2220TIP3    H2 6667   1.339   0.388   3.947
 2221TIP3   OH2 6668   2.388   3.201   3.668
 2221TIP3    H1 6669   2.422   3.123   3.711
 2221TIP3    H2 6670   2.347   3.167   3.587
 2222TIP3   OH2 6671   2.981   2.230   1.477
 2222TIP3    H1 6672   3.001   2.276   1.558
 2222TIP3    H2 6673   3.024   2.281   1.408
 2223TIP3   OH2 6674   4.293   1.225   2.686
 2223TIP3    H1 6675   4.242   1.150   2.718
 2223TIP3    H2 6676   4.280   1.223   2.591
 2224TIP3   OH2 6677   2.690   5.723   3.600
 2224TIP3    H1 6678   2.646   5.806   3.618
 2224TIP3    H2 6679   2.619   5.663   3.576
 2225TIP3   OH2 6680   2.812   0.116   4.228
 2225TIP3    H1 6681   2.878   0.169   4.184
 2225TIP3    H2 6682   2.844   0.108   4.318
 2226TIP3   OH2 6683   3.761   2.195   1.038
 2226TIP3    H1 6684   3.836   2.254   1.048
 2226TIP3    H2 6685   3.717   2.197   1.123
 2227TIP3   OH2 6686   1.437   1.886   5.027
 2227TIP3    H1 6687   1.427   1.800   4.987
 2227TIP3    H2 6688   1.456   1.868   5.119
 2228TIP3   OH2 6689   6.128   2.589   1.486
 2228TIP3    H1 6690   6.093   2.512   1.441
 2228TIP3    H2 6691   6.066   2.605   1.557
 2229TIP3   OH2 6692   2.950   1.032   4.088
 2229TIP3    H1 6693   2.914   1.112   4.127
 2229TIP3    H2 6694   3.016   1.002   4.152
 2230TIP3   OH2 6695   2.255   3.374   2.365
 2230TIP3    H1 6696   2.184   3.362   2.302
 2230TIP3    H2 6697   2.331   3.333   2.323
 2231TIP3   OH2 6698   1.807   1.563   0.706
 2231TIP3    H1 6699   1.766   1.626   0.647
 2231TIP3    H2 6700   1.808   1.606   0.791
 2232TIP3   OH2 6701   1.866   4.239   1.994
 2232TIP3    H1 6702   1.873   4.144   2.008
 2232TIP3    H2 6703   1.775   4.252   1.968
 2233TIP3   OH2 6704   3.562   1.362   0.070
 2233TIP3    H1 6705   3.475   1.356   0.030
 2233TIP3    H2 6706   3.622   1.336   0.000
 2234TIP3   OH2 6707   1.646   4.061   4.989
 2234TIP3    H1 6708   1.600   3.990   4.944
 2234TIP3    H2 6709   1.636   4.137   4.932
 2235TIP3   OH2 6710   6.235   1.474   2.462
 2235TIP3    H1 6711   6.300   1.544   2.471
 2235TIP3    H2 6712   6.280   1.407   2.410
 2236TIP3   OH2 6713   0.441   4.833   1.180
 2236TIP3    H1 6714   0.389   4.910   1.160
 2236TIP3    H2 6715   0.521   4.867   1.220
 2237TIP3   OH2 6716   4.746   5.618   4.243
 2237TIP3    H1 6717   4.814   5.577   4.189
 2237TIP3    H2 6718   4.794   5.661   4.314
 2238TIP3   OH2 6719   0.499   4.585   3.639
 2238TIP3    H1 6720   0.473   4.503   3.682
 2238TIP3    H2 6721   0.594   4.588   3.651
 2239TIP3   OH2 6722   4.993   1.349   0.954
 2239TIP3    H1 6723   5.010   1.377   0.864
 2239TIP3    H2 6724   4.919   1.289   0.947
 2240TIP3   OH2 6725   2.456   1.856   0.319
 2240TIP3    H1 6726   2.496   1.771   0.336
 2240TIP3    H2 6727   2.365   1.846   0.348
 2241TIP3   OH2 6728   2.445   5.703   0.138
 2241TIP3    H1 6729   2.510   5.673   0.201
 2241TIP3    H2 6730   2.429   5.627   0.082
 2242TIP3   OH2 6731   3.758   2.775   0.471
 2242TIP3    H1 6732   3.786   2.835   0.402
 2242TIP3    H2 6733   3.839   2.740   0.507
 2243TIP3   OH2 6734   4.402   0.830   4.393
 2243TIP3    H1 6735   4.381   0.838   4.300
 2243TIP3    H2 6736   4.337   0.770   4.427
 2244TIP3   OH2 6737   0.819   1.242   3.321
 2244TIP3    H1 6738   0.813   1.208   3.411
 2244TIP3    H2 6739   0.887   1.310   3.326
 2245TIP3   OH2 6740   5.233   1.746   2.924
 2245TIP3    H1 6741   5.277   1.810   2.980
 2245TIP3    H2 6742   5.231   1.665   2.976
 2246TIP3   OH2 6743   3.321   5.799   2.606
 2246TIP3    H1 6744   3.256   5.851   2.560
 2246TIP3    H2 6745   3.382   5.864   2.643
 2247TIP3   OH2 6746   5.205   4.697   0.754
 2247TIP3    H1 6747   5.167   4.613   0.726
 2247TIP3    H2 6748   5.177   4.708   0.844
 2248TIP3   OH2 6749   3.028   4.491   4.401
 2248TIP3    H1 6750   3.045   4.498   4.495
 2248TIP3    H2 6751   3.032   4.581   4.369
 2249TIP3   OH2 6752   0.754   5.074   3.237
 2249TIP3    H1 6753   0.767   5.162   3.274
 2249TIP3    H2 6754   0.842   5.035   3.238
 2250TIP3   OH2 6755   4.043   3.604   0.678
 2250TIP3    H1 6756   4.116   3.664   0.662
 2250TIP3    H2 6757   3.973   3.637   0.622
 2251TIP3   OH2 6758   5.582   0.028   2.335
 2251TIP3    H1 6759   5.600   0.111   2.380
 2251TIP3    H2 6760   5.500  -0.003   2.374
 2252TIP3   OH2 6761   4.320   3.782   2.045
 2252TIP3    H1 6762   4.352   3.714   2.105
 2252TIP3    H2 6763   4.398   3.811   1.998
 2253TIP3   OH2 6764   1.684   0.216   0.671
 2253TIP3    H1 6765   1.648   0.137   0.632
 2253TIP3    H2 6766   1.667   0.285   0.607
 2254TIP3   OH2 6767   1.604   3.682   5.133
 2254TIP3    H1 6768   1.613   3.766   5.088
 2254TIP3    H2 6769   1.522   3.646   5.101
 2255TIP3   OH2 6770   2.655   5.660   0.611
 2255TIP3    H1 6771   2.617   5.746   0.627
 2255TIP3    H2 6772   2.732   5.657   0.669
 2256TIP3   OH2 6773   3.978   3.608   0.944
 2256TIP3    H1 6774   4.058   3.590   0.994
 2256TIP3    H2 6775   4.009   3.622   0.854
 2257TIP3   OH2 6776   2.293   0.155   4.076
 2257TIP3    H1 6777   2.350   0.231   4.086
 2257TIP3    H2 6778   2.323   0.114   3.995
 2258TIP3   OH2 6779   2.733   5.382   1.716
 2258TIP3    H1 6780   2.691   5.298   1.695
 2258TIP3    H2 6781   2.688   5.412   1.795
 2259TIP3   OH2 6782   5.249   3.123   0.848
 2259TIP3    H1 6783   5.320   3.139   0.786
 2259TIP3    H2 6784   5.179   3.181   0.821
 2260TIP3   OH2 6785   4.553   4.549   2.822
 2260TIP3    H1 6786   4.576   4.458   2.804
 2260TIP3    H2 6787   4.592   4.568   2.907
 2261TIP3   OH2 6788   1.592   5.682   4.642
 2261TIP3    H1 6789   1.597   5.774   4.668
 2261TIP3    H2 6790   1.527   5.644   4.701
 2262TIP3   OH2 6791   3.042   3.087   2.393
 2262TIP3    H1 6792   3.113   3.033   2.358
 2262TIP3    H2 6793   3.031   3.058   2.483
 2263TIP3   OH2 6794   5.487   1.043   3.692
 2263TIP3    H1 6795   5.567   0.994   3.710
 2263TIP3    H2 6796   5.423   1.009   3.756
 2264TIP3   OH2 6797   2.792   3.006   1.264
 2264TIP3    H1 6798   2.863   3.064   1.292
 2264TIP3    H2 6799   2.721   3.024   1.325
 2265TIP3   OH2 6800   5.148   4.482   0.430
 2265TIP3    H1 6801   5.123   4.484   0.523
 2265TIP3    H2 6802   5.223   4.541   0.425
 2266TIP3   OH2 6803   1.600   1.083   1.911
 2266TIP3    H1 6804   1.660   1.026   1.863
 2266TIP3    H2 6805   1.538   1.113   1.845
 2267TIP3   OH2 6806   4.781   2.570   4.055
 2267TIP3    H1 6807   4.780   2.599   3.964
 2267TIP3    H2 6808   4.756   2.478   4.052
 2268TIP3   OH2 6809   3.824   1.750   1.438
 2268TIP3    H1 6810   3.753   1.689   1.457
 2268TIP3    H2 6811   3.898   1.693   1.415
 2269TIP3   OH2 6812   6.111   3.150   1.737
 2269TIP3    H1 6813   6.194   3.164   1.784
 2269TIP3    H2 6814   6.056   3.225   1.762
 2270TIP3   OH2 6815   4.195   1.129   2.439
 2270TIP3    H1 6816   4.130   1.114   2.508
 2270TIP3    H2 6817   4.159   1.199   2.385
 2271TIP3   OH2 6818   1.675   4.802   4.117
 2271TIP3    H1 6819   1.755   4.754   4.096
 2271TIP3    H2 6820   1.672   4.873   4.052
 2272TIP3   OH2 6821   2.141   5.598   5.001
 2272TIP3    H1 6822   2.183   5.612   4.916
 2272TIP3    H2 6823   2.070   5.537   4.981
 2273TIP3   OH2 6824   2.255   5.283   4.885
 2273TIP3    H1 6825   2.191   5.354   4.883
 2273TIP3    H2 6826   2.261   5.258   4.977
 2274TIP3   OH2 6827   5.466   4.060   0.448
 2274TIP3    H1 6828   5.459   3.966   0.465
 2274TIP3    H2 6829   5.389   4.098   0.491
 2275TIP3   OH2 6830   1.532   2.056   0.534
 2275TIP3    H1 6831   1.476   2.122   0.575
 2275TIP3    H2 6832   1.487   2.033   0.453
 2276TIP3   OH2 6833   1.306   5.023   1.305
 2276TIP3    H1 6834   1.303   4.933   1.273
 2276TIP3    H2 6835   1.387   5.028   1.356
 2277TIP3   OH2 6836   0.107   0.817   3.368
 2277TIP3    H1 6837   0.099   0.851   3.279
 2277TIP3    H2 6838   0.187   0.858   3.403
 2278TIP3   OH2 6839   4.496   4.213   2.326
 2278TIP3    H1 6840   4.586   4.239   2.346
 2278TIP3    H2 6841   4.481   4.246   2.238
 2279TIP3   OH2 6842   1.028   1.419   1.228
 2279TIP3    H1 6843   1.050   1.465   1.147
 2279TIP3    H2 6844   0.937   1.443   1.245
 2280TIP3   OH2 6845   2.754   5.936   0.652
 2280TIP3    H1 6846   2.835   5.898   0.688
 2280TIP3    H2 6847   2.721   5.993   0.721
 2281TIP3   OH2 6848   4.542   3.733   5.074
 2281TIP3    H1 6849   4.624   3.783   5.080
 2281TIP3    H2 6850   4.474   3.796   5.096
 2282TIP3   OH2 6851   5.294   2.185   2.082
 2282TIP3    H1 6852   5.337   2.113   2.036
 2282TIP3    H2 6853   5.327   2.178   2.172
 2283TIP3   OH2 6854   4.962   4.891   3.630
 2283TIP3    H1 6855   4.892   4.880   3.566
 2283TIP3    H2 6856   4.989   4.983   3.622
 2284TIP3   OH2 6857   6.144   1.410   3.146
 2284TIP3    H1 6858   6.121   1.476   3.211
 2284TIP3    H2 6859   6.117   1.327   3.186
 2285TIP3   OH2 6860   3.750   5.734   1.412
 2285TIP3    H1 6861   3.716   5.649   1.441
 2285TIP3    H2 6862   3.683   5.797   1.437
 2286TIP3   OH2 6863   4.428   2.697   0.952
 2286TIP3    H1 6864   4.444   2.785   0.985
 2286TIP3    H2 6865   4.480   2.640   1.009
 2287TIP3   OH2 6866   5.665   1.127   4.832
 2287TIP3    H1 6867   5.698   1.193   4.771
 2287TIP3    H2 6868   5.598   1.080   4.781
 2288TIP3   OH2 6869   5.621   5.143   2.795
 2288TIP3    H1 6870   5.542   5.093   2.815
 2288TIP3    H2 6871   5.693   5.087   2.826
 2289TIP3   OH2 6872   2.140   2.415   4.385
 2289TIP3    H1 6873   2.160   2.427   4.292
 2289TIP3    H2 6874   2.093   2.495   4.410
 2290TIP3   OH2 6875   1.162   5.208   4.901
 2290TIP3    H1 6876   1.074   5.198   4.936
 2290TIP3    H2 6877   1.207   5.127   4.924
 2291TIP3   OH2 6878   4.573   1.852   2.712
 2291TIP3    H1 6879   4.482   1.822   2.709
 2291TIP3    H2 6880   4.606   1.837   2.623
 2292TIP3   OH2 6881   0.910   1.761   1.302
 2292TIP3    H1 6882   0.959   1.756   1.219
 2292TIP3    H2 6883   0.820   1.739   1.278
 2293TIP3   OH2 6884   5.072   2.731   3.220
 2293TIP3    H1 6885   5.021   2.808   3.245
 2293TIP3    H2 6886   5.083   2.739   3.125
 2294TIP3   OH2 6887   5.114   0.956   0.473
 2294TIP3    H1 6888   5.082   0.867   0.487
 2294TIP3    H2 6889   5.128   0.962   0.379
 2295TIP3   OH2 6890   3.116   4.830   5.038
 2295TIP3    H1 6891   3.114   4.887   5.114
 2295TIP3    H2 6892   3.163   4.752   5.068
 2296TIP3   OH2 6893   4.775   4.387   0.071
 2296TIP3    H1 6894   4.802   4.431  -0.010
 2296TIP3    H2 6895   4.700   4.438   0.101
 2297TIP3   OH2 6896   5.999   3.451   4.367
 2297TIP3    H1 6897   6.048   3.518   4.319
 2297TIP3    H2 6898   5.907   3.475   4.354
 2298TIP3   OH2 6899   3.976   2.660   4.205
 2298TIP3    H1 6900   3.964   2.597   4.133
 2298TIP3    H2 6901   3.935   2.618   4.281
 2299TIP3   OH2 6902   0.551   4.691   2.889
 2299TIP3    H1 6903   0.482   4.664   2.829
 2299TIP3    H2 6904   0.609   4.745   2.836
 2300TIP3   OH2 6905   6.291   1.755   2.290
 2300TIP3    H1 6906   6.273   1.849   2.282
 2300TIP3    H2 6907   6.323   1.745   2.380
 2301TIP3   OH2 6908   0.457   5.642   2.165
 2301TIP3    H1 6909   0.437   5.548   2.162
 2301TIP3    H2 6910   0.532   5.652   2.107
 2302TIP3   OH2 6911   5.112   2.042   4.190
 2302TIP3    H1 6912   5.078   2.029   4.279
 2302TIP3    H2 6913   5.036   2.072   4.140
 2303TIP3   OH2 6914   6.082   5.536   3.143
 2303TIP3    H1 6915   6.016   5.475   3.177
 2303TIP3    H2 6916   6.032   5.595   3.087
 2304TIP3   OH2 6917   4.987   3.904   0.294
 2304TIP3    H1 6918   4.925   3.977   0.302
 2304TIP3    H2 6919   4.999   3.893   0.200
 2305TIP3   OH2 6920   5.920   5.679   2.108
 2305TIP3    H1 6921   5.979   5.718   2.173
 2305TIP3    H2 6922   5.835   5.674   2.152
 2306TIP3   OH2 6923   1.226   1.692   4.575
 2306TIP3    H1 6924   1.249   1.760   4.638
 2306TIP3    H2 6925   1.133   1.707   4.556
 2307TIP3   OH2 6926   2.116   4.651   2.541
 2307TIP3    H1 6927   2.073   4.604   2.612
 2307TIP3    H2 6928   2.050   4.654   2.471
 2308TIP3   OH2 6929   6.002   2.339   4.476
 2308TIP3    H1 6930   6.078   2.353   4.420
 2308TIP3    H2 6931   5.933   2.309   4.417
 2309TIP3   OH2 6932   3.328   4.700   0.058
 2309TIP3    H1 6933   3.323   4.641  -0.016
 2309TIP3    H2 6934   3.418   4.690   0.090
 2310TIP3   OH2 6935   2.232   5.248   5.164
 2310TIP3    H1 6936   2.261   5.158   5.173
 2310TIP3    H2 6937   2.153   5.253   5.218
 2311TIP3   OH2 6938   1.871   3.283   2.277
 2311TIP3    H1 6939   1.958   3.302   2.242
 2311TIP3    H2 6940   1.811   3.298   2.203
 2312TIP3   OH2 6941   5.438   1.119   2.588
 2312TIP3    H1 6942   5.452   1.160   2.673
 2312TIP3    H2 6943   5.412   1.029   2.609
 2313TIP3   OH2 6944   2.992   2.220   3.877
 2313TIP3    H1 6945   3.042   2.297   3.906
 2313TIP3    H2 6946   2.911   2.224   3.927
 2314TIP3   OH2 6947   0.470   3.596   1.683
 2314TIP3    H1 6948   0.556   3.563   1.658
 2314TIP3    H2 6949   0.473   3.604   1.778
 2315TIP3   OH2 6950   3.828   2.275   3.203
 2315TIP3    H1 6951   3.844   2.205   3.266
 2315TIP3    H2 6952   3.747   2.316   3.233
 2316TIP3   OH2 6953   3.223   0.492   0.867
 2316TIP3    H1 6954   3.152   0.542   0.828
 2316TIP3    H2 6955   3.276   0.558   0.914
 2317TIP3   OH2 6956   5.229   3.032   4.376
 2317TIP3    H1 6957   5.138   3.017   4.352
 2317TIP3    H2 6958   5.238   2.993   4.463
 2318TIP3   OH2 6959   1.452   1.575   1.288
 2318TIP3    H1 6960   1.366   1.568   1.328
 2318TIP3    H2 6961   1.456   1.665   1.255
 2319TIP3   OH2 6962   3.715   4.431   1.760
 2319TIP3    H1 6963   3.656   4.451   1.833
 2319TIP3    H2 6964   3.658   4.430   1.683
 2320TIP3   OH2 6965   5.916   0.919   2.257
 2320TIP3    H1 6966   5.821   0.917   2.256
 2320TIP3    H2 6967   5.942   0.861   2.185
 2321TIP3   OH2 6968   6.006   5.025   0.526
 2321TIP3    H1 6969   5.991   5.012   0.619
 2321TIP3    H2 6970   5.932   4.983   0.483
 2322TIP3   OH2 6971   4.708   2.787   1.258
 2322TIP3    H1 6972   4.773   2.848   1.223
 2322TIP3    H2 6973   4.759   2.721   1.304
 2323TIP3   OH2 6974   4.632   4.373   1.348
 2323TIP3    H1 6975   4.705   4.346   1.403
 2323TIP3    H2 6976   4.649   4.332   1.264
 2324TIP3   OH2 6977   1.619   2.549   2.021
 2324TIP3    H1 6978   1.528   2.537   2.047
 2324TIP3    H2 6979   1.622   2.519   1.930
 2325TIP3   OH2 6980   3.927   2.673   1.371
 2325TIP3    H1 6981   3.881   2.737   1.425
 2325TIP3    H2 6982   3.952   2.604   1.433
 2326TIP3   OH2 6983   4.907   0.982   4.379
 2326TIP3    H1 6984   4.894   0.982   4.284
 2326TIP3    H2 6985   4.841   0.920   4.411
 2327TIP3   OH2 6986   1.465   2.531   3.567
 2327TIP3    H1 6987   1.526   2.574   3.627
 2327TIP3    H2 6988   1.402   2.486   3.624
 2328TIP3   OH2 6989   3.727   5.496   4.431
 2328TIP3    H1 6990   3.665   5.425   4.443
 2328TIP3    H2 6991   3.813   5.456   4.443
 2329TIP3   OH2 6992   2.150   5.628   2.865
 2329TIP3    H1 6993   2.090   5.587   2.927
 2329TIP3    H2 6994   2.100   5.636   2.784
 2330TIP3   OH2 6995   1.065   0.529   3.872
 2330TIP3    H1 6996   1.130   0.466   3.904
 2330TIP3    H2 6997   1.116   0.607   3.851
 2331TIP3   OH2 6998   3.160   2.808   3.944
 2331TIP3    H1 6999   3.178   2.829   4.036
 2331TIP3    H2 7000   3.126   2.719   3.946
 2332TIP3   OH2 7001   4.315   1.772   4.530
 2332TIP3    H1 7002   4.328   1.681   4.501
 2332TIP3    H2 7003   4.393   1.792   4.581
 2333TIP3   OH2 7004   4.471   2.051   3.605
 2333TIP3    H1 7005   4.524   1.975   3.578
 2333TIP3    H2 7006   4.446   2.093   3.523
 2334TIP3   OH2 7007   3.065   1.183   4.419
 2334TIP3    H1 7008   3.034   1.191   4.510
 2334TIP3    H2 7009   2.997   1.227   4.367
 2335TIP3   OH2 7010   1.269   3.383   0.509
 2335TIP3    H1 7011   1.342   3.444   0.516
 2335TIP3    H2 7012   1.293   3.324   0.438
 2336TIP3   OH2 7013   1.057   2.829   4.715
 2336TIP3    H1 7014   0.976   2.879   4.708
 2336TIP3    H2 7015   1.068   2.790   4.628
 2337TIP3   OH2 7016   6.308   5.420   2.522
 2337TIP3    H1 7017   6.291   5.500   2.572
 2337TIP3    H2 7018   6.383   5.442   2.467
 2338TIP3   OH2 7019   1.706   2.082   2.786
 2338TIP3    H1 7020   1.754   2.054   2.864
 2338TIP3    H2 7021   1.740   2.026   2.716
 2339TIP3   OH2 7022   5.959   0.747   2.052
 2339TIP3    H1 7023   5.991   0.657   2.043
 2339TIP3    H2 7024   5.899   0.758   1.979
 2340TIP3   OH2 7025   0.099   5.137   4.944
 2340TIP3    H1 7026   0.056   5.162   4.862
 2340TIP3    H2 7027   0.081   5.210   5.004
 2341TIP3   OH2 7028   0.105   3.830   0.198
 2341TIP3    H1 7029   0.111   3.849   0.105
 2341TIP3    H2 7030   0.016   3.797   0.210
 2342TIP3   OH2 7031   1.050   2.100   2.451
 2342TIP3    H1 7032   1.066   2.007   2.435
 2342TIP3    H2 7033   1.024   2.134   2.365
 2343TIP3   OH2 7034   2.389   2.475   1.379
 2343TIP3    H1 7035   2.421   2.503   1.465
 2343TIP3    H2 7036   2.457   2.417   1.345
 2344TIP3   OH2 7037   3.181   6.016   1.905
 2344TIP3    H1 7038   3.173   5.932   1.951
 2344TIP3    H2 7039   3.267   6.049   1.931
 2345TIP3   OH2 7040   3.251   4.974   0.753
 2345TIP3    H1 7041   3.248   5.005   0.663
 2345TIP3    H2 7042   3.305   4.895   0.749
 2346TIP3   OH2 7043   3.578   2.466   3.148
 2346TIP3    H1 7044   3.522   2.544   3.153
 2346TIP3    H2 7045   3.534   2.402   3.204
 2347TIP3   OH2 7046   6.195   4.089   4.856
 2347TIP3    H1 7047   6.124   4.025   4.864
 2347TIP3    H2 7048   6.265   4.042   4.811
 2348TIP3   OH2 7049   1.938   5.889   4.378
 2348TIP3    H1 7050   1.893   5.805   4.385
 2348TIP3    H2 7051   1.868   5.954   4.369
 2349TIP3   OH2 7052   2.533   5.874   2.823
 2349TIP3    H1 7053   2.530   5.907   2.912
 2349TIP3    H2 7054   2.619   5.834   2.814
 2350TIP3   OH2 7055   3.545   5.679   2.001
 2350TIP3    H1 7056   3.529   5.720   1.916
 2350TIP3    H2 7057   3.506   5.593   1.994
 2351TIP3   OH2 7058   3.738   5.910   2.537
 2351TIP3    H1 7059   3.678   5.912   2.611
 2351TIP3    H2 7060   3.723   5.825   2.496
 2352TIP3   OH2 7061   5.411   5.778   4.072
 2352TIP3    H1 7062   5.423   5.830   3.993
 2352TIP3    H2 7063   5.341   5.822   4.119
 2353TIP3   OH2 7064   0.074   4.655   4.620
 2353TIP3    H1 7065   0.120   4.738   4.637
 2353TIP3    H2 7066   0.004   4.679   4.559
 2354TIP3   OH2 7067   0.159   1.438   4.560
 2354TIP3    H1 7068   0.123   1.350   4.555
 2354TIP3    H2 7069   0.084   1.494   4.582
 2355TIP3   OH2 7070  -0.014   0.719   2.924
 2355TIP3    H1 7071  -0.026   0.699   2.831
 2355TIP3    H2 7072   0.025   0.639   2.961
 2356TIP3   OH2 7073   3.827   2.438   0.263
 2356TIP3    H1 7074   3.887   2.453   0.336
 2356TIP3    H2 7075   3.872   2.373   0.209
 2357TIP3   OH2 7076   2.903   2.718   4.503
 2357TIP3    H1 7077   2.831   2.675   4.458
 2357TIP3    H2 7078   2.868   2.742   4.588
 2358TIP3   OH2 7079   4.315   1.827   1.438
 2358TIP3    H1 7080   4.323   1.733   1.428
 2358TIP3    H2 7081   4.400   1.862   1.411
 2359TIP3   OH2 7082   0.880   0.706   1.749
 2359TIP3    H1 7083   0.923   0.655   1.819
 2359TIP3    H2 7084   0.952   0.738   1.695
 2360TIP3   OH2 7085   2.732   5.233   3.444
 2360TIP3    H1 7086   2.765   5.318   3.417
 2360TIP3    H2 7087   2.727   5.238   3.539
 2361TIP3   OH2 7088   1.688   3.007   0.305
 2361TIP3    H1 7089   1.682   3.027   0.212
 2361TIP3    H2 7090   1.662   2.915   0.312
 2362TIP3   OH2 7091   5.886   4.837   4.566
 2362TIP3    H1 7092   5.981   4.823   4.576
 2362TIP3    H2 7093   5.860   4.881   4.648
 2363TIP3   OH2 7094   1.768   3.685   2.587
 2363TIP3    H1 7095   1.773   3.763   2.643
 2363TIP3    H2 7096   1.758   3.719   2.498
 2364TIP3   OH2 7097   0.450   5.138   5.114
 2364TIP3    H1 7098   0.429   5.230   5.096
 2364TIP3    H2 7099   0.465   5.099   5.028
 2365TIP3   OH2 7100   3.748   3.800   0.486
 2365TIP3    H1 7101   3.665   3.752   0.496
 2365TIP3    H2 7102   3.808   3.734   0.450
 2366TIP3   OH2 7103   4.620   3.389   1.741
 2366TIP3    H1 7104   4.578   3.450   1.681
 2366TIP3    H2 7105   4.714   3.406   1.731
 2367TIP3   OH2 7106   4.626   3.774   1.900
 2367TIP3    H1 7107   4.580   3.785   1.817
 2367TIP3    H2 7108   4.695   3.710   1.882
 2368TIP3   OH2 7109   1.577   3.735   3.934
 2368TIP3    H1 7110   1.664   3.701   3.913
 2368TIP3    H2 7111   1.522   3.711   3.859
 2369TIP3   OH2 7112   0.592   5.496   1.982
 2369TIP3    H1 7113   0.579   5.412   1.938
 2369TIP3    H2 7114   0.660   5.540   1.931
 2370TIP3   OH2 7115   2.190   2.724   2.052
 2370TIP3    H1 7116   2.246   2.794   2.017
 2370TIP3    H2 7117   2.215   2.646   2.002
 2371TIP3   OH2 7118   4.177   1.462   2.707
 2371TIP3    H1 7119   4.179   1.367   2.697
 2371TIP3    H2 7120   4.177   1.476   2.802
 2372TIP3   OH2 7121   0.520   0.503   0.388
 2372TIP3    H1 7122   0.508   0.448   0.311
 2372TIP3    H2 7123   0.600   0.552   0.370
 2373TIP3   OH2 7124   1.504   1.517   1.803
 2373TIP3    H1 7125   1.578   1.506   1.863
 2373TIP3    H2 7126   1.534   1.582   1.739
 2374TIP3   OH2 7127   1.667   5.876   1.773
 2374TIP3    H1 7128   1.670   5.782   1.757
 2374TIP3    H2 7129   1.624   5.885   1.858
 2375TIP3   OH2 7130   2.841   1.469   2.388
 2375TIP3    H1 7131   2.770   1.526   2.419
 2375TIP3    H2 7132   2.920   1.509   2.423
 2376TIP3   OH2 7133   4.483   5.606   4.545
 2376TIP3    H1 7134   4.488   5.561   4.630
 2376TIP3    H2 7135   4.514   5.695   4.563
 2377TIP3   OH2 7136   1.851   0.649   3.398
 2377TIP3    H1 7137   1.808   0.718   3.347
 2377TIP3    H2 7138   1.881   0.693   3.477
 2378TIP3   OH2 7139   3.147   0.442   1.386
 2378TIP3    H1 7140   3.171   0.535   1.377
 2378TIP3    H2 7141   3.177   0.401   1.305
 2379TIP3   OH2 7142   3.957   4.601   5.124
 2379TIP3    H1 7143   3.921   4.623   5.038
 2379TIP3    H2 7144   4.039   4.649   5.128
 2380TIP3   OH2 7145   3.021   4.083   3.089
 2380TIP3    H1 7146   2.988   4.171   3.107
 2380TIP3    H2 7147   3.056   4.053   3.173
 2381TIP3   OH2 7148   0.305   2.935   1.277
 2381TIP3    H1 7149   0.298   3.030   1.269
 2381TIP3    H2 7150   0.345   2.907   1.195
 2382TIP3   OH2 7151   4.848   4.941   1.491
 2382TIP3    H1 7152   4.889   4.929   1.406
 2382TIP3    H2 7153   4.850   4.855   1.532
 2383TIP3   OH2 7154   2.521   5.343   2.142
 2383TIP3    H1 7155   2.518   5.283   2.067
 2383TIP3    H2 7156   2.568   5.419   2.110
 2384TIP3   OH2 7157   4.850   3.634   1.574
 2384TIP3    H1 7158   4.945   3.642   1.583
 2384TIP3    H2 7159   4.836   3.547   1.538
 2385TIP3   OH2 7160   0.485   0.874   3.446
 2385TIP3    H1 7161   0.564   0.874   3.499
 2385TIP3    H2 7162   0.512   0.914   3.363
 2386TIP3   OH2 7163   0.782   2.128   4.875
 2386TIP3    H1 7164   0.732   2.209   4.871
 2386TIP3    H2 7165   0.874   2.156   4.872
 2387TIP3   OH2 7166   1.096   4.574   1.227
 2387TIP3    H1 7167   1.148   4.502   1.262
 2387TIP3    H2 7168   1.073   4.547   1.138
 2388TIP3   OH2 7169   5.574   2.458   0.559
 2388TIP3    H1 7170   5.656   2.448   0.608
 2388TIP3    H2 7171   5.509   2.481   0.626
 2389TIP3   OH2 7172   1.366   4.829   4.828
 2389TIP3    H1 7173   1.392   4.747   4.786
 2389TIP3    H2 7174   1.401   4.822   4.917
 2390TIP3   OH2 7175   4.583   4.894   4.085
 2390TIP3    H1 7176   4.576   4.899   4.180
 2390TIP3    H2 7177   4.640   4.967   4.061
 2391TIP3   OH2 7178   1.530   1.855   4.431
 2391TIP3    H1 7179   1.480   1.915   4.485
 2391TIP3    H2 7180   1.589   1.911   4.380
 2392TIP3   OH2 7181   2.603   0.852   0.930
 2392TIP3    H1 7182   2.608   0.873   0.837
 2392TIP3    H2 7183   2.555   0.925   0.969
 2393TIP3   OH2 7184   2.596   3.037   4.783
 2393TIP3    H1 7185   2.585   2.961   4.725
 2393TIP3    H2 7186   2.640   3.102   4.729
 2394TIP3   OH2 7187   3.921   4.334   0.323
 2394TIP3    H1 7188   3.919   4.429   0.323
 2394TIP3    H2 7189   4.012   4.312   0.347
 2395TIP3   OH2 7190   0.242   5.542   1.399
 2395TIP3    H1 7191   0.302   5.515   1.330
 2395TIP3    H2 7192   0.201   5.622   1.366
 2396TIP3   OH2 7193   0.625   2.805   3.013
 2396TIP3    H1 7194   0.702   2.815   2.956
 2396TIP3    H2 7195   0.551   2.795   2.953
 2397TIP3   OH2 7196   0.197   0.765   4.409
 2397TIP3    H1 7197   0.127   0.701   4.396
 2397TIP3    H2 7198   0.152   0.847   4.429
 2398TIP3   OH2 7199   5.331   1.128   4.198
 2398TIP3    H1 7200   5.305   1.037   4.215
 2398TIP3    H2 7201   5.264   1.162   4.139
 2399TIP3   OH2 7202   2.861   2.790   5.055
 2399TIP3    H1 7203   2.774   2.781   5.095
 2399TIP3    H2 7204   2.901   2.863   5.101
 2400TIP3   OH2 7205   5.595   1.306   0.613
 2400TIP3    H1 7206   5.589   1.225   0.663
 2400TIP3    H2 7207   5.586   1.375   0.678
 2401TIP3   OH2 7208   3.633   4.513   1.093
 2401TIP3    H1 7209   3.660   4.524   1.002
 2401TIP3    H2 7210   3.692   4.445   1.127
 2402TIP3   OH2 7211   1.902   2.406   1.232
 2402TIP3    H1 7212   1.965   2.407   1.160
 2402TIP3    H2 7213   1.955   2.403   1.311
 2403TIP3   OH2 7214   4.227  -0.011   0.092
 2403TIP3    H1 7215   4.224   0.030   0.178
 2403TIP3    H2 7216   4.314   0.010   0.058
 2404TIP3   OH2 7217   2.254   5.199   4.544
 2404TIP3    H1 7218   2.282   5.148   4.620
 2404TIP3    H2 7219   2.199   5.268   4.580
 2405TIP3   OH2 7220   4.550   1.806   4.273
 2405TIP3    H1 7221   4.503   1.846   4.200
 2405TIP3    H2 7222   4.543   1.712   4.257
 2406TIP3   OH2 7223   1.231   4.767   3.121
 2406TIP3    H1 7224   1.203   4.699   3.183
 2406TIP3    H2 7225   1.158   4.828   3.117
 2407TIP3   OH2 7226   2.950   5.652   2.963
 2407TIP3    H1 7227   2.987   5.603   3.037
 2407TIP3    H2 7228   3.025   5.692   2.921
 2408TIP3   OH2 7229   4.382   0.123   2.335
 2408TIP3    H1 7230   4.381   0.215   2.362
 2408TIP3    H2 7231   4.303   0.113   2.282
 2409TIP3   OH2 7232   0.868   1.411   5.135
 2409TIP3    H1 7233   0.958   1.385   5.156
 2409TIP3    H2 7234   0.825   1.329   5.110
 2410TIP3   OH2 7235   5.782   2.390   0.870
 2410TIP3    H1 7236   5.753   2.474   0.836
 2410TIP3    H2 7237   5.831   2.412   0.950
 2411TIP3   OH2 7238   4.418   2.985   1.758
 2411TIP3    H1 7239   4.354   2.936   1.810
 2411TIP3    H2 7240   4.378   2.991   1.671
 2412TIP3   OH2 7241   0.634   1.709   1.407
 2412TIP3    H1 7242   0.643   1.742   1.497
 2412TIP3    H2 7243   0.541   1.690   1.398
 2413TIP3   OH2 7244   0.507   0.293   0.059
 2413TIP3    H1 7245   0.535   0.218   0.110
 2413TIP3    H2 7246   0.563   0.292  -0.019
 2414TIP3   OH2 7247   4.952   3.732   4.694
 2414TIP3    H1 7248   4.995   3.744   4.609
 2414TIP3    H2 7249   4.927   3.820   4.721
 2415TIP3   OH2 7250   5.392   4.253   2.250
 2415TIP3    H1 7251   5.363   4.339   2.282
 2415TIP3    H2 7252   5.480   4.269   2.214
 2416TIP3   OH2 7253   5.009   0.100   2.102
 2416TIP3    H1 7254   5.058   0.058   2.173
 2416TIP3    H2 7255   4.919   0.107   2.135
 2417TIP3   OH2 7256   2.201   4.539   4.482
 2417TIP3    H1 7257   2.270   4.604   4.495
 2417TIP3    H2 7258   2.179   4.546   4.389
 2418TIP3   OH2 7259   0.564   3.321   4.384
 2418TIP3    H1 7260   0.613   3.335   4.303
 2418TIP3    H2 7261   0.628   3.283   4.444
 2419TIP3   OH2 7262   2.622   3.532   4.005
 2419TIP3    H1 7263   2.537   3.556   3.969
 2419TIP3    H2 7264   2.680   3.531   3.929
 2420TIP3   OH2 7265   3.709   3.202   2.234
 2420TIP3    H1 7266   3.643   3.247   2.182
 2420TIP3    H2 7267   3.717   3.116   2.193
 2421TIP3   OH2 7268   3.483   0.537   1.322
 2421TIP3    H1 7269   3.434   0.617   1.306
 2421TIP3    H2 7270   3.574   0.559   1.300
 2422TIP3   OH2 7271   4.380   4.353   0.590
 2422TIP3    H1 7272   4.423   4.412   0.528
 2422TIP3    H2 7273   4.307   4.315   0.540
 2423TIP3   OH2 7274   6.000   4.550   2.226
 2423TIP3    H1 7275   6.048   4.534   2.145
 2423TIP3    H2 7276   6.010   4.468   2.276
 2424TIP3   OH2 7277   3.133   0.293   4.865
 2424TIP3    H1 7278   3.136   0.199   4.849
 2424TIP3    H2 7279   3.143   0.332   4.778
 2425TIP3   OH2 7280   0.402   3.524   0.101
 2425TIP3    H1 7281   0.409   3.492   0.191
 2425TIP3    H2 7282   0.431   3.615   0.106
 2426TIP3   OH2 7283   0.849   0.517   4.689
 2426TIP3    H1 7284   0.902   0.532   4.767
 2426TIP3    H2 7285   0.788   0.590   4.686
 2427TIP3   OH2 7286   3.891   1.413   4.861
 2427TIP3    H1 7287   3.859   1.324   4.877
 2427TIP3    H2 7288   3.985   1.402   4.846
 2428TIP3   OH2 7289   0.201   0.198   2.068
 2428TIP3    H1 7290   0.250   0.157   2.140
 2428TIP3    H2 7291   0.265   0.204   1.997
 2429TIP3   OH2 7292   3.140   0.741   3.834
 2429TIP3    H1 7293   3.096   0.730   3.918
 2429TIP3    H2 7294   3.230   0.765   3.857
 2430TIP3   OH2 7295   5.108   1.697   2.521
 2430TIP3    H1 7296   5.182   1.647   2.556
 2430TIP3    H2 7297   5.070   1.740   2.597
 2431TIP3   OH2 7298   3.995   1.704   4.537
 2431TIP3    H1 7299   4.040   1.739   4.460
 2431TIP3    H2 7300   3.902   1.704   4.513
 2432TIP3   OH2 7301   4.555   4.043   1.964
 2432TIP3    H1 7302   4.594   3.956   1.973
 2432TIP3    H2 7303   4.630   4.102   1.952
 2433TIP3   OH2 7304   1.244   2.140   0.148
 2433TIP3    H1 7305   1.156   2.141   0.187
 2433TIP3    H2 7306   1.291   2.075   0.199
 2434TIP3   OH2 7307   3.331   2.440   2.677
 2434TIP3    H1 7308   3.380   2.477   2.750
 2434TIP3    H2 7309   3.257   2.396   2.717
 2435TIP3   OH2 7310   3.283   0.710   4.588
 2435TIP3    H1 7311   3.278   0.790   4.639
 2435TIP3    H2 7312   3.321   0.738   4.504
 2436TIP3   OH2 7313   2.902   4.642   3.946
 2436TIP3    H1 7314   2.956   4.572   3.983
 2436TIP3    H2 7315   2.961   4.717   3.939
 2437TIP3   OH2 7316   1.197   3.273   4.744
 2437TIP3    H1 7317   1.226   3.311   4.661
 2437TIP3    H2 7318   1.107   3.245   4.726
 2438TIP3   OH2 7319   4.878   1.666   4.254
 2438TIP3    H1 7320   4.836   1.713   4.326
 2438TIP3    H2 7321   4.818   1.594   4.233
 2439TIP3   OH2 7322   2.433   2.032   3.130
 2439TIP3    H1 7323   2.518   2.071   3.150
 2439TIP3    H2 7324   2.440   1.943   3.165
 2440TIP3   OH2 7325   3.358   1.103   3.274
 2440TIP3    H1 7326   3.418   1.096   3.201
 2440TIP3    H2 7327   3.314   1.018   3.278
 2441TIP3   OH2 7328   4.412   2.690   2.234
 2441TIP3    H1 7329   4.370   2.732   2.160
 2441TIP3    H2 7330   4.341   2.651   2.284
 2442TIP3   OH2 7331   1.617   0.649   3.559
 2442TIP3    H1 7332   1.701   0.604   3.549
 2442TIP3    H2 7333   1.616   0.678   3.650
 2443TIP3   OH2 7334   2.411   4.671   5.086
 2443TIP3    H1 7335   2.362   4.599   5.124
 2443TIP3    H2 7336   2.390   4.667   4.992
 2444TIP3   OH2 7337   3.310   4.983   3.346
 2444TIP3    H1 7338   3.308   4.919   3.275
 2444TIP3    H2 7339   3.351   4.937   3.419
 2445TIP3   OH2 7340   6.281   0.367   1.104
 2445TIP3    H1 7341   6.350   0.433   1.095
 2445TIP3    H2 7342   6.281   0.345   1.197
 2446TIP3   OH2 7343   2.350   3.845   2.633
 2446TIP3    H1 7344   2.363   3.840   2.538
 2446TIP3    H2 7345   2.332   3.937   2.650
 2447TIP3   OH2 7346   2.132   1.956   3.256
 2447TIP3    H1 7347   2.043   1.977   3.282
 2447TIP3    H2 7348   2.140   1.991   3.167
 2448TIP3   OH2 7349   6.321   1.806   1.339
 2448TIP3    H1 7350   6.367   1.813   1.255
 2448TIP3    H2 7351   6.262   1.731   1.328
 2449TIP3   OH2 7352   5.102   5.855   3.711
 2449TIP3    H1 7353   5.189   5.829   3.681
 2449TIP3    H2 7354   5.101   5.951   3.702
 2450TIP3   OH2 7355   2.997   1.709   1.561
 2450TIP3    H1 7356   3.046   1.787   1.589
 2450TIP3    H2 7357   3.051   1.670   1.492
 2451TIP3   OH2 7358   5.023   1.889   3.793
 2451TIP3    H1 7359   5.004   1.833   3.869
 2451TIP3    H2 7360   5.115   1.913   3.802
 2452TIP3   OH2 7361   2.213   3.418   3.709
 2452TIP3    H1 7362   2.267   3.492   3.681
 2452TIP3    H2 7363   2.275   3.346   3.723
 2453TIP3   OH2 7364   0.144   1.704   0.809
 2453TIP3    H1 7365   0.235   1.721   0.832
 2453TIP3    H2 7366   0.148   1.636   0.741
 2454TIP3   OH2 7367   4.267   5.703   0.888
 2454TIP3    H1 7368   4.244   5.770   0.824
 2454TIP3    H2 7369   4.223   5.623   0.856
 2455TIP3   OH2 7370   4.938   3.398   2.033
 2455TIP3    H1 7371   4.955   3.304   2.043
 2455TIP3    H2 7372   4.842   3.404   2.027
 2456TIP3   OH2 7373   2.867   5.633   0.165
 2456TIP3    H1 7374   2.893   5.650   0.256
 2456TIP3    H2 7375   2.788   5.579   0.173
 2457TIP3   OH2 7376   1.807   3.671   4.462
 2457TIP3    H1 7377   1.880   3.608   4.460
 2457TIP3    H2 7378   1.846   3.754   4.434
 2458TIP3   OH2 7379   1.949   5.193   3.092
 2458TIP3    H1 7380   1.921   5.256   3.025
 2458TIP3    H2 7381   1.985   5.120   3.042
 2459TIP3   OH2 7382   5.273   3.739   0.759
 2459TIP3    H1 7383   5.204   3.764   0.697
 2459TIP3    H2 7384   5.243   3.772   0.844
 2460TIP3   OH2 7385   1.128   2.163   0.559
 2460TIP3    H1 7386   1.112   2.077   0.520
 2460TIP3    H2 7387   1.041   2.203   0.564
 2461TIP3   OH2 7388   5.727   3.733   4.649
 2461TIP3    H1 7389   5.803   3.767   4.603
 2461TIP3    H2 7390   5.754   3.647   4.681
 2462TIP3   OH2 7391   0.422   1.791   3.727
 2462TIP3    H1 7392   0.341   1.740   3.729
 2462TIP3    H2 7393   0.430   1.817   3.635
 2463TIP3   OH2 7394   4.991   3.905   2.383
 2463TIP3    H1 7395   5.081   3.929   2.361
 2463TIP3    H2 7396   4.989   3.810   2.374
 2464TIP3   OH2 7397   0.609   3.518   1.923
 2464TIP3    H1 7398   0.697   3.541   1.954
 2464TIP3    H2 7399   0.562   3.492   2.001
 2465TIP3   OH2 7400   2.871   0.955   5.210
 2465TIP3    H1 7401   2.858   0.862   5.188
 2465TIP3    H2 7402   2.806   1.001   5.157
 2466TIP3   OH2 7403   2.145   5.463   3.147
 2466TIP3    H1 7404   2.211   5.483   3.213
 2466TIP3    H2 7405   2.082   5.406   3.191
 2467TIP3   OH2 7406   1.828   2.390   2.253
 2467TIP3    H1 7407   1.874   2.310   2.277
 2467TIP3    H2 7408   1.881   2.428   2.182
 2468TIP3   OH2 7409   3.527   5.323   0.313
 2468TIP3    H1 7410   3.433   5.328   0.331
 2468TIP3    H2 7411   3.548   5.230   0.318
 2469TIP3   OH2 7412   4.591   4.985   1.665
 2469TIP3    H1 7413   4.601   5.058   1.604
 2469TIP3    H2 7414   4.679   4.972   1.701
 2470TIP3   OH2 7415   5.330   4.311   1.748
 2470TIP3    H1 7416   5.407   4.364   1.771
 2470TIP3    H2 7417   5.351   4.223   1.781
 2471TIP3   OH2 7418   3.124   2.866   4.568
 2471TIP3    H1 7419   3.081   2.791   4.527
 2471TIP3    H2 7420   3.159   2.832   4.650
 2472TIP3   OH2 7421   2.616   4.838   4.908
 2472TIP3    H1 7422   2.683   4.892   4.949
 2472TIP3    H2 7423   2.552   4.822   4.978
 2473TIP3   OH2 7424   3.408   1.190   2.571
 2473TIP3    H1 7425   3.405   1.272   2.523
 2473TIP3    H2 7426   3.325   1.187   2.618
 2474TIP3   OH2 7427   0.260   4.981   3.306
 2474TIP3    H1 7428   0.281   4.899   3.350
 2474TIP3    H2 7429   0.329   4.991   3.240
 2475TIP3   OH2 7430   0.963   0.979   4.169
 2475TIP3    H1 7431   0.920   1.019   4.244
 2475TIP3    H2 7432   1.055   0.974   4.193
 2476TIP3   OH2 7433   2.469   2.484   0.322
 2476TIP3    H1 7434   2.456   2.392   0.347
 2476TIP3    H2 7435   2.393   2.505   0.268
 2477TIP3   OH2 7436   0.245   1.094   1.836
 2477TIP3    H1 7437   0.256   1.170   1.894
 2477TIP3    H2 7438   0.291   1.023   1.881
 2478TIP3   OH2 7439   2.391   0.958   4.994
 2478TIP3    H1 7440   2.354   0.889   4.939
 2478TIP3    H2 7441   2.361   0.937   5.083
 2479TIP3   OH2 7442   6.112   5.801   0.321
 2479TIP3    H1 7443   6.118   5.860   0.245
 2479TIP3    H2 7444   6.167   5.842   0.387
 2480TIP3   OH2 7445   5.664   5.321   1.722
 2480TIP3    H1 7446   5.679   5.407   1.761
 2480TIP3    H2 7447   5.727   5.316   1.650
 2481TIP3   OH2 7448   4.030   3.262   3.607
 2481TIP3    H1 7449   4.055   3.171   3.624
 2481TIP3    H2 7450   4.035   3.271   3.512
 2482TIP3   OH2 7451   5.314   1.856   3.897
 2482TIP3    H1 7452   5.295   1.911   3.973
 2482TIP3    H2 7453   5.405   1.829   3.909
 2483TIP3   OH2 7454   5.245   3.744   3.407
 2483TIP3    H1 7455   5.205   3.828   3.430
 2483TIP3    H2 7456   5.239   3.741   3.311
 2484TIP3   OH2 7457   2.864   4.421   1.983
 2484TIP3    H1 7458   2.816   4.338   1.984
 2484TIP3    H2 7459   2.875   4.443   2.075
 2485TIP3   OH2 7460   6.284   0.875   4.758
 2485TIP3    H1 7461   6.360   0.830   4.722
 2485TIP3    H2 7462   6.209   0.835   4.714
 2486TIP3   OH2 7463   5.541   1.636   2.930
 2486TIP3    H1 7464   5.513   1.715   2.978
 2486TIP3    H2 7465   5.544   1.568   2.996
 2487TIP3   OH2 7466   6.138   1.618   3.331
 2487TIP3    H1 7467   6.115   1.568   3.409
 2487TIP3    H2 7468   6.185   1.694   3.364
 2488TIP3   OH2 7469   4.769   0.687   2.308
 2488TIP3    H1 7470   4.790   0.650   2.222
 2488TIP3    H2 7471   4.674   0.678   2.315
 2489TIP3   OH2 7472   6.231   5.204   3.453
 2489TIP3    H1 7473   6.136   5.218   3.449
 2489TIP3    H2 7474   6.241   5.110   3.461
 2490TIP3   OH2 7475   2.923   1.657   4.061
 2490TIP3    H1 7476   2.877   1.633   4.142
 2490TIP3    H2 7477   2.853   1.683   4.001
 2491TIP3   OH2 7478   2.998   0.746   4.418
 2491TIP3    H1 7479   2.994   0.674   4.356
 2491TIP3    H2 7480   3.090   0.772   4.419
 2492TIP3   OH2 7481   4.965   0.134   2.926
 2492TIP3    H1 7482   4.968   0.165   2.836
 2492TIP3    H2 7483   4.876   0.100   2.936
 2493TIP3   OH2 7484   4.256   5.959   0.742
 2493TIP3    H1 7485   4.251   6.016   0.819
 2493TIP3    H2 7486   4.284   6.017   0.671
 2494TIP3   OH2 7487   4.970   5.271   1.825
 2494TIP3    H1 7488   4.920   5.335   1.774
 2494TIP3    H2 7489   4.911   5.246   1.897
 2495TIP3   OH2 7490   0.938   5.048   2.562
 2495TIP3    H1 7491   0.892   5.058   2.646
 2495TIP3    H2 7492   0.976   5.134   2.546
 2496TIP3   OH2 7493   5.440   5.732   4.945
 2496TIP3    H1 7494   5.425   5.747   5.038
 2496TIP3    H2 7495   5.458   5.639   4.938
 2497TIP3   OH2 7496   0.698   2.368   3.986
 2497TIP3    H1 7497   0.648   2.447   3.964
 2497TIP3    H2 7498   0.773   2.370   3.927
 2498TIP3   OH2 7499   6.188   4.813   0.789
 2498TIP3    H1 7500   6.115   4.862   0.752
 2498TIP3    H2 7501   6.162   4.796   0.879
 2499TIP3   OH2 7502   0.459   4.672   1.560
 2499TIP3    H1 7503   0.449   4.767   1.554
 2499TIP3    H2 7504   0.456   4.641   1.469
 2500TIP3   OH2 7505   2.477   1.586   0.695
 2500TIP3    H1 7506   2.516   1.674   0.699
 2500TIP3    H2 7507   2.537   1.531   0.746
 2501TIP3   OH2 7508   6.038   2.751   0.770
 2501TIP3    H1 7509   6.084   2.823   0.812
 2501TIP3    H2 7510   6.085   2.673   0.800
 2502TIP3   OH2 7511   4.276   3.162   4.760
 2502TIP3    H1 7512   4.267   3.070   4.784
 2502TIP3    H2 7513   4.336   3.162   4.686
 2503TIP3   OH2 7514   2.493   5.211   1.101
 2503TIP3    H1 7515   2.524   5.258   1.178
 2503TIP3    H2 7516   2.558   5.231   1.033
 2504TIP3   OH2 7517   5.551   2.909   2.537
 2504TIP3    H1 7518   5.532   2.916   2.443
 2504TIP3    H2 7519   5.481   2.854   2.572
 2505TIP3   OH2 7520   1.177   5.503   2.782
 2505TIP3    H1 7521   1.109   5.440   2.802
 2505TIP3    H2 7522   1.259   5.457   2.800
 2506TIP3   OH2 7523   6.168   1.539   1.370
 2506TIP3    H1 7524   6.130   1.454   1.348
 2506TIP3    H2 7525   6.256   1.520   1.401
 2507TIP3   OH2 7526   0.603   4.071   3.122
 2507TIP3    H1 7527   0.639   4.146   3.075
 2507TIP3    H2 7528   0.641   4.077   3.210
 2508TIP3   OH2 7529   3.489   3.977   3.809
 2508TIP3    H1 7530   3.418   4.014   3.757
 2508TIP3    H2 7531   3.569   4.006   3.765
 2509TIP3   OH2 7532   4.615   3.944   0.416
 2509TIP3    H1 7533   4.663   3.986   0.344
 2509TIP3    H2 7534   4.647   3.854   0.417
 2510TIP3   OH2 7535   4.724   0.106   0.871
 2510TIP3    H1 7536   4.648   0.164   0.868
 2510TIP3    H2 7537   4.798   0.163   0.889
 2511TIP3   OH2 7538   1.818   4.081   1.429
 2511TIP3    H1 7539   1.757   4.138   1.475
 2511TIP3    H2 7540   1.892   4.138   1.408
 2512TIP3   OH2 7541   2.382   4.966   1.208
 2512TIP3    H1 7542   2.367   4.948   1.115
 2512TIP3    H2 7543   2.434   5.047   1.208
 2513TIP3   OH2 7544   2.505   5.880   1.020
 2513TIP3    H1 7545   2.464   5.904   1.103
 2513TIP3    H2 7546   2.527   5.963   0.979
 2514TIP3   OH2 7547   3.713   4.894   3.115
 2514TIP3    H1 7548   3.788   4.901   3.056
 2514TIP3    H2 7549   3.642   4.859   3.061
 2515TIP3   OH2 7550   5.640   1.997   2.274
 2515TIP3    H1 7551   5.655   2.087   2.304
 2515TIP3    H2 7552   5.725   1.954   2.282
 2516TIP3   OH2 7553   1.875   2.570   3.789
 2516TIP3    H1 7554   1.783   2.593   3.795
 2516TIP3    H2 7555   1.876   2.488   3.738
 2517TIP3   OH2 7556   5.913   2.795   0.526
 2517TIP3    H1 7557   5.934   2.704   0.546
 2517TIP3    H2 7558   5.900   2.836   0.612
 2518TIP3   OH2 7559   0.916   1.322   0.461
 2518TIP3    H1 7560   0.912   1.253   0.527
 2518TIP3    H2 7561   0.945   1.278   0.381
 2519TIP3   OH2 7562   4.004   0.444   0.817
 2519TIP3    H1 7563   4.060   0.467   0.743
 2519TIP3    H2 7564   3.974   0.528   0.851
 2520TIP3   OH2 7565   0.238   3.215   1.200
 2520TIP3    H1 7566   0.158   3.219   1.252
 2520TIP3    H2 7567   0.228   3.286   1.137
 2521TIP3   OH2 7568   5.065   1.479   1.823
 2521TIP3    H1 7569   5.122   1.516   1.890
 2521TIP3    H2 7570   5.051   1.552   1.761
 2522TIP3   OH2 7571   2.274   2.401   2.243
 2522TIP3    H1 7572   2.220   2.391   2.165
 2522TIP3    H2 7573   2.364   2.403   2.210
 2523TIP3   OH2 7574   3.511   4.722   1.638
 2523TIP3    H1 7575   3.596   4.704   1.679
 2523TIP3    H2 7576   3.532   4.779   1.564
 2524TIP3   OH2 7577   0.277   4.352   0.828
 2524TIP3    H1 7578   0.294   4.261   0.803
 2524TIP3    H2 7579   0.214   4.383   0.762
 2525TIP3   OH2 7580   4.037   3.758   4.163
 2525TIP3    H1 7581   4.037   3.765   4.067
 2525TIP3    H2 7582   4.121   3.717   4.184
 2526TIP3   OH2 7583   0.225   0.760   1.933
 2526TIP3    H1 7584   0.265   0.830   1.984
 2526TIP3    H2 7585   0.300   0.709   1.900
 2527TIP3   OH2 7586   3.125   0.582   1.914
 2527TIP3    H1 7587   3.134   0.521   1.987
 2527TIP3    H2 7588   3.153   0.531   1.837
 2528TIP3   OH2 7589   3.464   0.158   1.663
 2528TIP3    H1 7590   3.484   0.251   1.659
 2528TIP3    H2 7591   3.397   0.145   1.595
 2529TIP3   OH2 7592   2.984   1.638   1.126
 2529TIP3    H1 7593   3.063   1.685   1.151
 2529TIP3    H2 7594   3.000   1.610   1.036
 2530TIP3   OH2 7595   5.171   5.648   0.380
 2530TIP3    H1 7596   5.140   5.738   0.378
 2530TIP3    H2 7597   5.103   5.600   0.427
 2531TIP3   OH2 7598   4.721   0.278   2.762
 2531TIP3    H1 7599   4.790   0.345   2.754
 2531TIP3    H2 7600   4.639   0.327   2.754
 2532TIP3   OH2 7601   0.128   1.911   0.256
 2532TIP3    H1 7602   0.042   1.871   0.245
 2532TIP3    H2 7603   0.152   1.889   0.347
 2533TIP3   OH2 7604   2.679   0.311   1.688
 2533TIP3    H1 7605   2.594   0.301   1.645
 2533TIP3    H2 7606   2.740   0.328   1.617
 2534TIP3   OH2 7607   1.518   4.004   1.459
 2534TIP3    H1 7608   1.607   4.036   1.443
 2534TIP3    H2 7609   1.526   3.949   1.537
 2535TIP3   OH2 7610   2.188   2.665   0.512
 2535TIP3    H1 7611   2.208   2.670   0.419
 2535TIP3    H2 7612   2.267   2.629   0.552
 2536TIP3   OH2 7613   0.647   6.000   0.440
 2536TIP3    H1 7614   0.705   5.933   0.403
 2536TIP3    H2 7615   0.609   5.958   0.517
 2537TIP3   OH2 7616   2.383   0.108   2.776
 2537TIP3    H1 7617   2.298   0.113   2.821
 2537TIP3    H2 7618   2.360   0.094   2.684
 2538TIP3   OH2 7619   2.350   4.391   3.883
 2538TIP3    H1 7620   2.408   4.465   3.901
 2538TIP3    H2 7621   2.266   4.417   3.920
 2539TIP3   OH2 7622   2.863   2.512   4.237
 2539TIP3    H1 7623   2.925   2.509   4.164
 2539TIP3    H2 7624   2.830   2.602   4.237
 2540TIP3   OH2 7625   3.220   2.535   2.995
 2540TIP3    H1 7626   3.261   2.448   2.997
 2540TIP3    H2 7627   3.232   2.569   3.083
 2541TIP3   OH2 7628   3.719   5.180   1.016
 2541TIP3    H1 7629   3.772   5.210   0.942
 2541TIP3    H2 7630   3.652   5.125   0.977
 2542TIP3   OH2 7631   2.017   2.898   4.698
 2542TIP3    H1 7632   2.079   2.943   4.641
 2542TIP3    H2 7633   1.974   2.834   4.640
 2543TIP3   OH2 7634   0.760   0.941   4.912
 2543TIP3    H1 7635   0.816   0.900   4.845
 2543TIP3    H2 7636   0.756   0.877   4.982
 2544TIP3   OH2 7637   1.968   2.518   2.075
 2544TIP3    H1 7638   1.954   2.566   1.993
 2544TIP3    H2 7639   1.993   2.586   2.138
 2545TIP3   OH2 7640   5.663   1.556   1.806
 2545TIP3    H1 7641   5.674   1.566   1.712
 2545TIP3    H2 7642   5.714   1.627   1.844
 2546TIP3   OH2 7643   4.112   1.289   4.392
 2546TIP3    H1 7644   4.084   1.206   4.433
 2546TIP3    H2 7645   4.057   1.355   4.433
 2547TIP3   OH2 7646   4.494   4.286   0.260
 2547TIP3    H1 7647   4.461   4.209   0.213
 2547TIP3    H2 7648   4.423   4.350   0.253
 2548TIP3   OH2 7649   4.672   3.927   2.681
 2548TIP3    H1 7650   4.767   3.931   2.680
 2548TIP3    H2 7651   4.649   3.868   2.609
 2549TIP3   OH2 7652   1.972   0.184   0.460
 2549TIP3    H1 7653   1.889   0.181   0.413
 2549TIP3    H2 7654   2.019   0.107   0.429
 2550TIP3   OH2 7655   6.308   5.633   1.516
 2550TIP3    H1 7656   6.325   5.677   1.599
 2550TIP3    H2 7657   6.297   5.541   1.540
 2551TIP3   OH2 7658   0.072   5.805   3.091
 2551TIP3    H1 7659   0.119   5.731   3.052
 2551TIP3    H2 7660   0.038   5.770   3.173
 2552TIP3   OH2 7661   4.031   0.961   0.283
 2552TIP3    H1 7662   3.998   1.036   0.233
 2552TIP3    H2 7663   4.109   0.994   0.327
 2553TIP3   OH2 7664   3.713   0.430   0.743
 2553TIP3    H1 7665   3.805   0.455   0.730
 2553TIP3    H2 7666   3.707   0.407   0.836
 2554TIP3   OH2 7667   2.717   3.955   4.917
 2554TIP3    H1 7668   2.730   3.869   4.957
 2554TIP3    H2 7669   2.623   3.961   4.902
 2555TIP3   OH2 7670   0.230   5.836   4.060
 2555TIP3    H1 7671   0.218   5.761   4.119
 2555TIP3    H2 7672   0.301   5.887   4.098
 2556TIP3   OH2 7673   4.525   2.274   3.750
 2556TIP3    H1 7674   4.562   2.351   3.706
 2556TIP3    H2 7675   4.519   2.208   3.682
 2557TIP3   OH2 7676   2.834   4.766   0.805
 2557TIP3    H1 7677   2.740   4.747   0.809
 2557TIP3    H2 7678   2.847   4.800   0.717
 2558TIP3   OH2 7679   2.034   0.922   2.070
 2558TIP3    H1 7680   2.113   0.930   2.124
 2558TIP3    H2 7681   2.042   0.993   2.006
 2559TIP3   OH2 7682   5.633   0.254   4.026
 2559TIP3    H1 7683   5.690   0.235   4.101
 2559TIP3    H2 7684   5.638   0.349   4.016
 2560TIP3   OH2 7685   3.619   2.017   1.410
 2560TIP3    H1 7686   3.679   1.980   1.345
 2560TIP3    H2 7687   3.543   2.045   1.359
 2561TIP3   OH2 7688   1.298   2.107   4.881
 2561TIP3    H1 7689   1.239   2.073   4.813
 2561TIP3    H2 7690   1.323   2.030   4.932
 2562TIP3   OH2 7691   2.620   2.491   0.961
 2562TIP3    H1 7692   2.535   2.458   0.930
 2562TIP3    H2 7693   2.598   2.559   1.024
 2563TIP3   OH2 7694   5.789   4.665   2.713
 2563TIP3    H1 7695   5.825   4.582   2.681
 2563TIP3    H2 7696   5.763   4.646   2.804
 2564TIP3   OH2 7697   2.824   4.359   4.274
 2564TIP3    H1 7698   2.799   4.272   4.306
 2564TIP3    H2 7699   2.901   4.383   4.326
 2565TIP3   OH2 7700   1.747   3.329   2.661
 2565TIP3    H1 7701   1.803   3.379   2.602
 2565TIP3    H2 7702   1.728   3.390   2.733
 2566TIP3   OH2 7703   5.020   1.443   0.694
 2566TIP3    H1 7704   5.114   1.461   0.689
 2566TIP3    H2 7705   4.979   1.517   0.649
 2567TIP3   OH2 7706   5.250   2.861   4.650
 2567TIP3    H1 7707   5.166   2.817   4.640
 2567TIP3    H2 7708   5.251   2.891   4.740
 2568TIP3   OH2 7709   3.461   0.654   4.872
 2568TIP3    H1 7710   3.478   0.746   4.856
 2568TIP3    H2 7711   3.371   0.651   4.905
 2569TIP3   OH2 7712   6.050   4.900   1.025
 2569TIP3    H1 7713   5.955   4.906   1.016
 2569TIP3    H2 7714   6.067   4.806   1.035
 2570TIP3   OH2 7715   4.178   1.611   0.419
 2570TIP3    H1 7716   4.253   1.599   0.361
 2570TIP3    H2 7717   4.102   1.597   0.363
 2571TIP3   OH2 7718   1.528   1.357   1.115
 2571TIP3    H1 7719   1.478   1.430   1.151
 2571TIP3    H2 7720   1.467   1.283   1.118
 2572TIP3   OH2 7721   3.707   0.654   3.765
 2572TIP3    H1 7722   3.769   0.591   3.802
 2572TIP3    H2 7723   3.705   0.726   3.828
 2573TIP3   OH2 7724   4.382   1.243   1.073
 2573TIP3    H1 7725   4.357   1.261   0.983
 2573TIP3    H2 7726   4.472   1.274   1.080
 2574TIP3   OH2 7727   4.383   5.436   1.385
 2574TIP3    H1 7728   4.471   5.448   1.350
 2574TIP3    H2 7729   4.325   5.473   1.318
 2575TIP3   OH2 7730   3.526   4.737   1.985
 2575TIP3    H1 7731   3.445   4.755   2.034
 2575TIP3    H2 7732   3.582   4.812   2.005
 2576TIP3   OH2 7733   0.750   5.771   3.487
 2576TIP3    H1 7734   0.763   5.755   3.394
 2576TIP3    H2 7735   0.834   5.751   3.527
 2577TIP3   OH2 7736   1.628   4.177   4.693
 2577TIP3    H1 7737   1.558   4.161   4.628
 2577TIP3    H2 7738   1.684   4.099   4.687
 2578TIP3   OH2 7739   0.999   4.808   2.819
 2578TIP3    H1 7740   1.016   4.714   2.824
 2578TIP3    H2 7741   1.085   4.849   2.816
 2579TIP3   OH2 7742   4.485   2.209   3.345
 2579TIP3    H1 7743   4.580   2.222   3.353
 2579TIP3    H2 7744   4.449   2.297   3.341
 2580TIP3   OH2 7745   1.656   3.113   4.623
 2580TIP3    H1 7746   1.640   3.080   4.535
 2580TIP3    H2 7747   1.671   3.035   4.676
 2581TIP3   OH2 7748   3.724   4.565   4.122
 2581TIP3    H1 7749   3.630   4.547   4.115
 2581TIP3    H2 7750   3.742   4.626   4.051
 2582TIP3   OH2 7751   1.718   0.302   0.262
 2582TIP3    H1 7752   1.762   0.362   0.322
 2582TIP3    H2 7753   1.654   0.357   0.216
 2583TIP3   OH2 7754   5.958   5.617   0.935
 2583TIP3    H1 7755   5.903   5.594   1.010
 2583TIP3    H2 7756   6.047   5.614   0.969
 2584TIP3   OH2 7757   0.339   3.946   4.787
 2584TIP3    H1 7758   0.369   3.876   4.728
 2584TIP3    H2 7759   0.294   3.900   4.858
 2585TIP3   OH2 7760   1.389   2.680   5.055
 2585TIP3    H1 7761   1.423   2.665   5.143
 2585TIP3    H2 7762   1.450   2.635   4.997
 2586TIP3   OH2 7763   5.456   0.113   4.779
 2586TIP3    H1 7764   5.364   0.087   4.777
 2586TIP3    H2 7765   5.484   0.093   4.869
 2587TIP3   OH2 7766   3.025   3.941   3.338
 2587TIP3    H1 7767   3.010   3.954   3.431
 2587TIP3    H2 7768   2.941   3.911   3.304
 2588TIP3   OH2 7769   2.473   5.754   3.829
 2588TIP3    H1 7770   2.507   5.666   3.814
 2588TIP3    H2 7771   2.383   5.751   3.798
 2589TIP3   OH2 7772   5.316   2.140   4.026
 2589TIP3    H1 7773   5.258   2.209   3.993
 2589TIP3    H2 7774   5.269   2.102   4.100
 2590TIP3   OH2 7775   3.482   3.386   4.973
 2590TIP3    H1 7776   3.575   3.400   4.955
 2590TIP3    H2 7777   3.451   3.335   4.898
 2591TIP3   OH2 7778   4.180   4.919   3.723
 2591TIP3    H1 7779   4.119   4.989   3.746
 2591TIP3    H2 7780   4.252   4.928   3.786
 2592TIP3   OH2 7781   1.977   1.202   4.559
 2592TIP3    H1 7782   1.901   1.164   4.514
 2592TIP3    H2 7783   1.959   1.296   4.559
 2593TIP3   OH2 7784   0.536   3.600   1.233
 2593TIP3    H1 7785   0.509   3.619   1.143
 2593TIP3    H2 7786   0.508   3.677   1.283
 2594TIP3   OH2 7787   1.751   2.257   4.132
 2594TIP3    H1 7788   1.703   2.269   4.050
 2594TIP3    H2 7789   1.841   2.239   4.105
 2595TIP3   OH2 7790   0.116   1.032   3.923
 2595TIP3    H1 7791   0.165   1.109   3.895
 2595TIP3    H2 7792   0.121   1.034   4.019
 2596TIP3   OH2 7793   5.364   4.825   1.280
 2596TIP3    H1 7794   5.436   4.854   1.336
 2596TIP3    H2 7795   5.285   4.847   1.330
 2597TIP3   OH2 7796   4.217   2.643   0.321
 2597TIP3    H1 7797   4.197   2.737   0.316
 2597TIP3    H2 7798   4.311   2.637   0.301
 2598TIP3   OH2 7799   3.375   1.678   1.456
 2598TIP3    H1 7800   3.463   1.641   1.446
 2598TIP3    H2 7801   3.386   1.772   1.442
 2599TIP3   OH2 7802   4.079   3.328   1.742
 2599TIP3    H1 7803   4.126   3.407   1.768
 2599TIP3    H2 7804   4.043   3.293   1.824
 2600TIP3   OH2 7805   0.640   0.726   4.679
 2600TIP3    H1 7806   0.656   0.817   4.654
 2600TIP3    H2 7807   0.592   0.689   4.605
 2601TIP3   OH2 7808   5.724   2.776   2.238
 2601TIP3    H1 7809   5.711   2.696   2.187
 2601TIP3    H2 7810   5.789   2.826   2.187
 2602TIP3   OH2 7811   1.555   0.709   4.807
 2602TIP3    H1 7812   1.491   0.699   4.878
 2602TIP3    H2 7813   1.505   0.750   4.736
 2603TIP3   OH2 7814   0.525   4.528   5.074
 2603TIP3    H1 7815   0.560   4.487   4.995
 2603TIP3    H2 7816   0.493   4.614   5.045
 2604TIP3   OH2 7817   1.139   3.761   4.189
 2604TIP3    H1 7818   1.067   3.702   4.209
 2604TIP3    H2 7819   1.150   3.755   4.094
 2605TIP3   OH2 7820   1.029   4.943   3.156
 2605TIP3    H1 7821   0.957   4.891   3.120
 2605TIP3    H2 7822   1.010   4.949   3.250
 2606TIP3   OH2 7823   2.422   3.229   1.990
 2606TIP3    H1 7824   2.451   3.226   2.081
 2606TIP3    H2 7825   2.412   3.137   1.965
 2607TIP3   OH2 7826   3.887   1.119   3.356
 2607TIP3    H1 7827   3.831   1.044   3.336
 2607TIP3    H2 7828   3.829   1.195   3.347
 2608TIP3   OH2 7829   3.874   3.696   2.049
 2608TIP3    H1 7830   3.792   3.647   2.064
 2608TIP3    H2 7831   3.871   3.720   1.957
 2609TIP3   OH2 7832   0.518   4.408   2.965
 2609TIP3    H1 7833   0.545   4.499   2.951
 2609TIP3    H2 7834   0.470   4.384   2.886
 2610TIP3   OH2 7835   5.161   3.804   3.156
 2610TIP3    H1 7836   5.157   3.832   3.065
 2610TIP3    H2 7837   5.107   3.724   3.158
 2611TIP3   OH2 7838   3.001   4.424   2.812
 2611TIP3    H1 7839   2.915   4.468   2.814
 2611TIP3    H2 7840   3.047   4.465   2.739
 2612TIP3   OH2 7841   2.990   1.250   1.959
 2612TIP3    H1 7842   3.013   1.296   1.878
 2612TIP3    H2 7843   2.924   1.306   2.000
 2613TIP3   OH2 7844   2.810   0.142   0.167
 2613TIP3    H1 7845   2.785   0.086   0.240
 2613TIP3    H2 7846   2.774   0.228   0.190
 2614TIP3   OH2 7847   3.472   0.057   5.118
 2614TIP3    H1 7848   3.516   0.012   5.046
 2614TIP3    H2 7849   3.461   0.147   5.086
 2615TIP3   OH2 7850   3.625   1.364   3.059
 2615TIP3    H1 7851   3.658   1.362   3.149
 2615TIP3    H2 7852   3.652   1.449   3.024
 2616TIP3   OH2 7853   0.114   5.604   4.856
 2616TIP3    H1 7854   0.047   5.540   4.832
 2616TIP3    H2 7855   0.154   5.568   4.936
 2617TIP3   OH2 7856   2.771   5.829   2.444
 2617TIP3    H1 7857   2.686   5.863   2.414
 2617TIP3    H2 7858   2.804   5.897   2.502
 2618TIP3   OH2 7859   6.052   4.139   2.096
 2618TIP3    H1 7860   6.083   4.207   2.157
 2618TIP3    H2 7861   6.131   4.110   2.051
 2619TIP3   OH2 7862   3.469   1.980   1.658
 2619TIP3    H1 7863   3.414   2.057   1.651
 2619TIP3    H2 7864   3.506   1.968   1.571
 2620TIP3   OH2 7865   3.719   2.319   3.714
 2620TIP3    H1 7866   3.659   2.277   3.775
 2620TIP3    H2 7867   3.771   2.248   3.677
 2621TIP3   OH2 7868   2.080   5.136   0.344
 2621TIP3    H1 7869   2.012   5.079   0.308
 2621TIP3    H2 7870   2.121   5.175   0.267
 2622TIP3   OH2 7871   1.090   1.113   3.730
 2622TIP3    H1 7872   1.041   1.160   3.797
 2622TIP3    H2 7873   1.024   1.078   3.671
 2623TIP3   OH2 7874   1.787   3.126   3.604
 2623TIP3    H1 7875   1.830   3.070   3.668
 2623TIP3    H2 7876   1.735   3.187   3.656
 2624TIP3   OH2 7877   5.970   2.535   0.483
 2624TIP3    H1 7878   6.014   2.463   0.529
 2624TIP3    H2 7879   6.034   2.564   0.418
 2625TIP3   OH2 7880   5.268   3.271   3.380
 2625TIP3    H1 7881   5.320   3.193   3.398
 2625TIP3    H2 7882   5.183   3.253   3.420
 2626TIP3   OH2 7883   4.767   1.227   3.263
 2626TIP3    H1 7884   4.825   1.174   3.208
 2626TIP3    H2 7885   4.816   1.240   3.344
 2627TIP3   OH2 7886   6.266   3.997   3.328
 2627TIP3    H1 7887   6.332   3.987   3.260
 2627TIP3    H2 7888   6.222   4.079   3.307
 2628TIP3   OH2 7889   2.887   1.784   3.555
 2628TIP3    H1 7890   2.944   1.811   3.627
 2628TIP3    H2 7891   2.907   1.844   3.484
 2629TIP3   OH2 7892   4.477   0.137   3.548
 2629TIP3    H1 7893   4.453   0.188   3.471
 2629TIP3    H2 7894   4.566   0.164   3.568
 2630TIP3   OH2 7895   6.092   1.269   1.326
 2630TIP3    H1 7896   6.082   1.191   1.380
 2630TIP3    H2 7897   6.109   1.236   1.238
 2631TIP3   OH2 7898   2.201   0.962   2.551
 2631TIP3    H1 7899   2.153   0.879   2.550
 2631TIP3    H2 7900   2.290   0.938   2.577
 2632TIP3   OH2 7901   4.905   2.943   2.271
 2632TIP3    H1 7902   4.817   2.951   2.234
 2632TIP3    H2 7903   4.893   2.960   2.365
 2633TIP3   OH2 7904   2.217   4.670   3.322
 2633TIP3    H1 7905   2.128   4.637   3.314
 2633TIP3    H2 7906   2.210   4.764   3.305
 2634TIP3   OH2 7907   4.438   2.876   0.393
 2634TIP3    H1 7908   4.391   2.950   0.355
 2634TIP3    H2 7909   4.502   2.851   0.326
 2635TIP3   OH2 7910   5.510   4.100   0.902
 2635TIP3    H1 7911   5.481   4.085   0.992
 2635TIP3    H2 7912   5.601   4.130   0.911
 2636TIP3   OH2 7913   4.558   4.933   0.353
 2636TIP3    H1 7914   4.617   4.896   0.288
 2636TIP3    H2 7915   4.609   4.934   0.434
 2637TIP3   OH2 7916   4.727   5.185   0.229
 2637TIP3    H1 7917   4.704   5.135   0.151
 2637TIP3    H2 7918   4.816   5.216   0.213
 2638TIP3   OH2 7919   5.639   5.477   2.612
 2638TIP3    H1 7920   5.569   5.412   2.604
 2638TIP3    H2 7921   5.607   5.540   2.676
 2639TIP3   OH2 7922   4.140   5.543   5.171
 2639TIP3    H1 7923   4.194   5.613   5.136
 2639TIP3    H2 7924   4.155   5.469   5.112
 2640TIP3   OH2 7925   1.169   4.686   4.220
 2640TIP3    H1 7926   1.262   4.689   4.196
 2640TIP3    H2 7927   1.158   4.757   4.282
 2641TIP3   OH2 7928   3.781   5.460   2.337
 2641TIP3    H1 7929   3.861   5.444   2.287
 2641TIP3    H2 7930   3.714   5.409   2.291
 2642TIP3   OH2 7931   4.685   2.912   1.602
 2642TIP3    H1 7932   4.594   2.899   1.631
 2642TIP3    H2 7933   4.719   2.824   1.589
 2643TIP3   OH2 7934   1.327   1.288   1.761
 2643TIP3    H1 7935   1.373   1.253   1.684
 2643TIP3    H2 7936   1.363   1.375   1.773
 2644TIP3   OH2 7937   5.928   3.196   4.464
 2644TIP3    H1 7938   5.847   3.206   4.512
 2644TIP3    H2 7939   5.939   3.278   4.417
 2645TIP3   OH2 7940   4.754   2.778   4.537
 2645TIP3    H1 7941   4.738   2.867   4.506
 2645TIP3    H2 7942   4.733   2.723   4.462
 2646TIP3   OH2 7943   1.773   0.148   4.446
 2646TIP3    H1 7944   1.745   0.057   4.458
 2646TIP3    H2 7945   1.791   0.179   4.535
 2647TIP3   OH2 7946   4.036   4.169   1.312
 2647TIP3    H1 7947   4.072   4.081   1.315
 2647TIP3    H2 7948   4.098   4.219   1.258
 2648TIP3   OH2 7949   4.536   0.763   2.915
 2648TIP3    H1 7950   4.478   0.756   2.838
 2648TIP3    H2 7951   4.536   0.675   2.953
 2649TIP3   OH2 7952   3.317   4.592   2.145
 2649TIP3    H1 7953   3.244   4.530   2.151
 2649TIP3    H2 7954   3.275   4.677   2.129
 2650TIP3   OH2 7955  -0.025   5.352   1.122
 2650TIP3    H1 7956   0.005   5.300   1.048
 2650TIP3    H2 7957   0.016   5.312   1.199
 2651TIP3   OH2 7958   1.510   4.313   2.713
 2651TIP3    H1 7959   1.426   4.359   2.709
 2651TIP3    H2 7960   1.552   4.332   2.629
 2652TIP3   OH2 7961   5.365   2.671   1.490
 2652TIP3    H1 7962   5.323   2.604   1.544
 2652TIP3    H2 7963   5.376   2.630   1.404
 2653TIP3   OH2 7964   3.306   5.966   4.288
 2653TIP3    H1 7965   3.348   6.033   4.234
 2653TIP3    H2 7966   3.298   5.890   4.231
 2654TIP3   OH2 7967   1.377   0.230   1.941
 2654TIP3    H1 7968   1.434   0.290   1.893
 2654TIP3    H2 7969   1.329   0.287   2.001
 2655TIP3   OH2 7970   6.107   2.309   4.738
 2655TIP3    H1 7971   6.060   2.385   4.771
 2655TIP3    H2 7972   6.085   2.306   4.645
 2656TIP3   OH2 7973   4.697   4.681   4.345
 2656TIP3    H1 7974   4.695   4.773   4.370
 2656TIP3    H2 7975   4.781   4.649   4.378
 2657TIP3   OH2 7976   0.916   5.869   0.975
 2657TIP3    H1 7977   0.866   5.870   1.056
 2657TIP3    H2 7978   0.993   5.923   0.994
 2658TIP3   OH2 7979   6.279   0.188   4.321
 2658TIP3    H1 7980   6.363   0.235   4.326
 2658TIP3    H2 7981   6.285   0.136   4.241
 2659TIP3   OH2 7982   4.611   5.957   5.054
 2659TIP3    H1 7983   4.645   5.931   5.139
 2659TIP3    H2 7984   4.604   6.052   5.059
 2660TIP3   OH2 7985   4.250   3.564   3.343
 2660TIP3    H1 7986   4.249   3.647   3.391
 2660TIP3    H2 7987   4.314   3.510   3.389
 2661TIP3   OH2 7988   1.134   3.200   0.301
 2661TIP3    H1 7989   1.111   3.292   0.309
 2661TIP3    H2 7990   1.150   3.188   0.207
 2662TIP3   OH2 7991   3.990   3.307   1.473
 2662TIP3    H1 7992   4.032   3.315   1.559
 2662TIP3    H2 7993   3.911   3.256   1.490
 2663TIP3   OH2 7994   2.702   2.119   4.678
 2663TIP3    H1 7995   2.792   2.111   4.646
 2663TIP3    H2 7996   2.709   2.109   4.773
 2664TIP3   OH2 7997   3.423   4.840   1.110
 2664TIP3    H1 7998   3.451   4.762   1.157
 2664TIP3    H2 7999   3.375   4.891   1.175
 2665TIP3   OH2 8000   3.116   3.096   0.684
 2665TIP3    H1 8001   3.206   3.116   0.708
 2665TIP3    H2 8002   3.117   3.093   0.588
 2666TIP3   OH2 8003   2.635   1.392   4.593
 2666TIP3    H1 8004   2.681   1.384   4.676
 2666TIP3    H2 8005   2.668   1.319   4.540
 2667TIP3   OH2 8006   4.550   2.159   2.728
 2667TIP3    H1 8007   4.533   2.118   2.813
 2667TIP3    H2 8008   4.590   2.243   2.750
 2668TIP3   OH2 8009   2.127   1.149   1.584
 2668TIP3    H1 8010   2.193   1.218   1.581
 2668TIP3    H2 8011   2.046   1.194   1.605
 2669TIP3   OH2 8012   2.011   1.693   2.863
 2669TIP3    H1 8013   2.106   1.692   2.875
 2669TIP3    H2 8014   1.977   1.709   2.951
 2670TIP3   OH2 8015   4.092   2.087   3.095
 2670TIP3    H1 8016   4.020   2.103   3.156
 2670TIP3    H2 8017   4.127   2.002   3.120
 2671TIP3   OH2 8018   4.068   4.076   5.192
 2671TIP3    H1 8019   4.079   4.067   5.098
 2671TIP3    H2 8020   4.134   4.140   5.219
 2672TIP3   OH2 8021   0.596   2.838   3.471
 2672TIP3    H1 8022   0.579   2.908   3.534
 2672TIP3    H2 8023   0.568   2.873   3.387
 2673TIP3   OH2 8024   6.009   3.737   0.874
 2673TIP3    H1 8025   5.953   3.702   0.805
 2673TIP3    H2 8026   6.062   3.804   0.831
 2674TIP3   OH2 8027   3.431   2.148   0.299
 2674TIP3    H1 8028   3.345   2.188   0.309
 2674TIP3    H2 8029   3.435   2.081   0.367
 2675TIP3   OH2 8030   3.206   5.628   1.459
 2675TIP3    H1 8031   3.190   5.705   1.515
 2675TIP3    H2 8032   3.130   5.625   1.401
 2676TIP3   OH2 8033   3.297   4.213   4.829
 2676TIP3    H1 8034   3.225   4.154   4.804
 2676TIP3    H2 8035   3.334   4.242   4.746
 2677TIP3   OH2 8036   5.615   4.808   3.855
 2677TIP3    H1 8037   5.553   4.757   3.907
 2677TIP3    H2 8038   5.701   4.780   3.885
 2678TIP3   OH2 8039   0.252   3.492   3.855
 2678TIP3    H1 8040   0.162   3.489   3.824
 2678TIP3    H2 8041   0.246   3.516   3.947
 2679TIP3   OH2 8042   3.884   3.859   0.128
 2679TIP3    H1 8043   3.904   3.854   0.035
 2679TIP3    H2 8044   3.850   3.948   0.141
 2680TIP3   OH2 8045   5.705   2.127   1.097
 2680TIP3    H1 8046   5.672   2.210   1.062
 2680TIP3    H2 8047   5.796   2.123   1.068
 2681TIP3   OH2 8048   1.850   5.572   1.164
 2681TIP3    H1 8049   1.833   5.557   1.257
 2681TIP3    H2 8050   1.765   5.594   1.127
 2682TIP3   OH2 8051   5.425   0.166   1.235
 2682TIP3    H1 8052   5.351   0.153   1.295
 2682TIP3    H2 8053   5.417   0.257   1.206
 2683TIP3   OH2 8054   5.958   4.929   4.070
 2683TIP3    H1 8055   5.897   4.988   4.026
 2683TIP3    H2 8056   5.923   4.919   4.158
 2684TIP3   OH2 8057   3.384   0.141   3.162
 2684TIP3    H1 8058   3.357   0.172   3.248
 2684TIP3    H2 8059   3.308   0.159   3.106
 2685TIP3   OH2 8060   6.296   5.039   1.140
 2685TIP3    H1 8061   6.218   4.985   1.134
 2685TIP3    H2 8062   6.265   5.124   1.172
 2686TIP3   OH2 8063   1.253   5.597   3.674
 2686TIP3    H1 8064   1.266   5.503   3.678
 2686TIP3    H2 8065   1.321   5.634   3.730
 2687TIP3   OH2 8066   1.136   2.970   4.969
 2687TIP3    H1 8067   1.063   2.951   4.910
 2687TIP3    H2 8068   1.097   3.016   5.043
 2688TIP3   OH2 8069   3.314   4.977   4.090
 2688TIP3    H1 8070   3.319   5.072   4.097
 2688TIP3    H2 8071   3.297   4.947   4.179
 2689TIP3   OH2 8072   4.266   4.593   0.899
 2689TIP3    H1 8073   4.184   4.597   0.949
 2689TIP3    H2 8074   4.314   4.672   0.927
 2690TIP3   OH2 8075   2.224   1.454   3.592
 2690TIP3    H1 8076   2.206   1.487   3.504
 2690TIP3    H2 8077   2.169   1.507   3.649
 2691TIP3   OH2 8078   5.447   3.102   3.557
 2691TIP3    H1 8079   5.462   3.008   3.543
 2691TIP3    H2 8080   5.534   3.141   3.554
 2692TIP3   OH2 8081   3.147   1.979   0.097
 2692TIP3    H1 8082   3.129   2.030   0.176
 2692TIP3    H2 8083   3.104   2.027   0.026
 2693TIP3   OH2 8084   5.026   3.683   3.728
 2693TIP3    H1 8085   5.087   3.715   3.795
 2693TIP3    H2 8086   4.999   3.761   3.680
 2694TIP3   OH2 8087   3.134   5.560   0.126
 2694TIP3    H1 8088   3.172   5.647   0.139
 2694TIP3    H2 8089   3.041   5.571   0.146
 2695TIP3   OH2 8090   4.966   2.042   0.208
 2695TIP3    H1 8091   4.872   2.032   0.219
 2695TIP3    H2 8092   5.001   1.954   0.225
 2696TIP3   OH2 8093   0.244   0.860   1.342
 2696TIP3    H1 8094   0.229   0.933   1.282
 2696TIP3    H2 8095   0.157   0.822   1.355
 2697TIP3   OH2 8096   4.949   5.965   3.100
 2697TIP3    H1 8097   5.042   5.989   3.108
 2697TIP3    H2 8098   4.930   5.915   3.179
 2698TIP3   OH2 8099   4.088   1.944   1.354
 2698TIP3    H1 8100   4.168   1.903   1.385
 2698TIP3    H2 8101   4.017   1.891   1.390
 2699TIP3   OH2 8102   3.853   3.791   1.800
 2699TIP3    H1 8103   3.829   3.879   1.773
 2699TIP3    H2 8104   3.821   3.735   1.729
 2700TIP3   OH2 8105   4.406   4.812   1.526
 2700TIP3    H1 8106   4.445   4.727   1.546
 2700TIP3    H2 8107   4.453   4.874   1.581
 2701TIP3   OH2 8108   4.191   1.124   3.721
 2701TIP3    H1 8109   4.250   1.198   3.711
 2701TIP3    H2 8110   4.103   1.162   3.715
 2702TIP3   OH2 8111   1.108   3.171   2.957
 2702TIP3    H1 8112   1.152   3.138   3.036
 2702TIP3    H2 8113   1.170   3.234   2.920
 2703TIP3   OH2 8114   4.166   4.008   3.120
 2703TIP3    H1 8115   4.190   4.098   3.098
 2703TIP3    H2 8116   4.071   4.010   3.133
 2704TIP3   OH2 8117   0.629   1.736   4.996
 2704TIP3    H1 8118   0.703   1.717   4.938
 2704TIP3    H2 8119   0.569   1.663   4.983
 2705TIP3   OH2 8120   3.191   3.277   1.615
 2705TIP3    H1 8121   3.186   3.320   1.700
 2705TIP3    H2 8122   3.161   3.187   1.631
 2706TIP3   OH2 8123   1.545   0.267   4.988
 2706TIP3    H1 8124   1.563   0.331   4.920
 2706TIP3    H2 8125   1.544   0.317   5.069
 2707TIP3   OH2 8126   0.625   2.767   2.617
 2707TIP3    H1 8127   0.703   2.747   2.567
 2707TIP3    H2 8128   0.568   2.814   2.556
 2708TIP3   OH2 8129   0.869   2.552   1.279
 2708TIP3    H1 8130   0.858   2.624   1.341
 2708TIP3    H2 8131   0.791   2.498   1.290
 2709TIP3   OH2 8132   5.088   0.119   0.873
 2709TIP3    H1 8133   5.116   0.145   0.961
 2709TIP3    H2 8134   5.167   0.124   0.820
 2710TIP3   OH2 8135   2.644   3.825   3.839
 2710TIP3    H1 8136   2.605   3.739   3.853
 2710TIP3    H2 8137   2.738   3.809   3.841
 2711TIP3   OH2 8138   6.241   5.517   2.191
 2711TIP3    H1 8139   6.238   5.558   2.105
 2711TIP3    H2 8140   6.152   5.487   2.208
 2712TIP3   OH2 8141   0.066   5.689   0.490
 2712TIP3    H1 8142  -0.014   5.661   0.533
 2712TIP3    H2 8143   0.064   5.645   0.405
 2713TIP3   OH2 8144   5.194   2.916   3.645
 2713TIP3    H1 8145   5.173   2.895   3.554
 2713TIP3    H2 8146   5.259   2.986   3.639
 2714TIP3   OH2 8147   1.693   4.393   3.206
 2714TIP3    H1 8148   1.598   4.389   3.219
 2714TIP3    H2 8149   1.704   4.403   3.112
 2715TIP3   OH2 8150   4.148   0.767   2.251
 2715TIP3    H1 8151   4.220   0.733   2.305
 2715TIP3    H2 8152   4.191   0.819   2.183
 2716TIP3   OH2 8153   1.094   0.601   2.675
 2716TIP3    H1 8154   1.009   0.625   2.712
 2716TIP3    H2 8155   1.072   0.542   2.602
 2717TIP3   OH2 8156   1.038   5.230   2.209
 2717TIP3    H1 8157   1.114   5.173   2.205
 2717TIP3    H2 8158   1.046   5.286   2.131
 2718TIP3   OH2 8159   1.329   0.416   0.858
 2718TIP3    H1 8160   1.314   0.325   0.884
 2718TIP3    H2 8161   1.412   0.440   0.899
 2719TIP3   OH2 8162   2.647   0.961   0.079
 2719TIP3    H1 8163   2.725   0.961   0.024
 2719TIP3    H2 8164   2.660   0.889   0.141
 2720TIP3   OH2 8165   6.232   4.445   2.845
 2720TIP3    H1 8166   6.172   4.454   2.771
 2720TIP3    H2 8167   6.175   4.429   2.920
 2721TIP3   OH2 8168   3.144   5.168   4.721
 2721TIP3    H1 8169   3.210   5.194   4.785
 2721TIP3    H2 8170   3.062   5.207   4.753
 2722TIP3   OH2 8171   2.327   2.217   1.559
 2722TIP3    H1 8172   2.357   2.303   1.531
 2722TIP3    H2 8173   2.246   2.235   1.609
 2723TIP3   OH2 8174   3.798   0.721   1.622
 2723TIP3    H1 8175   3.763   0.634   1.643
 2723TIP3    H2 8176   3.771   0.775   1.696
 2724TIP3   OH2 8177   0.627   4.566   2.630
 2724TIP3    H1 8178   0.643   4.654   2.666
 2724TIP3    H2 8179   0.532   4.555   2.637
 2725TIP3   OH2 8180   3.886   2.737   3.591
 2725TIP3    H1 8181   3.873   2.761   3.499
 2725TIP3    H2 8182   3.896   2.820   3.637
 2726TIP3   OH2 8183   5.788   2.236   4.301
 2726TIP3    H1 8184   5.741   2.312   4.267
 2726TIP3    H2 8185   5.873   2.239   4.256
 2727TIP3   OH2 8186   0.433   3.107   2.243
 2727TIP3    H1 8187   0.520   3.139   2.219
 2727TIP3    H2 8188   0.387   3.095   2.160
 2728TIP3   OH2 8189   2.460   4.436   2.833
 2728TIP3    H1 8190   2.442   4.527   2.810
 2728TIP3    H2 8191   2.527   4.409   2.771
 2729TIP3   OH2 8192   2.506   3.091   2.609
 2729TIP3    H1 8193   2.550   3.161   2.657
 2729TIP3    H2 8194   2.431   3.067   2.665
 2730TIP3   OH2 8195   2.263   0.829   1.103
 2730TIP3    H1 8196   2.203   0.891   1.145
 2730TIP3    H2 8197   2.342   0.880   1.086
 2731TIP3   OH2 8198   2.241   0.222   2.214
 2731TIP3    H1 8199   2.331   0.252   2.200
 2731TIP3    H2 8200   2.188   0.301   2.207
 2732TIP3   OH2 8201   3.798   2.360   2.425
 2732TIP3    H1 8202   3.772   2.364   2.517
 2732TIP3    H2 8203   3.893   2.370   2.427
 2733TIP3   OH2 8204   0.402   2.901   1.014
 2733TIP3    H1 8205   0.470   2.964   0.991
 2733TIP3    H2 8206   0.346   2.898   0.937
 2734TIP3   OH2 8207   5.460   0.038   3.740
 2734TIP3    H1 8208   5.552   0.018   3.724
 2734TIP3    H2 8209   5.412  -0.032   3.696
 2735TIP3   OH2 8210   4.037   1.610   3.804
 2735TIP3    H1 8211   4.081   1.627   3.721
 2735TIP3    H2 8212   4.027   1.696   3.844
 2736TIP3   OH2 8213   0.474   5.610   3.391
 2736TIP3    H1 8214   0.442   5.694   3.359
 2736TIP3    H2 8215   0.466   5.550   3.317
 2737TIP3   OH2 8216   0.606   1.061   3.835
 2737TIP3    H1 8217   0.682   1.052   3.893
 2737TIP3    H2 8218   0.533   1.026   3.886
 2738TIP3   OH2 8219   3.423   0.601   0.045
 2738TIP3    H1 8220   3.504   0.561   0.012
 2738TIP3    H2 8221   3.367   0.608  -0.032
 2739TIP3   OH2 8222   0.451   4.975   4.441
 2739TIP3    H1 8223   0.490   5.062   4.435
 2739TIP3    H2 8224   0.382   4.975   4.374
 2740TIP3   OH2 8225   5.158   4.984   0.734
 2740TIP3    H1 8226   5.177   4.892   0.714
 2740TIP3    H2 8227   5.215   5.033   0.674
 2741TIP3   OH2 8228   1.247   0.422   2.074
 2741TIP3    H1 8229   1.171   0.430   2.132
 2741TIP3    H2 8230   1.316   0.473   2.118
 2742TIP3   OH2 8231   2.294   0.952   3.119
 2742TIP3    H1 8232   2.220   0.951   3.178
 2742TIP3    H2 8233   2.275   0.884   3.055
 2743TIP3   OH2 8234   2.173   3.844   5.046
 2743TIP3    H1 8235   2.098   3.863   4.991
 2743TIP3    H2 8236   2.249   3.868   4.993
 2744TIP3   OH2 8237   1.890   0.810   3.611
 2744TIP3    H1 8238   1.826   0.857   3.559
 2744TIP3    H2 8239   1.913   0.870   3.682
 2745TIP3   OH2 8240   0.263   2.098   1.383
 2745TIP3    H1 8241   0.353   2.130   1.383
 2745TIP3    H2 8242   0.249   2.064   1.294
 2746TIP3   OH2 8243   0.552   5.769   1.342
 2746TIP3    H1 8244   0.485   5.833   1.365
 2746TIP3    H2 8245   0.612   5.769   1.417
 2747TIP3   OH2 8246   3.545   2.812   2.877
 2747TIP3    H1 8247   3.571   2.725   2.847
 2747TIP3    H2 8248   3.451   2.816   2.860
 2748TIP3   OH2 8249   6.298   2.397   3.488
 2748TIP3    H1 8250   6.205   2.397   3.467
 2748TIP3    H2 8251   6.311   2.477   3.540
 2749TIP3   OH2 8252   1.728   5.880   2.983
 2749TIP3    H1 8253   1.653   5.940   2.975
 2749TIP3    H2 8254   1.799   5.935   3.016
 2750TIP3   OH2 8255   2.233   3.055   1.354
 2750TIP3    H1 8256   2.274   3.136   1.384
 2750TIP3    H2 8257   2.170   3.033   1.422
 2751TIP3   OH2 8258   4.942   2.363   3.671
 2751TIP3    H1 8259   5.021   2.392   3.625
 2751TIP3    H2 8260   4.973   2.298   3.734
 2752TIP3   OH2 8261   6.247   4.139   4.417
 2752TIP3    H1 8262   6.273   4.064   4.363
 2752TIP3    H2 8263   6.183   4.185   4.364
 2753TIP3   OH2 8264   3.500   3.308   4.359
 2753TIP3    H1 8265   3.568   3.260   4.312
 2753TIP3    H2 8266   3.547   3.355   4.428
 2754TIP3   OH2 8267   3.342   0.352   2.831
 2754TIP3    H1 8268   3.361   0.445   2.845
 2754TIP3    H2 8269   3.356   0.339   2.737
 2755TIP3   OH2 8270   0.342   3.555   4.954
 2755TIP3    H1 8271   0.262   3.508   4.980
 2755TIP3    H2 8272   0.410   3.488   4.952
 2756TIP3   OH2 8273  -0.006   0.775   3.668
 2756TIP3    H1 8274  -0.029   0.700   3.613
 2756TIP3    H2 8275   0.033   0.838   3.608
 2757TIP3   OH2 8276   0.602   1.438   2.809
 2757TIP3    H1 8277   0.573   1.421   2.719
 2757TIP3    H2 8278   0.570   1.527   2.827
 2758TIP3   OH2 8279   5.339   3.998   4.849
 2758TIP3    H1 8280   5.414   4.052   4.871
 2758TIP3    H2 8281   5.345   3.986   4.754
 2759TIP3   OH2 8282   1.474   4.575   3.647
 2759TIP3    H1 8283   1.564   4.607   3.645
 2759TIP3    H2 8284   1.473   4.502   3.585
 2760TIP3   OH2 8285   4.508   3.466   3.381
 2760TIP3    H1 8286   4.550   3.387   3.348
 2760TIP3    H2 8287   4.578   3.512   3.428
 2761TIP3   OH2 8288   0.936   4.719   1.624
 2761TIP3    H1 8289   0.967   4.721   1.715
 2761TIP3    H2 8290   1.012   4.691   1.573
 2762TIP3   OH2 8291   1.547   3.370   0.646
 2762TIP3    H1 8292   1.604   3.294   0.658
 2762TIP3    H2 8293   1.517   3.364   0.556
 2763TIP3   OH2 8294   3.902   3.371   4.200
 2763TIP3    H1 8295   3.866   3.300   4.145
 2763TIP3    H2 8296   3.946   3.429   4.138
 2764TIP3   OH2 8297   2.697   1.240   2.986
 2764TIP3    H1 8298   2.643   1.191   3.048
 2764TIP3    H2 8299   2.647   1.238   2.904
 2765TIP3   OH2 8300   5.375   5.084   0.905
 2765TIP3    H1 8301   5.398   5.173   0.880
 2765TIP3    H2 8302   5.284   5.073   0.877
 2766TIP3   OH2 8303   0.837   2.179   0.510
 2766TIP3    H1 8304   0.853   2.273   0.503
 2766TIP3    H2 8305   0.744   2.169   0.491
 2767TIP3   OH2 8306   6.079   5.586   0.516
 2767TIP3    H1 8307   6.036   5.503   0.540
 2767TIP3    H2 8308   6.029   5.618   0.441
 2768TIP3   OH2 8309   0.868   0.962   3.601
 2768TIP3    H1 8310   0.856   0.909   3.680
 2768TIP3    H2 8311   0.917   0.906   3.542
 2769TIP3   OH2 8312   4.094   5.165   2.059
 2769TIP3    H1 8313   4.050   5.152   2.143
 2769TIP3    H2 8314   4.139   5.083   2.042
 2770TIP3   OH2 8315   3.475   1.821   1.184
 2770TIP3    H1 8316   3.565   1.852   1.198
 2770TIP3    H2 8317   3.485   1.752   1.118
 2771TIP3   OH2 8318   2.464   1.382   3.036
 2771TIP3    H1 8319   2.496   1.360   2.948
 2771TIP3    H2 8320   2.494   1.472   3.050
 2772TIP3   OH2 8321   0.437   3.333   1.364
 2772TIP3    H1 8322   0.451   3.418   1.324
 2772TIP3    H2 8323   0.386   3.284   1.299
 2773TIP3   OH2 8324   4.970   0.485   1.322
 2773TIP3    H1 8325   5.035   0.417   1.339
 2773TIP3    H2 8326   4.886   0.439   1.325
 2774TIP3   OH2 8327   2.816   2.187   0.065
 2774TIP3    H1 8328   2.741   2.132   0.089
 2774TIP3    H2 8329   2.846   2.151  -0.018
 2775TIP3   OH2 8330   5.822   0.175   1.483
 2775TIP3    H1 8331   5.745   0.192   1.429
 2775TIP3    H2 8332   5.810   0.231   1.560
 2776TIP3   OH2 8333   2.551   5.300   1.363
 2776TIP3    H1 8334   2.620   5.234   1.359
 2776TIP3    H2 8335   2.587   5.369   1.419
 2777TIP3   OH2 8336   1.000   4.883   3.424
 2777TIP3    H1 8337   0.995   4.919   3.513
 2777TIP3    H2 8338   1.084   4.838   3.421
 2778TIP3   OH2 8339   1.402   2.294   1.730
 2778TIP3    H1 8340   1.344   2.366   1.758
 2778TIP3    H2 8341   1.393   2.228   1.799
 2779TIP3   OH2 8342   4.941   4.492   2.406
 2779TIP3    H1 8343   4.948   4.450   2.320
 2779TIP3    H2 8344   4.991   4.435   2.464
 2780TIP3   OH2 8345   1.018   5.667   3.046
 2780TIP3    H1 8346   1.057   5.749   3.015
 2780TIP3    H2 8347   1.073   5.599   3.007
 2781TIP3   OH2 8348   3.784   4.287   1.326
 2781TIP3    H1 8349   3.852   4.226   1.352
 2781TIP3    H2 8350   3.831   4.357   1.280
 2782TIP3   OH2 8351   5.531   3.859   0.796
 2782TIP3    H1 8352   5.519   3.948   0.827
 2782TIP3    H2 8353   5.456   3.842   0.740
 2783TIP3   OH2 8354   2.988   4.180   2.674
 2783TIP3    H1 8355   3.082   4.166   2.689
 2783TIP3    H2 8356   2.968   4.259   2.724
 2784TIP3   OH2 8357   4.647   4.058   4.425
 2784TIP3    H1 8358   4.688   3.976   4.450
 2784TIP3    H2 8359   4.619   4.044   4.334
 2785TIP3   OH2 8360   4.813   2.271   1.470
 2785TIP3    H1 8361   4.732   2.322   1.462
 2785TIP3    H2 8362   4.864   2.295   1.392
 2786TIP3   OH2 8363   2.004   2.051   4.920
 2786TIP3    H1 8364   2.049   2.009   4.847
 2786TIP3    H2 8365   1.939   1.987   4.948
 2787TIP3   OH2 8366   1.174   4.690   1.505
 2787TIP3    H1 8367   1.204   4.749   1.574
 2787TIP3    H2 8368   1.228   4.713   1.429
 2788TIP3   OH2 8369   4.173   1.373   3.907
 2788TIP3    H1 8370   4.267   1.361   3.890
 2788TIP3    H2 8371   4.152   1.458   3.868
 2789TIP3   OH2 8372   3.452   4.707   2.681
 2789TIP3    H1 8373   3.426   4.654   2.607
 2789TIP3    H2 8374   3.505   4.778   2.643
 2790TIP3   OH2 8375   5.285   4.308   4.933
 2790TIP3    H1 8376   5.214   4.253   4.967
 2790TIP3    H2 8377   5.314   4.262   4.854
 2791TIP3   OH2 8378   0.437   5.435   1.680
 2791TIP3    H1 8379   0.466   5.456   1.591
 2791TIP3    H2 8380   0.426   5.520   1.723
 2792TIP3   OH2 8381   0.978   2.630   1.006
 2792TIP3    H1 8382   0.943   2.698   0.949
 2792TIP3    H2 8383   0.902   2.595   1.052
 2793TIP3   OH2 8384   6.037   2.385   2.709
 2793TIP3    H1 8385   5.946   2.393   2.737
 2793TIP3    H2 8386   6.081   2.460   2.749
 2794TIP3   OH2 8387   1.049   0.478   0.057
 2794TIP3    H1 8388   1.131   0.429   0.065
 2794TIP3    H2 8389   1.047   0.533   0.135
 2795TIP3   OH2 8390   1.923   3.775   4.866
 2795TIP3    H1 8391   1.989   3.706   4.856
 2795TIP3    H2 8392   1.879   3.754   4.948
 2796TIP3   OH2 8393   2.542   0.597   1.549
 2796TIP3    H1 8394   2.579   0.652   1.617
 2796TIP3    H2 8395   2.494   0.658   1.492
 2797TIP3   OH2 8396   1.033   4.033   1.661
 2797TIP3    H1 8397   1.025   4.097   1.590
 2797TIP3    H2 8398   1.063   3.953   1.618
 2798TIP3   OH2 8399   5.877   1.139   1.968
 2798TIP3    H1 8400   5.797   1.091   1.985
 2798TIP3    H2 8401   5.848   1.225   1.937
 2799TIP3   OH2 8402   6.014   1.820   2.108
 2799TIP3    H1 8403   6.043   1.747   2.163
 2799TIP3    H2 8404   5.973   1.882   2.169
 2800TIP3   OH2 8405   0.003   3.222   3.744
 2800TIP3    H1 8406  -0.034   3.307   3.723
 2800TIP3    H2 8407   0.087   3.220   3.699
 2801TIP3   OH2 8408   3.106   2.327   2.817
 2801TIP3    H1 8409   3.131   2.252   2.871
 2801TIP3    H2 8410   3.069   2.390   2.879
 2802TIP3   OH2 8411   1.771   0.939   2.213
 2802TIP3    H1 8412   1.852   0.934   2.163
 2802TIP3    H2 8413   1.754   0.850   2.241
 2803TIP3   OH2 8414   6.076   3.588   1.072
 2803TIP3    H1 8415   6.053   3.655   1.007
 2803TIP3    H2 8416   5.992   3.550   1.097
 2804TIP3   OH2 8417   1.906   2.800   0.849
 2804TIP3    H1 8418   1.915   2.781   0.942
 2804TIP3    H2 8419   1.823   2.849   0.843
 2805TIP3   OH2 8420   3.778   5.389   0.121
 2805TIP3    H1 8421   3.808   5.298   0.126
 2805TIP3    H2 8422   3.700   5.385   0.065
 2806TIP3   OH2 8423   5.920   1.620   1.382
 2806TIP3    H1 8424   6.012   1.591   1.384
 2806TIP3    H2 8425   5.906   1.649   1.292
 2807TIP3   OH2 8426   0.144   2.981   1.501
 2807TIP3    H1 8427   0.183   2.952   1.418
 2807TIP3    H2 8428   0.070   2.922   1.515
 2808TIP3   OH2 8429   4.991   3.188   2.746
 2808TIP3    H1 8430   5.011   3.280   2.764
 2808TIP3    H2 8431   4.900   3.187   2.717
 2809TIP3   OH2 8432   1.236   5.841   3.241
 2809TIP3    H1 8433   1.279   5.811   3.161
 2809TIP3    H2 8434   1.237   5.937   3.233
 2810TIP3   OH2 8435   0.457   4.787   0.742
 2810TIP3    H1 8436   0.392   4.765   0.810
 2810TIP3    H2 8437   0.535   4.737   0.767
 2811TIP3   OH2 8438   1.770   0.382   3.499
 2811TIP3    H1 8439   1.773   0.460   3.443
 2811TIP3    H2 8440   1.829   0.401   3.571
 2812TIP3   OH2 8441   3.375   1.298   5.038
 2812TIP3    H1 8442   3.319   1.238   5.087
 2812TIP3    H2 8443   3.315   1.363   5.002
 2813TIP3   OH2 8444   6.021   1.129   0.862
 2813TIP3    H1 8445   5.957   1.200   0.871
 2813TIP3    H2 8446   6.061   1.143   0.777
 2814TIP3   OH2 8447   6.141   1.293   4.359
 2814TIP3    H1 8448   6.221   1.345   4.356
 2814TIP3    H2 8449   6.070   1.357   4.350
 2815TIP3   OH2 8450   1.668   2.304   1.574
 2815TIP3    H1 8451   1.584   2.282   1.612
 2815TIP3    H2 8452   1.675   2.399   1.582
 2816TIP3   OH2 8453   0.080   2.746   4.523
 2816TIP3    H1 8454   0.144   2.679   4.500
 2816TIP3    H2 8455   0.074   2.741   4.619
 2817TIP3   OH2 8456   0.109   4.522   2.720
 2817TIP3    H1 8457   0.040   4.484   2.774
 2817TIP3    H2 8458   0.064   4.589   2.667
 2818TIP3   OH2 8459   0.049   0.215   3.225
 2818TIP3    H1 8460   0.064   0.295   3.277
 2818TIP3    H2 8461  -0.045   0.213   3.211
 2819TIP3   OH2 8462   1.528   5.614   0.610
 2819TIP3    H1 8463   1.599   5.549   0.614
 2819TIP3    H2 8464   1.565   5.692   0.651
 2820TIP3   OH2 8465   1.761   1.746   0.216
 2820TIP3    H1 8466   1.831   1.705   0.266
 2820TIP3    H2 8467   1.702   1.673   0.193
 2821TIP3   OH2 8468   0.799   0.437   4.423
 2821TIP3    H1 8469   0.798   0.524   4.383
 2821TIP3    H2 8470   0.831   0.452   4.512
 2822TIP3   OH2 8471   4.801   3.337   3.595
 2822TIP3    H1 8472   4.709   3.312   3.600
 2822TIP3    H2 8473   4.817   3.384   3.677
 2823TIP3   OH2 8474   2.913   4.732   2.827
 2823TIP3    H1 8475   2.871   4.762   2.747
 2823TIP3    H2 8476   3.007   4.746   2.812
 2824TIP3   OH2 8477   5.575   4.449   1.645
 2824TIP3    H1 8478   5.569   4.541   1.616
 2824TIP3    H2 8479   5.624   4.454   1.727
 2825TIP3   OH2 8480   2.322   5.049   4.778
 2825TIP3    H1 8481   2.404   5.096   4.795
 2825TIP3    H2 8482   2.253   5.110   4.806
 2826TIP3   OH2 8483   5.116   5.772   2.802
 2826TIP3    H1 8484   5.198   5.819   2.816
 2826TIP3    H2 8485   5.125   5.733   2.715
 2827TIP3   OH2 8486   3.872   5.740   3.583
 2827TIP3    H1 8487   3.870   5.663   3.639
 2827TIP3    H2 8488   3.931   5.801   3.627
 2828TIP3   OH2 8489   3.137   5.355   2.238
 2828TIP3    H1 8490   3.177   5.362   2.324
 2828TIP3    H2 8491   3.109   5.263   2.232
 2829TIP3   OH2 8492   0.705   1.958   1.794
 2829TIP3    H1 8493   0.670   1.877   1.756
 2829TIP3    H2 8494   0.665   2.028   1.742
 2830TIP3   OH2 8495   4.334   2.228   1.478
 2830TIP3    H1 8496   4.246   2.199   1.504
 2830TIP3    H2 8497   4.386   2.223   1.558
 2831TIP3   OH2 8498   4.613   1.362   1.090
 2831TIP3    H1 8499   4.673   1.394   1.023
 2831TIP3    H2 8500   4.657   1.285   1.127
 2832TIP3   OH2 8501   5.945   2.108   1.330
 2832TIP3    H1 8502   5.889   2.062   1.393
 2832TIP3    H2 8503   6.011   2.152   1.384
 2833TIP3   OH2 8504   0.126   2.531   2.574
 2833TIP3    H1 8505   0.055   2.481   2.534
 2833TIP3    H2 8506   0.165   2.470   2.637
 2834TIP3   OH2 8507   0.856   1.263   3.872
 2834TIP3    H1 8508   0.813   1.233   3.791
 2834TIP3    H2 8509   0.838   1.357   3.875
 2835TIP3   OH2 8510   3.618   4.168   0.820
 2835TIP3    H1 8511   3.626   4.254   0.779
 2835TIP3    H2 8512   3.654   4.179   0.908
 2836TIP3   OH2 8513   1.428   0.974   2.106
 2836TIP3    H1 8514   1.472   0.913   2.165
 2836TIP3    H2 8515   1.479   0.971   2.025
 2837TIP3   OH2 8516   1.775   3.208   0.444
 2837TIP3    H1 8517   1.746   3.127   0.402
 2837TIP3    H2 8518   1.861   3.187   0.479
 2838TIP3   OH2 8519   2.955   5.423   0.882
 2838TIP3    H1 8520   2.870   5.382   0.893
 2838TIP3    H2 8521   3.017   5.351   0.880
 2839TIP3   OH2 8522   0.141   5.413   3.257
 2839TIP3    H1 8523   0.231   5.443   3.243
 2839TIP3    H2 8524   0.105   5.403   3.168
 2840TIP3   OH2 8525   1.687   0.589   4.353
 2840TIP3    H1 8526   1.697   0.672   4.399
 2840TIP3    H2 8527   1.630   0.609   4.279
 2841TIP3   OH2 8528   4.871   0.369   1.611
 2841TIP3    H1 8529   4.937   0.300   1.608
 2841TIP3    H2 8530   4.801   0.337   1.554
 2842TIP3   OH2 8531   3.161   0.424   0.559
 2842TIP3    H1 8532   3.240   0.388   0.597
 2842TIP3    H2 8533   3.136   0.495   0.619
 2843TIP3   OH2 8534   2.042   1.665   4.715
 2843TIP3    H1 8535   2.118   1.655   4.657
 2843TIP3    H2 8536   2.066   1.617   4.794
 2844TIP3   OH2 8537   1.194   5.264   3.439
 2844TIP3    H1 8538   1.106   5.295   3.416
 2844TIP3    H2 8539   1.253   5.329   3.401
 2845TIP3   OH2 8540   1.119   3.461   4.065
 2845TIP3    H1 8541   1.212   3.478   4.048
 2845TIP3    H2 8542   1.097   3.389   4.005
 2846TIP3   OH2 8543   1.000   4.080   4.679
 2846TIP3    H1 8544   1.004   4.043   4.591
 2846TIP3    H2 8545   1.002   4.004   4.737
 2847TIP3   OH2 8546   6.179   3.129   5.135
 2847TIP3    H1 8547   6.249   3.165   5.081
 2847TIP3    H2 8548   6.221   3.063   5.189
 2848TIP3   OH2 8549   0.471   2.082   0.936
 2848TIP3    H1 8550   0.475   2.164   0.886
 2848TIP3    H2 8551   0.505   2.105   1.022
 2849TIP3   OH2 8552   0.044   0.406   0.706
 2849TIP3    H1 8553   0.049   0.398   0.610
 2849TIP3    H2 8554   0.106   0.340   0.738
 2850TIP3   OH2 8555   2.600   1.355   2.033
 2850TIP3    H1 8556   2.518   1.383   2.074
 2850TIP3    H2 8557   2.611   1.414   1.958
 2851TIP3   OH2 8558   4.782   3.112   4.011
 2851TIP3    H1 8559   4.722   3.159   4.069
 2851TIP3    H2 8560   4.793   3.026   4.052
 2852TIP3   OH2 8561   3.041   3.801   0.583
 2852TIP3    H1 8562   3.096   3.871   0.619
 2852TIP3    H2 8563   2.963   3.846   0.550
 2853TIP3   OH2 8564   1.199   4.703   3.400
 2853TIP3    H1 8565   1.272   4.650   3.369
 2853TIP3    H2 8566   1.227   4.734   3.487
 2854TIP3   OH2 8567   2.537   0.930   1.662
 2854TIP3    H1 8568   2.606   0.867   1.681
 2854TIP3    H2 8569   2.554   1.003   1.722
 2855TIP3   OH2 8570   5.283   4.964   4.866
 2855TIP3    H1 8571   5.311   4.874   4.885
 2855TIP3    H2 8572   5.207   4.953   4.808
 2856TIP3   OH2 8573   0.625   0.084   0.180
 2856TIP3    H1 8574   0.581   0.023   0.240
 2856TIP3    H2 8575   0.694   0.124   0.233
 2857TIP3   OH2 8576   4.941   2.371   1.246
 2857TIP3    H1 8577   5.029   2.347   1.217
 2857TIP3    H2 8578   4.901   2.411   1.169
 2858TIP3   OH2 8579   4.511   1.523   4.263
 2858TIP3    H1 8580   4.507   1.505   4.169
 2858TIP3    H2 8581   4.422   1.508   4.294
 2859TIP3   OH2 8582   2.165   0.122   1.229
 2859TIP3    H1 8583   2.190   0.109   1.320
 2859TIP3    H2 8584   2.237   0.086   1.178
 2860TIP3   OH2 8585   5.880   3.174   0.371
 2860TIP3    H1 8586   5.964   3.192   0.412
 2860TIP3    H2 8587   5.885   3.219   0.286
 2861TIP3   OH2 8588   5.282   0.036   0.422
 2861TIP3    H1 8589   5.249   0.115   0.464
 2861TIP3    H2 8590   5.213   0.008   0.363
 2862TIP3   OH2 8591   2.118   3.661   2.248
 2862TIP3    H1 8592   2.074   3.594   2.300
 2862TIP3    H2 8593   2.111   3.630   2.158
 2863TIP3   OH2 8594   0.772   1.736   4.715
 2863TIP3    H1 8595   0.688   1.771   4.684
 2863TIP3    H2 8596   0.755   1.643   4.731
 2864TIP3   OH2 8597   5.000   1.075   4.862
 2864TIP3    H1 8598   4.963   1.056   4.948
 2864TIP3    H2 8599   5.095   1.078   4.876
 2865TIP3   OH2 8600   5.710   5.937   3.841
 2865TIP3    H1 8601   5.748   6.013   3.885
 2865TIP3    H2 8602   5.616   5.946   3.855
 2866TIP3   OH2 8603   3.048   4.789   2.463
 2866TIP3    H1 8604   2.998   4.871   2.461
 2866TIP3    H2 8605   3.085   4.786   2.551
 2867TIP3   OH2 8606   4.996   2.479   4.831
 2867TIP3    H1 8607   4.966   2.548   4.891
 2867TIP3    H2 8608   5.083   2.457   4.862
 2868TIP3   OH2 8609   2.540   5.039   2.653
 2868TIP3    H1 8610   2.523   5.089   2.573
 2868TIP3    H2 8611   2.556   5.106   2.720
 2869TIP3   OH2 8612   0.521   3.880   2.652
 2869TIP3    H1 8613   0.541   3.926   2.733
 2869TIP3    H2 8614   0.601   3.832   2.630
 2870TIP3   OH2 8615   4.727   0.238   1.967
 2870TIP3    H1 8616   4.671   0.307   2.005
 2870TIP3    H2 8617   4.704   0.159   2.017
 2871TIP3   OH2 8618   6.031   0.830   5.173
 2871TIP3    H1 8619   6.087   0.753   5.165
 2871TIP3    H2 8620   6.030   0.868   5.086
 2872TIP3   OH2 8621   6.185   1.865   1.037
 2872TIP3    H1 8622   6.275   1.897   1.030
 2872TIP3    H2 8623   6.190   1.772   1.018
 2873TIP3   OH2 8624   6.189   0.668   0.539
 2873TIP3    H1 8625   6.140   0.673   0.621
 2873TIP3    H2 8626   6.134   0.615   0.482
 2874TIP3   OH2 8627   1.321   2.855   4.384
 2874TIP3    H1 8628   1.315   2.806   4.466
 2874TIP3    H2 8629   1.415   2.856   4.364
 2875TIP3   OH2 8630   6.228   3.142   4.413
 2875TIP3    H1 8631   6.144   3.119   4.453
 2875TIP3    H2 8632   6.257   3.061   4.371
 2876TIP3   OH2 8633   2.923   3.802   3.880
 2876TIP3    H1 8634   3.004   3.838   3.845
 2876TIP3    H2 8635   2.950   3.742   3.949
 2877TIP3   OH2 8636   5.766   1.239   4.583
 2877TIP3    H1 8637   5.719   1.174   4.530
 2877TIP3    H2 8638   5.852   1.200   4.599
 2878TIP3   OH2 8639   0.351   0.099   2.297
 2878TIP3    H1 8640   0.428   0.045   2.276
 2878TIP3    H2 8641   0.379   0.189   2.277
 2879TIP3   OH2 8642   4.077   1.350   1.786
 2879TIP3    H1 8643   4.081   1.425   1.845
 2879TIP3    H2 8644   4.156   1.300   1.805
 2880TIP3   OH2 8645   0.011   5.015   2.778
 2880TIP3    H1 8646   0.075   5.059   2.723
 2880TIP3    H2 8647   0.054   4.933   2.803
 2881TIP3   OH2 8648   0.853   5.903   5.014
 2881TIP3    H1 8649   0.933   5.932   4.970
 2881TIP3    H2 8650   0.869   5.920   5.107
 2882TIP3   OH2 8651   1.007   4.009   3.755
 2882TIP3    H1 8652   0.995   3.930   3.702
 2882TIP3    H2 8653   1.101   4.028   3.750
 2883TIP3   OH2 8654   2.794   4.323   1.177
 2883TIP3    H1 8655   2.848   4.314   1.256
 2883TIP3    H2 8656   2.830   4.258   1.116
 2884TIP3   OH2 8657   4.258   4.560   4.837
 2884TIP3    H1 8658   4.346   4.523   4.843
 2884TIP3    H2 8659   4.225   4.528   4.753
 2885TIP3   OH2 8660   1.266   3.612   4.943
 2885TIP3    H1 8661   1.325   3.539   4.923
 2885TIP3    H2 8662   1.221   3.630   4.861
 2886TIP3   OH2 8663   3.216   3.289   2.321
 2886TIP3    H1 8664   3.167   3.371   2.314
 2886TIP3    H2 8665   3.150   3.223   2.340
 2887TIP3   OH2 8666   2.869   5.711   0.818
 2887TIP3    H1 8667   2.901   5.622   0.834
 2887TIP3    H2 8668   2.897   5.761   0.894
 2888TIP3   OH2 8669   4.324   2.583   3.588
 2888TIP3    H1 8670   4.378   2.576   3.666
 2888TIP3    H2 8671   4.236   2.563   3.617
 2889TIP3   OH2 8672   3.515   3.934   0.677
 2889TIP3    H1 8673   3.463   3.951   0.599
 2889TIP3    H2 8674   3.510   4.015   0.728
 2890TIP3   OH2 8675   3.928   3.599   0.392
 2890TIP3    H1 8676   3.899   3.508   0.404
 2890TIP3    H2 8677   4.010   3.591   0.344
 2891TIP3   OH2 8678   5.583   1.025   0.630
 2891TIP3    H1 8679   5.675   1.014   0.604
 2891TIP3    H2 8680   5.534   0.989   0.556
 2892TIP3   OH2 8681  -0.040   4.026   1.921
 2892TIP3    H1 8682   0.042   3.983   1.901
 2892TIP3    H2 8683  -0.022   4.076   2.001
 2893TIP3   OH2 8684   2.089   5.405   3.685
 2893TIP3    H1 8685   2.034   5.355   3.745
 2893TIP3    H2 8686   2.173   5.360   3.685
 2894TIP3   OH2 8687   3.086   5.530   3.193
 2894TIP3    H1 8688   3.121   5.489   3.272
 2894TIP3    H2 8689   3.163   5.546   3.139
 2895TIP3   OH2 8690   5.844   4.616   2.983
 2895TIP3    H1 8691   5.921   4.559   2.991
 2895TIP3    H2 8692   5.877   4.704   3.000
 2896TIP3   OH2 8693   4.782   2.510   0.664
 2896TIP3    H1 8694   4.692   2.485   0.687
 2896TIP3    H2 8695   4.832   2.429   0.675
 2897TIP3   OH2 8696   5.930   1.896   2.376
 2897TIP3    H1 8697   5.927   1.979   2.423
 2897TIP3    H2 8698   5.923   1.829   2.444
 2898TIP3   OH2 8699   2.248   5.697   3.687
 2898TIP3    H1 8700   2.179   5.707   3.622
 2898TIP3    H2 8701   2.271   5.605   3.684
 2899TIP3   OH2 8702   6.308   4.044   1.158
 2899TIP3    H1 8703   6.283   3.958   1.123
 2899TIP3    H2 8704   6.242   4.062   1.225
 2900TIP3   OH2 8705   2.988   2.389   0.207
 2900TIP3    H1 8706   2.907   2.418   0.247
 2900TIP3    H2 8707   2.962   2.322   0.143
 2901TIP3   OH2 8708   2.039   3.260   1.298
 2901TIP3    H1 8709   2.096   3.233   1.225
 2901TIP3    H2 8710   1.952   3.229   1.272
 2902TIP3   OH2 8711   0.140   1.289   3.597
 2902TIP3    H1 8712   0.181   1.360   3.547
 2902TIP3    H2 8713   0.176   1.298   3.685
 2903TIP3   OH2 8714   3.437   3.245   1.483
 2903TIP3    H1 8715   3.457   3.285   1.398
 2903TIP3    H2 8716   3.349   3.276   1.504
 2904TIP3   OH2 8717   0.229   3.367   3.134
 2904TIP3    H1 8718   0.290   3.360   3.208
 2904TIP3    H2 8719   0.215   3.277   3.106
 2905TIP3   OH2 8720   2.147   0.269   1.881
 2905TIP3    H1 8721   2.223   0.212   1.894
 2905TIP3    H2 8722   2.145   0.285   1.787
 2906TIP3   OH2 8723   3.518   0.872   4.192
 2906TIP3    H1 8724   3.459   0.818   4.245
 2906TIP3    H2 8725   3.526   0.954   4.241
 2907TIP3   OH2 8726   1.245   3.067   0.688
 2907TIP3    H1 8727   1.336   3.039   0.687
 2907TIP3    H2 8728   1.217   3.058   0.596
 2908TIP3   OH2 8729   3.348   4.814   4.464
 2908TIP3    H1 8730   3.384   4.761   4.535
 2908TIP3    H2 8731   3.382   4.902   4.479
 2909TIP3   OH2 8732   1.178   0.550   1.079
 2909TIP3    H1 8733   1.131   0.561   0.997
 2909TIP3    H2 8734   1.216   0.462   1.073
 2910TIP3   OH2 8735   3.530   1.467   1.188
 2910TIP3    H1 8736   3.451   1.431   1.149
 2910TIP3    H2 8737   3.571   1.518   1.118
 2911TIP3   OH2 8738   3.979   4.420   1.780
 2911TIP3    H1 8739   4.024   4.409   1.696
 2911TIP3    H2 8740   3.887   4.433   1.756
 2912TIP3   OH2 8741   0.021   0.825   0.148
 2912TIP3    H1 8742   0.043   0.732   0.152
 2912TIP3    H2 8743  -0.052   0.830   0.087
 2913TIP3   OH2 8744   5.172   3.450   3.172
 2913TIP3    H1 8745   5.090   3.497   3.188
 2913TIP3    H2 8746   5.184   3.395   3.250
 2914TIP3   OH2 8747   3.206   5.233   4.005
 2914TIP3    H1 8748   3.173   5.276   4.084
 2914TIP3    H2 8749   3.185   5.294   3.935
 2915TIP3   OH2 8750   2.210   3.502   2.985
 2915TIP3    H1 8751   2.194   3.533   3.074
 2915TIP3    H2 8752   2.208   3.581   2.931
 2916TIP3   OH2 8753   5.620   4.914   4.199
 2916TIP3    H1 8754   5.671   4.979   4.248
 2916TIP3    H2 8755   5.572   4.966   4.135
 2917TIP3   OH2 8756   1.913   5.367   2.894
 2917TIP3    H1 8757   1.882   5.456   2.908
 2917TIP3    H2 8758   1.960   5.370   2.811
 2918TIP3   OH2 8759   2.475   0.396   5.028
 2918TIP3    H1 8760   2.429   0.442   5.097
 2918TIP3    H2 8761   2.525   0.464   4.982
 2919TIP3   OH2 8762   1.524   4.470   0.023
 2919TIP3    H1 8763   1.534   4.505   0.111
 2919TIP3    H2 8764   1.610   4.481  -0.018
 2920TIP3   OH2 8765   0.529   4.325   2.473
 2920TIP3    H1 8766   0.509   4.358   2.560
 2920TIP3    H2 8767   0.609   4.274   2.484
 2921TIP3   OH2 8768   2.539   5.175   4.859
 2921TIP3    H1 8769   2.577   5.157   4.945
 2921TIP3    H2 8770   2.533   5.270   4.855
 2922TIP3   OH2 8771   5.725   2.313   3.840
 2922TIP3    H1 8772   5.676   2.263   3.905
 2922TIP3    H2 8773   5.782   2.370   3.893
 2923TIP3   OH2 8774   0.735   1.662   1.902
 2923TIP3    H1 8775   0.686   1.686   1.824
 2923TIP3    H2 8776   0.827   1.679   1.880
 2924TIP3   OH2 8777   0.234   2.555   1.674
 2924TIP3    H1 8778   0.157   2.498   1.671
 2924TIP3    H2 8779   0.308   2.496   1.687
 2925TIP3   OH2 8780   6.101   3.054   1.468
 2925TIP3    H1 8781   6.093   3.112   1.544
 2925TIP3    H2 8782   6.138   2.974   1.504
 2926TIP3   OH2 8783   4.049   4.071   4.110
 2926TIP3    H1 8784   4.016   3.995   4.061
 2926TIP3    H2 8785   4.015   4.058   4.199
 2927TIP3   OH2 8786   2.345   2.640   4.473
 2927TIP3    H1 8787   2.389   2.717   4.437
 2927TIP3    H2 8788   2.410   2.570   4.468
 2928TIP3   OH2 8789   4.431   1.937   0.994
 2928TIP3    H1 8790   4.470   1.878   1.059
 2928TIP3    H2 8791   4.354   1.973   1.039
 2929TIP3   OH2 8792   3.244   5.855   3.551
 2929TIP3    H1 8793   3.329   5.888   3.524
 2929TIP3    H2 8794   3.191   5.858   3.472
 2930TIP3   OH2 8795   4.593   1.338   2.591
 2930TIP3    H1 8796   4.502   1.359   2.609
 2930TIP3    H2 8797   4.601   1.344   2.495
 2931TIP3   OH2 8798   0.791   0.637   1.399
 2931TIP3    H1 8799   0.886   0.645   1.396
 2931TIP3    H2 8800   0.766   0.611   1.310
 2932TIP3   OH2 8801   1.072   5.885   2.077
 2932TIP3    H1 8802   1.153   5.934   2.063
 2932TIP3    H2 8803   1.004   5.952   2.076
 2933TIP3   OH2 8804   3.639   3.040   2.720
 2933TIP3    H1 8805   3.592   2.966   2.758
 2933TIP3    H2 8806   3.640   3.106   2.790
 2934TIP3   OH2 8807   4.789   5.857   3.332
 2934TIP3    H1 8808   4.868   5.827   3.377
 2934TIP3    H2 8809   4.724   5.788   3.348
 2935TIP3   OH2 8810   1.553   0.903   1.320
 2935TIP3    H1 8811   1.639   0.860   1.321
 2935TIP3    H2 8812   1.557   0.967   1.391
 2936TIP3   OH2 8813   4.780   2.540   0.237
 2936TIP3    H1 8814   4.792   2.447   0.216
 2936TIP3    H2 8815   4.824   2.551   0.321
 2937TIP3   OH2 8816   5.347   0.501   3.425
 2937TIP3    H1 8817   5.260   0.469   3.404
 2937TIP3    H2 8818   5.337   0.546   3.509
 2938TIP3   OH2 8819   5.223   2.499   1.715
 2938TIP3    H1 8820   5.164   2.428   1.691
 2938TIP3    H2 8821   5.183   2.539   1.792
 2939TIP3   OH2 8822   5.182   4.708   3.035
 2939TIP3    H1 8823   5.149   4.786   2.990
 2939TIP3    H2 8824   5.245   4.670   2.975
 2940TIP3   OH2 8825   1.526   0.936   3.056
 2940TIP3    H1 8826   1.502   0.960   3.146
 2940TIP3    H2 8827   1.443   0.929   3.010
 2941TIP3   OH2 8828   0.549   4.512   0.424
 2941TIP3    H1 8829   0.541   4.527   0.518
 2941TIP3    H2 8830   0.548   4.600   0.386
 2942TIP3   OH2 8831   1.374   1.767   2.093
 2942TIP3    H1 8832   1.378   1.857   2.126
 2942TIP3    H2 8833   1.461   1.731   2.109
 2943TIP3   OH2 8834   2.907   0.733   2.659
 2943TIP3    H1 8835   2.864   0.807   2.703
 2943TIP3    H2 8836   2.911   0.759   2.567
 2944TIP3   OH2 8837   3.598   2.687   3.572
 2944TIP3    H1 8838   3.687   2.701   3.605
 2944TIP3    H2 8839   3.543   2.742   3.628
 2945TIP3   OH2 8840   4.490   4.586   1.154
 2945TIP3    H1 8841   4.484   4.634   1.071
 2945TIP3    H2 8842   4.556   4.635   1.204
 2946TIP3   OH2 8843   4.024   3.540   3.085
 2946TIP3    H1 8844   4.012   3.493   3.003
 2946TIP3    H2 8845   4.057   3.626   3.058
 2947TIP3   OH2 8846   0.059   2.034   3.110
 2947TIP3    H1 8847   0.132   1.976   3.132
 2947TIP3    H2 8848  -0.020   1.986   3.134
 2948TIP3   OH2 8849   1.859   0.902   2.787
 2948TIP3    H1 8850   1.839   0.822   2.739
 2948TIP3    H2 8851   1.790   0.963   2.762
 2949TIP3   OH2 8852   4.671   0.770   1.266
 2949TIP3    H1 8853   4.632   0.686   1.289
 2949TIP3    H2 8854   4.719   0.754   1.185
 2950TIP3   OH2 8855   5.532   2.472   1.044
 2950TIP3    H1 8856   5.517   2.535   0.974
 2950TIP3    H2 8857   5.526   2.386   1.002
 2951TIP3   OH2 8858   3.240   0.442   3.889
 2951TIP3    H1 8859   3.192   0.401   3.816
 2951TIP3    H2 8860   3.236   0.536   3.871
 2952TIP3   OH2 8861   5.346   0.920   3.167
 2952TIP3    H1 8862   5.367   0.999   3.118
 2952TIP3    H2 8863   5.337   0.851   3.101
 2953TIP3   OH2 8864   1.876   4.735   2.825
 2953TIP3    H1 8865   1.799   4.722   2.771
 2953TIP3    H2 8866   1.908   4.822   2.803
 2954TIP3   OH2 8867   4.623   2.439   2.703
 2954TIP3    H1 8868   4.592   2.524   2.671
 2954TIP3    H2 8869   4.655   2.394   2.624
 2955TIP3   OH2 8870   2.136   3.000   2.259
 2955TIP3    H1 8871   2.143   3.024   2.167
 2955TIP3    H2 8872   2.213   3.039   2.300
 2956TIP3   OH2 8873   4.832   3.445   4.271
 2956TIP3    H1 8874   4.795   3.400   4.195
 2956TIP3    H2 8875   4.769   3.514   4.291
 2957TIP3   OH2 8876   4.738   3.883   4.004
 2957TIP3    H1 8877   4.812   3.944   4.003
 2957TIP3    H2 8878   4.681   3.915   4.074
 2958TIP3   OH2 8879   6.167   0.497   3.078
 2958TIP3    H1 8880   6.257   0.475   3.059
 2958TIP3    H2 8881   6.121   0.487   2.995
 2959TIP3   OH2 8882   0.422   3.576   3.663
 2959TIP3    H1 8883   0.363   3.585   3.588
 2959TIP3    H2 8884   0.366   3.543   3.733
 2960TIP3   OH2 8885   6.057   4.292   4.314
 2960TIP3    H1 8886   6.098   4.361   4.264
 2960TIP3    H2 8887   5.968   4.286   4.279
 2961TIP3   OH2 8888   6.283   5.522   3.855
 2961TIP3    H1 8889   6.287   5.613   3.885
 2961TIP3    H2 8890   6.258   5.528   3.763
 2962TIP3   OH2 8891   4.136   5.223   1.542
 2962TIP3    H1 8892   4.179   5.308   1.555
 2962TIP3    H2 8893   4.043   5.241   1.555
 2963TIP3   OH2 8894   3.168   0.457   4.582
 2963TIP3    H1 8895   3.231   0.399   4.540
 2963TIP3    H2 8896   3.212   0.542   4.586
 2964TIP3   OH2 8897   3.418   1.789   2.879
 2964TIP3    H1 8898   3.480   1.856   2.851
 2964TIP3    H2 8899   3.361   1.777   2.803
 2965TIP3   OH2 8900   2.864   5.238   2.649
 2965TIP3    H1 8901   2.841   5.204   2.735
 2965TIP3    H2 8902   2.909   5.320   2.667
 2966TIP3   OH2 8903   6.074   1.354   4.852
 2966TIP3    H1 8904   6.056   1.290   4.782
 2966TIP3    H2 8905   6.167   1.371   4.844
 2967TIP3   OH2 8906   5.797   0.733   4.719
 2967TIP3    H1 8907   5.842   0.648   4.722
 2967TIP3    H2 8908   5.721   0.723   4.776
 2968TIP3   OH2 8909   1.793   2.245   4.913
 2968TIP3    H1 8910   1.715   2.195   4.889
 2968TIP3    H2 8911   1.866   2.193   4.880
 2969TIP3   OH2 8912   1.804   2.796   3.599
 2969TIP3    H1 8913   1.793   2.741   3.677
 2969TIP3    H2 8914   1.855   2.871   3.629
 2970TIP3   OH2 8915   5.579   4.876   0.845
 2970TIP3    H1 8916   5.621   4.796   0.877
 2970TIP3    H2 8917   5.494   4.877   0.888
 2971TIP3   OH2 8918   5.825   5.831   0.298
 2971TIP3    H1 8919   5.801   5.741   0.320
 2971TIP3    H2 8920   5.917   5.826   0.272
 2972TIP3   OH2 8921   5.671   1.966   5.041
 2972TIP3    H1 8922   5.652   1.898   5.106
 2972TIP3    H2 8923   5.585   1.992   5.008
 2973TIP3   OH2 8924   4.835   2.238   2.163
 2973TIP3    H1 8925   4.877   2.192   2.236
 2973TIP3    H2 8926   4.898   2.233   2.092
 2974TIP3   OH2 8927   6.151   3.751   2.596
 2974TIP3    H1 8928   6.165   3.672   2.649
 2974TIP3    H2 8929   6.238   3.789   2.587
 2975TIP3   OH2 8930   2.199   4.504   3.050
 2975TIP3    H1 8931   2.293   4.517   3.055
 2975TIP3    H2 8932   2.184   4.421   3.094
 2976TIP3   OH2 8933   5.704   3.719   1.778
 2976TIP3    H1 8934   5.779   3.779   1.776
 2976TIP3    H2 8935   5.628   3.776   1.765
 2977TIP3   OH2 8936   6.339   1.858   3.401
 2977TIP3    H1 8937   6.316   1.939   3.355
 2977TIP3    H2 8938   6.324   1.878   3.493
 2978TIP3   OH2 8939   4.812   5.147   2.012
 2978TIP3    H1 8940   4.787   5.059   1.983
 2978TIP3    H2 8941   4.731   5.197   2.009
 2979TIP3   OH2 8942   5.158   3.004   3.339
 2979TIP3    H1 8943   5.085   2.962   3.293
 2979TIP3    H2 8944   5.118   3.076   3.387
 2980TIP3   OH2 8945   4.556   3.368   0.358
 2980TIP3    H1 8946   4.557   3.323   0.273
 2980TIP3    H2 8947   4.645   3.357   0.391
 2981TIP3   OH2 8948   2.920   1.704   0.347
 2981TIP3    H1 8949   2.902   1.714   0.440
 2981TIP3    H2 8950   2.937   1.792   0.316
 2982TIP3   OH2 8951   5.157   4.437   0.700
 2982TIP3    H1 8952   5.241   4.396   0.721
 2982TIP3    H2 8953   5.097   4.404   0.766
 2983TIP3   OH2 8954   0.666   1.731   0.509
 2983TIP3    H1 8955   0.646   1.763   0.597
 2983TIP3    H2 8956   0.731   1.662   0.523
 2984TIP3   OH2 8957   1.711   3.670   1.164
 2984TIP3    H1 8958   1.766   3.604   1.123
 2984TIP3    H2 8959   1.646   3.693   1.098
 2985TIP3   OH2 8960   5.510   3.708   1.333
 2985TIP3    H1 8961   5.515   3.627   1.282
 2985TIP3    H2 8962   5.484   3.679   1.421
 2986TIP3   OH2 8963   1.865   4.994   3.991
 2986TIP3    H1 8964   1.904   4.967   3.908
 2986TIP3    H2 8965   1.928   4.966   4.057
 2987TIP3   OH2 8966   3.626   2.219   2.803
 2987TIP3    H1 8967   3.543   2.210   2.758
 2987TIP3    H2 8968   3.673   2.288   2.756
 2988TIP3   OH2 8969   4.357   4.980   2.914
 2988TIP3    H1 8970   4.409   4.949   2.840
 2988TIP3    H2 8971   4.418   5.032   2.966
 2989TIP3   OH2 8972   6.288   5.131   1.880
 2989TIP3    H1 8973   6.373   5.176   1.889
 2989TIP3    H2 8974   6.225   5.192   1.917
 2990TIP3   OH2 8975   0.837   5.081   0.458
 2990TIP3    H1 8976   0.863   5.069   0.549
 2990TIP3    H2 8977   0.838   4.992   0.422
 2991TIP3   OH2 8978   4.445   1.253   1.398
 2991TIP3    H1 8979   4.514   1.222   1.339
 2991TIP3    H2 8980   4.402   1.174   1.430
 2992TIP3   OH2 8981   2.073   2.377   1.032
 2992TIP3    H1 8982   2.157   2.392   0.989
 2992TIP3    H2 8983   2.008   2.386   0.961
 2993TIP3   OH2 8984   0.508   5.040   3.823
 2993TIP3    H1 8985   0.587   4.996   3.789
 2993TIP3    H2 8986   0.476   4.982   3.892
 2994TIP3   OH2 8987   3.121   5.009   0.333
 2994TIP3    H1 8988   3.175   4.948   0.383
 2994TIP3    H2 8989   3.042   4.960   0.311
 2995TIP3   OH2 8990   1.406   2.068   3.788
 2995TIP3    H1 8991   1.497   2.084   3.762
 2995TIP3    H2 8992   1.405   1.978   3.820
 2996TIP3   OH2 8993   2.285   3.214   4.345
 2996TIP3    H1 8994   2.216   3.239   4.284
 2996TIP3    H2 8995   2.290   3.287   4.406
 2997TIP3   OH2 8996   4.561   4.018   4.171
 2997TIP3    H1 8997   4.468   4.011   4.192
 2997TIP3    H2 8998   4.568   4.100   4.122
 2998TIP3   OH2 8999   1.726   3.431   0.047
 2998TIP3    H1 9000   1.753   3.365  -0.018
 2998TIP3    H2 9001   1.786   3.418   0.121
 2999TIP3   OH2 9002   3.772   5.905   4.139
 2999TIP3    H1 9003   3.757   5.837   4.205
 2999TIP3    H2 9004   3.756   5.861   4.056
 3000TIP3   OH2 9005   0.609   5.397   0.968
 3000TIP3    H1 9006   0.522   5.391   1.008
 3000TIP3    H2 9007   0.632   5.489   0.973
 3001TIP3   OH2 9008   1.627   5.102   4.110
 3001TIP3    H1 9009   1.646   5.195   4.098
 3001TIP3    H2 9010   1.703   5.057   4.073
 3002TIP3   OH2 9011   5.274   1.813   5.146
 3002TIP3    H1 9012   5.342   1.872   5.116
 3002TIP3    H2 9013   5.193   1.864   5.141
 3003TIP3   OH2 9014   2.830   4.921   5.061
 3003TIP3    H1 9015   2.818   4.852   5.126
 3003TIP3    H2 9016   2.923   4.915   5.038
 3004TIP3   OH2 9017   2.473   3.932   2.401
 3004TIP3    H1 9018   2.549   3.875   2.386
 3004TIP3    H2 9019   2.510   4.018   2.417
 3005TIP3   OH2 9020   2.143   4.147   0.370
 3005TIP3    H1 9021   2.232   4.150   0.405
 3005TIP3    H2 9022   2.094   4.210   0.423
 3006TIP3   OH2 9023   4.504   2.341   0.414
 3006TIP3    H1 9024   4.549   2.267   0.454
 3006TIP3    H2 9025   4.441   2.369   0.480
 3007TIP3   OH2 9026   5.135   4.448   4.054
 3007TIP3    H1 9027   5.041   4.437   4.049
 3007TIP3    H2 9028   5.169   4.409   3.974
 3008TIP3   OH2 9029   2.545   4.274   3.436
 3008TIP3    H1 9030   2.520   4.366   3.428
 3008TIP3    H2 9031   2.562   4.263   3.530
 3009TIP3   OH2 9032   5.174   4.207   0.442
 3009TIP3    H1 9033   5.142   4.195   0.353
 3009TIP3    H2 9034   5.176   4.301   0.455
 3010TIP3   OH2 9035   4.635   5.868   2.730
 3010TIP3    H1 9036   4.610   5.937   2.669
 3010TIP3    H2 9037   4.722   5.893   2.761
 3011TIP3   OH2 9038   6.230   2.145   0.477
 3011TIP3    H1 9039   6.320   2.132   0.505
 3011TIP3    H2 9040   6.237   2.165   0.383
 3012TIP3   OH2 9041   5.709   5.811   4.878
 3012TIP3    H1 9042   5.620   5.779   4.894
 3012TIP3    H2 9043   5.699   5.874   4.807
 3013TIP3   OH2 9044   0.282   4.177   3.348
 3013TIP3    H1 9045   0.356   4.231   3.319
 3013TIP3    H2 9046   0.215   4.190   3.281
 3014TIP3   OH2 9047   1.364   5.453   3.364
 3014TIP3    H1 9048   1.384   5.469   3.272
 3014TIP3    H2 9049   1.335   5.538   3.397
 3015TIP3   OH2 9050   1.693   1.242   0.258
 3015TIP3    H1 9051   1.785   1.235   0.284
 3015TIP3    H2 9052   1.673   1.156   0.221
 3016TIP3   OH2 9053   5.477   1.401   2.796
 3016TIP3    H1 9054   5.561   1.363   2.822
 3016TIP3    H2 9055   5.476   1.487   2.838
 3017TIP3   OH2 9056   3.931   3.161   0.134
 3017TIP3    H1 9057   3.874   3.219   0.083
 3017TIP3    H2 9058   3.954   3.213   0.212
 3018TIP3   OH2 9059   2.239   5.709   1.606
 3018TIP3    H1 9060   2.325   5.724   1.566
 3018TIP3    H2 9061   2.259   5.677   1.694
 3019TIP3   OH2 9062   1.683   4.284   1.567
 3019TIP3    H1 9063   1.703   4.350   1.633
 3019TIP3    H2 9064   1.613   4.324   1.514
 3020TIP3   OH2 9065   4.020   5.903   3.982
 3020TIP3    H1 9066   3.955   5.955   4.029
 3020TIP3    H2 9067   4.017   5.817   4.024
 3021TIP3   OH2 9068   1.708   0.274   1.117
 3021TIP3    H1 9069   1.669   0.244   1.199
 3021TIP3    H2 9070   1.768   0.203   1.092
 3022TIP3   OH2 9071   3.370   5.804   1.262
 3022TIP3    H1 9072   3.296   5.770   1.311
 3022TIP3    H2 9073   3.433   5.831   1.328
 3023TIP3   OH2 9074   1.871   0.112   1.464
 3023TIP3    H1 9075   1.880   0.040   1.402
 3023TIP3    H2 9076   1.956   0.156   1.463
 3024TIP3   OH2 9077   4.314   3.267   0.075
 3024TIP3    H1 9078   4.313   3.343   0.017
 3024TIP3    H2 9079   4.244   3.210   0.042
 3025TIP3   OH2 9080   0.762   2.116   2.537
 3025TIP3    H1 9081   0.768   2.025   2.506
 3025TIP3    H2 9082   0.825   2.164   2.484
 3026TIP3   OH2 9083   1.824   2.836   3.301
 3026TIP3    H1 9084   1.788   2.788   3.376
 3026TIP3    H2 9085   1.849   2.768   3.239
 3027TIP3   OH2 9086   2.524   0.614   0.832
 3027TIP3    H1 9087   2.567   0.700   0.833
 3027TIP3    H2 9088   2.474   0.612   0.913
 3028TIP3   OH2 9089   5.473   0.992   4.701
 3028TIP3    H1 9090   5.390   1.039   4.701
 3028TIP3    H2 9091   5.493   0.977   4.608
 3029TIP3   OH2 9092   1.821   2.273   3.080
 3029TIP3    H1 9093   1.854   2.192   3.040
 3029TIP3    H2 9094   1.789   2.324   3.006
 3030TIP3   OH2 9095   1.545   4.356   1.322
 3030TIP3    H1 9096   1.531   4.446   1.350
 3030TIP3    H2 9097   1.463   4.331   1.278
 3031TIP3   OH2 9098   0.171   4.198   4.267
 3031TIP3    H1 9099   0.077   4.200   4.284
 3031TIP3    H2 9100   0.210   4.242   4.342
 3032TIP3   OH2 9101   4.149   1.672   4.777
 3032TIP3    H1 9102   4.098   1.664   4.697
 3032TIP3    H2 9103   4.202   1.592   4.781
 3033TIP3   OH2 9104   1.005   4.289   1.310
 3033TIP3    H1 9105   1.060   4.343   1.367
 3033TIP3    H2 9106   0.917   4.324   1.321
 3034TIP3   OH2 9107   5.689   3.154   3.907
 3034TIP3    H1 9108   5.770   3.143   3.956
 3034TIP3    H2 9109   5.662   3.244   3.926
 3035TIP3   OH2 9110   4.406   4.943   4.793
 3035TIP3    H1 9111   4.353   4.883   4.845
 3035TIP3    H2 9112   4.343   4.993   4.741
 3036TIP3   OH2 9113   1.617   3.590   1.682
 3036TIP3    H1 9114   1.698   3.540   1.668
 3036TIP3    H2 9115   1.551   3.522   1.699
 3037TIP3   OH2 9116   3.727   5.870   3.371
 3037TIP3    H1 9117   3.802   5.841   3.424
 3037TIP3    H2 9118   3.723   5.807   3.299
 3038TIP3   OH2 9119   2.587   5.512   3.017
 3038TIP3    H1 9120   2.523   5.471   3.075
 3038TIP3    H2 9121   2.667   5.461   3.029
 3039TIP3   OH2 9122   5.408   2.322   3.746
 3039TIP3    H1 9123   5.503   2.314   3.751
 3039TIP3    H2 9124   5.378   2.237   3.714
 3040TIP3   OH2 9125   4.487   5.913   4.317
 3040TIP3    H1 9126   4.572   5.940   4.281
 3040TIP3    H2 9127   4.427   5.919   4.243
 3041TIP3   OH2 9128   4.552   5.843   2.085
 3041TIP3    H1 9129   4.629   5.876   2.131
 3041TIP3    H2 9130   4.528   5.913   2.025
 3042TIP3   OH2 9131   0.370   2.787   1.702
 3042TIP3    H1 9132   0.296   2.727   1.716
 3042TIP3    H2 9133   0.446   2.738   1.733
 3043TIP3   OH2 9134   0.536   5.562   3.653
 3043TIP3    H1 9135   0.630   5.556   3.672
 3043TIP3    H2 9136   0.531   5.572   3.558
 3044TIP3   OH2 9137   0.771   0.530   5.068
 3044TIP3    H1 9138   0.682   0.509   5.040
 3044TIP3    H2 9139   0.819   0.448   5.059
 3045TIP3   OH2 9140   2.391   3.071   1.604
 3045TIP3    H1 9141   2.366   2.994   1.553
 3045TIP3    H2 9142   2.361   3.051   1.693
 3046TIP3   OH2 9143   0.347   2.886   0.140
 3046TIP3    H1 9144   0.289   2.820   0.102
 3046TIP3    H2 9145   0.296   2.924   0.212
 3047TIP3   OH2 9146   2.145   2.196   2.382
 3047TIP3    H1 9147   2.188   2.267   2.334
 3047TIP3    H2 9148   2.066   2.177   2.332
 3048TIP3   OH2 9149   6.168   4.422   0.760
 3048TIP3    H1 9150   6.146   4.509   0.727
 3048TIP3    H2 9151   6.088   4.371   0.749
 3049TIP3   OH2 9152   2.406   4.980   4.418
 3049TIP3    H1 9153   2.356   5.060   4.433
 3049TIP3    H2 9154   2.425   4.979   4.325
 3050TIP3   OH2 9155   2.327   0.855   1.851
 3050TIP3    H1 9156   2.243   0.857   1.805
 3050TIP3    H2 9157   2.390   0.887   1.787
 3051TIP3   OH2 9158   5.454   1.621   3.314
 3051TIP3    H1 9159   5.429   1.713   3.325
 3051TIP3    H2 9160   5.474   1.591   3.402
 3052TIP3   OH2 9161   0.675   0.729   3.247
 3052TIP3    H1 9162   0.590   0.708   3.209
 3052TIP3    H2 9163   0.717   0.787   3.184
 3053TIP3   OH2 9164   1.111   1.343   1.922
 3053TIP3    H1 9165   1.171   1.321   1.850
 3053TIP3    H2 9166   1.149   1.421   1.961
 3054TIP3   OH2 9167   3.610   1.072   3.660
 3054TIP3    H1 9168   3.593   1.105   3.748
 3054TIP3    H2 9169   3.692   1.022   3.668
 3055TIP3   OH2 9170   0.832   2.241   1.255
 3055TIP3    H1 9171   0.884   2.210   1.181
 3055TIP3    H2 9172   0.863   2.189   1.329
 3056TIP3   OH2 9173   1.692   4.459   2.220
 3056TIP3    H1 9174   1.714   4.440   2.129
 3056TIP3    H2 9175   1.610   4.509   2.215
 3057TIP3   OH2 9176   3.054   2.627   2.656
 3057TIP3    H1 9177   3.067   2.673   2.573
 3057TIP3    H2 9178   3.049   2.535   2.631
 3058TIP3   OH2 9179   2.800   5.817   4.983
 3058TIP3    H1 9180   2.712   5.781   4.981
 3058TIP3    H2 9181   2.838   5.793   4.899
 3059TIP3   OH2 9182   5.175   3.930   0.923
 3059TIP3    H1 9183   5.166   3.978   0.841
 3059TIP3    H2 9184   5.253   3.966   0.964
 3060TIP3   OH2 9185   2.555   2.689   1.159
 3060TIP3    H1 9186   2.543   2.620   1.224
 3060TIP3    H2 9187   2.649   2.707   1.160
 3061TIP3   OH2 9188   0.894   1.451   1.586
 3061TIP3    H1 9189   0.899   1.367   1.540
 3061TIP3    H2 9190   0.818   1.443   1.643
 3062TIP3   OH2 9191   0.481   1.313   3.201
 3062TIP3    H1 9192   0.501   1.305   3.107
 3062TIP3    H2 9193   0.565   1.339   3.240
 3063TIP3   OH2 9194   0.663   0.116   2.655
 3063TIP3    H1 9195   0.740   0.171   2.666
 3063TIP3    H2 9196   0.661   0.062   2.734
 3064TIP3   OH2 9197   5.210   3.991   3.539
 3064TIP3    H1 9198   5.235   4.076   3.502
 3064TIP3    H2 9199   5.116   3.985   3.523
 3065TIP3   OH2 9200   5.782   2.339   2.796
 3065TIP3    H1 9201   5.788   2.306   2.886
 3065TIP3    H2 9202   5.697   2.383   2.793
 3066TIP3   OH2 9203   0.049   4.697   2.001
 3066TIP3    H1 9204   0.138   4.669   2.026
 3066TIP3    H2 9205   0.028   4.767   2.061
 3067TIP3   OH2 9206   5.160   1.764   1.698
 3067TIP3    H1 9207   5.250   1.738   1.717
 3067TIP3    H2 9208   5.156   1.771   1.603
 3068TIP3   OH2 9209   3.924   0.759   1.988
 3068TIP3    H1 9210   3.892   0.747   2.078
 3068TIP3    H2 9211   3.846   0.786   1.939
 3069TIP3   OH2 9212   3.648   3.667   1.158
 3069TIP3    H1 9213   3.566   3.696   1.118
 3069TIP3    H2 9214   3.711   3.736   1.135
 3070TIP3   OH2 9215   3.153   3.636   0.798
 3070TIP3    H1 9216   3.243   3.625   0.832
 3070TIP3    H2 9217   3.154   3.722   0.755
 3071TIP3   OH2 9218   6.292   1.524   2.130
 3071TIP3    H1 9219   6.239   1.505   2.052
 3071TIP3    H2 9220   6.260   1.609   2.160
 3072TIP3   OH2 9221   3.570   3.952   1.378
 3072TIP3    H1 9222   3.535   3.887   1.440
 3072TIP3    H2 9223   3.531   4.035   1.406
 3073TIP3   OH2 9224   6.032   2.750   4.641
 3073TIP3    H1 9225   6.046   2.780   4.551
 3073TIP3    H2 9226   6.117   2.761   4.684
 3074TIP3   OH2 9227   5.460   5.703   2.114
 3074TIP3    H1 9228   5.374   5.743   2.102
 3074TIP3    H2 9229   5.449   5.643   2.188
 3075TIP3   OH2 9230   0.372   0.145   1.621
 3075TIP3    H1 9231   0.451   0.199   1.623
 3075TIP3    H2 9232   0.362   0.121   1.529
 3076TIP3   OH2 9233   4.425   0.113   5.167
 3076TIP3    H1 9234   4.401   0.037   5.114
 3076TIP3    H2 9235   4.521   0.112   5.169
 3077TIP3   OH2 9236   3.881   3.781   2.744
 3077TIP3    H1 9237   3.944   3.721   2.784
 3077TIP3    H2 9238   3.821   3.804   2.815
 3078TIP3   OH2 9239   0.711   3.751   4.077
 3078TIP3    H1 9240   0.667   3.672   4.043
 3078TIP3    H2 9241   0.784   3.765   4.018
 3079TIP3   OH2 9242   4.031   3.612   1.227
 3079TIP3    H1 9243   4.034   3.610   1.322
 3079TIP3    H2 9244   3.995   3.698   1.206
 3080TIP3   OH2 9245   2.583   3.242   1.764
 3080TIP3    H1 9246   2.598   3.148   1.769
 3080TIP3    H2 9247   2.512   3.258   1.826
 3081TIP3   OH2 9248   1.082   5.391   3.173
 3081TIP3    H1 9249   1.140   5.315   3.170
 3081TIP3    H2 9250   1.039   5.391   3.087
 3082TIP3   OH2 9251   4.731   2.374   2.991
 3082TIP3    H1 9252   4.778   2.301   2.951
 3082TIP3    H2 9253   4.738   2.445   2.927
 3083TIP3   OH2 9254   1.343   3.122   1.889
 3083TIP3    H1 9255   1.317   3.050   1.831
 3083TIP3    H2 9256   1.398   3.178   1.834
 3084TIP3   OH2 9257   0.067   0.839   0.913
 3084TIP3    H1 9258   0.051   0.756   0.868
 3084TIP3    H2 9259   0.162   0.848   0.916
 3085TIP3   OH2 9260   2.651   0.514   1.308
 3085TIP3    H1 9261   2.580   0.554   1.258
 3085TIP3    H2 9262   2.634   0.540   1.399
 3086TIP3   OH2 9263   0.189   3.210   2.332
 3086TIP3    H1 9264   0.157   3.259   2.257
 3086TIP3    H2 9265   0.277   3.181   2.307
 3087TIP3   OH2 9266   3.370   0.799   3.958
 3087TIP3    H1 9267   3.418   0.730   4.004
 3087TIP3    H2 9268   3.432   0.871   3.950
 3088TIP3   OH2 9269   5.434   4.896   4.623
 3088TIP3    H1 9270   5.436   4.944   4.705
 3088TIP3    H2 9271   5.425   4.804   4.649
 3089TIP3   OH2 9272   1.680   2.566   0.934
 3089TIP3    H1 9273   1.722   2.485   0.903
 3089TIP3    H2 9274   1.604   2.577   0.878
 3090TIP3   OH2 9275   6.064   4.655   0.038
 3090TIP3    H1 9276   6.079   4.561   0.041
 3090TIP3    H2 9277   6.152   4.693   0.033
 3091TIP3   OH2 9278   3.096   2.002   4.167
 3091TIP3    H1 9279   3.002   1.988   4.182
 3091TIP3    H2 9280   3.128   1.916   4.139
 3092TIP3   OH2 9281   6.276   2.500   0.594
 3092TIP3    H1 9282   6.337   2.429   0.574
 3092TIP3    H2 9283   6.204   2.458   0.640
 3093TIP3   OH2 9284   4.363   0.436   4.019
 3093TIP3    H1 9285   4.268   0.447   4.013
 3093TIP3    H2 9286   4.383   0.445   4.112
 3094TIP3   OH2 9287   1.363   4.833   0.591
 3094TIP3    H1 9288   1.446   4.806   0.551
 3094TIP3    H2 9289   1.388   4.869   0.676
 3095TIP3   OH2 9290   0.157   3.404   1.001
 3095TIP3    H1 9291   0.062   3.403   1.011
 3095TIP3    H2 9292   0.176   3.493   0.970
 3096TIP3   OH2 9293   2.013   0.314   2.567
 3096TIP3    H1 9294   2.068   0.263   2.507
 3096TIP3    H2 9295   2.067   0.389   2.590
 3097TIP3   OH2 9296   6.106   1.737   3.882
 3097TIP3    H1 9297   6.016   1.733   3.851
 3097TIP3    H2 9298   6.112   1.665   3.946
 3098TIP3   OH2 9299   4.040   3.839   2.210
 3098TIP3    H1 9300   3.957   3.811   2.172
 3098TIP3    H2 9301   4.043   3.794   2.295
 3099TIP3   OH2 9302   0.775   0.245   4.047
 3099TIP3    H1 9303   0.808   0.304   3.979
 3099TIP3    H2 9304   0.842   0.248   4.116
 3100TIP3   OH2 9305   1.265   1.997   0.724
 3100TIP3    H1 9306   1.186   2.015   0.776
 3100TIP3    H2 9307   1.258   2.057   0.649
 3101TIP3   OH2 9308   5.170   1.222   1.859
 3101TIP3    H1 9309   5.097   1.164   1.882
 3101TIP3    H2 9310   5.130   1.308   1.848
 3102TIP3   OH2 9311   2.320   0.762   0.220
 3102TIP3    H1 9312   2.282   0.808   0.145
 3102TIP3    H2 9313   2.244   0.732   0.271
 3103TIP3   OH2 9314   2.309   5.396   0.360
 3103TIP3    H1 9315   2.270   5.361   0.280
 3103TIP3    H2 9316   2.395   5.354   0.365
 3104TIP3   OH2 9317   1.048   0.910   0.288
 3104TIP3    H1 9318   1.140   0.884   0.287
 3104TIP3    H2 9319   1.022   0.899   0.380
 3105TIP3   OH2 9320   3.866   4.625   1.544
 3105TIP3    H1 9321   3.824   4.648   1.461
 3105TIP3    H2 9322   3.917   4.547   1.525
 3106TIP3   OH2 9323   4.082   3.287   3.291
 3106TIP3    H1 9324   4.145   3.219   3.315
 3106TIP3    H2 9325   4.002   3.238   3.268
 3107TIP3   OH2 9326   6.100   4.004   3.014
 3107TIP3    H1 9327   6.016   4.050   3.020
 3107TIP3    H2 9328   6.092   3.931   3.074
 3108TIP3   OH2 9329   0.118   2.181   0.616
 3108TIP3    H1 9330   0.093   2.250   0.677
 3108TIP3    H2 9331   0.200   2.146   0.652
 3109TIP3   OH2 9332   6.026   4.717   1.414
 3109TIP3    H1 9333   6.037   4.800   1.368
 3109TIP3    H2 9334   6.029   4.740   1.506
 3110TIP3   OH2 9335   4.892   5.311   2.265
 3110TIP3    H1 9336   4.949   5.272   2.199
 3110TIP3    H2 9337   4.809   5.265   2.256
 3111TIP3   OH2 9338   4.572   1.889   4.545
 3111TIP3    H1 9339   4.543   1.874   4.455
 3111TIP3    H2 9340   4.568   1.984   4.556
 3112TIP3   OH2 9341   3.063   2.324   1.920
 3112TIP3    H1 9342   3.078   2.274   2.000
 3112TIP3    H2 9343   2.967   2.329   1.914
 3113TIP3   OH2 9344   5.137   4.961   2.047
 3113TIP3    H1 9345   5.146   4.965   1.952
 3113TIP3    H2 9346   5.146   4.868   2.068
 3114TIP3   OH2 9347   1.371   0.152   4.217
 3114TIP3    H1 9348   1.406   0.167   4.305
 3114TIP3    H2 9349   1.316   0.074   4.226
 3115TIP3   OH2 9350   2.989   4.609   3.330
 3115TIP3    H1 9351   2.896   4.590   3.344
 3115TIP3    H2 9352   3.005   4.589   3.238
 3116TIP3   OH2 9353   4.945   4.084   3.882
 3116TIP3    H1 9354   4.984   4.132   3.809
 3116TIP3    H2 9355   5.017   4.068   3.942
 3117TIP3   OH2 9356   5.927   2.356   1.469
 3117TIP3    H1 9357   5.910   2.356   1.563
 3117TIP3    H2 9358   5.845   2.326   1.430
 3118TIP3   OH2 9359   2.430   0.172   4.440
 3118TIP3    H1 9360   2.408   0.089   4.398
 3118TIP3    H2 9361   2.398   0.162   4.530
 3119TIP3   OH2 9362   0.757   3.861   1.596
 3119TIP3    H1 9363   0.751   3.952   1.565
 3119TIP3    H2 9364   0.792   3.869   1.685
 3120TIP3   OH2 9365   5.372   0.626   0.015
 3120TIP3    H1 9366   5.431   0.686   0.062
 3120TIP3    H2 9367   5.420   0.602  -0.064
 3121TIP3   OH2 9368   2.788   4.877   2.661
 3121TIP3    H1 9369   2.837   4.915   2.588
 3121TIP3    H2 9370   2.696   4.889   2.636
 3122TIP3   OH2 9371   4.902   3.546   0.883
 3122TIP3    H1 9372   4.813   3.516   0.867
 3122TIP3    H2 9373   4.903   3.637   0.852
 3123TIP3   OH2 9374   5.160   2.825   0.735
 3123TIP3    H1 9375   5.146   2.739   0.774
 3123TIP3    H2 9376   5.082   2.875   0.756
 3124TIP3   OH2 9377   1.474   1.710   4.080
 3124TIP3    H1 9378   1.499   1.618   4.091
 3124TIP3    H2 9379   1.417   1.729   4.154
 3125TIP3   OH2 9380   6.017   1.482   2.657
 3125TIP3    H1 9381   6.059   1.433   2.727
 3125TIP3    H2 9382   6.070   1.463   2.579
 3126TIP3   OH2 9383   3.540   0.861   2.935
 3126TIP3    H1 9384   3.508   0.947   2.958
 3126TIP3    H2 9385   3.635   0.871   2.930
 3127TIP3   OH2 9386   4.050   3.237   2.216
 3127TIP3    H1 9387   4.107   3.175   2.171
 3127TIP3    H2 9388   3.999   3.183   2.277
 3128TIP3   OH2 9389   5.555   4.518   0.757
 3128TIP3    H1 9390   5.492   4.448   0.774
 3128TIP3    H2 9391   5.524   4.559   0.677
 3129TIP3   OH2 9392   0.919   3.856   4.831
 3129TIP3    H1 9393   0.889   3.902   4.909
 3129TIP3    H2 9394   0.840   3.841   4.780
 3130TIP3   OH2 9395   1.289   3.555   2.677
 3130TIP3    H1 9396   1.382   3.581   2.676
 3130TIP3    H2 9397   1.259   3.575   2.588
 3131TIP3   OH2 9398   3.239   1.436   4.603
 3131TIP3    H1 9399   3.304   1.373   4.571
 3131TIP3    H2 9400   3.180   1.384   4.657
 3132TIP3   OH2 9401   1.863   5.128   2.645
 3132TIP3    H1 9402   1.939   5.185   2.632
 3132TIP3    H2 9403   1.834   5.147   2.734
 3133TIP3   OH2 9404   3.749   4.572   0.340
 3133TIP3    H1 9405   3.753   4.544   0.248
 3133TIP3    H2 9406   3.741   4.667   0.335
 3134TIP3   OH2 9407   4.927   2.302   0.791
 3134TIP3    H1 9408   5.011   2.259   0.773
 3134TIP3    H2 9409   4.893   2.257   0.868
 3135TIP3   OH2 9410   5.349   5.747   2.493
 3135TIP3    H1 9411   5.371   5.679   2.429
 3135TIP3    H2 9412   5.258   5.730   2.516
 3136TIP3   OH2 9413   0.860   3.383   2.060
 3136TIP3    H1 9414   0.921   3.354   1.992
 3136TIP3    H2 9415   0.906   3.452   2.107
 3137TIP3   OH2 9416   1.219   4.441   3.776
 3137TIP3    H1 9417   1.259   4.413   3.694
 3137TIP3    H2 9418   1.292   4.446   3.838
 3138TIP3   OH2 9419   1.943   2.083   3.661
 3138TIP3    H1 9420   2.009   2.097   3.729
 3138TIP3    H2 9421   1.989   2.100   3.579
 3139TIP3   OH2 9422   4.799   3.675   0.625
 3139TIP3    H1 9423   4.730   3.717   0.676
 3139TIP3    H2 9424   4.796   3.583   0.652
 3140TIP3   OH2 9425   3.800   2.407   2.701
 3140TIP3    H1 9426   3.812   2.502   2.698
 3140TIP3    H2 9427   3.872   2.375   2.756
 3141TIP3   OH2 9428   1.486   2.839   2.395
 3141TIP3    H1 9429   1.544   2.861   2.468
 3141TIP3    H2 9430   1.524   2.759   2.358
 3142TIP3   OH2 9431   5.186   5.016   3.154
 3142TIP3    H1 9432   5.263   4.970   3.187
 3142TIP3    H2 9433   5.114   4.954   3.165
 3143TIP3   OH2 9434   1.543   3.030   1.222
 3143TIP3    H1 9435   1.522   3.035   1.128
 3143TIP3    H2 9436   1.458   3.032   1.266
 3144TIP3   OH2 9437   0.021   4.316   5.187
 3144TIP3    H1 9438  -0.059   4.312   5.135
 3144TIP3    H2 9439   0.062   4.399   5.162
 3145TIP3   OH2 9440   3.726   4.668   1.308
 3145TIP3    H1 9441   3.678   4.599   1.264
 3145TIP3    H2 9442   3.760   4.723   1.237
 3146TIP3   OH2 9443   5.563   0.065   5.042
 3146TIP3    H1 9444   5.498   0.135   5.034
 3146TIP3    H2 9445   5.645   0.112   5.060
 3147TIP3   OH2 9446   0.749   0.684   0.301
 3147TIP3    H1 9447   0.811   0.707   0.232
 3147TIP3    H2 9448   0.803   0.672   0.379
 3148TIP3   OH2 9449   1.845   1.122   0.594
 3148TIP3    H1 9450   1.759   1.164   0.603
 3148TIP3    H2 9451   1.848   1.059   0.666
 3149TIP3   OH2 9452   5.380   0.405   2.665
 3149TIP3    H1 9453   5.323   0.478   2.689
 3149TIP3    H2 9454   5.434   0.391   2.743
 3150TIP3   OH2 9455   0.664   2.910   5.131
 3150TIP3    H1 9456   0.643   2.876   5.218
 3150TIP3    H2 9457   0.617   2.853   5.070
 3151TIP3   OH2 9458   2.318   2.541   2.787
 3151TIP3    H1 9459   2.309   2.637   2.786
 3151TIP3    H2 9460   2.411   2.526   2.768
 3152TIP3   OH2 9461   5.688   3.222   2.485
 3152TIP3    H1 9462   5.593   3.210   2.489
 3152TIP3    H2 9463   5.722   3.170   2.558
 3153TIP3   OH2 9464   5.207   3.087   4.082
 3153TIP3    H1 9465   5.139   3.074   4.148
 3153TIP3    H2 9466   5.288   3.101   4.132
 3154TIP3   OH2 9467   5.574   3.270   5.120
 3154TIP3    H1 9468   5.499   3.256   5.062
 3154TIP3    H2 9469   5.536   3.272   5.208
 3155TIP3   OH2 9470   3.231   1.093   5.145
 3155TIP3    H1 9471   3.173   1.086   5.220
 3155TIP3    H2 9472   3.209   1.017   5.091
 3156TIP3   OH2 9473   5.591   2.274   2.377
 3156TIP3    H1 9474   5.589   2.331   2.454
 3156TIP3    H2 9475   5.500   2.251   2.361
 3157TIP3   OH2 9476   1.274   0.948   3.603
 3157TIP3    H1 9477   1.263   0.951   3.508
 3157TIP3    H2 9478   1.220   1.020   3.636
 3158TIP3   OH2 9479   2.067   0.828   1.707
 3158TIP3    H1 9480   2.077   0.806   1.614
 3158TIP3    H2 9481   1.974   0.815   1.725
 3159TIP3   OH2 9482   3.887   4.839   0.576
 3159TIP3    H1 9483   3.873   4.888   0.495
 3159TIP3    H2 9484   3.862   4.900   0.645
 3160TIP3   OH2 9485   0.833   4.252   0.794
 3160TIP3    H1 9486   0.777   4.242   0.717
 3160TIP3    H2 9487   0.922   4.237   0.762
 3161TIP3   OH2 9488   5.159   3.779   3.938
 3161TIP3    H1 9489   5.238   3.832   3.927
 3161TIP3    H2 9490   5.097   3.838   3.981
 3162TIP3   OH2 9491   0.304   0.606   2.217
 3162TIP3    H1 9492   0.319   0.695   2.186
 3162TIP3    H2 9493   0.373   0.555   2.175
 3163TIP3   OH2 9494   1.962   5.820   1.245
 3163TIP3    H1 9495   1.937   5.742   1.196
 3163TIP3    H2 9496   1.903   5.822   1.320
 3164TIP3   OH2 9497   5.862   2.043   1.950
 3164TIP3    H1 9498   5.952   2.016   1.968
 3164TIP3    H2 9499   5.869   2.135   1.924
 3165TIP3   OH2 9500   1.849   2.633   1.834
 3165TIP3    H1 9501   1.865   2.668   1.747
 3165TIP3    H2 9502   1.754   2.625   1.839
 3166TIP3   OH2 9503   5.118   1.754   2.270
 3166TIP3    H1 9504   5.191   1.811   2.249
 3166TIP3    H2 9505   5.128   1.735   2.364
 3167TIP3   OH2 9506   2.116   2.300   2.041
 3167TIP3    H1 9507   2.042   2.360   2.032
 3167TIP3    H2 9508   2.088   2.222   1.994
 3168TIP3   OH2 9509   2.660   0.080   3.128
 3168TIP3    H1 9510   2.684   0.164   3.087
 3168TIP3    H2 9511   2.643   0.022   3.054
 3169TIP3   OH2 9512   4.137   0.559   4.075
 3169TIP3    H1 9513   4.054   0.586   4.115
 3169TIP3    H2 9514   4.193   0.636   4.079
 3170TIP3   OH2 9515   5.817   0.176   4.206
 3170TIP3    H1 9516   5.887   0.240   4.200
 3170TIP3    H2 9517   5.847   0.102   4.153
 3171TIP3   OH2 9518   0.351   2.006   2.486
 3171TIP3    H1 9519   0.422   2.065   2.507
 3171TIP3    H2 9520   0.276   2.063   2.469
 3172TIP3   OH2 9521   1.515   5.951   4.045
 3172TIP3    H1 9522   1.511   6.039   4.083
 3172TIP3    H2 9523   1.506   5.892   4.120
 3173TIP3   OH2 9524   4.822   4.507   4.977
 3173TIP3    H1 9525   4.782   4.593   4.968
 3173TIP3    H2 9526   4.916   4.525   4.985
 3174TIP3   OH2 9527   1.083   0.998   2.802
 3174TIP3    H1 9528   0.998   1.041   2.799
 3174TIP3    H2 9529   1.084   0.940   2.726
 3175TIP3   OH2 9530   5.826   1.393   0.826
 3175TIP3    H1 9531   5.919   1.408   0.812
 3175TIP3    H2 9532   5.783   1.443   0.756
 3176TIP3   OH2 9533   4.678   5.620   2.580
 3176TIP3    H1 9534   4.764   5.607   2.540
 3176TIP3    H2 9535   4.695   5.679   2.654
 3177TIP3   OH2 9536   2.836   5.093   1.059
 3177TIP3    H1 9537   2.857   5.184   1.037
 3177TIP3    H2 9538   2.827   5.049   0.975
 3178TIP3   OH2 9539   1.233   0.928   4.325
 3178TIP3    H1 9540   1.228   1.022   4.346
 3178TIP3    H2 9541   1.271   0.925   4.238
 3179TIP3   OH2 9542   0.464   3.129   0.127
 3179TIP3    H1 9543   0.414   3.051   0.150
 3179TIP3    H2 9544   0.526   3.099   0.061
 3180TIP3   OH2 9545   0.439   2.900   2.460
 3180TIP3    H1 9546   0.444   2.994   2.444
 3180TIP3    H2 9547   0.384   2.867   2.389
 3181TIP3   OH2 9548   0.208   3.345   2.746
 3181TIP3    H1 9549   0.297   3.323   2.718
 3181TIP3    H2 9550   0.151   3.305   2.680
 3182TIP3   OH2 9551   5.671   4.804   4.967
 3182TIP3    H1 9552   5.716   4.720   4.973
 3182TIP3    H2 9553   5.619   4.810   5.047
 3183TIP3   OH2 9554   0.837   3.021   0.184
 3183TIP3    H1 9555   0.875   3.078   0.117
 3183TIP3    H2 9556   0.807   3.081   0.252
 3184TIP3   OH2 9557   3.800   4.395   4.922
 3184TIP3    H1 9558   3.822   4.357   4.837
 3184TIP3    H2 9559   3.885   4.413   4.963
 3185TIP3   OH2 9560   1.826   1.317   4.118
 3185TIP3    H1 9561   1.770   1.335   4.042
 3185TIP3    H2 9562   1.876   1.398   4.130
 3186TIP3   OH2 9563   6.294   4.642   1.367
 3186TIP3    H1 9564   6.199   4.641   1.370
 3186TIP3    H2 9565   6.319   4.717   1.421
 3187TIP3   OH2 9566   4.639   4.626   3.790
 3187TIP3    H1 9567   4.596   4.573   3.857
 3187TIP3    H2 9568   4.710   4.670   3.837
 3188TIP3   OH2 9569   3.979   1.721   2.737
 3188TIP3    H1 9570   3.957   1.815   2.738
 3188TIP3    H2 9571   4.015   1.706   2.649
 3189TIP3   OH2 9572   4.320   4.805   0.022
 3189TIP3    H1 9573   4.246   4.864   0.036
 3189TIP3    H2 9574   4.366   4.842  -0.054
 3190TIP3   OH2 9575   0.427   0.980   2.795
 3190TIP3    H1 9576   0.366   1.023   2.735
 3190TIP3    H2 9577   0.376   0.911   2.836
 3191TIP3   OH2 9578   5.341   5.601   1.400
 3191TIP3    H1 9579   5.408   5.615   1.467
 3191TIP3    H2 9580   5.370   5.523   1.353
 3192TIP3   OH2 9581   4.523   1.229   4.413
 3192TIP3    H1 9582   4.508   1.324   4.415
 3192TIP3    H2 9583   4.497   1.202   4.325
 3193TIP3   OH2 9584   4.441   3.113   4.552
 3193TIP3    H1 9585   4.508   3.045   4.564
 3193TIP3    H2 9586   4.426   3.114   4.457
 3194TIP3   OH2 9587   0.254   4.853   4.598
 3194TIP3    H1 9588   0.343   4.876   4.571
 3194TIP3    H2 9589   0.200   4.924   4.565
 3195TIP3   OH2 9590   0.072   3.708   2.902
 3195TIP3    H1 9591   0.163   3.684   2.918
 3195TIP3    H2 9592   0.060   3.697   2.808
 3196TIP3   OH2 9593   5.368   3.759   4.334
 3196TIP3    H1 9594   5.452   3.772   4.289
 3196TIP3    H2 9595   5.392   3.751   4.426
 3197TIP3   OH2 9596   2.951   2.118   0.828
 3197TIP3    H1 9597   3.012   2.112   0.902
 3197TIP3    H2 9598   2.877   2.168   0.862
 3198TIP3   OH2 9599   3.072   4.499   4.682
 3198TIP3    H1 9600   3.042   4.458   4.763
 3198TIP3    H2 9601   3.082   4.591   4.703
 3199TIP3   OH2 9602   4.929   3.638   2.264
 3199TIP3    H1 9603   5.024   3.636   2.271
 3199TIP3    H2 9604   4.911   3.613   2.173
 3200TIP3   OH2 9605   3.435   1.455   2.502
 3200TIP3    H1 9606   3.440   1.443   2.407
 3200TIP3    H2 9607   3.501   1.523   2.521
 3201TIP3   OH2 9608   5.695   4.436   4.106
 3201TIP3    H1 9609   5.648   4.517   4.128
 3201TIP3    H2 9610   5.771   4.465   4.056
 3202TIP3   OH2 9611   5.915   2.796   3.674
 3202TIP3    H1 9612   5.981   2.798   3.743
 3202TIP3    H2 9613   5.847   2.737   3.708
 3203TIP3   OH2 9614   3.512   5.992   0.985
 3203TIP3    H1 9615   3.589   5.935   0.976
 3203TIP3    H2 9616   3.445   5.935   1.023
 3204TIP3   OH2 9617   3.672   2.917   4.654
 3204TIP3    H1 9618   3.588   2.943   4.690
 3204TIP3    H2 9619   3.736   2.944   4.720
 3205TIP3   OH2 9620   1.055   2.674   4.442
 3205TIP3    H1 9621   1.085   2.588   4.412
 3205TIP3    H2 9622   1.065   2.731   4.366
 3206TIP3   OH2 9623   5.456   3.754   4.595
 3206TIP3    H1 9624   5.415   3.690   4.653
 3206TIP3    H2 9625   5.550   3.737   4.603
 3207TIP3   OH2 9626   2.105   4.065   3.652
 3207TIP3    H1 9627   2.032   4.120   3.679
 3207TIP3    H2 9628   2.177   4.091   3.709
 3208TIP3   OH2 9629   4.048   4.101   1.653
 3208TIP3    H1 9630   4.132   4.138   1.682
 3208TIP3    H2 9631   4.056   4.095   1.558
 3209TIP3   OH2 9632   4.453   3.199   1.924
 3209TIP3    H1 9633   4.444   3.118   1.874
 3209TIP3    H2 9634   4.445   3.269   1.859
 3210TIP3   OH2 9635   6.195   1.412   1.624
 3210TIP3    H1 9636   6.133   1.481   1.649
 3210TIP3    H2 9637   6.145   1.331   1.630
 3211TIP3   OH2 9638   0.139   5.478   1.873
 3211TIP3    H1 9639   0.225   5.516   1.891
 3211TIP3    H2 9640   0.145   5.388   1.905
 3212TIP3   OH2 9641   3.709   3.659   3.642
 3212TIP3    H1 9642   3.713   3.701   3.728
 3212TIP3    H2 9643   3.770   3.586   3.648
 3213TIP3   OH2 9644   6.315   4.732   4.015
 3213TIP3    H1 9645   6.270   4.815   3.999
 3213TIP3    H2 9646   6.284   4.674   3.946
 3214TIP3   OH2 9647   1.963   3.465   0.597
 3214TIP3    H1 9648   1.898   3.413   0.644
 3214TIP3    H2 9649   1.974   3.544   0.650
 3215TIP3   OH2 9650   3.617   0.078   3.002
 3215TIP3    H1 9651   3.559   0.013   2.962
 3215TIP3    H2 9652   3.571   0.107   3.080
 3216TIP3   OH2 9653   0.539   1.911   4.647
 3216TIP3    H1 9654   0.479   1.931   4.575
 3216TIP3    H2 9655   0.531   1.986   4.706
 3217TIP3   OH2 9656   5.256   0.418   0.139
 3217TIP3    H1 9657   5.166   0.446   0.121
 3217TIP3    H2 9658   5.311   0.481   0.093
 3218TIP3   OH2 9659   1.368   4.215   2.083
 3218TIP3    H1 9660   1.398   4.191   2.171
 3218TIP3    H2 9661   1.299   4.151   2.064
 3219TIP3   OH2 9662   2.628   1.161   3.392
 3219TIP3    H1 9663   2.582   1.104   3.330
 3219TIP3    H2 9664   2.671   1.227   3.337
 3220TIP3   OH2 9665   5.517   3.336   2.040
 3220TIP3    H1 9666   5.452   3.283   1.993
 3220TIP3    H2 9667   5.586   3.273   2.063
 3221TIP3   OH2 9668   1.380   5.372   4.046
 3221TIP3    H1 9669   1.311   5.317   4.081
 3221TIP3    H2 9670   1.349   5.462   4.060
 3222TIP3   OH2 9671   2.720   4.058   3.564
 3222TIP3    H1 9672   2.676   4.110   3.497
 3222TIP3    H2 9673   2.701   4.103   3.647
 3223TIP3   OH2 9674   1.185   5.197   4.126
 3223TIP3    H1 9675   1.145   5.134   4.065
 3223TIP3    H2 9676   1.258   5.149   4.165
 3224TIP3   OH2 9677   1.479   2.521   0.376
 3224TIP3    H1 9678   1.430   2.476   0.307
 3224TIP3    H2 9679   1.419   2.525   0.450
 3225TIP3   OH2 9680   5.399   4.686   2.840
 3225TIP3    H1 9681   5.462   4.736   2.893
 3225TIP3    H2 9682   5.453   4.625   2.790
 3226TIP3   OH2 9683   4.413   5.613   2.681
 3226TIP3    H1 9684   4.506   5.635   2.691
 3226TIP3    H2 9685   4.376   5.627   2.769
 3227TIP3   OH2 9686   0.445   1.162   4.887
 3227TIP3    H1 9687   0.490   1.136   4.807
 3227TIP3    H2 9688   0.463   1.256   4.895
 3228TIP3   OH2 9689   0.420   3.614   4.373
 3228TIP3    H1 9690   0.513   3.599   4.390
 3228TIP3    H2 9691   0.376   3.583   4.452
 3229TIP3   OH2 9692   2.528   2.346   3.254
 3229TIP3    H1 9693   2.590   2.281   3.289
 3229TIP3    H2 9694   2.442   2.311   3.277
 3230TIP3   OH2 9695   4.166   4.252   0.451
 3230TIP3    H1 9696   4.186   4.159   0.462
 3230TIP3    H2 9697   4.088   4.266   0.504
 3231TIP3   OH2 9698   1.029   2.104   2.931
 3231TIP3    H1 9699   1.114   2.139   2.959
 3231TIP3    H2 9700   1.004   2.043   3.001
 3232TIP3   OH2 9701   4.018   0.078   1.852
 3232TIP3    H1 9702   4.092   0.026   1.884
 3232TIP3    H2 9703   3.945   0.017   1.846
 3233TIP3   OH2 9704   0.820   4.238   5.054
 3233TIP3    H1 9705   0.802   4.163   4.998
 3233TIP3    H2 9706   0.739   4.251   5.104
 3234TIP3   OH2 9707   3.375   2.853   3.623
 3234TIP3    H1 9708   3.413   2.941   3.619
 3234TIP3    H2 9709   3.351   2.833   3.532
 3235TIP3   OH2 9710   4.237   5.543   0.246
 3235TIP3    H1 9711   4.317   5.542   0.193
 3235TIP3    H2 9712   4.167   5.521   0.185
 3236TIP3   OH2 9713   1.030   3.780   3.318
 3236TIP3    H1 9714   1.094   3.709   3.318
 3236TIP3    H2 9715   0.971   3.760   3.245
 3237TIP3   OH2 9716   4.110   1.983   4.666
 3237TIP3    H1 9717   4.200   1.987   4.701
 3237TIP3    H2 9718   4.110   1.906   4.610
 3238TIP3   OH2 9719   4.288   3.742   0.962
 3238TIP3    H1 9720   4.214   3.803   0.969
 3238TIP3    H2 9721   4.336   3.753   1.044
 3239TIP3   OH2 9722   5.547   2.589   0.321
 3239TIP3    H1 9723   5.594   2.578   0.404
 3239TIP3    H2 9724   5.600   2.540   0.257
 3240TIP3   OH2 9725   4.150   4.843   1.779
 3240TIP3    H1 9726   4.076   4.837   1.718
 3240TIP3    H2 9727   4.209   4.907   1.740
 3241TIP3   OH2 9728   5.787   5.577   0.350
 3241TIP3    H1 9729   5.806   5.537   0.265
 3241TIP3    H2 9730   5.769   5.502   0.407
 3242TIP3   OH2 9731   1.089   0.649   4.257
 3242TIP3    H1 9732   1.148   0.714   4.219
 3242TIP3    H2 9733   1.104   0.654   4.351
 3243TIP3   OH2 9734   3.389   0.285   4.960
 3243TIP3    H1 9735   3.293   0.290   4.958
 3243TIP3    H2 9736   3.412   0.248   4.875
 3244TIP3   OH2 9737   0.898   4.506   4.604
 3244TIP3    H1 9738   0.941   4.581   4.645
 3244TIP3    H2 9739   0.960   4.434   4.615
 3245TIP3   OH2 9740   3.727   3.202   1.438
 3245TIP3    H1 9741   3.643   3.155   1.436
 3245TIP3    H2 9742   3.703   3.294   1.447
 3246TIP3   OH2 9743   1.645   3.066   4.369
 3246TIP3    H1 9744   1.701   2.999   4.329
 3246TIP3    H2 9745   1.575   3.079   4.306
 3247TIP3   OH2 9746   5.335   1.402   1.464
 3247TIP3    H1 9747   5.249   1.371   1.434
 3247TIP3    H2 9748   5.356   1.346   1.539
 3248TIP3   OH2 9749   4.604   1.625   0.423
 3248TIP3    H1 9750   4.639   1.689   0.360
 3248TIP3    H2 9751   4.681   1.576   0.452
 3249TIP3   OH2 9752   3.085   3.543   1.833
 3249TIP3    H1 9753   3.005   3.495   1.852
 3249TIP3    H2 9754   3.073   3.628   1.876
 3250TIP3   OH2 9755   0.693   2.852   4.504
 3250TIP3    H1 9756   0.691   2.912   4.579
 3250TIP3    H2 9757   0.731   2.904   4.433
 3251TIP3   OH2 9758   0.976   2.233   2.071
 3251TIP3    H1 9759   1.058   2.266   2.036
 3251TIP3    H2 9760   0.970   2.143   2.039
 3252TIP3   OH2 9761   0.725   5.921   4.629
 3252TIP3    H1 9762   0.695   5.955   4.713
 3252TIP3    H2 9763   0.809   5.964   4.614
 3253TIP3   OH2 9764   3.954   1.839   0.219
 3253TIP3    H1 9765   4.021   1.907   0.228
 3253TIP3    H2 9766   3.986   1.783   0.148
 3254TIP3   OH2 9767   6.279   4.283   3.125
 3254TIP3    H1 9768   6.247   4.199   3.090
 3254TIP3    H2 9769   6.220   4.302   3.197
 3255TIP3   OH2 9770   1.474   3.433   4.994
 3255TIP3    H1 9771   1.465   3.356   4.937
 3255TIP3    H2 9772   1.564   3.431   5.024
 3256TIP3   OH2 9773   3.452   1.738   0.666
 3256TIP3    H1 9774   3.530   1.768   0.714
 3256TIP3    H2 9775   3.402   1.688   0.730
 3257TIP3   OH2 9776   2.596   2.399   4.638
 3257TIP3    H1 9777   2.539   2.389   4.561
 3257TIP3    H2 9778   2.621   2.309   4.661
 3258TIP3   OH2 9779   1.793   0.634   2.002
 3258TIP3    H1 9780   1.853   0.576   1.956
 3258TIP3    H2 9781   1.710   0.626   1.955
 3259TIP3   OH2 9782   1.363   0.574   3.628
 3259TIP3    H1 9783   1.305   0.538   3.561
 3259TIP3    H2 9784   1.446   0.587   3.583
 3260TIP3   OH2 9785   0.163   1.160   4.865
 3260TIP3    H1 9786   0.124   1.135   4.781
 3260TIP3    H2 9787   0.257   1.142   4.854
 3261TIP3   OH2 9788   0.107   0.240   4.840
 3261TIP3    H1 9789   0.142   0.324   4.808
 3261TIP3    H2 9790   0.027   0.227   4.789
 3262TIP3   OH2 9791   1.066   3.286   3.872
 3262TIP3    H1 9792   1.061   3.245   3.785
 3262TIP3    H2 9793   0.978   3.322   3.886
 3263TIP3   OH2 9794   6.071   5.278   1.962
 3263TIP3    H1 9795   6.056   5.312   2.050
 3263TIP3    H2 9796   6.001   5.214   1.948
 3264TIP3   OH2 9797   1.523   5.091   1.681
 3264TIP3    H1 9798   1.434   5.123   1.665
 3264TIP3    H2 9799   1.531   5.089   1.777
 3265TIP3   OH2 9800   0.103   5.219   1.323
 3265TIP3    H1 9801   0.082   5.177   1.406
 3265TIP3    H2 9802   0.190   5.257   1.336
 3266TIP3   OH2 9803   0.505   2.705   1.440
 3266TIP3    H1 9804   0.414   2.728   1.420
 3266TIP3    H2 9805   0.499   2.647   1.516
 3267TIP3   OH2 9806   1.168   3.764   4.598
 3267TIP3    H1 9807   1.243   3.815   4.629
 3267TIP3    H2 9808   1.114   3.827   4.550
 3268TIP3   OH2 9809   2.554   4.757   0.728
 3268TIP3    H1 9810   2.533   4.701   0.803
 3268TIP3    H2 9811   2.505   4.718   0.655
 3269TIP3   OH2 9812   4.804   1.809   2.241
 3269TIP3    H1 9813   4.893   1.780   2.218
 3269TIP3    H2 9814   4.773   1.853   2.162
 3270TIP3   OH2 9815   5.521   4.959   0.174
 3270TIP3    H1 9816   5.543   5.044   0.212
 3270TIP3    H2 9817   5.551   4.965   0.083
 3271TIP3   OH2 9818   5.304   3.499   4.522
 3271TIP3    H1 9819   5.336   3.481   4.434
 3271TIP3    H2 9820   5.211   3.478   4.519
 3272TIP3   OH2 9821   1.810   1.503   3.593
 3272TIP3    H1 9822   1.722   1.526   3.622
 3272TIP3    H2 9823   1.798   1.432   3.530
 3273TIP3   OH2 9824   4.728   4.516   0.370
 3273TIP3    H1 9825   4.800   4.541   0.428
 3273TIP3    H2 9826   4.732   4.420   0.367
 3274TIP3   OH2 9827   5.366   1.835   2.684
 3274TIP3    H1 9828   5.453   1.867   2.706
 3274TIP3    H2 9829   5.334   1.793   2.764
 3275TIP3   OH2 9830   3.624   4.515   4.509
 3275TIP3    H1 9831   3.534   4.539   4.534
 3275TIP3    H2 9832   3.624   4.419   4.510
 3276TIP3   OH2 9833   3.485   3.662   0.781
 3276TIP3    H1 9834   3.484   3.756   0.799
 3276TIP3    H2 9835   3.503   3.655   0.687
 3277TIP3   OH2 9836   3.770   1.963   1.667
 3277TIP3    H1 9837   3.681   1.960   1.703
 3277TIP3    H2 9838   3.771   1.896   1.598
 3278TIP3   OH2 9839   0.219   5.547   5.090
 3278TIP3    H1 9840   0.232   5.637   5.119
 3278TIP3    H2 9841   0.306   5.514   5.071
 3279TIP3   OH2 9842   3.005   1.526   3.278
 3279TIP3    H1 9843   3.087   1.524   3.228
 3279TIP3    H2 9844   3.019   1.462   3.348
 3280TIP3   OH2 9845   6.111   3.303   2.484
 3280TIP3    H1 9846   6.122   3.229   2.424
 3280TIP3    H2 9847   6.087   3.262   2.568
 3281TIP3   OH2 9848   1.661   0.192   3.752
 3281TIP3    H1 9849   1.743   0.162   3.791
 3281TIP3    H2 9850   1.614   0.232   3.825
 3282TIP3   OH2 9851   5.662   4.445   2.393
 3282TIP3    H1 9852   5.689   4.537   2.391
 3282TIP3    H2 9853   5.567   4.448   2.381
 3283TIP3   OH2 9854   1.995   5.664   0.339
 3283TIP3    H1 9855   2.049   5.616   0.275
 3283TIP3    H2 9856   1.983   5.602   0.411
 3284TIP3   OH2 9857   2.275   0.411   4.693
 3284TIP3    H1 9858   2.219   0.419   4.770
 3284TIP3    H2 9859   2.301   0.318   4.692
 3285TIP3   OH2 9860   4.949   2.045   3.118
 3285TIP3    H1 9861   5.014   2.062   3.050
 3285TIP3    H2 9862   4.978   1.963   3.159
 3286TIP3   OH2 9863   0.995   5.435   1.009
 3286TIP3    H1 9864   1.029   5.354   0.971
 3286TIP3    H2 9865   0.981   5.415   1.101
 3287TIP3   OH2 9866   3.294   2.737   2.102
 3287TIP3    H1 9867   3.216   2.790   2.118
 3287TIP3    H2 9868   3.264   2.647   2.110
 3288TIP3   OH2 9869   6.187   3.064   2.918
 3288TIP3    H1 9870   6.242   3.052   2.840
 3288TIP3    H2 9871   6.153   2.976   2.936
 3289TIP3   OH2 9872   0.429   5.714   1.756
 3289TIP3    H1 9873   0.492   5.767   1.805
 3289TIP3    H2 9874   0.406   5.768   1.680
 3290TIP3   OH2 9875   5.370   1.890   2.271
 3290TIP3    H1 9876   5.408   1.823   2.329
 3290TIP3    H2 9877   5.439   1.954   2.259
 3291TIP3   OH2 9878   2.597   4.941   0.531
 3291TIP3    H1 9879   2.570   4.882   0.461
 3291TIP3    H2 9880   2.596   4.887   0.610
 3292TIP3   OH2 9881   2.539   0.453   3.283
 3292TIP3    H1 9882   2.549   0.548   3.276
 3292TIP3    H2 9883   2.445   0.438   3.281
 3293TIP3   OH2 9884   2.667   3.284   3.315
 3293TIP3    H1 9885   2.726   3.308   3.244
 3293TIP3    H2 9886   2.621   3.206   3.283
 3294TIP3   OH2 9887   5.725   1.251   1.417
 3294TIP3    H1 9888   5.732   1.212   1.330
 3294TIP3    H2 9889   5.809   1.232   1.459
 3295TIP3   OH2 9890   3.229   5.219   2.469
 3295TIP3    H1 9891   3.238   5.184   2.558
 3295TIP3    H2 9892   3.302   5.279   2.460
 3296TIP3   OH2 9893   6.291   1.087   1.691
 3296TIP3    H1 9894   6.213   1.053   1.646
 3296TIP3    H2 9895   6.257   1.126   1.771
 3297TIP3   OH2 9896   0.240   2.388   1.363
 3297TIP3    H1 9897   0.218   2.301   1.397
 3297TIP3    H2 9898   0.299   2.371   1.290
 3298TIP3   OH2 9899   3.095   0.076   3.555
 3298TIP3    H1 9900   3.173   0.063   3.609
 3298TIP3    H2 9901   3.079  -0.009   3.514
 3299TIP3   OH2 9902   2.494   4.802   3.528
 3299TIP3    H1 9903   2.540   4.807   3.444
 3299TIP3    H2 9904   2.563   4.797   3.593
 3300TIP3   OH2 9905   0.371   1.007   0.801
 3300TIP3    H1 9906   0.392   1.090   0.845
 3300TIP3    H2 9907   0.457   0.971   0.777
 3301TIP3   OH2 9908   3.249   0.051   0.999
 3301TIP3    H1 9909   3.339   0.036   0.971
 3301TIP3    H2 9910   3.209   0.096   0.924
 3302TIP3   OH2 9911   5.133   4.168   1.908
 3302TIP3    H1 9912   5.119   4.242   1.849
 3302TIP3    H2 9913   5.228   4.160   1.916
 3303TIP3   OH2 9914   3.091   3.376   0.358
 3303TIP3    H1 9915   3.016   3.435   0.365
 3303TIP3    H2 9916   3.157   3.414   0.416
 3304TIP3   OH2 9917   4.469   5.158   0.001
 3304TIP3    H1 9918   4.420   5.227   0.046
 3304TIP3    H2 9919   4.412   5.132  -0.072
 3305TIP3   OH2 9920   1.209   4.959   2.742
 3305TIP3    H1 9921   1.303   4.947   2.733
 3305TIP3    H2 9922   1.199   5.050   2.772
 3306TIP3   OH2 9923   2.979   2.328   2.572
 3306TIP3    H1 9924   2.898   2.294   2.607
 3306TIP3    H2 9925   3.043   2.318   2.643
 3307TIP3   OH2 9926   4.145   4.800   0.538
 3307TIP3    H1 9927   4.051   4.815   0.534
 3307TIP3    H2 9928   4.154   4.707   0.559
 3308TIP3   OH2 9929   4.851   4.114   3.324
 3308TIP3    H1 9930   4.821   4.186   3.379
 3308TIP3    H2 9931   4.926   4.150   3.275
 3309TIP3   OH2 9932   5.046   2.183   1.942
 3309TIP3    H1 9933   5.126   2.223   1.975
 3309TIP3    H2 9934   5.075   2.127   1.870
 3310TIP3   OH2 9935   4.243   0.994   0.465
 3310TIP3    H1 9936   4.312   1.008   0.400
 3310TIP3    H2 9937   4.228   0.900   0.464
 3311TIP3   OH2 9938   0.234   2.050   3.982
 3311TIP3    H1 9939   0.251   2.131   4.030
 3311TIP3    H2 9940   0.254   2.071   3.891
 3312TIP3   OH2 9941   2.596   2.071   0.150
 3312TIP3    H1 9942   2.531   2.012   0.188
 3312TIP3    H2 9943   2.552   2.109   0.074
 3313TIP3   OH2 9944   6.164   4.821   4.565
 3313TIP3    H1 9945   6.155   4.726   4.563
 3313TIP3    H2 9946   6.167   4.843   4.658
 3314TIP3   OH2 9947   5.568   0.338   0.069
 3314TIP3    H1 9948   5.626   0.385   0.128
 3314TIP3    H2 9949   5.576   0.383  -0.015
 3315TIP3   OH2 9950   2.610   4.670   2.306
 3315TIP3    H1 9951   2.540   4.636   2.250
 3315TIP3    H2 9952   2.605   4.765   2.294
 3316TIP3   OH2 9953   0.084   3.711   2.622
 3316TIP3    H1 9954   0.057   3.646   2.557
 3316TIP3    H2 9955   0.177   3.692   2.638
 3317TIP3   OH2 9956   4.603   1.143   3.618
 3317TIP3    H1 9957   4.622   1.085   3.544
 3317TIP3    H2 9958   4.585   1.228   3.577
 3318TIP3   OH2 9959   0.938   1.950   0.694
 3318TIP3    H1 9960   0.943   1.862   0.656
 3318TIP3    H2 9961   0.930   2.008   0.619
 3319TIP3   OH2 9962   0.027   5.100   3.210
 3319TIP3    H1 9963  -0.032   5.144   3.271
 3319TIP3    H2 9964   0.102   5.075   3.263
 3320TIP3   OH2 9965   1.192   5.958   3.690
 3320TIP3    H1 9966   1.186   5.955   3.785
 3320TIP3    H2 9967   1.139   5.884   3.660
 3321TIP3   OH2 9968   5.456   3.404   1.725
 3321TIP3    H1 9969   5.509   3.325   1.709
 3321TIP3    H2 9970   5.398   3.379   1.797
 3322TIP3   OH2 9971   0.572   3.075   3.651
 3322TIP3    H1 9972   0.556   3.164   3.681
 3322TIP3    H2 9973   0.642   3.042   3.707
 3323TIP3   OH2 9974   0.656   2.090   2.041
 3323TIP3    H1 9975   0.570   2.129   2.024
 3323TIP3    H2 9976   0.689   2.065   1.955
 3324TIP3   OH2 9977   5.195   3.662   2.844
 3324TIP3    H1 9978   5.215   3.756   2.835
 3324TIP3    H2 9979   5.270   3.627   2.891
 3325TIP3   OH2 9980   1.299   2.583   0.584
 3325TIP3    H1 9981   1.261   2.554   0.667
 3325TIP3    H2 9982   1.226   2.583   0.523
 3326TIP3   OH2 9983   5.758   1.487   0.189
 3326TIP3    H1 9984   5.794   1.399   0.192
 3326TIP3    H2 9985   5.739   1.503   0.097
 3327TIP3   OH2 9986   2.435   3.290   1.422
 3327TIP3    H1 9987   2.398   3.251   1.501
 3327TIP3    H2 9988   2.421   3.384   1.432
 3328TIP3   OH2 9989   5.529   1.529   2.303
 3328TIP3    H1 9990   5.551   1.591   2.372
 3328TIP3    H2 9991   5.493   1.582   2.233
 3329TIP3   OH2 9992   4.793   1.747   4.499
 3329TIP3    H1 9993   4.745   1.668   4.524
 3329TIP3    H2 9994   4.726   1.816   4.497
 3330TIP3   OH2 9995   4.604   2.039   4.888
 3330TIP3    H1 9996   4.546   2.061   4.815
 3330TIP3    H2 9997   4.546   2.038   4.965
 3331TIP3   OH2 9998   1.759   3.810   2.356
 3331TIP3    H1 9999   1.782   3.767   2.274
 3331TIP3    H210000   1.804   3.894   2.353
 3332TIP3   OH210001   2.234   4.850   0.386
 3332TIP3    H110002   2.267   4.768   0.423
 3332TIP3    H210003   2.153   4.867   0.434
 3333TIP3   OH210004   1.834   3.371   4.148
 3333TIP3    H110005   1.785   3.289   4.137
 3333TIP3    H210006   1.771   3.432   4.186
 3334TIP3   OH210007   2.437   0.975   0.387
 3334TIP3    H110008   2.403   0.903   0.334
 3334TIP3    H210009   2.361   1.031   0.402
 3335TIP3   OH210010   5.209   1.375   3.566
 3335TIP3    H110011   5.265   1.450   3.584
 3335TIP3    H210012   5.178   1.346   3.652
 3336TIP3   OH210013   3.944   2.101   0.788
 3336TIP3    H110014   3.868   2.062   0.745
 3336TIP3    H210015   3.962   2.044   0.863
 3337TIP3   OH210016   3.208   5.205   1.113
 3337TIP3    H110017   3.248   5.154   1.183
 3337TIP3    H210018   3.198   5.293   1.148
 3338TIP3   OH210019   0.401   0.518   1.133
 3338TIP3    H110020   0.458   0.451   1.096
 3338TIP3    H210021   0.393   0.495   1.225
 3339TIP3   OH210022   2.725   1.185   4.432
 3339TIP3    H110023   2.725   1.233   4.350
 3339TIP3    H210024   2.770   1.103   4.413
 3340TIP3   OH210025   2.713   3.972   0.165
 3340TIP3    H110026   2.749   3.892   0.127
 3340TIP3    H210027   2.630   3.944   0.205
 3341TIP3   OH210028   5.272   0.428   4.148
 3341TIP3    H110029   5.196   0.486   4.156
 3341TIP3    H210030   5.236   0.340   4.147
 3342TIP3   OH210031   4.415   4.445   2.505
 3342TIP3    H110032   4.354   4.442   2.431
 3342TIP3    H210033   4.502   4.438   2.465
 3343TIP3   OH210034   0.834   0.260   2.181
 3343TIP3    H110035   0.894   0.333   2.169
 3343TIP3    H210036   0.867   0.213   2.257
 3344TIP3   OH210037   3.300   4.893   2.071
 3344TIP3    H110038   3.210   4.920   2.053
 3344TIP3    H210039   3.354   4.963   2.034
 3345TIP3   OH210040   1.587   4.084   3.089
 3345TIP3    H110041   1.660   4.105   3.031
 3345TIP3    H210042   1.545   4.009   3.047
 3346TIP3   OH210043   5.033   2.005   1.732
 3346TIP3    H110044   5.083   1.927   1.756
 3346TIP3    H210045   4.952   1.971   1.693
 3347TIP3   OH210046   5.047   1.549   3.088
 3347TIP3    H110047   5.110   1.489   3.048
 3347TIP3    H210048   4.968   1.538   3.035
 3348TIP3   OH210049   4.004   1.886   3.858
 3348TIP3    H110050   3.966   1.963   3.901
 3348TIP3    H210051   3.980   1.896   3.766
 3349TIP3   OH210052   2.949   1.063   0.261
 3349TIP3    H110053   2.880   1.037   0.322
 3349TIP3    H210054   2.973   0.983   0.215
 3350TIP3   OH210055   5.377   5.432   4.820
 3350TIP3    H110056   5.357   5.462   4.732
 3350TIP3    H210057   5.438   5.359   4.807
 3351TIP3   OH210058   5.125   5.071   5.055
 3351TIP3    H110059   5.135   5.053   4.961
 3351TIP3    H210060   5.160   5.160   5.066
 3352TIP3   OH210061   2.672   3.556   3.733
 3352TIP3    H110062   2.639   3.491   3.671
 3352TIP3    H210063   2.709   3.625   3.677
 3353TIP3   OH210064   4.281   3.980   2.275
 3353TIP3    H110065   4.243   3.960   2.360
 3353TIP3    H210066   4.345   4.049   2.292
 3354TIP3   OH210067   0.208   5.226   1.958
 3354TIP3    H110068   0.259   5.148   1.935
 3354TIP3    H210069   0.249   5.258   2.039
 3355TIP3   OH210070   4.897   5.913   2.844
 3355TIP3    H110071   4.896   5.937   2.937
 3355TIP3    H210072   4.980   5.866   2.832
 3356TIP3   OH210073   3.608   1.519   3.613
 3356TIP3    H110074   3.692   1.489   3.647
 3356TIP3    H210075   3.550   1.519   3.689
 3357TIP3   OH210076   3.114   0.006   4.358
 3357TIP3    H110077   3.070  -0.069   4.317
 3357TIP3    H210078   3.042   0.062   4.388
 3358TIP3   OH210079   2.682   4.205   1.990
 3358TIP3    H110080   2.716   4.121   1.957
 3358TIP3    H210081   2.606   4.223   1.934
 3359TIP3   OH210082   2.925   3.646   4.492
 3359TIP3    H110083   2.993   3.702   4.454
 3359TIP3    H210084   2.851   3.705   4.506
 3360TIP3   OH210085   5.627   2.498   4.797
 3360TIP3    H110086   5.570   2.549   4.855
 3360TIP3    H210087   5.610   2.407   4.822
 3361TIP3   OH210088   4.986   0.863   2.329
 3361TIP3    H110089   4.901   0.823   2.349
 3361TIP3    H210090   4.995   0.935   2.390
 3362TIP3   OH210091   5.541   2.534   4.541
 3362TIP3    H110092   5.581   2.510   4.625
 3362TIP3    H210093   5.593   2.488   4.476
 3363TIP3   OH210094   2.787   1.266   0.523
 3363TIP3    H110095   2.795   1.179   0.486
 3363TIP3    H210096   2.717   1.259   0.588
 3364TIP3   OH210097   0.406   5.466   3.172
 3364TIP3    H110098   0.423   5.465   3.078
 3364TIP3    H210099   0.424   5.377   3.201
 3365TIP3   OH210100   0.246   2.917   0.790
 3365TIP3    H110101   0.210   2.976   0.724
 3365TIP3    H210102   0.203   2.833   0.775
 3366TIP3   OH210103   5.335   5.287   2.859
 3366TIP3    H110104   5.380   5.356   2.908
 3366TIP3    H210105   5.242   5.311   2.865
 3367TIP3   OH210106   1.238   4.994   3.880
 3367TIP3    H110107   1.272   4.906   3.894
 3367TIP3    H210108   1.311   5.043   3.843
 3368TIP3   OH210109   5.856   3.154   2.948
 3368TIP3    H110110   5.765   3.158   2.976
 3368TIP3    H210111   5.905   3.195   3.019
 3369TIP3   OH210112   5.617   2.448   4.271
 3369TIP3    H110113   5.522   2.455   4.275
 3369TIP3    H210114   5.646   2.532   4.237
 3370TIP3   OH210115   3.751   5.237   3.038
 3370TIP3    H110116   3.710   5.223   3.123
 3370TIP3    H210117   3.802   5.157   3.022
 3371TIP3   OH210118   3.059   3.865   0.276
 3371TIP3    H110119   3.037   3.959   0.277
 3371TIP3    H210120   2.993   3.825   0.332
 3372TIP3   OH210121   5.907   5.164   2.251
 3372TIP3    H110122   5.875   5.169   2.341
 3372TIP3    H210123   5.918   5.255   2.224
 3373TIP3   OH210124   4.957   1.476   2.446
 3373TIP3    H110125   4.984   1.429   2.366
 3373TIP3    H210126   4.997   1.562   2.437
 3374TIP3   OH210127   0.878   4.660   0.817
 3374TIP3    H110128   0.916   4.703   0.740
 3374TIP3    H210129   0.813   4.721   0.850
 3375TIP3   OH210130   4.106   2.233   2.734
 3375TIP3    H110131   4.066   2.275   2.811
 3375TIP3    H210132   4.195   2.270   2.730
 3376TIP3   OH210133   4.940   5.450   0.883
 3376TIP3    H110134   4.846   5.460   0.898
 3376TIP3    H210135   4.946   5.398   0.803
 3377TIP3   OH210136   3.572   4.882   1.420
 3377TIP3    H110137   3.632   4.937   1.371
 3377TIP3    H210138   3.599   4.793   1.400
 3378TIP3   OH210139   4.748   0.922   2.855
 3378TIP3    H110140   4.736   0.985   2.784
 3378TIP3    H210141   4.662   0.883   2.868
 3379TIP3   OH210142   4.778   1.874   5.018
 3379TIP3    H110143   4.738   1.939   4.959
 3379TIP3    H210144   4.849   1.836   4.966
 3380TIP3   OH210145   3.460   4.442   1.627
 3380TIP3    H110146   3.454   4.536   1.644
 3380TIP3    H210147   3.382   4.405   1.668
 3381TIP3   OH210148   0.164   1.070   1.139
 3381TIP3    H110149   0.177   1.057   1.045
 3381TIP3    H210150   0.072   1.096   1.147
 3382TIP3   OH210151   1.208   3.249   0.029
 3382TIP3    H110152   1.243   3.333  -0.001
 3382TIP3    H210153   1.286   3.199   0.054
 3383TIP3   OH210154   0.938   3.497   2.320
 3383TIP3    H110155   0.949   3.592   2.312
 3383TIP3    H210156   0.846   3.485   2.341
 3384TIP3   OH210157   2.715   4.095   2.525
 3384TIP3    H110158   2.716   4.015   2.472
 3384TIP3    H210159   2.801   4.135   2.511
 3385TIP3   OH210160   4.748   1.111   0.190
 3385TIP3    H110161   4.733   1.162   0.110
 3385TIP3    H210162   4.824   1.153   0.231
 3386TIP3   OH210163   4.089   0.417   4.318
 3386TIP3    H110164   4.053   0.416   4.230
 3386TIP3    H210165   4.179   0.448   4.307
 3387TIP3   OH210166   2.568   0.323   0.954
 3387TIP3    H110167   2.602   0.234   0.946
 3387TIP3    H210168   2.622   0.375   0.895
 3388TIP3   OH210169   1.710   4.697   0.781
 3388TIP3    H110170   1.743   4.653   0.859
 3388TIP3    H210171   1.629   4.739   0.810
 3389TIP3   OH210172   2.313   4.751   3.895
 3389TIP3    H110173   2.375   4.824   3.889
 3389TIP3    H210174   2.265   4.767   3.976
 3390TIP3   OH210175   0.778   4.093   3.857
 3390TIP3    H110176   0.720   4.062   3.787
 3390TIP3    H210177   0.864   4.061   3.832
 3391TIP3   OH210178   4.538   0.928   2.492
 3391TIP3    H110179   4.519   0.997   2.428
 3391TIP3    H210180   4.510   0.847   2.448
 3392TIP3   OH210181   5.194   3.847   2.095
 3392TIP3    H110182   5.280   3.814   2.069
 3392TIP3    H210183   5.204   3.942   2.096
 3393TIP3   OH210184   6.065   4.875   2.288
 3393TIP3    H110185   5.991   4.933   2.271
 3393TIP3    H210186   6.140   4.933   2.300
 3394TIP3   OH210187   1.000   2.067   1.787
 3394TIP3    H110188   0.969   2.023   1.866
 3394TIP3    H210189   0.926   2.064   1.727
 3395TIP3   OH210190   6.153   3.266   0.444
 3395TIP3    H110191   6.241   3.304   0.437
 3395TIP3    H210192   6.168   3.172   0.450
 3396TIP3   OH210193   5.275   0.846   3.406
 3396TIP3    H110194   5.316   0.864   3.322
 3396TIP3    H210195   5.274   0.931   3.450
 3397TIP3   OH210196   2.785   5.373   5.160
 3397TIP3    H110197   2.708   5.318   5.143
 3397TIP3    H210198   2.859   5.318   5.134
 3398TIP3   OH210199   3.281   3.551   4.901
 3398TIP3    H110200   3.209   3.491   4.921
 3398TIP3    H210201   3.359   3.508   4.936
 3399TIP3   OH210202   1.605   0.363   4.593
 3399TIP3    H110203   1.596   0.429   4.524
 3399TIP3    H210204   1.698   0.340   4.592
 3400TIP3   OH210205   6.267   2.801   4.801
 3400TIP3    H110206   6.362   2.800   4.796
 3400TIP3    H210207   6.248   2.786   4.894
 3401TIP3   OH210208   1.700   0.479   4.870
 3401TIP3    H110209   1.752   0.469   4.790
 3401TIP3    H210210   1.647   0.557   4.854
 3402TIP3   OH210211   0.108   5.096   3.920
 3402TIP3    H110212   0.174   5.028   3.928
 3402TIP3    H210213   0.025   5.051   3.935
 3403TIP3   OH210214   3.516   0.628   3.582
 3403TIP3    H110215   3.573   0.667   3.648
 3403TIP3    H210216   3.520   0.534   3.599
 3404TIP3   OH210217   2.428   2.373   4.420
 3404TIP3    H110218   2.335   2.394   4.410
 3404TIP3    H210219   2.437   2.287   4.378
 3405TIP3   OH210220   3.030   4.878   3.492
 3405TIP3    H110221   2.970   4.922   3.432
 3405TIP3    H210222   3.028   4.786   3.465
 3406TIP3   OH210223   3.465   3.410   3.518
 3406TIP3    H110224   3.518   3.467   3.574
 3406TIP3    H210225   3.401   3.371   3.577
 3407TIP3   OH210226   5.568   5.635   0.601
 3407TIP3    H110227   5.629   5.687   0.654
 3407TIP3    H210228   5.624   5.571   0.557
 3408TIP3   OH210229   5.273   2.063   3.247
 3408TIP3    H110230   5.290   2.017   3.329
 3408TIP3    H210231   5.211   2.007   3.201
 3409TIP3   OH210232   5.316   0.355   4.930
 3409TIP3    H110233   5.270   0.438   4.940
 3409TIP3    H210234   5.402   0.379   4.893
 3410TIP3   OH210235   0.563   2.702   0.712
 3410TIP3    H110236   0.566   2.683   0.806
 3410TIP3    H210237   0.536   2.619   0.672
 3411TIP3   OH210238   2.072   5.496   0.143
 3411TIP3    H110239   2.152   5.493   0.090
 3411TIP3    H210240   2.006   5.451   0.091
 3412TIP3   OH210241   2.096   3.222   4.168
 3412TIP3    H110242   2.147   3.242   4.090
 3412TIP3    H210243   2.012   3.264   4.153
 3413TIP3   OH210244   1.138   2.660   0.088
 3413TIP3    H110245   1.052   2.674   0.048
 3413TIP3    H210246   1.199   2.701   0.026
 3414TIP3   OH210247   2.514   1.654   1.304
 3414TIP3    H110248   2.464   1.625   1.228
 3414TIP3    H210249   2.600   1.676   1.269
 3415TIP3   OH210250   3.089   1.629   1.901
 3415TIP3    H110251   3.018   1.592   1.848
 3415TIP3    H210252   3.169   1.605   1.853
 3416TIP3   OH210253   6.251   1.922   1.959
 3416TIP3    H110254   6.171   1.898   2.006
 3416TIP3    H210255   6.255   1.863   1.884
 3417TIP3   OH210256   3.810   1.399   1.954
 3417TIP3    H110257   3.874   1.422   1.886
 3417TIP3    H210258   3.816   1.471   2.017
 3418TIP3   OH210259   4.384   5.374   2.999
 3418TIP3    H110260   4.421   5.455   3.035
 3418TIP3    H210261   4.321   5.345   3.065
 3419TIP3   OH210262   2.094   5.432   1.945
 3419TIP3    H110263   2.103   5.401   2.035
 3419TIP3    H210264   2.144   5.369   1.893
 3420TIP3   OH210265   4.945   5.550   2.751
 3420TIP3    H110266   4.952   5.638   2.789
 3420TIP3    H210267   4.988   5.557   2.666
 3421TIP3   OH210268   1.589   0.525   0.988
 3421TIP3    H110269   1.593   0.590   1.059
 3421TIP3    H210270   1.609   0.442   1.031
 3422TIP3   OH210271   2.627   2.068   2.113
 3422TIP3    H110272   2.581   1.993   2.077
 3422TIP3    H210273   2.719   2.040   2.117
 3423TIP3   OH210274   4.861   5.573   4.899
 3423TIP3    H110275   4.955   5.588   4.910
 3423TIP3    H210276   4.855   5.504   4.832
 3424TIP3   OH210277   1.708   5.325   0.965
 3424TIP3    H110278   1.721   5.309   1.058
 3424TIP3    H210279   1.711   5.420   0.956
 3425TIP3   OH210280   1.401   3.272   3.926
 3425TIP3    H110281   1.412   3.350   3.980
 3425TIP3    H210282   1.322   3.230   3.960
 3426TIP3   OH210283   5.404   2.810   0.398
 3426TIP3    H110284   5.426   2.727   0.355
 3426TIP3    H210285   5.445   2.877   0.343
 3427TIP3   OH210286   4.614   1.836   1.431
 3427TIP3    H110287   4.671   1.905   1.397
 3427TIP3    H210288   4.597   1.861   1.522
 3428TIP3   OH210289   5.352   0.915   2.018
 3428TIP3    H110290   5.266   0.890   2.051
 3428TIP3    H210291   5.414   0.876   2.079
 3429TIP3   OH210292   2.625   2.737   0.374
 3429TIP3    H110293   2.716   2.738   0.403
 3429TIP3    H210294   2.606   2.644   0.359
 3430TIP3   OH210295   2.427   1.663   3.980
 3430TIP3    H110296   2.467   1.619   3.905
 3430TIP3    H210297   2.477   1.745   3.989
 3431TIP3   OH210298   5.688   1.602   2.609
 3431TIP3    H110299   5.759   1.666   2.596
 3431TIP3    H210300   5.683   1.592   2.704
 3432TIP3   OH210301   1.977   4.712   3.533
 3432TIP3    H110302   1.914   4.783   3.544
 3432TIP3    H210303   1.957   4.675   3.447
 3433TIP3   OH210304   3.201   4.434   1.829
 3433TIP3    H110305   3.237   4.356   1.870
 3433TIP3    H210306   3.154   4.402   1.752
 3434TIP3   OH210307   2.305   2.313   4.701
 3434TIP3    H110308   2.314   2.399   4.741
 3434TIP3    H210309   2.246   2.328   4.627
 3435TIP3   OH210310   2.178   4.203   3.437
 3435TIP3    H110311   2.150   4.138   3.502
 3435TIP3    H210312   2.183   4.285   3.486
 3436TIP3   OH210313   4.837   2.501   0.981
 3436TIP3    H110314   4.875   2.581   0.945
 3436TIP3    H210315   4.838   2.439   0.907
 3437TIP3   OH210316   1.262   4.914   1.679
 3437TIP3    H110317   1.202   4.984   1.653
 3437TIP3    H210318   1.268   4.923   1.775
 3438TIP3   OH210319   1.229   0.088   0.047
 3438TIP3    H110320   1.185   0.100  -0.037
 3438TIP3    H210321   1.263   0.175   0.068
 3439TIP3   OH210322   5.873   4.620   1.920
 3439TIP3    H110323   5.957   4.598   1.959
 3439TIP3    H210324   5.815   4.548   1.944
 3440TIP3   OH210325   5.781   1.913   3.451
 3440TIP3    H110326   5.780   1.862   3.370
 3440TIP3    H210327   5.730   1.991   3.430
 3441TIP3   OH210328   4.351   3.112   0.317
 3441TIP3    H110329   4.381   3.193   0.359
 3441TIP3    H210330   4.341   3.136   0.225
 3442TIP3   OH210331   5.139   5.557   4.852
 3442TIP3    H110332   5.160   5.643   4.890
 3442TIP3    H210333   5.223   5.512   4.847
 3443TIP3   OH210334   4.689   3.656   3.474
 3443TIP3    H110335   4.685   3.734   3.420
 3443TIP3    H210336   4.782   3.632   3.475
 3444TIP3   OH210337   2.459   2.985   3.809
 3444TIP3    H110338   2.477   2.897   3.776
 3444TIP3    H210339   2.538   3.010   3.856
 3445TIP3   OH210340   3.690   5.804   0.377
 3445TIP3    H110341   3.596   5.817   0.373
 3445TIP3    H210342   3.701   5.711   0.395
 3446TIP3   OH210343   2.735   2.641   2.583
 3446TIP3    H110344   2.825   2.651   2.614
 3446TIP3    H210345   2.695   2.581   2.645
 3447TIP3   OH210346   5.493   3.130   4.142
 3447TIP3    H110347   5.564   3.065   4.138
 3447TIP3    H210348   5.508   3.186   4.066
 3448TIP3   OH210349   0.182   2.815   3.363
 3448TIP3    H110350   0.157   2.800   3.272
 3448TIP3    H210351   0.109   2.781   3.415
 3449TIP3   OH210352   4.888   4.232   2.678
 3449TIP3    H110353   4.954   4.262   2.615
 3449TIP3    H210354   4.916   4.144   2.702
 3450TIP3   OH210355   5.015   1.785   3.509
 3450TIP3    H110356   5.036   1.707   3.457
 3450TIP3    H210357   4.987   1.750   3.594
 3451TIP3   OH210358   1.381   3.372   0.918
 3451TIP3    H110359   1.298   3.369   0.871
 3451TIP3    H210360   1.439   3.313   0.869
 3452TIP3   OH210361   5.590   3.057   0.920
 3452TIP3    H110362   5.503   3.019   0.931
 3452TIP3    H210363   5.648   2.996   0.967
 3453TIP3   OH210364   5.394   3.411   1.442
 3453TIP3    H110365   5.392   3.330   1.493
 3453TIP3    H210366   5.409   3.480   1.507
 3454TIP3   OH210367   3.959   1.498   2.512
 3454TIP3    H110368   3.886   1.509   2.573
 3454TIP3    H210369   4.037   1.500   2.567
 3455TIP3   OH210370   2.863   0.869   4.634
 3455TIP3    H110371   2.782   0.848   4.588
 3455TIP3    H210372   2.932   0.832   4.579
 3456TIP3   OH210373   1.568   3.970   4.077
 3456TIP3    H110374   1.505   3.970   4.150
 3456TIP3    H210375   1.542   3.893   4.024
 3457TIP3   OH210376   3.591   5.625   3.557
 3457TIP3    H110377   3.629   5.713   3.557
 3457TIP3    H210378   3.641   5.576   3.622
 3458TIP3   OH210379   2.161   1.737   2.185
 3458TIP3    H110380   2.125   1.682   2.254
 3458TIP3    H210381   2.221   1.680   2.137
 3459TIP3   OH210382   4.566   0.967   1.624
 3459TIP3    H110383   4.530   1.038   1.677
 3459TIP3    H210384   4.649   1.001   1.590
 3460TIP3   OH210385   3.590   3.937   0.258
 3460TIP3    H110386   3.580   3.878   0.184
 3460TIP3    H210387   3.641   3.887   0.322
 3461TIP3   OH210388   5.038   5.400   3.173
 3461TIP3    H110389   5.088   5.337   3.224
 3461TIP3    H210390   4.967   5.428   3.232
 3462TIP3   OH210391   2.677   2.204   0.887
 3462TIP3    H110392   2.680   2.296   0.860
 3462TIP3    H210393   2.613   2.202   0.959
 3463TIP3   OH210394   3.446   1.876   1.910
 3463TIP3    H110395   3.462   1.920   1.827
 3463TIP3    H210396   3.378   1.811   1.890
 3464TIP3   OH210397   1.333   1.767   3.387
 3464TIP3    H110398   1.313   1.828   3.457
 3464TIP3    H210399   1.428   1.766   3.383
 3465TIP3   OH210400   0.305   2.337   4.748
 3465TIP3    H110401   0.246   2.266   4.772
 3465TIP3    H210402   0.351   2.305   4.670
 3466TIP3   OH210403   2.552   2.371   0.651
 3466TIP3    H110404   2.521   2.293   0.695
 3466TIP3    H210405   2.615   2.339   0.586
 3467TIP3   OH210406   4.692   4.333   4.806
 3467TIP3    H110407   4.737   4.398   4.861
 3467TIP3    H210408   4.630   4.385   4.754
 3468TIP3   OH210409   4.638   0.003   1.513
 3468TIP3    H110410   4.619   0.018   1.606
 3468TIP3    H210411   4.679   0.084   1.483
 3469TIP3   OH210412   6.296   0.940   5.020
 3469TIP3    H110413   6.287   0.939   4.925
 3469TIP3    H210414   6.310   0.848   5.043
 3470TIP3   OH210415   2.730   2.030   3.741
 3470TIP3    H110416   2.656   1.971   3.728
 3470TIP3    H210417   2.777   2.029   3.657
 3471TIP3   OH210418   2.754   1.794   4.709
 3471TIP3    H110419   2.813   1.724   4.738
 3471TIP3    H210420   2.669   1.770   4.744
 3472TIP3   OH210421   5.645   2.070   4.573
 3472TIP3    H110422   5.708   2.112   4.631
 3472TIP3    H210423   5.575   2.040   4.631
 3473TIP3   OH210424   1.301   2.959   1.347
 3473TIP3    H110425   1.224   3.003   1.311
 3473TIP3    H210426   1.308   2.878   1.297
 3474TIP3   OH210427   4.593   2.924   2.371
 3474TIP3    H110428   4.508   2.880   2.371
 3474TIP3    H210429   4.593   2.976   2.291
 3475TIP3   OH210430   4.421   2.184   4.206
 3475TIP3    H110431   4.376   2.180   4.121
 3475TIP3    H210432   4.384   2.111   4.256
 3476TIP3   OH210433   2.904   0.889   1.276
 3476TIP3    H110434   2.872   0.850   1.194
 3476TIP3    H210435   2.998   0.896   1.264
 3477TIP3   OH210436   2.934   0.882   0.847
 3477TIP3    H110437   2.994   0.895   0.921
 3477TIP3    H210438   2.882   0.962   0.844
 3478TIP3   OH210439   3.632   1.493   5.070
 3478TIP3    H110440   3.615   1.576   5.116
 3478TIP3    H210441   3.551   1.444   5.078
 3479TIP3   OH210442   2.391   2.779   1.495
 3479TIP3    H110443   2.431   2.781   1.408
 3479TIP3    H210444   2.301   2.750   1.480
 3480TIP3   OH210445   4.723   1.347   2.950
 3480TIP3    H110446   4.776   1.281   2.995
 3480TIP3    H210447   4.765   1.357   2.864
 3481TIP3   OH210448   4.271   5.174   4.565
 3481TIP3    H110449   4.249   5.126   4.484
 3481TIP3    H210450   4.229   5.260   4.553
 3482TIP3   OH210451   1.960   5.698   2.377
 3482TIP3    H110452   1.890   5.711   2.442
 3482TIP3    H210453   2.034   5.748   2.411
 3483TIP3   OH210454   1.238   4.300   0.186
 3483TIP3    H110455   1.225   4.389   0.152
 3483TIP3    H210456   1.312   4.266   0.135
 3484TIP3   OH210457   3.719   1.715   4.331
 3484TIP3    H110458   3.723   1.787   4.393
 3484TIP3    H210459   3.662   1.650   4.372
 3485TIP3   OH210460   4.792   1.288   1.847
 3485TIP3    H110461   4.816   1.284   1.939
 3485TIP3    H210462   4.875   1.284   1.800
 3486TIP3   OH210463   3.680   1.095   0.268
 3486TIP3    H110464   3.588   1.098   0.240
 3486TIP3    H210465   3.730   1.110   0.188
 3487TIP3   OH210466   1.203   1.750   4.900
 3487TIP3    H110467   1.185   1.813   4.830
 3487TIP3    H210468   1.166   1.790   4.978
 3488TIP3   OH210469   1.582   5.474   4.453
 3488TIP3    H110470   1.592   5.565   4.483
 3488TIP3    H210471   1.532   5.481   4.372
 3489TIP3   OH210472   2.868   2.443   2.221
 3489TIP3    H110473   2.797   2.456   2.284
 3489TIP3    H210474   2.844   2.497   2.146
 3490TIP3   OH210475   3.767   4.550   0.084
 3490TIP3    H110476   3.739   4.509   0.002
 3490TIP3    H210477   3.862   4.540   0.084
 3491TIP3   OH210478   0.667   3.082   0.440
 3491TIP3    H110479   0.712   3.032   0.508
 3491TIP3    H210480   0.585   3.035   0.426
 3492TIP3   OH210481   3.624   0.617   4.619
 3492TIP3    H110482   3.561   0.633   4.549
 3492TIP3    H210483   3.572   0.615   4.699
 3493TIP3   OH210484   1.089   3.772   1.599
 3493TIP3    H110485   1.017   3.713   1.619
 3493TIP3    H210486   1.129   3.736   1.520
 3494TIP3   OH210487   0.205   4.376   0.010
 3494TIP3    H110488   0.116   4.359   0.041
 3494TIP3    H210489   0.228   4.461   0.047
 3495TIP3   OH210490   3.582   3.639   3.074
 3495TIP3    H110491   3.505   3.607   3.027
 3495TIP3    H210492   3.588   3.580   3.150
 3496TIP3   OH210493   0.267   0.910   5.199
 3496TIP3    H110494   0.227   0.896   5.113
 3496TIP3    H210495   0.220   0.850   5.258
 3497TIP3   OH210496   1.514   1.358   4.514
 3497TIP3    H110497   1.585   1.335   4.454
 3497TIP3    H210498   1.518   1.453   4.522
 3498TIP3   OH210499   2.849   5.040   2.909
 3498TIP3    H110500   2.858   4.972   2.842
 3498TIP3    H210501   2.844   4.991   2.992
 3499TIP3   OH210502   5.852   2.035   0.358
 3499TIP3    H110503   5.766   1.995   0.369
 3499TIP3    H210504   5.836   2.129   0.360
 3500TIP3   OH210505   1.849   3.801   3.272
 3500TIP3    H110506   1.823   3.889   3.298
 3500TIP3    H210507   1.767   3.756   3.251
 3501TIP3   OH210508   2.618   5.790   1.908
 3501TIP3    H110509   2.701   5.802   1.861
 3501TIP3    H210510   2.570   5.726   1.856
 3502TIP3   OH210511   5.292   4.913   0.351
 3502TIP3    H110512   5.357   4.910   0.280
 3502TIP3    H210513   5.321   4.845   0.413
 3503TIP3   OH210514   3.497   5.004   5.077
 3503TIP3    H110515   3.439   4.999   5.153
 3503TIP3    H210516   3.496   5.096   5.051
 3504TIP3   OH210517   5.221   4.960   4.420
 3504TIP3    H110518   5.235   4.935   4.511
 3504TIP3    H210519   5.306   4.993   4.391
 3505TIP3   OH210520   2.939   3.857   2.692
 3505TIP3    H110521   2.922   3.949   2.711
 3505TIP3    H210522   2.980   3.823   2.771
 3506TIP3   OH210523   5.206   5.614   0.114
 3506TIP3    H110524   5.200   5.612   0.210
 3506TIP3    H210525   5.126   5.572   0.084
 3507TIP3   OH210526   2.882   4.307   4.620
 3507TIP3    H110527   2.813   4.373   4.610
 3507TIP3    H210528   2.963   4.357   4.623
 3508TIP3   OH210529   4.258   0.738   0.446
 3508TIP3    H110530   4.206   0.680   0.391
 3508TIP3    H210531   4.341   0.693   0.457
 3509TIP3   OH210532   5.608   3.635   4.091
 3509TIP3    H110533   5.523   3.616   4.050
 3509TIP3    H210534   5.605   3.729   4.109
 3510TIP3   OH210535   3.374   3.096   2.970
 3510TIP3    H110536   3.360   3.133   3.057
 3510TIP3    H210537   3.291   3.111   2.925
 3511TIP3   OH210538   6.280   5.210   4.232
 3511TIP3    H110539   6.328   5.197   4.151
 3511TIP3    H210540   6.203   5.261   4.207
 3512TIP3   OH210541   4.366   5.737   3.524
 3512TIP3    H110542   4.300   5.804   3.506
 3512TIP3    H210543   4.348   5.709   3.613
 3513TIP3   OH210544   2.534   5.802   3.097
 3513TIP3    H110545   2.566   5.713   3.084
 3513TIP3    H210546   2.574   5.829   3.180
 3514TIP3   OH210547   1.388   5.733   3.463
 3514TIP3    H110548   1.344   5.792   3.401
 3514TIP3    H210549   1.318   5.700   3.519
 3515TIP3   OH210550   1.974   3.517   3.587
 3515TIP3    H110551   2.004   3.548   3.502
 3515TIP3    H210552   2.047   3.465   3.622
 3516TIP3   OH210553   4.767   0.799   1.746
 3516TIP3    H110554   4.701   0.837   1.690
 3516TIP3    H210555   4.718   0.745   1.808
 3517TIP3   OH210556   5.090   1.718   0.662
 3517TIP3    H110557   5.178   1.728   0.697
 3517TIP3    H210558   5.033   1.760   0.727
 3518TIP3   OH210559   5.818   1.054   4.007
 3518TIP3    H110560   5.742   1.043   4.064
 3518TIP3    H210561   5.798   1.000   3.930
 3519TIP3   OH210562   1.494   3.201   0.160
 3519TIP3    H110563   1.541   3.209   0.077
 3519TIP3    H210564   1.464   3.110   0.162
 3520TIP3   OH210565   2.012   4.783   0.646
 3520TIP3    H110566   2.033   4.773   0.738
 3520TIP3    H210567   1.957   4.707   0.626
 3521TIP3   OH210568   3.158   4.558   5.139
 3521TIP3    H110569   3.243   4.515   5.126
 3521TIP3    H210570   3.097   4.509   5.085
 3522TIP3   OH210571   2.762   5.925   3.899
 3522TIP3    H110572   2.834   5.954   3.955
 3522TIP3    H210573   2.690   5.906   3.959
 3523TIP3   OH210574   2.091   4.452   4.708
 3523TIP3    H110575   2.109   4.488   4.621
 3523TIP3    H210576   2.092   4.528   4.766
 3524TIP3   OH210577   4.200   2.859   4.773
 3524TIP3    H110578   4.207   2.780   4.827
 3524TIP3    H210579   4.150   2.830   4.697
 3525TIP3   OH210580   1.808   0.151   2.546
 3525TIP3    H110581   1.848   0.065   2.538
 3525TIP3    H210582   1.881   0.210   2.563
 3526TIP3   OH210583   1.641   4.739   0.495
 3526TIP3    H110584   1.682   4.826   0.491
 3526TIP3    H210585   1.644   4.716   0.587
 3527TIP3   OH210586   0.735   4.511   2.337
 3527TIP3    H110587   0.774   4.424   2.326
 3527TIP3    H210588   0.656   4.496   2.389
 3528TIP3   OH210589   2.018   1.413   0.111
 3528TIP3    H110590   1.986   1.442   0.025
 3528TIP3    H210591   2.045   1.322   0.097
 3529TIP3   OH210592   2.932   1.497   4.302
 3529TIP3    H110593   3.015   1.539   4.324
 3529TIP3    H210594   2.873   1.523   4.373
 3530TIP3   OH210595   2.981   1.775   2.366
 3530TIP3    H110596   2.975   1.825   2.284
 3530TIP3    H210597   3.030   1.697   2.342
 3531TIP3   OH210598   0.954   3.363   2.662
 3531TIP3    H110599   0.912   3.357   2.748
 3531TIP3    H210600   0.984   3.454   2.655
 3532TIP3   OH210601   3.829   4.133   0.174
 3532TIP3    H110602   3.883   4.200   0.215
 3532TIP3    H210603   3.739   4.156   0.200
 3533TIP3   OH210604   1.758   0.682   2.270
 3533TIP3    H110605   1.674   0.647   2.301
 3533TIP3    H210606   1.759   0.662   2.177
 3534TIP3   OH210607   5.998   3.370   0.211
 3534TIP3    H110608   6.056   3.387   0.285
 3534TIP3    H210609   5.998   3.452   0.160
 3535TIP3   OH210610   3.722   1.816   4.585
 3535TIP3    H110611   3.734   1.809   4.680
 3535TIP3    H210612   3.795   1.871   4.556
 3536TIP3   OH210613   2.250   3.023   4.614
 3536TIP3    H110614   2.268   3.101   4.667
 3536TIP3    H210615   2.316   3.024   4.545
 3537TIP3   OH210616   5.129   0.158   3.528
 3537TIP3    H110617   5.107   0.091   3.592
 3537TIP3    H210618   5.194   0.213   3.572
 3538TIP3   OH210619   0.222   4.696   0.619
 3538TIP3    H110620   0.261   4.783   0.630
 3538TIP3    H210621   0.274   4.639   0.675
 3539TIP3   OH210622   4.526   5.793   1.600
 3539TIP3    H110623   4.521   5.816   1.507
 3539TIP3    H210624   4.545   5.875   1.645
 3540TIP3   OH210625   2.043   3.155   0.592
 3540TIP3    H110626   2.104   3.224   0.565
 3540TIP3    H210627   1.977   3.201   0.645
 3541TIP3   OH210628   0.823   0.224   1.101
 3541TIP3    H110629   0.744   0.261   1.140
 3541TIP3    H210630   0.791   0.154   1.043
 3542TIP3   OH210631   0.492   5.254   4.449
 3542TIP3    H110632   0.427   5.288   4.511
 3542TIP3    H210633   0.451   5.265   4.363
 3543TIP3   OH210634   1.159   5.906   3.945
 3543TIP3    H110635   1.210   5.958   4.006
 3543TIP3    H210636   1.071   5.903   3.982
 3544TIP3   OH210637   5.265   2.010   1.246
 3544TIP3    H110638   5.356   1.982   1.235
 3544TIP3    H210639   5.228   1.945   1.306
 3545TIP3   OH210640   4.554   3.731   1.594
 3545TIP3    H110641   4.636   3.686   1.571
 3545TIP3    H210642   4.544   3.798   1.526
 3546TIP3   OH210643   4.264   4.773   4.369
 3546TIP3    H110644   4.267   4.694   4.315
 3546TIP3    H210645   4.291   4.743   4.456
 3547TIP3   OH210646   4.634   3.369   2.037
 3547TIP3    H110647   4.579   3.309   1.986
 3547TIP3    H210648   4.656   3.439   1.975
 3548TIP3   OH210649   2.396   2.952   5.090
 3548TIP3    H110650   2.442   3.025   5.132
 3548TIP3    H210651   2.314   2.945   5.139
 3549TIP3   OH210652   1.355   2.667   4.615
 3549TIP3    H110653   1.444   2.664   4.652
 3549TIP3    H210654   1.297   2.653   4.690
 3550TIP3   OH210655   2.147   4.290   1.530
 3550TIP3    H110656   2.132   4.264   1.439
 3550TIP3    H210657   2.077   4.247   1.579
 3551TIP3   OH210658   0.319   5.768   4.392
 3551TIP3    H110659   0.305   5.785   4.485
 3551TIP3    H210660   0.409   5.794   4.376
 3552TIP3   OH210661   3.184   1.866   4.678
 3552TIP3    H110662   3.244   1.802   4.715
 3552TIP3    H210663   3.233   1.905   4.605
 3553TIP3   OH210664   3.516   1.045   2.182
 3553TIP3    H110665   3.427   1.013   2.195
 3553TIP3    H210666   3.531   1.037   2.088
 3554TIP3   OH210667   3.001   3.462   4.313
 3554TIP3    H110668   2.978   3.530   4.376
 3554TIP3    H210669   3.095   3.450   4.325
 3555TIP3   OH210670   0.920   2.194   0.983
 3555TIP3    H110671   0.877   2.274   0.954
 3555TIP3    H210672   0.857   2.124   0.962
 3556TIP3   OH210673   1.830   3.758   0.599
 3556TIP3    H110674   1.786   3.826   0.548
 3556TIP3    H210675   1.760   3.718   0.651
 3557TIP3   OH210676   2.926   5.944   3.667
 3557TIP3    H110677   2.926   5.848   3.660
 3557TIP3    H210678   2.910   5.961   3.760
 3558TIP3   OH210679   0.744   0.798   5.157
 3558TIP3    H110680   0.743   0.704   5.137
 3558TIP3    H210681   0.655   0.827   5.139
 3559TIP3   OH210682   2.064   2.366   0.304
 3559TIP3    H110683   1.992   2.418   0.268
 3559TIP3    H210684   2.055   2.281   0.262
 3560TIP3   OH210685   4.842   3.808   3.034
 3560TIP3    H110686   4.902   3.805   2.960
 3560TIP3    H210687   4.805   3.897   3.031
 3561TIP3   OH210688   0.466   2.009   3.548
 3561TIP3    H110689   0.447   2.068   3.475
 3561TIP3    H210690   0.400   2.029   3.614
 3562TIP3   OH210691   1.323   2.556   2.077
 3562TIP3    H110692   1.278   2.560   2.161
 3562TIP3    H210693   1.327   2.647   2.047
 3563TIP3   OH210694   0.062   3.369   0.393
 3563TIP3    H110695   0.149   3.332   0.377
 3563TIP3    H210696   0.051   3.435   0.325
 3564TIP3   OH210697   5.953   4.509   4.007
 3564TIP3    H110698   6.018   4.536   4.071
 3564TIP3    H210699   5.947   4.582   3.946
 3565TIP3   OH210700   5.156   1.623   4.312
 3565TIP3    H110701   5.195   1.703   4.277
 3565TIP3    H210702   5.064   1.628   4.287
 3566TIP3   OH210703   0.932   2.786   3.157
 3566TIP3    H110704   0.917   2.871   3.198
 3566TIP3    H210705   0.941   2.726   3.230
 3567TIP3   OH210706   5.508   2.235   0.901
 3567TIP3    H110707   5.565   2.207   0.830
 3567TIP3    H210708   5.466   2.155   0.932
 3568TIP3   OH210709   2.229   4.868   1.867
 3568TIP3    H110710   2.300   4.931   1.849
 3568TIP3    H210711   2.247   4.795   1.808
 3569TIP3   OH210712   1.704   2.001   0.890
 3569TIP3    H110713   1.628   1.973   0.838
 3569TIP3    H210714   1.666   2.035   0.971
 3570TIP3   OH210715   4.186   2.032   1.113
 3570TIP3    H110716   4.124   2.065   1.047
 3570TIP3    H210717   4.132   2.019   1.191
 3571TIP3   OH210718   2.111   4.113   0.663
 3571TIP3    H110719   2.160   4.148   0.737
 3571TIP3    H210720   2.026   4.157   0.667
 3572TIP3   OH210721   0.998   5.607   2.016
 3572TIP3    H110722   0.997   5.581   2.108
 3572TIP3    H210723   0.995   5.703   2.018
 3573TIP3   OH210724   0.917   3.227   4.719
 3573TIP3    H110725   0.947   3.219   4.810
 3573TIP3    H210726   0.903   3.321   4.706
 3574TIP3   OH210727   3.246   1.521   4.953
 3574TIP3    H110728   3.320   1.554   4.903
 3574TIP3    H210729   3.246   1.574   5.033
 3575TIP3   OH210730   2.555   5.946   4.768
 3575TIP3    H110731   2.637   5.987   4.794
 3575TIP3    H210732   2.519   6.003   4.699
 3576TIP3   OH210733   2.790   3.413   5.008
 3576TIP3    H110734   2.781   3.508   5.011
 3576TIP3    H210735   2.715   3.384   4.956
 3577TIP3   OH210736   3.046   1.340   5.059
 3577TIP3    H110737   3.054   1.274   4.990
 3577TIP3    H210738   3.067   1.423   5.016
 3578TIP3   OH210739   5.921   1.873   1.523
 3578TIP3    H110740   6.017   1.876   1.529
 3578TIP3    H210741   5.903   1.810   1.453
 3579TIP3   OH210742   3.939   5.188   0.170
 3579TIP3    H110743   4.000   5.210   0.241
 3579TIP3    H210744   3.987   5.212   0.090
 3580TIP3   OH210745   1.093   5.583   0.811
 3580TIP3    H110746   1.039   5.548   0.882
 3580TIP3    H210747   1.166   5.522   0.803
 3581TIP3   OH210748   4.291   5.703   3.804
 3581TIP3    H110749   4.309   5.649   3.881
 3581TIP3    H210750   4.358   5.771   3.805
 3582TIP3   OH210751   2.796   0.721   0.475
 3582TIP3    H110752   2.816   0.632   0.504
 3582TIP3    H210753   2.714   0.712   0.426
 3583TIP3   OH210754   0.981   1.925   2.020
 3583TIP3    H110755   0.992   1.834   1.990
 3583TIP3    H210756   1.051   1.938   2.083
 3584TIP3   OH210757   4.981   2.057   2.662
 3584TIP3    H110758   5.012   2.098   2.581
 3584TIP3    H210759   5.019   1.969   2.661
 3585TIP3   OH210760   6.128   0.237   3.196
 3585TIP3    H110761   6.107   0.330   3.183
 3585TIP3    H210762   6.058   0.190   3.151
 3586TIP3   OH210763   2.595   2.212   1.457
 3586TIP3    H110764   2.531   2.210   1.527
 3586TIP3    H210765   2.642   2.129   1.464
 3587TIP3   OH210766   0.151   3.070   0.330
 3587TIP3    H110767   0.199   3.148   0.303
 3587TIP3    H210768   0.084   3.058   0.263
 3588TIP3   OH210769   4.338   1.950   3.277
 3588TIP3    H110770   4.385   1.885   3.224
 3588TIP3    H210771   4.404   2.016   3.297
 3589TIP3   OH210772   4.912   2.790   2.751
 3589TIP3    H110773   4.867   2.856   2.803
 3589TIP3    H210774   4.947   2.838   2.676
 3590TIP3   OH210775   4.963   0.375   3.092
 3590TIP3    H110776   4.952   0.361   3.186
 3590TIP3    H210777   4.902   0.314   3.051
 3591TIP3   OH210778   2.781   3.878   2.316
 3591TIP3    H110779   2.731   3.869   2.235
 3591TIP3    H210780   2.866   3.913   2.288
 3592TIP3   OH210781   2.041   2.938   4.283
 3592TIP3    H110782   2.124   2.943   4.236
 3592TIP3    H210783   2.026   3.027   4.315
 3593TIP3   OH210784   3.051   0.836   0.506
 3593TIP3    H110785   3.023   0.782   0.432
 3593TIP3    H210786   2.969   0.858   0.552
 3594TIP3   OH210787   5.039   4.536   3.724
 3594TIP3    H110788   5.086   4.620   3.729
 3594TIP3    H210789   4.958   4.557   3.678
 3595TIP3   OH210790   2.487   4.004   4.053
 3595TIP3    H110791   2.451   3.927   4.097
 3595TIP3    H210792   2.572   3.976   4.020
 3596TIP3   OH210793   0.097   3.018   0.595
 3596TIP3    H110794   0.041   3.079   0.643
 3596TIP3    H210795   0.079   3.038   0.502
 3597TIP3   OH210796   5.107   3.459   2.611
 3597TIP3    H110797   5.031   3.471   2.554
 3597TIP3    H210798   5.162   3.535   2.595
 3598TIP3   OH210799   0.046   2.097   2.855
 3598TIP3    H110800   0.021   2.082   2.946
 3598TIP3    H210801   0.132   2.057   2.846
 3599TIP3   OH210802   5.836   4.967   4.796
 3599TIP3    H110803   5.754   4.922   4.818
 3599TIP3    H210804   5.873   4.991   4.881
 3600TIP3   OH210805   2.271   0.124   1.486
 3600TIP3    H110806   2.233   0.101   1.570
 3600TIP3    H210807   2.325   0.201   1.503
 3601TIP3   OH210808   5.820   0.636   3.134
 3601TIP3    H110809   5.804   0.717   3.182
 3601TIP3    H210810   5.779   0.568   3.188
 3602TIP3   OH210811   1.096   2.133   3.277
 3602TIP3    H110812   1.006   2.122   3.309
 3602TIP3    H210813   1.127   2.043   3.263
 3603TIP3   OH210814   2.941   2.882   1.914
 3603TIP3    H110815   2.912   2.800   1.875
 3603TIP3    H210816   2.860   2.929   1.935
 3604TIP3   OH210817   0.907   2.350   3.171
 3604TIP3    H110818   0.848   2.275   3.164
 3604TIP3    H210819   0.980   2.329   3.113
 3605TIP3   OH210820   1.402   1.057   0.246
 3605TIP3    H110821   1.372   1.137   0.289
 3605TIP3    H210822   1.423   1.084   0.157
 3606TIP3   OH210823   3.204   5.185   3.523
 3606TIP3    H110824   3.209   5.108   3.466
 3606TIP3    H210825   3.243   5.155   3.606
 3607TIP3   OH210826   4.831   3.481   0.233
 3607TIP3    H110827   4.852   3.429   0.311
 3607TIP3    H210828   4.822   3.416   0.163
 3608TIP3   OH210829   4.997   1.108   3.857
 3608TIP3    H110830   5.016   1.188   3.808
 3608TIP3    H210831   4.931   1.063   3.805
 3609TIP3   OH210832   1.130   4.104   2.931
 3609TIP3    H110833   1.165   4.018   2.911
 3609TIP3    H210834   1.198   4.165   2.900
 3610TIP3   OH210835   4.803   0.231   2.401
 3610TIP3    H110836   4.875   0.294   2.410
 3610TIP3    H210837   4.746   0.269   2.334
 3611TIP3   OH210838   4.414   0.145   4.327
 3611TIP3    H110839   4.406   0.065   4.275
 3611TIP3    H210840   4.331   0.191   4.312
 3612TIP3   OH210841   0.593   0.223   4.241
 3612TIP3    H110842   0.641   0.252   4.164
 3612TIP3    H210843   0.611   0.291   4.307
 3613TIP3   OH210844   1.679   3.078   2.761
 3613TIP3    H110845   1.625   3.087   2.839
 3613TIP3    H210846   1.696   3.168   2.733
 3614TIP3   OH210847   4.376   0.950   3.651
 3614TIP3    H110848   4.302   0.981   3.702
 3614TIP3    H210849   4.430   1.028   3.638
 3615TIP3   OH210850   2.413   1.239   1.628
 3615TIP3    H110851   2.500   1.270   1.600
 3615TIP3    H210852   2.425   1.213   1.719
 3616TIP3   OH210853   1.631   5.549   3.528
 3616TIP3    H110854   1.550   5.532   3.480
 3616TIP3    H210855   1.645   5.643   3.519
 3617TIP3   OH210856   0.866   1.030   2.614
 3617TIP3    H110857   0.838   1.095   2.550
 3617TIP3    H210858   0.936   0.982   2.569
 3618TIP3   OH210859   0.633   4.894   1.368
 3618TIP3    H110860   0.705   4.834   1.385
 3618TIP3    H210861   0.660   4.977   1.407
 3619TIP3   OH210862   5.713   4.724   0.370
 3619TIP3    H110863   5.646   4.681   0.316
 3619TIP3    H210864   5.667   4.747   0.450
 3620TIP3   OH210865   4.861   3.995   4.770
 3620TIP3    H110866   4.831   3.992   4.861
 3620TIP3    H210867   4.927   4.064   4.769
 3621TIP3   OH210868   3.758   5.001   1.258
 3621TIP3    H110869   3.853   4.992   1.253
 3621TIP3    H210870   3.732   5.027   1.170
 3622TIP3   OH210871   0.946   2.133   1.472
 3622TIP3    H110872   0.863   2.131   1.520
 3622TIP3    H210873   0.998   2.200   1.517
 3623TIP3   OH210874   0.542   3.750   0.216
 3623TIP3    H110875   0.591   3.832   0.208
 3623TIP3    H210876   0.474   3.768   0.281
 3624TIP3   OH210877   2.876   5.403   4.003
 3624TIP3    H110878   2.888   5.479   3.947
 3624TIP3    H210879   2.959   5.394   4.050
 3625TIP3   OH210880   3.168   4.756   2.762
 3625TIP3    H110881   3.252   4.787   2.730
 3625TIP3    H210882   3.164   4.664   2.735
 3626TIP3   OH210883   3.748   0.442   0.211
 3626TIP3    H110884   3.841   0.437   0.232
 3626TIP3    H210885   3.703   0.406   0.288
 3627TIP3   OH210886   3.223   2.082   2.038
 3627TIP3    H110887   3.284   2.133   1.984
 3627TIP3    H210888   3.184   2.019   1.977
 3628TIP3   OH210889   3.486   1.022   1.901
 3628TIP3    H110890   3.428   0.947   1.911
 3628TIP3    H210891   3.433   1.097   1.927
 3629TIP3   OH210892   2.815   4.988   3.338
 3629TIP3    H110893   2.890   4.992   3.278
 3629TIP3    H210894   2.779   5.077   3.337
 3630TIP3   OH210895   5.996   5.255   3.808
 3630TIP3    H110896   5.938   5.324   3.774
 3630TIP3    H210897   6.029   5.211   3.730
 3631TIP3   OH210898   0.314   0.754   1.591
 3631TIP3    H110899   0.300   0.781   1.500
 3631TIP3    H210900   0.237   0.701   1.612
 3632TIP3   OH210901   0.038   0.033   0.457
 3632TIP3    H110902   0.085  -0.035   0.409
 3632TIP3    H210903  -0.030   0.062   0.396
 3633TIP3   OH210904   0.853   0.661   2.785
 3633TIP3    H110905   0.801   0.595   2.832
 3633TIP3    H210906   0.808   0.744   2.802
 3634TIP3   OH210907   6.265   0.934   1.992
 3634TIP3    H110908   6.221   1.018   1.994
 3634TIP3    H210909   6.355   0.953   2.019
 3635TIP3   OH210910   4.959   5.827   0.525
 3635TIP3    H110911   4.894   5.780   0.576
 3635TIP3    H210912   4.912   5.858   0.448
 3636TIP3   OH210913   0.342   5.830   2.018
 3636TIP3    H110914   0.377   5.768   2.083
 3636TIP3    H210915   0.407   5.830   1.948
 3637TIP3   OH210916   2.592   4.009   0.746
 3637TIP3    H110917   2.543   3.927   0.737
 3637TIP3    H210918   2.647   4.013   0.669
 3638TIP3   OH210919   2.334   0.766   0.629
 3638TIP3    H110920   2.283   0.686   0.613
 3638TIP3    H210921   2.285   0.835   0.583
 3639TIP3   OH210922   1.295   4.172   1.342
 3639TIP3    H110923   1.208   4.133   1.333
 3639TIP3    H210924   1.351   4.101   1.371
 3640TIP3   OH210925   5.233   1.094   4.597
 3640TIP3    H110926   5.157   1.148   4.620
 3640TIP3    H210927   5.208   1.050   4.516
 3641TIP3   OH210928   0.716   5.345   3.312
 3641TIP3    H110929   0.766   5.375   3.388
 3641TIP3    H210930   0.740   5.407   3.242
 3642TIP3   OH210931   1.771   0.945   0.817
 3642TIP3    H110932   1.801   0.994   0.894
 3642TIP3    H210933   1.827   0.867   0.816
 3643TIP3   OH210934   2.814   5.883   1.039
 3643TIP3    H110935   2.766   5.942   1.097
 3643TIP3    H210936   2.855   5.941   0.974
 3644TIP3   OH210937   4.742   4.523   3.021
 3644TIP3    H110938   4.738   4.497   3.113
 3644TIP3    H210939   4.802   4.598   3.020
 3645TIP3   OH210940   4.722   2.608   4.334
 3645TIP3    H110941   4.805   2.599   4.287
 3645TIP3    H210942   4.656   2.574   4.273
 3646TIP3   OH210943   0.308   0.103   3.277
 3646TIP3    H110944   0.226   0.140   3.245
 3646TIP3    H210945   0.290   0.010   3.290
 3647TIP3   OH210946   4.357   0.906   1.077
 3647TIP3    H110947   4.375   0.892   1.170
 3647TIP3    H210948   4.359   1.001   1.066
 3648TIP3   OH210949   4.500   2.599   0.299
 3648TIP3    H110950   4.474   2.511   0.324
 3648TIP3    H210951   4.596   2.595   0.290
 3649TIP3   OH210952   5.162   5.220   3.331
 3649TIP3    H110953   5.251   5.241   3.304
 3649TIP3    H210954   5.135   5.148   3.273
 3650TIP3   OH210955   4.771   3.180   0.722
 3650TIP3    H110956   4.697   3.221   0.767
 3650TIP3    H210957   4.753   3.086   0.725
 3651TIP3   OH210958   1.226   1.947   1.662
 3651TIP3    H110959   1.208   1.999   1.740
 3651TIP3    H210960   1.162   1.978   1.598
 3652TIP3   OH210961   0.578   2.591   1.730
 3652TIP3    H110962   0.638   2.522   1.704
 3652TIP3    H210963   0.585   2.595   1.825
 3653TIP3   OH210964   0.454   0.518   1.425
 3653TIP3    H110965   0.542   0.543   1.396
 3653TIP3    H210966   0.464   0.430   1.461
 3654TIP3   OH210967   4.870   0.504   2.734
 3654TIP3    H110968   4.868   0.589   2.778
 3654TIP3    H210969   4.879   0.525   2.641
 3655TIP3   OH210970   3.478   1.002   5.099
 3655TIP3    H110971   3.406   1.060   5.122
 3655TIP3    H210972   3.457   0.920   5.143
 3656TIP3   OH210973   5.977   5.431   2.199
 3656TIP3    H110974   5.966   5.522   2.172
 3656TIP3    H210975   5.953   5.430   2.292
 3657TIP3   OH210976   5.702   5.552   1.415
 3657TIP3    H110977   5.648   5.565   1.493
 3657TIP3    H210978   5.762   5.627   1.415
 3658TIP3   OH210979   5.462   5.366   0.914
 3658TIP3    H110980   5.417   5.356   0.998
 3658TIP3    H210981   5.423   5.444   0.875
 3659TIP3   OH210982   4.698   1.447   0.831
 3659TIP3    H110983   4.768   1.495   0.785
 3659TIP3    H210984   4.630   1.513   0.845
 3660TIP3   OH210985   4.053   5.986   2.218
 3660TIP3    H110986   4.038   5.892   2.215
 3660TIP3    H210987   4.057   6.013   2.126
 3661TIP3   OH210988   4.495   4.304   3.548
 3661TIP3    H110989   4.479   4.398   3.542
 3661TIP3    H210990   4.586   4.297   3.577
 3662TIP3   OH210991   5.342   2.220   2.351
 3662TIP3    H110992   5.298   2.156   2.406
 3662TIP3    H210993   5.296   2.303   2.368
 3663TIP3   OH210994   2.161   5.858   4.566
 3663TIP3    H110995   2.118   5.776   4.590
 3663TIP3    H210996   2.101   5.900   4.504
 3664TIP3   OH210997   0.395   4.423   2.714
 3664TIP3    H110998   0.341   4.345   2.727
 3664TIP3    H210999   0.332   4.495   2.716
 3665TIP3   OH211000   5.766   3.235   4.914
 3665TIP3    H111001   5.852   3.197   4.933
 3665TIP3    H211002   5.724   3.242   5.000
 3666TIP3   OH211003   3.709   0.907   3.269
 3666TIP3    H111004   3.731   0.866   3.185
 3666TIP3    H211005   3.710   0.835   3.332
 3667TIP3   OH211006   2.595   2.798   4.598
 3667TIP3    H111007   2.526   2.755   4.647
 3667TIP3    H211008   2.673   2.787   4.652
 3668TIP3   OH211009   1.437   0.629   1.478
 3668TIP3    H111010   1.524   0.589   1.470
 3668TIP3    H211011   1.446   0.714   1.435
 3669TIP3   OH211012   3.773   3.877   4.183
 3669TIP3    H111013   3.853   3.839   4.219
 3669TIP3    H211014   3.704   3.818   4.210
 3670TIP3   OH211015   0.385   2.196   3.748
 3670TIP3    H111016   0.418   2.274   3.704
 3670TIP3    H211017   0.454   2.172   3.810
 3671TIP3   OH211018   0.081   1.151   2.435
 3671TIP3    H111019   0.066   1.061   2.407
 3671TIP3    H211020   0.029   1.204   2.374
 3672TIP3   OH211021   0.136   1.921   5.154
 3672TIP3    H111022   0.192   1.866   5.099
 3672TIP3    H211023   0.195   1.962   5.216
 3673TIP3   OH211024   2.729   0.038   1.612
 3673TIP3    H111025   2.722   0.117   1.666
 3673TIP3    H211026   2.790  -0.018   1.659
 3674TIP3   OH211027   0.849   2.565   0.236
 3674TIP3    H111028   0.803   2.605   0.162
 3674TIP3    H211029   0.874   2.639   0.292
 3675TIP3   OH211030   3.211   2.612   1.604
 3675TIP3    H111031   3.240   2.660   1.526
 3675TIP3    H211032   3.279   2.629   1.669
 3676TIP3   OH211033   6.211   4.122   3.954
 3676TIP3    H111034   6.143   4.146   3.890
 3676TIP3    H211035   6.170   4.056   4.009
 3677TIP3   OH211036   0.255   3.179   3.635
 3677TIP3    H111037   0.288   3.202   3.549
 3677TIP3    H211038   0.325   3.202   3.695
 3678TIP3   OH211039   5.806   4.436   1.097
 3678TIP3    H111040   5.785   4.347   1.068
 3678TIP3    H211041   5.805   4.430   1.193
 3679TIP3   OH211042   2.284   3.532   0.597
 3679TIP3    H111043   2.190   3.538   0.615
 3679TIP3    H211044   2.300   3.438   0.586
 3680TIP3   OH211045   5.743   3.472   1.699
 3680TIP3    H111046   5.722   3.469   1.606
 3680TIP3    H211047   5.712   3.557   1.729
 3681TIP3   OH211048   3.915   5.228   3.431
 3681TIP3    H111049   3.888   5.189   3.348
 3681TIP3    H211050   3.853   5.193   3.495
 3682TIP3   OH211051   6.045   1.899   0.488
 3682TIP3    H111052   5.981   1.949   0.437
 3682TIP3    H211053   6.102   1.966   0.527
 3683TIP3   OH211054   2.326   4.611   1.423
 3683TIP3    H111055   2.248   4.645   1.467
 3683TIP3    H211056   2.396   4.670   1.448
 3684TIP3   OH211057   4.353   5.730   2.219
 3684TIP3    H111058   4.430   5.715   2.165
 3684TIP3    H211059   4.368   5.815   2.259
 3685TIP3   OH211060   2.666   1.111   5.092
 3685TIP3    H111061   2.613   1.125   5.014
 3685TIP3    H211062   2.653   1.189   5.146
 3686TIP3   OH211063   5.992   0.419   1.095
 3686TIP3    H111064   6.012   0.349   1.033
 3686TIP3    H211065   5.968   0.373   1.176
 3687TIP3   OH211066   2.935   0.509   4.274
 3687TIP3    H111067   2.876   0.501   4.199
 3687TIP3    H211068   2.888   0.468   4.347
 3688TIP3   OH211069   5.528   1.486   0.390
 3688TIP3    H111070   5.600   1.470   0.330
 3688TIP3    H211071   5.536   1.416   0.456
 3689TIP3   OH211072   3.625   4.203   5.131
 3689TIP3    H111073   3.696   4.145   5.160
 3689TIP3    H211074   3.660   4.245   5.053
 3690TIP3   OH211075   2.857   2.730   0.521
 3690TIP3    H111076   2.945   2.697   0.536
 3690TIP3    H211077   2.828   2.761   0.607
 3691TIP3   OH211078   5.519   2.797   3.563
 3691TIP3    H111079   5.614   2.782   3.570
 3691TIP3    H211080   5.483   2.713   3.535
 3692TIP3   OH211081   0.544   5.570   4.524
 3692TIP3    H111082   0.508   5.512   4.591
 3692TIP3    H211083   0.468   5.597   4.473
 3693TIP3   OH211084   5.005   0.711   0.496
 3693TIP3    H111085   4.989   0.643   0.430
 3693TIP3    H211086   4.958   0.681   0.574
 3694TIP3   OH211087   1.406   4.384   4.028
 3694TIP3    H111088   1.394   4.431   4.111
 3694TIP3    H211089   1.500   4.366   4.024
 3695TIP3   OH211090   0.684   0.722   0.751
 3695TIP3    H111091   0.724   0.809   0.750
 3695TIP3    H211092   0.687   0.695   0.843
 3696TIP3   OH211093   2.678   1.656   2.564
 3696TIP3    H111094   2.654   1.746   2.542
 3696TIP3    H211095   2.594   1.613   2.583
 3697TIP3   OH211096   1.638   1.699   2.154
 3697TIP3    H111097   1.668   1.677   2.066
 3697TIP3    H211098   1.656   1.621   2.206
 3698TIP3   OH211099   3.997   4.969   0.950
 3698TIP3    H111100   4.064   4.963   0.882
 3698TIP3    H211101   3.922   5.010   0.906
 3699TIP3   OH211102   3.303   2.552   3.428
 3699TIP3    H111103   3.363   2.567   3.501
 3699TIP3    H211104   3.222   2.520   3.469
 3700TIP3   OH211105   0.034   3.978   4.737
 3700TIP3    H111106  -0.013   3.921   4.675
 3700TIP3    H211107   0.120   3.936   4.747
 3701TIP3   OH211108   4.709   3.806   4.503
 3701TIP3    H111109   4.687   3.750   4.577
 3701TIP3    H211110   4.657   3.773   4.430
 3702TIP3   OH211111   0.185   2.992   1.774
 3702TIP3    H111112   0.169   3.027   1.687
 3702TIP3    H211113   0.261   2.934   1.763
 3703TIP3   OH211114   1.742   5.258   1.864
 3703TIP3    H111115   1.664   5.202   1.868
 3703TIP3    H211116   1.776   5.258   1.953
 3704TIP3   OH211117   6.266   3.579   1.421
 3704TIP3    H111118   6.252   3.647   1.355
 3704TIP3    H211119   6.361   3.569   1.424
 3705TIP3   OH211120   3.465   4.509   3.024
 3705TIP3    H111121   3.474   4.452   2.948
 3705TIP3    H211122   3.428   4.453   3.092
 3706TIP3   OH211123   0.059   3.034   2.164
 3706TIP3    H111124   0.098   3.101   2.220
 3706TIP3    H211125   0.131   2.973   2.147
 3707TIP3   OH211126   5.726   5.867   2.502
 3707TIP3    H111127   5.721   5.798   2.436
 3707TIP3    H211128   5.769   5.940   2.458
 3708TIP3   OH211129   4.209   2.680   4.347
 3708TIP3    H111130   4.132   2.670   4.291
 3708TIP3    H211131   4.175   2.667   4.436
 3709TIP3   OH211132   2.413   4.353   1.645
 3709TIP3    H111133   2.460   4.368   1.563
 3709TIP3    H211134   2.332   4.309   1.617
 3710TIP3   OH211135   3.467   1.910   0.010
 3710TIP3    H111136   3.536   1.892   0.074
 3710TIP3    H211137   3.419   1.984   0.046
 3711TIP3   OH211138   1.484   1.200   2.850
 3711TIP3    H111139   1.547   1.130   2.832
 3711TIP3    H211140   1.414   1.157   2.898
 3712TIP3   OH211141   1.382   2.859   3.972
 3712TIP3    H111142   1.352   2.769   3.961
 3712TIP3    H211143   1.383   2.895   3.884
 3713TIP3   OH211144   1.476   2.807   3.099
 3713TIP3    H111145   1.497   2.753   3.175
 3713TIP3    H211146   1.392   2.774   3.069
 3714TIP3   OH211147   1.966   0.764   0.842
 3714TIP3    H111148   2.040   0.820   0.821
 3714TIP3    H211149   2.004   0.678   0.856
 3715TIP3   OH211150   1.766   2.730   2.372
 3715TIP3    H111151   1.778   2.755   2.463
 3715TIP3    H211152   1.854   2.731   2.334
 3716TIP3   OH211153   4.064   1.558   1.551
 3716TIP3    H111154   4.089   1.635   1.601
 3716TIP3    H211155   4.126   1.490   1.578
 3717TIP3   OH211156   3.051   4.910   3.942
 3717TIP3    H111157   3.113   4.837   3.944
 3717TIP3    H211158   3.091   4.977   3.997
 3718TIP3   OH211159   5.549   0.130   2.685
 3718TIP3    H111160   5.602   0.208   2.669
 3718TIP3    H211161   5.462   0.165   2.706
 3719TIP3   OH211162   1.107   1.990   1.043
 3719TIP3    H111163   1.045   2.059   1.020
 3719TIP3    H211164   1.188   2.037   1.064
 3720TIP3   OH211165   4.037   2.650   3.899
 3720TIP3    H111166   4.089   2.623   3.823
 3720TIP3    H211167   4.039   2.574   3.957
 3721TIP3   OH211168   3.815   5.076   4.514
 3721TIP3    H111169   3.748   5.016   4.549
 3721TIP3    H211170   3.884   5.018   4.482
 3722TIP3   OH211171   3.068   3.512   2.296
 3722TIP3    H111172   3.054   3.566   2.218
 3722TIP3    H211173   3.113   3.570   2.357
 3723TIP3   OH211174   0.668   2.577   3.209
 3723TIP3    H111175   0.673   2.655   3.154
 3723TIP3    H211176   0.758   2.563   3.238
 3724TIP3   OH211177   1.543   5.424   2.207
 3724TIP3    H111178   1.468   5.468   2.247
 3724TIP3    H211179   1.512   5.394   2.121
 3725TIP3   OH211180   2.350   4.336   0.941
 3725TIP3    H111181   2.340   4.327   1.036
 3725TIP3    H211182   2.325   4.250   0.906
 3726TIP3   OH211183   5.917   4.425   1.358
 3726TIP3    H111184   5.932   4.519   1.353
 3726TIP3    H211185   5.932   4.403   1.450
 3727TIP3   OH211186   4.496   3.006   3.919
 3727TIP3    H111187   4.515   2.948   3.993
 3727TIP3    H211188   4.458   3.084   3.959
 3728TIP3   OH211189   2.994   1.662   5.124
 3728TIP3    H111190   3.084   1.692   5.139
 3728TIP3    H211191   2.966   1.627   5.208
 3729TIP3   OH211192   0.673   4.786   2.364
 3729TIP3    H111193   0.613   4.773   2.290
 3729TIP3    H211194   0.709   4.699   2.382
 3730TIP3   OH211195   2.434   0.111   0.700
 3730TIP3    H111196   2.442   0.051   0.626
 3730TIP3    H211197   2.339   0.114   0.717
 3731TIP3   OH211198   6.118   4.019   0.293
 3731TIP3    H111199   6.167   4.069   0.228
 3731TIP3    H211200   6.072   3.952   0.242
 3732TIP3   OH211201   3.084   3.340   2.959
 3732TIP3    H111202   3.135   3.282   2.903
 3732TIP3    H211203   3.027   3.388   2.900
 3733TIP3   OH211204   4.175   3.029   2.890
 3733TIP3    H111205   4.230   3.074   2.827
 3733TIP3    H211206   4.119   3.097   2.927
 3734TIP3   OH211207   4.505   5.963   1.021
 3734TIP3    H111208   4.418   5.928   1.039
 3734TIP3    H211209   4.544   5.976   1.107
 3735TIP3   OH211210   0.487   2.401   3.533
 3735TIP3    H111211   0.498   2.493   3.558
 3735TIP3    H211212   0.429   2.404   3.456
 3736TIP3   OH211213   2.847   2.589   1.422
 3736TIP3    H111214   2.885   2.648   1.356
 3736TIP3    H211215   2.922   2.542   1.458
 3737TIP3   OH211216   0.869   5.530   0.074
 3737TIP3    H111217   0.918   5.448   0.064
 3737TIP3    H211218   0.894   5.561   0.161
 3738TIP3   OH211219   6.266   2.906   0.163
 3738TIP3    H111220   6.211   2.984   0.169
 3738TIP3    H211221   6.247   2.869   0.077
 3739TIP3   OH211222   1.474   1.685   4.830
 3739TIP3    H111223   1.533   1.742   4.780
 3739TIP3    H211224   1.431   1.631   4.765
 3740TIP3   OH211225   1.535   5.908   2.027
 3740TIP3    H111226   1.451   5.927   1.984
 3740TIP3    H211227   1.558   5.990   2.071
 3741TIP3   OH211228   2.899   0.210   3.768
 3741TIP3    H111229   2.901   0.195   3.673
 3741TIP3    H211230   2.806   0.222   3.788
 3742TIP3   OH211231   0.123   0.073   2.706
 3742TIP3    H111232   0.063   0.142   2.680
 3742TIP3    H211233   0.148   0.095   2.796
 3743TIP3   OH211234   6.038   1.201   1.666
 3743TIP3    H111235   6.004   1.127   1.615
 3743TIP3    H211236   5.984   1.203   1.745
 3744TIP3   OH211237   5.590   3.666   2.376
 3744TIP3    H111238   5.583   3.630   2.287
 3744TIP3    H211239   5.647   3.605   2.422
 3745TIP3   OH211240   1.909   1.909   4.081
 3745TIP3    H111241   1.837   1.873   4.031
 3745TIP3    H211242   1.914   2.001   4.054
 3746TIP3   OH211243   4.993   0.681   1.128
 3746TIP3    H111244   4.969   0.634   1.207
 3746TIP3    H211245   4.927   0.655   1.063
 3747TIP3   OH211246   4.154   0.702   2.851
 3747TIP3    H111247   4.234   0.672   2.806
 3747TIP3    H211248   4.184   0.728   2.938
 3748TIP3   OH211249   3.894   5.485   0.591
 3748TIP3    H111250   3.839   5.502   0.515
 3748TIP3    H211251   3.980   5.519   0.568
 3749TIP3   OH211252   2.168   1.484   1.694
 3749TIP3    H111253   2.246   1.511   1.644
 3749TIP3    H211254   2.129   1.415   1.641
 3750TIP3   OH211255   5.766   5.762   0.773
 3750TIP3    H111256   5.708   5.756   0.849
 3750TIP3    H211257   5.838   5.702   0.793
 3751TIP3   OH211258   0.461   3.871   2.108
 3751TIP3    H111259   0.505   3.849   2.025
 3751TIP3    H211260   0.389   3.809   2.114
 3752TIP3   OH211261   4.373   2.467   3.336
 3752TIP3    H111262   4.349   2.501   3.422
 3752TIP3    H211263   4.457   2.509   3.317
 3753TIP3   OH211264   1.625   2.966   3.444
 3753TIP3    H111265   1.670   2.944   3.362
 3753TIP3    H211266   1.685   3.026   3.489
 3754TIP3   OH211267   4.599   3.273   4.172
 3754TIP3    H111268   4.517   3.229   4.192
 3754TIP3    H211269   4.574   3.361   4.145
 3755TIP3   OH211270   1.224   1.644   2.265
 3755TIP3    H111271   1.160   1.706   2.300
 3755TIP3    H211272   1.281   1.697   2.209
 3756TIP3   OH211273   5.471   4.619   4.573
 3756TIP3    H111274   5.464   4.526   4.551
 3756TIP3    H211275   5.526   4.655   4.504
 3757TIP3   OH211276   3.509   4.558   0.488
 3757TIP3    H111277   3.565   4.481   0.495
 3757TIP3    H211278   3.489   4.565   0.394
 3758TIP3   OH211279   6.292   4.820   1.785
 3758TIP3    H111280   6.272   4.895   1.842
 3758TIP3    H211281   6.349   4.764   1.838
 3759TIP3   OH211282   4.002   5.525   2.733
 3759TIP3    H111283   4.075   5.477   2.772
 3759TIP3    H211284   3.935   5.526   2.801
 3760TIP3   OH211285   3.107   2.503   3.635
 3760TIP3    H111286   3.067   2.589   3.622
 3760TIP3    H211287   3.119   2.496   3.730
 3761TIP3   OH211288   3.438   0.414   2.341
 3761TIP3    H111289   3.480   0.490   2.300
 3761TIP3    H211290   3.391   0.371   2.270
 3762TIP3   OH211291   4.792   5.661   3.678
 3762TIP3    H111292   4.761   5.748   3.702
 3762TIP3    H211293   4.844   5.675   3.599
 3763TIP3   OH211294   2.898   0.313   2.765
 3763TIP3    H111295   2.894   0.390   2.822
 3763TIP3    H211296   2.884   0.239   2.824
 3764TIP3   OH211297   1.965   2.313   3.327
 3764TIP3    H111298   1.972   2.289   3.419
 3764TIP3    H211299   2.055   2.332   3.300
 3765TIP3   OH211300   1.353   1.694   4.323
 3765TIP3    H111301   1.418   1.763   4.339
 3765TIP3    H211302   1.282   1.713   4.383
 3766TIP3   OH211303   1.054   5.695   0.558
 3766TIP3    H111304   1.133   5.724   0.604
 3766TIP3    H211305   1.003   5.650   0.625
 3767TIP3   OH211306   4.891   5.915   4.249
 3767TIP3    H111307   4.949   5.910   4.326
 3767TIP3    H211308   4.863   6.006   4.246
 3768TIP3   OH211309   5.494   2.818   4.521
 3768TIP3    H111310   5.498   2.728   4.489
 3768TIP3    H211311   5.408   2.826   4.560
 3769TIP3   OH211312   5.346   4.528   4.223
 3769TIP3    H111313   5.276   4.496   4.166
 3769TIP3    H211314   5.349   4.464   4.294
 3770TIP3   OH211315   5.947   4.186   1.861
 3770TIP3    H111316   5.968   4.186   1.955
 3770TIP3    H211317   5.988   4.266   1.828
 3771TIP3   OH211318   1.653   1.868   4.720
 3771TIP3    H111319   1.723   1.881   4.656
 3771TIP3    H211320   1.634   1.956   4.752
 3772TIP3   OH211321   5.105   4.766   1.005
 3772TIP3    H111322   5.194   4.732   1.012
 3772TIP3    H211323   5.111   4.857   1.036
 3773TIP3   OH211324   5.336   2.968   2.046
 3773TIP3    H111325   5.358   2.980   2.138
 3773TIP3    H211326   5.371   2.881   2.024
 3774TIP3   OH211327   0.830   1.631   4.141
 3774TIP3    H111328   0.842   1.561   4.205
 3774TIP3    H211329   0.769   1.692   4.183
 3775TIP3   OH211330   1.008   5.487   3.827
 3775TIP3    H111331   1.086   5.434   3.810
 3775TIP3    H211332   0.994   5.479   3.921
 3776TIP3   OH211333   1.271   2.160   1.181
 3776TIP3    H111334   1.177   2.180   1.185
 3776TIP3    H211335   1.307   2.197   1.261
 3777TIP3   OH211336   0.153   2.586   1.038
 3777TIP3    H111337   0.095   2.625   1.103
 3777TIP3    H211338   0.138   2.638   0.958
 3778TIP3   OH211339   6.129   4.297   5.023
 3778TIP3    H111340   6.158   4.233   4.959
 3778TIP3    H211341   6.112   4.376   4.973
 3779TIP3   OH211342   6.223   0.094   5.130
 3779TIP3    H111343   6.220   0.028   5.061
 3779TIP3    H211344   6.298   0.069   5.183
 3780TIP3   OH211345   1.401   2.573   4.192
 3780TIP3    H111346   1.385   2.618   4.109
 3780TIP3    H211347   1.491   2.541   4.185
 3781TIP3   OH211348   3.884   4.000   3.062
 3781TIP3    H111349   3.814   3.947   3.024
 3781TIP3    H211350   3.904   4.065   2.995
 3782TIP3   OH211351   5.528   3.110   1.608
 3782TIP3    H111352   5.551   3.129   1.517
 3782TIP3    H211353   5.478   3.029   1.604
 3783TIP3   OH211354   0.162   1.390   0.607
 3783TIP3    H111355   0.120   1.385   0.693
 3783TIP3    H211356   0.097   1.355   0.546
 3784TIP3   OH211357   0.312   3.765   0.361
 3784TIP3    H111358   0.296   3.842   0.415
 3784TIP3    H211359   0.240   3.765   0.297
 3785TIP3   OH211360   1.731   5.738   4.259
 3785TIP3    H111361   1.726   5.757   4.166
 3785TIP3    H211362   1.647   5.768   4.294
 3786TIP3   OH211363   4.574   2.706   1.776
 3786TIP3    H111364   4.479   2.713   1.767
 3786TIP3    H211365   4.586   2.654   1.856
 3787TIP3   OH211366   3.896   5.370   1.473
 3787TIP3    H111367   3.870   5.385   1.382
 3787TIP3    H211368   3.945   5.449   1.497
 3788TIP3   OH211369   3.468   4.591   3.853
 3788TIP3    H111370   3.561   4.604   3.873
 3788TIP3    H211371   3.466   4.512   3.800
 3789TIP3   OH211372   0.352   1.615   0.315
 3789TIP3    H111373   0.402   1.542   0.277
 3789TIP3    H211374   0.260   1.592   0.298
 3790TIP3   OH211375   2.667   5.509   1.990
 3790TIP3    H111376   2.643   5.601   1.991
 3790TIP3    H211377   2.761   5.508   2.005
 3791TIP3   OH211378   5.302   5.639   4.392
 3791TIP3    H111379   5.225   5.599   4.432
 3791TIP3    H211380   5.268   5.685   4.315
 3792TIP3   OH211381   2.207   1.053   4.566
 3792TIP3    H111382   2.233   1.046   4.475
 3792TIP3    H211383   2.129   1.109   4.564
 3793TIP3   OH211384   5.881   1.735   1.135
 3793TIP3    H111385   5.948   1.705   1.073
 3793TIP3    H211386   5.883   1.830   1.127
 3794TIP3   OH211387   1.673   5.832   3.527
 3794TIP3    H111388   1.670   5.875   3.442
 3794TIP3    H211389   1.621   5.888   3.584
 3795TIP3   OH211390   5.939   0.796   0.175
 3795TIP3    H111391   6.009   0.825   0.117
 3795TIP3    H211392   5.890   0.732   0.123
 3796TIP3   OH211393   6.056   3.256   2.769
 3796TIP3    H111394   5.965   3.252   2.797
 3796TIP3    H211395   6.104   3.207   2.836
 3797TIP3   OH211396   5.245   4.723   3.745
 3797TIP3    H111397   5.216   4.788   3.809
 3797TIP3    H211398   5.281   4.776   3.673
 3798TIP3   OH211399   4.400   0.084   4.731
 3798TIP3    H111400   4.350   0.059   4.653
 3798TIP3    H211401   4.351   0.047   4.804
 3799TIP3   OH211402   6.291   3.970   2.815
 3799TIP3    H111403   6.242   3.978   2.897
 3799TIP3    H211404   6.343   3.890   2.825
 3800TIP3   OH211405   5.559   4.053   3.957
 3800TIP3    H111406   5.487   4.082   4.013
 3800TIP3    H211407   5.531   4.075   3.869
 3801TIP3   OH211408   0.944   4.890   5.175
 3801TIP3    H111409   0.982   4.874   5.088
 3801TIP3    H211410   0.861   4.935   5.156
 3802TIP3   OH211411   6.249   2.456   0.210
 3802TIP3    H111412   6.333   2.468   0.255
 3802TIP3    H211413   6.209   2.543   0.210
 3803TIP3   OH211414   2.515   1.148   2.248
 3803TIP3    H111415   2.595   1.119   2.205
 3803TIP3    H211416   2.445   1.103   2.200
 3804TIP3   OH211417   0.472   3.884   4.074
 3804TIP3    H111418   0.479   3.879   3.979
 3804TIP3    H211419   0.556   3.852   4.106
 3805TIP3   OH211420   1.095   4.203   1.857
 3805TIP3    H111421   1.172   4.236   1.812
 3805TIP3    H211422   1.034   4.180   1.787
 3806TIP3   OH211423   1.832   2.619   0.570
 3806TIP3    H111424   1.862   2.658   0.652
 3806TIP3    H211425   1.891   2.544   0.556
 3807TIP3   OH211426   3.853   4.755   1.085
 3807TIP3    H111427   3.916   4.824   1.063
 3807TIP3    H211428   3.882   4.679   1.033
 3808TIP3   OH211429   5.977   4.254   3.889
 3808TIP3    H111430   5.908   4.257   3.823
 3808TIP3    H211431   5.982   4.343   3.923
 3809TIP3   OH211432   3.364   4.513   4.611
 3809TIP3    H111433   3.326   4.444   4.558
 3809TIP3    H211434   3.292   4.542   4.668
 3810TIP3   OH211435   4.700   1.939   3.145
 3810TIP3    H111436   4.785   1.974   3.117
 3810TIP3    H211437   4.636   1.987   3.093
 3811TIP3   OH211438   2.831   0.996   1.696
 3811TIP3    H111439   2.832   0.904   1.720
 3811TIP3    H211440   2.919   1.012   1.661
 3812TIP3   OH211441   4.019   0.165   0.876
 3812TIP3    H111442   4.017   0.261   0.867
 3812TIP3    H211443   4.014   0.150   0.971
 3813TIP3   OH211444   0.313   5.433   4.625
 3813TIP3    H111445   0.320   5.515   4.675
 3813TIP3    H211446   0.230   5.441   4.579
 3814TIP3   OH211447   5.797   1.321   4.025
 3814TIP3    H111448   5.799   1.228   4.006
 3814TIP3    H211449   5.715   1.353   3.985
 3815TIP3   OH211450   1.303   5.023   5.071
 3815TIP3    H111451   1.379   5.035   5.013
 3815TIP3    H211452   1.340   5.030   5.159
 3816TIP3   OH211453   0.773   4.525   4.376
 3816TIP3    H111454   0.715   4.452   4.355
 3816TIP3    H211455   0.816   4.500   4.458
 3817TIP3   OH211456   5.603   3.577   2.118
 3817TIP3    H111457   5.583   3.497   2.069
 3817TIP3    H211458   5.697   3.590   2.106
 3818TIP3   OH211459   3.398   1.376   0.773
 3818TIP3    H111460   3.426   1.390   0.683
 3818TIP3    H211461   3.478   1.383   0.825
 3819TIP3   OH211462   0.060   4.709   4.293
 3819TIP3    H111463   0.053   4.691   4.199
 3819TIP3    H211464   0.131   4.653   4.324
 3820TIP3   OH211465   1.992   1.101   1.853
 3820TIP3    H111466   2.040   1.079   1.774
 3820TIP3    H211467   1.922   1.036   1.858
 3821TIP3   OH211468   0.277   4.299   1.434
 3821TIP3    H111469   0.251   4.215   1.472
 3821TIP3    H211470   0.344   4.276   1.369
 3822TIP3   OH211471   4.016   0.141   4.976
 3822TIP3    H111472   3.928   0.176   4.992
 3822TIP3    H211473   4.067   0.216   4.947
 3823TIP3   OH211474   5.096   2.712   2.956
 3823TIP3    H111475   5.078   2.618   2.956
 3823TIP3    H211476   5.047   2.746   2.882
 3824TIP3   OH211477   5.812   3.496   1.025
 3824TIP3    H111478   5.778   3.422   0.974
 3824TIP3    H211479   5.751   3.568   1.005
 3825TIP3   OH211480   2.317   4.533   2.259
 3825TIP3    H111481   2.367   4.469   2.207
 3825TIP3    H211482   2.323   4.614   2.208
 3826TIP3   OH211483   1.230   5.500   1.360
 3826TIP3    H111484   1.252   5.423   1.308
 3826TIP3    H211485   1.310   5.553   1.359
 3827TIP3   OH211486   1.773   4.345   3.894
 3827TIP3    H111487   1.833   4.286   3.848
 3827TIP3    H211488   1.776   4.426   3.843
 3828TIP3   OH211489   0.006   2.103   3.743
 3828TIP3    H111490   0.045   2.139   3.664
 3828TIP3    H211491   0.006   2.008   3.728
 3829TIP3   OH211492   3.113   2.456   2.346
 3829TIP3    H111493   3.030   2.472   2.301
 3829TIP3    H211494   3.089   2.409   2.425
 3830TIP3   OH211495   3.753   2.294   4.598
 3830TIP3    H111496   3.774   2.329   4.684
 3830TIP3    H211497   3.659   2.275   4.602
 3831TIP3   OH211498   5.837   1.477   2.903
 3831TIP3    H111499   5.912   1.502   2.848
 3831TIP3    H211500   5.849   1.383   2.917
 3832TIP3   OH211501   5.283   0.023   1.424
 3832TIP3    H111502   5.194  -0.011   1.412
 3832TIP3    H211503   5.313  -0.018   1.505
 3833TIP3   OH211504   0.740   1.202   1.152
 3833TIP3    H111505   0.655   1.159   1.145
 3833TIP3    H211506   0.798   1.136   1.190
 3834TIP3   OH211507   5.435   0.414   0.355
 3834TIP3    H111508   5.519   0.400   0.399
 3834TIP3    H211509   5.440   0.363   0.275
 3835TIP3   OH211510   0.723   5.590   1.739
 3835TIP3    H111511   0.706   5.673   1.695
 3835TIP3    H211512   0.816   5.573   1.724
 3836TIP3   OH211513   6.304   0.314   1.908
 3836TIP3    H111514   6.362   0.357   1.971
 3836TIP3    H211515   6.349   0.324   1.824
 3837TIP3   OH211516   6.105   0.530   3.328
 3837TIP3    H111517   6.146   0.522   3.242
 3837TIP3    H211518   6.177   0.551   3.387
 3838TIP3   OH211519   2.981   3.418   1.496
 3838TIP3    H111520   3.000   3.363   1.572
 3838TIP3    H211521   2.887   3.408   1.481
 3839TIP3   OH211522   1.693   5.486   4.973
 3839TIP3    H111523   1.697   5.576   5.007
 3839TIP3    H211524   1.777   5.447   4.998
 3840TIP3   OH211525   5.284   5.372   0.339
 3840TIP3    H111526   5.361   5.356   0.283
 3840TIP3    H211527   5.266   5.465   0.328
 3841TIP3   OH211528   0.476   4.142   2.026
 3841TIP3    H111529   0.430   4.060   2.046
 3841TIP3    H211530   0.431   4.208   2.079
 3842TIP3   OH211531   4.940   4.588   4.473
 3842TIP3    H111532   4.982   4.617   4.554
 3842TIP3    H211533   4.976   4.501   4.457
 3843TIP3   OH211534   3.607   1.516   1.480
 3843TIP3    H111535   3.657   1.449   1.527
 3843TIP3    H211536   3.605   1.485   1.389
 3844TIP3   OH211537   1.558   5.638   2.695
 3844TIP3    H111538   1.601   5.633   2.609
 3844TIP3    H211539   1.478   5.688   2.679
 3845TIP3   OH211540   5.733   0.877   0.368
 3845TIP3    H111541   5.775   0.944   0.421
 3845TIP3    H211542   5.802   0.847   0.308
 3846TIP3   OH211543   4.165   0.490   0.621
 3846TIP3    H111544   4.198   0.463   0.535
 3846TIP3    H211545   4.229   0.554   0.652
 3847TIP3   OH211546   0.067   0.554   4.060
 3847TIP3    H111547   0.147   0.522   4.019
 3847TIP3    H211548   0.041   0.628   4.005
 3848TIP3   OH211549   3.437   1.094   0.464
 3848TIP3    H111550   3.458   1.118   0.373
 3848TIP3    H211551   3.342   1.101   0.469
 3849TIP3   OH211552   4.251   2.761   1.254
 3849TIP3    H111553   4.285   2.672   1.268
 3849TIP3    H211554   4.212   2.758   1.167
 3850TIP3   OH211555   3.178   3.851   3.767
 3850TIP3    H111556   3.186   3.942   3.797
 3850TIP3    H211557   3.261   3.834   3.722
 3851TIP3   OH211558   5.295   2.220   0.065
 3851TIP3    H111559   5.270   2.131   0.041
 3851TIP3    H211560   5.233   2.276   0.018
 3852TIP3   OH211561   0.764   2.768   1.432
 3852TIP3    H111562   0.681   2.724   1.445
 3852TIP3    H211563   0.745   2.841   1.373
 3853TIP3   OH211564   6.093   1.081   3.027
 3853TIP3    H111565   6.073   1.113   3.115
 3853TIP3    H211566   6.096   0.986   3.035
 3854TIP3   OH211567   1.745   0.921   3.405
 3854TIP3    H111568   1.742   1.016   3.407
 3854TIP3    H211569   1.653   0.894   3.410
 3855TIP3   OH211570   5.166   1.337   0.222
 3855TIP3    H111571   5.088   1.318   0.275
 3855TIP3    H211572   5.135   1.399   0.156
 3856TIP3   OH211573   2.962   3.208   3.842
 3856TIP3    H111574   3.022   3.140   3.813
 3856TIP3    H211575   2.950   3.265   3.765
 3857TIP3   OH211576   2.669   1.372   4.010
 3857TIP3    H111577   2.596   1.357   3.950
 3857TIP3    H211578   2.639   1.442   4.068
 3858TIP3   OH211579   0.292   3.974   0.929
 3858TIP3    H111580   0.273   3.889   0.969
 3858TIP3    H211581   0.220   3.989   0.868
 3859TIP3   OH211582   1.760   4.622   3.754
 3859TIP3    H111583   1.846   4.634   3.794
 3859TIP3    H211584   1.734   4.710   3.727
 3860TIP3   OH211585   3.807   3.378   0.891
 3860TIP3    H111586   3.851   3.448   0.939
 3860TIP3    H211587   3.857   3.299   0.912
 3861TIP3   OH211588   1.835   3.897   4.102
 3861TIP3    H111589   1.848   3.867   4.192
 3861TIP3    H211590   1.755   3.949   4.106
 3862TIP3   OH211591   5.656   3.362   3.606
 3862TIP3    H111592   5.642   3.384   3.698
 3862TIP3    H211593   5.576   3.393   3.562
 3863TIP3   OH211594   4.382   1.665   2.307
 3863TIP3    H111595   4.476   1.665   2.323
 3863TIP3    H211596   4.365   1.748   2.263
 3864TIP3   OH211597   3.061   2.136   3.251
 3864TIP3    H111598   2.984   2.176   3.211
 3864TIP3    H211599   3.048   2.042   3.238
 3865TIP3   OH211600   1.715   1.342   2.527
 3865TIP3    H111601   1.717   1.247   2.512
 3865TIP3    H211602   1.623   1.366   2.518
 3866TIP3   OH211603   0.790   5.254   0.814
 3866TIP3    H111604   0.758   5.332   0.860
 3866TIP3    H211605   0.812   5.192   0.883
 3867TIP3   OH211606   1.469   5.729   0.143
 3867TIP3    H111607   1.563   5.716   0.130
 3867TIP3    H211608   1.441   5.652   0.192
 3868TIP3   OH211609   0.891   3.139   2.286
 3868TIP3    H111610   0.823   3.169   2.225
 3868TIP3    H211611   0.965   3.197   2.271
 3869TIP3   OH211612   6.189   2.218   0.966
 3869TIP3    H111613   6.201   2.262   1.049
 3869TIP3    H211614   6.101   2.180   0.971
 3870TIP3   OH211615   0.781   3.383   3.604
 3870TIP3    H111616   0.714   3.445   3.577
 3870TIP3    H211617   0.864   3.427   3.584
 3871TIP3   OH211618   2.723   2.777   3.481
 3871TIP3    H111619   2.705   2.684   3.467
 3871TIP3    H211620   2.695   2.819   3.399
 3872TIP3   OH211621   1.871   4.554   2.397
 3872TIP3    H111622   1.829   4.535   2.481
 3872TIP3    H211623   1.807   4.529   2.332
 3873TIP3   OH211624   1.960   2.776   1.338
 3873TIP3    H111625   2.048   2.745   1.317
 3873TIP3    H211626   1.911   2.771   1.255
 3874TIP3   OH211627   5.251   5.256   4.556
 3874TIP3    H111628   5.222   5.199   4.627
 3874TIP3    H211629   5.172   5.302   4.528
 3875TIP3   OH211630   0.807   5.723   1.507
 3875TIP3    H111631   0.865   5.682   1.443
 3875TIP3    H211632   0.824   5.817   1.498
 3876TIP3   OH211633   1.703   4.355   2.935
 3876TIP3    H111634   1.623   4.330   2.889
 3876TIP3    H211635   1.774   4.333   2.875
 3877TIP3   OH211636   3.753   5.120   3.637
 3877TIP3    H111637   3.825   5.170   3.675
 3877TIP3    H211638   3.675   5.150   3.684
 3878TIP3   OH211639   4.349   2.320   2.597
 3878TIP3    H111640   4.412   2.255   2.628
 3878TIP3    H211641   4.371   2.400   2.645
 3879TIP3   OH211642   3.531   4.582   3.350
 3879TIP3    H111643   3.582   4.504   3.330
 3879TIP3    H211644   3.445   4.549   3.376
 3880TIP3   OH211645   3.175   3.152   2.782
 3880TIP3    H111646   3.109   3.104   2.733
 3880TIP3    H211647   3.192   3.230   2.729
 3881TIP3   OH211648   1.541   1.369   0.460
 3881TIP3    H111649   1.565   1.315   0.535
 3881TIP3    H211650   1.570   1.320   0.384
 3882TIP3   OH211651   3.230   3.603   0.492
 3882TIP3    H111652   3.170   3.672   0.519
 3882TIP3    H211653   3.227   3.605   0.396
 3883TIP3   OH211654   0.355   5.511   0.425
 3883TIP3    H111655   0.322   5.597   0.400
 3883TIP3    H211656   0.293   5.449   0.386
 3884TIP3   OH211657   0.412   4.002   2.385
 3884TIP3    H111658   0.445   3.957   2.463
 3884TIP3    H211659   0.459   3.961   2.312
 3885TIP3   OH211660   0.116   5.031   0.124
 3885TIP3    H111661   0.152   5.024   0.036
 3885TIP3    H211662   0.073   4.946   0.139
 3886TIP3   OH211663   2.586   3.313   2.942
 3886TIP3    H111664   2.577   3.404   2.969
 3886TIP3    H211665   2.654   3.277   2.999
 3887TIP3   OH211666   2.750   2.264   4.315
 3887TIP3    H111667   2.667   2.264   4.268
 3887TIP3    H211668   2.790   2.348   4.292
 3888TIP3   OH211669   3.674   2.623   1.576
 3888TIP3    H111670   3.592   2.660   1.542
 3888TIP3    H211671   3.683   2.539   1.531
 3889TIP3   OH211672   5.626   2.648   1.584
 3889TIP3    H111673   5.531   2.652   1.589
 3889TIP3    H211674   5.644   2.619   1.494
 3890TIP3   OH211675   5.397   1.200   0.188
 3890TIP3    H111676   5.418   1.137   0.257
 3890TIP3    H211677   5.308   1.228   0.207
 3891TIP3   OH211678   5.062   1.298   1.414
 3891TIP3    H111679   5.029   1.218   1.373
 3891TIP3    H211680   4.984   1.340   1.450
 3892TIP3   OH211681   5.674   2.680   1.883
 3892TIP3    H111682   5.725   2.745   1.931
 3892TIP3    H211683   5.694   2.697   1.791
 3893TIP3   OH211684   5.300   1.848   4.208
 3893TIP3    H111685   5.368   1.857   4.274
 3893TIP3    H211686   5.255   1.933   4.207
 3894TIP3   OH211687   0.917   1.900   3.751
 3894TIP3    H111688   0.862   1.823   3.737
 3894TIP3    H211689   0.865   1.974   3.719
 3895TIP3   OH211690   5.612   3.745   2.665
 3895TIP3    H111691   5.577   3.666   2.623
 3895TIP3    H211692   5.704   3.746   2.642
 3896TIP3   OH211693   3.413   3.119   2.525
 3896TIP3    H111694   3.497   3.082   2.552
 3896TIP3    H211695   3.397   3.082   2.439
 3897TIP3   OH211696   3.145   4.218   5.170
 3897TIP3    H111697   3.208   4.283   5.139
 3897TIP3    H211698   3.067   4.232   5.116
 3898TIP3   OH211699   2.435   0.848   3.796
 3898TIP3    H111700   2.516   0.896   3.816
 3898TIP3    H211701   2.390   0.904   3.733
 3899TIP3   OH211702   6.049   4.726   5.105
 3899TIP3    H111703   5.967   4.680   5.125
 3899TIP3    H211704   6.114   4.685   5.162
 3900TIP3   OH211705   4.902   4.007   1.878
 3900TIP3    H111706   4.845   4.084   1.872
 3900TIP3    H211707   4.991   4.044   1.876
 3901TIP3   OH211708   4.531   2.096   0.545
 3901TIP3    H111709   4.572   2.065   0.625
 3901TIP3    H211710   4.438   2.103   0.566
 3902TIP3   OH211711   6.043   3.757   3.141
 3902TIP3    H111712   6.004   3.715   3.217
 3902TIP3    H211713   6.103   3.691   3.106
 3903TIP3   OH211714   5.343   2.496   1.270
 3903TIP3    H111715   5.395   2.466   1.195
 3903TIP3    H211716   5.338   2.420   1.328
 3904TIP3   OH211717   2.250   0.492   0.643
 3904TIP3    H111718   2.156   0.491   0.622
 3904TIP3    H211719   2.254   0.499   0.738
 3905TIP3   OH211720   1.664   5.049   0.902
 3905TIP3    H111721   1.623   5.021   0.984
 3905TIP3    H211722   1.676   5.143   0.911
 3906TIP3   OH211723   5.270   1.469   2.543
 3906TIP3    H111724   5.326   1.450   2.619
 3906TIP3    H211725   5.283   1.395   2.484
 3907TIP3   OH211726   0.741   3.595   1.561
 3907TIP3    H111727   0.806   3.578   1.628
 3907TIP3    H211728   0.737   3.691   1.556
 3908TIP3   OH211729   2.503   0.314   2.153
 3908TIP3    H111730   2.494   0.407   2.132
 3908TIP3    H211731   2.597   0.300   2.158
 3909TIP3   OH211732   4.901   2.888   0.595
 3909TIP3    H111733   4.817   2.900   0.640
 3909TIP3    H211734   4.895   2.945   0.518
 3910TIP3   OH211735   4.105   3.850   0.284
 3910TIP3    H111736   4.123   3.760   0.312
 3910TIP3    H211737   4.024   3.843   0.232
 3911TIP3   OH211738   5.556   5.908   1.476
 3911TIP3    H111739   5.523   5.978   1.532
 3911TIP3    H211740   5.625   5.951   1.425
 3912TIP3   OH211741   0.761   2.862   1.693
 3912TIP3    H111742   0.687   2.911   1.658
 3912TIP3    H211743   0.756   2.776   1.650
 3913TIP3   OH211744   3.942   1.386   0.997
 3913TIP3    H111745   3.860   1.403   0.950
 3913TIP3    H211746   3.914   1.347   1.080
 3914TIP3   OH211747   5.686   1.215   2.831
 3914TIP3    H111748   5.719   1.228   2.742
 3914TIP3    H211749   5.696   1.121   2.847
 3915TIP3   OH211750   3.197   0.704   1.504
 3915TIP3    H111751   3.102   0.689   1.499
 3915TIP3    H211752   3.205   0.788   1.549
 3916TIP3   OH211753   4.145   3.568   1.856
 3916TIP3    H111754   4.205   3.581   1.929
 3916TIP3    H211755   4.168   3.637   1.793
 3917TIP3   OH211756   0.311   3.372   1.601
 3917TIP3    H111757   0.352   3.366   1.515
 3917TIP3    H211758   0.381   3.399   1.660
 3918TIP3   OH211759   1.249   0.127   1.668
 3918TIP3    H111760   1.298   0.119   1.750
 3918TIP3    H211761   1.274   0.212   1.633
 3919TIP3   OH211762   2.819   5.916   4.369
 3919TIP3    H111763   2.856   5.861   4.301
 3919TIP3    H211764   2.766   5.857   4.422
 3920TIP3   OH211765   1.676   5.592   2.435
 3920TIP3    H111766   1.671   5.604   2.340
 3920TIP3    H211767   1.607   5.529   2.455
 3921TIP3   OH211768   2.811   1.951   0.286
 3921TIP3    H111769   2.790   2.024   0.229
 3921TIP3    H211770   2.781   1.873   0.238
 3922TIP3   OH211771   4.030   2.026   2.233
 3922TIP3    H111772   4.000   2.054   2.320
 3922TIP3    H211773   4.126   2.026   2.240
 3923TIP3   OH211774   1.089   5.197   0.934
 3923TIP3    H111775   1.139   5.118   0.951
 3923TIP3    H211776   1.099   5.212   0.839
 3924TIP3   OH211777   5.586   5.320   2.323
 3924TIP3    H111778   5.507   5.266   2.318
 3924TIP3    H211779   5.648   5.267   2.373
 3925TIP3   OH211780   3.394   1.515   3.349
 3925TIP3    H111781   3.410   1.572   3.425
 3925TIP3    H211782   3.430   1.431   3.375
 3926TIP3   OH211783   5.385   3.260   1.104
 3926TIP3    H111784   5.431   3.184   1.071
 3926TIP3    H211785   5.336   3.294   1.029
 3927TIP3   OH211786   5.991   3.392   1.833
 3927TIP3    H111787   6.020   3.473   1.873
 3927TIP3    H211788   5.938   3.419   1.758
 3928TIP3   OH211789   5.311   2.945   1.340
 3928TIP3    H111790   5.308   2.851   1.358
 3928TIP3    H211791   5.225   2.965   1.304
 3929TIP3   OH211792   6.314   1.262   0.466
 3929TIP3    H111793   6.231   1.309   0.456
 3929TIP3    H211794   6.304   1.183   0.414
 3930TIP3   OH211795   3.315   4.002   0.491
 3930TIP3    H111796   3.329   3.991   0.397
 3930TIP3    H211797   3.238   4.058   0.497
 3931TIP3   OH211798   3.815   0.538   1.373
 3931TIP3    H111799   3.872   0.615   1.365
 3931TIP3    H211800   3.858   0.471   1.320
 3932TIP3   OH211801   1.499   0.455   3.915
 3932TIP3    H111802   1.467   0.510   3.844
 3932TIP3    H211803   1.591   0.439   3.893
 3933TIP3   OH211804   3.351   3.183   0.793
 3933TIP3    H111805   3.418   3.125   0.828
 3933TIP3    H211806   3.388   3.271   0.801
 3934TIP3   OH211807   2.821   3.219   3.074
 3934TIP3    H111808   2.843   3.135   3.035
 3934TIP3    H211809   2.900   3.272   3.064
 3935TIP3   OH211810   1.688   2.001   0.189
 3935TIP3    H111811   1.738   2.030   0.265
 3935TIP3    H211812   1.706   1.907   0.183
 3936TIP3   OH211813   4.164   5.688   2.591
 3936TIP3    H111814   4.246   5.654   2.627
 3936TIP3    H211815   4.096   5.634   2.632
 3937TIP3   OH211816   4.738   2.339   2.492
 3937TIP3    H111817   4.831   2.359   2.503
 3937TIP3    H211818   4.737   2.247   2.465
 3938TIP3   OH211819   4.393   3.115   4.241
 3938TIP3    H111820   4.369   3.024   4.223
 3938TIP3    H211821   4.312   3.154   4.275
 3939TIP3   OH211822   0.317   1.506   3.514
 3939TIP3    H111823   0.373   1.464   3.580
 3939TIP3    H211824   0.265   1.569   3.563
 3940TIP3   OH211825   0.687   5.205   0.190
 3940TIP3    H111826   0.695   5.199   0.285
 3940TIP3    H211827   0.593   5.204   0.174
 3941TIP3   OH211828   4.370   3.536   0.020
 3941TIP3    H111829   4.389   3.611   0.076
 3941TIP3    H211830   4.295   3.564  -0.033
 3942TIP3   OH211831   2.737   4.636   1.877
 3942TIP3    H111832   2.785   4.570   1.926
 3942TIP3    H211833   2.762   4.622   1.786
 3943TIP3   OH211834   5.111   3.182   2.366
 3943TIP3    H111835   5.124   3.195   2.272
 3943TIP3    H211836   5.123   3.269   2.404
 3944TIP3   OH211837   6.294   4.688   2.984
 3944TIP3    H111838   6.299   4.743   2.906
 3944TIP3    H211839   6.272   4.601   2.951
 3945TIP3   OH211840   0.184   0.695   4.684
 3945TIP3    H111841   0.246   0.713   4.613
 3945TIP3    H211842   0.164   0.602   4.675
 3946TIP3   OH211843   4.557   1.410   3.508
 3946TIP3    H111844   4.623   1.472   3.476
 3946TIP3    H211845   4.528   1.363   3.430
 3947TIP3   OH211846   3.048   4.583   0.753
 3947TIP3    H111847   2.963   4.626   0.758
 3947TIP3    H211848   3.107   4.640   0.802
 3948TIP3   OH211849   1.660   2.929   3.953
 3948TIP3    H111850   1.614   2.848   3.930
 3948TIP3    H211851   1.700   2.910   4.038
 3949TIP3   OH211852   3.785   1.955   4.194
 3949TIP3    H111853   3.740   1.982   4.274
 3949TIP3    H211854   3.786   1.860   4.198
 3950TIP3   OH211855   5.580   4.095   4.875
 3950TIP3    H111856   5.585   4.000   4.874
 3950TIP3    H211857   5.657   4.123   4.825
 3951TIP3   OH211858   2.081   4.652   3.760
 3951TIP3    H111859   2.072   4.671   3.667
 3951TIP3    H211860   2.158   4.701   3.788
 3952TIP3   OH211861   0.506   1.720   1.715
 3952TIP3    H111862   0.447   1.657   1.757
 3952TIP3    H211863   0.453   1.799   1.705
 3953TIP3   OH211864   4.841   5.623   0.242
 3953TIP3    H111865   4.778   5.560   0.207
 3953TIP3    H211866   4.913   5.624   0.179
 3954TIP3   OH211867   0.488   1.234   3.451
 3954TIP3    H111868   0.471   1.264   3.361
 3954TIP3    H211869   0.439   1.152   3.458
 3955TIP3   OH211870   5.911   0.001   1.684
 3955TIP3    H111871   5.940   0.064   1.749
 3955TIP3    H211872   5.921   0.047   1.600
 3956TIP3   OH211873   0.228   3.129   4.159
 3956TIP3    H111874   0.250   3.036   4.158
 3956TIP3    H211875   0.148   3.136   4.108
 3957TIP3   OH211876   2.099   4.756   3.088
 3957TIP3    H111877   2.145   4.673   3.074
 3957TIP3    H211878   2.165   4.815   3.122
 3958TIP3   OH211879   2.629   2.526   2.826
 3958TIP3    H111880   2.558   2.534   2.890
 3958TIP3    H211881   2.709   2.525   2.880
 3959TIP3   OH211882   3.457   0.324   3.652
 3959TIP3    H111883   3.483   0.288   3.737
 3959TIP3    H211884   3.366   0.350   3.663
 3960TIP3   OH211885   5.010   3.063   4.950
 3960TIP3    H111886   5.066   2.988   4.930
 3960TIP3    H211887   4.936   3.025   4.997
 3961TIP3   OH211888   3.543   5.894   1.513
 3961TIP3    H111889   3.533   5.957   1.584
 3961TIP3    H211890   3.555   5.949   1.435
 3962TIP3   OH211891   2.349   2.244   0.329
 3962TIP3    H111892   2.401   2.164   0.335
 3962TIP3    H211893   2.281   2.223   0.264
 3963TIP3   OH211894   1.627   1.456   5.031
 3963TIP3    H111895   1.642   1.365   5.005
 3963TIP3    H211896   1.651   1.507   4.953
 3964TIP3   OH211897   2.841   3.359   1.912
 3964TIP3    H111898   2.796   3.440   1.935
 3964TIP3    H211899   2.770   3.299   1.887
 3965TIP3   OH211900   1.855   4.727   4.657
 3965TIP3    H111901   1.809   4.649   4.627
 3965TIP3    H211902   1.794   4.771   4.716
 3966TIP3   OH211903   6.095   1.760   2.895
 3966TIP3    H111904   6.132   1.835   2.848
 3966TIP3    H211905   6.137   1.684   2.855
 3967TIP3   OH211906   3.322   2.129   4.684
 3967TIP3    H111907   3.343   2.220   4.704
 3967TIP3    H211908   3.299   2.129   4.591
 3968TIP3   OH211909   5.652   3.829   4.895
 3968TIP3    H111910   5.704   3.821   4.815
 3968TIP3    H211911   5.712   3.803   4.966
 3969TIP3   OH211912   4.728   2.877   4.841
 3969TIP3    H111913   4.710   2.858   4.934
 3969TIP3    H211914   4.650   2.924   4.811
 3970TIP3   OH211915   3.921   0.315   4.080
 3970TIP3    H111916   3.851   0.282   4.137
 3970TIP3    H211917   3.911   0.263   3.999
 3971TIP3   OH211918   1.545   2.325   4.322
 3971TIP3    H111919   1.567   2.275   4.400
 3971TIP3    H211920   1.614   2.303   4.259
 3972TIP3   OH211921   6.065   0.611   4.309
 3972TIP3    H111922   6.022   0.689   4.272
 3972TIP3    H211923   5.998   0.571   4.364
 3973TIP3   OH211924   3.281   5.553   2.723
 3973TIP3    H111925   3.186   5.559   2.710
 3973TIP3    H211926   3.316   5.633   2.683
 3974TIP3   OH211927   1.987   3.573   0.339
 3974TIP3    H111928   1.949   3.497   0.295
 3974TIP3    H211929   1.979   3.553   0.432
 3975TIP3   OH211930   3.730   0.844   3.998
 3975TIP3    H111931   3.767   0.932   3.993
 3975TIP3    H211932   3.676   0.845   4.077
 3976TIP3   OH211933   2.142   1.910   2.431
 3976TIP3    H111934   2.144   1.869   2.345
 3976TIP3    H211935   2.167   2.001   2.414
 3977TIP3   OH211936   1.179   3.611   0.105
 3977TIP3    H111937   1.228   3.689   0.132
 3977TIP3    H211938   1.244   3.556   0.061
 3978TIP3   OH211939   6.045   3.500   0.504
 3978TIP3    H111940   5.949   3.497   0.505
 3978TIP3    H211941   6.071   3.410   0.481
 3979TIP3   OH211942   2.915   2.137   2.228
 3979TIP3    H111943   2.887   2.227   2.214
 3979TIP3    H211944   3.002   2.145   2.268
 3980TIP3   OH211945   4.287   3.737   4.071
 3980TIP3    H111946   4.290   3.705   3.980
 3980TIP3    H211947   4.355   3.686   4.116
 3981TIP3   OH211948   0.256   0.978   0.194
 3981TIP3    H111949   0.178   0.927   0.172
 3981TIP3    H211950   0.296   0.930   0.267
 3982TIP3   OH211951   2.483   0.265   0.284
 3982TIP3    H111952   2.455   0.337   0.340
 3982TIP3    H211953   2.554   0.302   0.231
 3983TIP3   OH211954   5.274   0.650   3.628
 3983TIP3    H111955   5.216   0.705   3.680
 3983TIP3    H211956   5.293   0.702   3.550
 3984TIP3   OH211957   3.730   0.300   0.469
 3984TIP3    H111958   3.676   0.265   0.539
 3984TIP3    H211959   3.787   0.364   0.512
 3985TIP3   OH211960   5.771   0.680   2.871
 3985TIP3    H111961   5.773   0.630   2.953
 3985TIP3    H211962   5.818   0.626   2.808
 3986TIP3   OH211963   1.361   5.838   4.893
 3986TIP3    H111964   1.311   5.813   4.971
 3986TIP3    H211965   1.349   5.764   4.834
 3987TIP3   OH211966   1.835   5.784   2.138
 3987TIP3    H111967   1.872   5.871   2.150
 3987TIP3    H211968   1.871   5.732   2.210
 3988TIP3   OH211969   4.453   0.612   1.546
 3988TIP3    H111970   4.527   0.558   1.571
 3988TIP3    H211971   4.445   0.676   1.617
 3989TIP3   OH211972   3.737   5.483   0.369
 3989TIP3    H111973   3.805   5.451   0.310
 3989TIP3    H211974   3.658   5.435   0.344
 3990TIP3   OH211975   4.965   2.367   1.713
 3990TIP3    H111976   4.907   2.347   1.640
 3990TIP3    H211977   4.957   2.292   1.772
 3991TIP3   OH211978   6.359   1.347   0.821
 3991TIP3    H111979   6.357   1.253   0.800
 3991TIP3    H211980   6.268   1.376   0.809
 3992TIP3   OH211981   0.798   3.601   3.131
 3992TIP3    H111982   0.706   3.614   3.152
 3992TIP3    H211983   0.826   3.683   3.089
 3993TIP3   OH211984   1.874   5.400   3.498
 3993TIP3    H111985   1.955   5.414   3.548
 3993TIP3    H211986   1.808   5.451   3.545
 3994TIP3   OH211987   2.440   2.400   4.983
 3994TIP3    H111988   2.407   2.312   4.963
 3994TIP3    H211989   2.361   2.454   4.990
 3995TIP3   OH211990   5.185   5.335   5.028
 3995TIP3    H111991   5.269   5.343   4.982
 3995TIP3    H211992   5.172   5.421   5.068
 3996TIP3   OH211993   4.741   4.760   0.226
 3996TIP3    H111994   4.825   4.803   0.242
 3996TIP3    H211995   4.737   4.692   0.293
 3997TIP3   OH211996   5.096   3.287   1.263
 3997TIP3    H111997   5.156   3.361   1.272
 3997TIP3    H211998   5.147   3.220   1.217
 3998TIP3   OH211999   0.798   0.388   0.151
 3998TIP3    H112000   0.730   0.405   0.086
 3998TIP3    H212001   0.870   0.446   0.126
 3999TIP3   OH212002   4.143   1.336   4.813
 3999TIP3    H112003   4.150   1.241   4.810
 3999TIP3    H212004   4.218   1.364   4.866
 4000TIP3   OH212005   4.445   4.272   2.061
 4000TIP3    H112006   4.358   4.281   2.023
 4000TIP3    H212007   4.464   4.178   2.055
 4001TIP3   OH212008   0.492   0.928   5.066
 4001TIP3    H112009   0.484   1.008   5.014
 4001TIP3    H212010   0.405   0.915   5.103
 4002TIP3   OH212011   4.051   2.828   3.063
 4002TIP3    H112012   4.129   2.876   3.036
 4002TIP3    H212013   3.986   2.847   2.995
 4003TIP3   OH212014   3.618   0.279   3.252
 4003TIP3    H112015   3.532   0.248   3.281
 4003TIP3    H212016   3.599   0.359   3.203
 4004TIP3   OH212017   0.806   5.895   0.038
 4004TIP3    H112018   0.814   5.850   0.123
 4004TIP3    H212019   0.738   5.960   0.052
 4005TIP3   OH212020   3.817   5.030   0.364
 4005TIP3    H112021   3.786   5.096   0.425
 4005TIP3    H212022   3.842   5.079   0.285
 4006TIP3   OH212023   2.658   0.345   3.052
 4006TIP3    H112024   2.575   0.352   3.006
 4006TIP3    H212025   2.637   0.363   3.144
 4007TIP3   OH212026   3.492   1.930   4.784
 4007TIP3    H112027   3.574   1.976   4.765
 4007TIP3    H212028   3.425   1.998   4.777
 4008TIP3   OH212029   0.263   1.204   2.619
 4008TIP3    H112030   0.182   1.173   2.581
 4008TIP3    H212031   0.257   1.300   2.615
 4009TIP3   OH212032   4.755   2.932   0.932
 4009TIP3    H112033   4.663   2.956   0.919
 4009TIP3    H212034   4.794   3.009   0.974
 4010TIP3   OH212035   0.665   2.994   1.239
 4010TIP3    H112036   0.660   3.070   1.182
 4010TIP3    H212037   0.600   2.933   1.204
 4011TIP3   OH212038   5.045   4.679   3.467
 4011TIP3    H112039   5.133   4.650   3.492
 4011TIP3    H212040   5.026   4.751   3.527
 4012TIP3   OH212041   0.141   4.551   5.068
 4012TIP3    H112042   0.159   4.524   4.978
 4012TIP3    H212043   0.203   4.623   5.084
 4013TIP3   OH212044   0.054   2.305   1.161
 4013TIP3    H112045   0.097   2.344   1.237
 4013TIP3    H212046   0.122   2.253   1.118
 4014TIP3   OH212047   5.547   5.748   2.691
 4014TIP3    H112048   5.472   5.760   2.634
 4014TIP3    H212049   5.621   5.786   2.643
 4015TIP3   OH212050   5.811   4.203   1.566
 4015TIP3    H112051   5.840   4.290   1.538
 4015TIP3    H212052   5.850   4.191   1.652
 4016TIP3   OH212053   1.516   2.559   2.416
 4016TIP3    H112054   1.516   2.468   2.447
 4016TIP3    H212055   1.609   2.583   2.411
 4017TIP3   OH212056   2.041   3.991   3.197
 4017TIP3    H112057   1.987   3.912   3.206
 4017TIP3    H212058   2.120   3.972   3.248
 4018TIP3   OH212059   3.994   0.845   4.744
 4018TIP3    H112060   4.048   0.767   4.737
 4018TIP3    H212061   3.912   0.814   4.784
 4019TIP3   OH212062   3.306   3.065   1.874
 4019TIP3    H112063   3.216   3.050   1.846
 4019TIP3    H212064   3.313   3.160   1.882
 4020TIP3   OH212065   0.443   0.511   3.660
 4020TIP3    H112066   0.472   0.564   3.734
 4020TIP3    H212067   0.350   0.495   3.677
 4021TIP3   OH212068   4.373   3.275   2.980
 4021TIP3    H112069   4.374   3.338   3.052
 4021TIP3    H212070   4.403   3.325   2.904
 4022TIP3   OH212071   0.262   4.363   3.846
 4022TIP3    H112072   0.295   4.305   3.778
 4022TIP3    H212073   0.225   4.303   3.912
 4023TIP3   OH212074   5.420   4.489   3.734
 4023TIP3    H112075   5.440   4.454   3.821
 4023TIP3    H212076   5.371   4.569   3.750
 4024TIP3   OH212077   0.833   1.417   2.971
 4024TIP3    H112078   0.787   1.463   3.041
 4024TIP3    H212079   0.800   1.456   2.890
 4025TIP3   OH212080   6.047   3.456   1.543
 4025TIP3    H112081   6.039   3.544   1.581
 4025TIP3    H212082   6.116   3.464   1.477
 4026TIP3   OH212083   6.305   4.747   2.679
 4026TIP3    H112084   6.229   4.769   2.625
 4026TIP3    H212085   6.378   4.746   2.617
 4027TIP3   OH212086   0.569   1.356   1.393
 4027TIP3    H112087   0.504   1.293   1.362
 4027TIP3    H212088   0.537   1.382   1.480
 4028TIP3   OH212089   3.816   5.462   5.059
 4028TIP3    H112090   3.818   5.454   4.964
 4028TIP3    H212091   3.844   5.376   5.091
 4029TIP3   OH212092   3.836   3.176   3.292
 4029TIP3    H112093   3.794   3.109   3.239
 4029TIP3    H212094   3.807   3.157   3.382
 4030TIP3   OH212095   3.010   3.192   1.311
 4030TIP3    H112096   3.010   3.276   1.357
 4030TIP3    H212097   2.983   3.213   1.222
 4031TIP3   OH212098   1.324   0.072   2.867
 4031TIP3    H112099   1.404   0.113   2.834
 4031TIP3    H212100   1.283   0.139   2.921
 4032TIP3   OH212101   0.331   4.176   0.578
 4032TIP3    H112102   0.281   4.198   0.499
 4032TIP3    H212103   0.407   4.127   0.545
 4033TIP3   OH212104   5.056   3.796   0.571
 4033TIP3    H112105   4.975   3.745   0.563
 4033TIP3    H212106   5.038   3.877   0.522
 4034TIP3   OH212107   4.577   5.741   4.071
 4034TIP3    H112108   4.668   5.730   4.098
 4034TIP3    H212109   4.526   5.717   4.148
 4035TIP3   OH212110   5.575   0.487   1.142
 4035TIP3    H112111   5.614   0.569   1.113
 4035TIP3    H212112   5.604   0.422   1.078
 4036TIP3   OH212113   4.874   5.443   3.372
 4036TIP3    H112114   4.872   5.387   3.449
 4036TIP3    H212115   4.794   5.495   3.378
 4037TIP3   OH212116   0.726   4.348   3.887
 4037TIP3    H112117   0.708   4.254   3.888
 4037TIP3    H212118   0.656   4.386   3.941
 4038TIP3   OH212119   5.154   3.241   0.013
 4038TIP3    H112120   5.157   3.251   0.108
 4038TIP3    H212121   5.242   3.267  -0.016
 4039TIP3   OH212122   5.747   4.116   0.535
 4039TIP3    H112123   5.662   4.119   0.491
 4039TIP3    H212124   5.811   4.121   0.464
 4040TIP3   OH212125   0.862   0.296   2.673
 4040TIP3    H112126   0.919   0.225   2.702
 4040TIP3    H212127   0.914   0.344   2.609
 4041TIP3   OH212128   1.036   3.967   1.318
 4041TIP3    H112129   0.962   4.007   1.364
 4041TIP3    H212130   1.039   4.013   1.234
 4042TIP3   OH212131   1.124   2.452   1.192
 4042TIP3    H112132   1.112   2.475   1.100
 4042TIP3    H212133   1.042   2.477   1.235
 4043TIP3   OH212134   2.131   1.134   3.359
 4043TIP3    H112135   2.203   1.197   3.355
 4043TIP3    H212136   2.056   1.180   3.321
 4044TIP3   OH212137   3.155   2.638   4.251
 4044TIP3    H112138   3.079   2.696   4.247
 4044TIP3    H212139   3.149   2.584   4.172
 4045TIP3   OH212140   4.915   3.121   1.149
 4045TIP3    H112141   4.985   3.056   1.144
 4045TIP3    H212142   4.960   3.202   1.173
 4046TIP3   OH212143   1.466   5.625   1.404
 4046TIP3    H112144   1.535   5.563   1.379
 4046TIP3    H212145   1.512   5.691   1.457
 4047TIP3   OH212146   0.043   5.709   1.754
 4047TIP3    H112147   0.100   5.648   1.802
 4047TIP3    H212148  -0.040   5.706   1.802
 4048TIP3   OH212149   0.084   2.342   0.840
 4048TIP3    H112150   0.019   2.304   0.899
 4048TIP3    H212151   0.132   2.404   0.895
 4049TIP3   OH212152   3.096   5.656   0.987
 4049TIP3    H112153   3.090   5.568   0.950
 4049TIP3    H212154   3.057   5.649   1.074
 4050TIP3   OH212155   5.954   4.324   0.074
 4050TIP3    H112156   5.872   4.370   0.055
 4050TIP3    H212157   5.989   4.368   0.151
 4051TIP3   OH212158   2.386   2.179   0.832
 4051TIP3    H112159   2.305   2.226   0.851
 4051TIP3    H212160   2.362   2.117   0.763
 4052TIP3   OH212161   2.523   4.333   0.683
 4052TIP3    H112162   2.452   4.332   0.747
 4052TIP3    H212163   2.488   4.385   0.610
 4053TIP3   OH212164   2.239   0.538   4.433
 4053TIP3    H112165   2.150   0.522   4.403
 4053TIP3    H212166   2.247   0.487   4.513
 4054TIP3   OH212167   3.821   5.963   0.765
 4054TIP3    H112168   3.861   5.922   0.841
 4054TIP3    H212169   3.872   5.931   0.691
 4055TIP3   OH212170   3.780   5.392   1.886
 4055TIP3    H112171   3.832   5.472   1.884
 4055TIP3    H212172   3.714   5.404   1.818
 4056TIP3   OH212173   4.777   3.089   5.092
 4056TIP3    H112174   4.739   3.163   5.045
 4056TIP3    H212175   4.838   3.129   5.154
 4057TIP3   OH212176   0.134   4.148   3.991
 4057TIP3    H112177   0.147   4.147   4.086
 4057TIP3    H212178   0.039   4.146   3.980
 4058TIP3   OH212179   4.905   0.963   3.621
 4058TIP3    H112180   4.954   0.901   3.568
 4058TIP3    H212181   4.833   0.911   3.657
 4059TIP3   OH212182   5.760   4.020   3.728
 4059TIP3    H112183   5.741   3.942   3.675
 4059TIP3    H212184   5.762   3.988   3.818
 4060TIP3   OH212185   4.263   2.841   2.006
 4060TIP3    H112186   4.170   2.847   2.026
 4060TIP3    H212187   4.272   2.762   1.954
 4061TIP3   OH212188   6.029   3.868   2.116
 4061TIP3    H112189   6.041   3.963   2.117
 4061TIP3    H212190   5.938   3.856   2.146
 4062TIP3   OH212191   4.173   2.590   2.331
 4062TIP3    H112192   4.168   2.494   2.340
 4062TIP3    H212193   4.082   2.618   2.327
 4063TIP3   OH212194   4.862   5.572   2.372
 4063TIP3    H112195   4.831   5.607   2.289
 4063TIP3    H212196   4.883   5.480   2.354
 4064TIP3   OH212197   3.874   0.651   2.778
 4064TIP3    H112198   3.968   0.637   2.793
 4064TIP3    H212199   3.862   0.628   2.686
 4065TIP3   OH212200   5.763   0.827   3.300
 4065TIP3    H112201   5.759   0.922   3.310
 4065TIP3    H212202   5.672   0.798   3.313
 4066TIP3   OH212203   3.720   2.967   3.073
 4066TIP3    H112204   3.649   2.924   3.024
 4066TIP3    H212205   3.718   2.925   3.159
 4067TIP3   OH212206   3.019   4.359   3.134
 4067TIP3    H112207   3.026   4.392   3.044
 4067TIP3    H212208   2.936   4.395   3.166
 4068TIP3   OH212209   1.550   0.496   0.203
 4068TIP3    H112210   1.555   0.585   0.168
 4068TIP3    H212211   1.461   0.467   0.183
 4069TIP3   OH212212   3.577   4.054   4.081
 4069TIP3    H112213   3.574   4.016   3.994
 4069TIP3    H212214   3.668   4.042   4.110
 4070TIP3   OH212215   5.504   5.303   1.506
 4070TIP3    H112216   5.600   5.308   1.503
 4070TIP3    H212217   5.482   5.327   1.596
 4071TIP3   OH212218   3.034   1.324   0.571
 4071TIP3    H112219   3.065   1.379   0.499
 4071TIP3    H212220   2.940   1.313   0.554
 4072TIP3   OH212221   1.442   4.660   4.185
 4072TIP3    H112222   1.518   4.706   4.150
 4072TIP3    H212223   1.443   4.679   4.279
 4073TIP3   OH212224   2.214   2.033   4.368
 4073TIP3    H112225   2.257   2.010   4.286
 4073TIP3    H212226   2.285   2.054   4.428
 4074TIP3   OH212227   1.065   2.788   1.581
 4074TIP3    H112228   1.101   2.713   1.534
 4074TIP3    H212229   0.978   2.800   1.542
 4075TIP3   OH212230   2.950   1.645   4.851
 4075TIP3    H112231   2.952   1.639   4.946
 4075TIP3    H212232   3.040   1.666   4.826
 4076TIP3   OH212233   5.730   1.420   3.181
 4076TIP3    H112234   5.636   1.418   3.162
 4076TIP3    H212235   5.772   1.416   3.094
 4077TIP3   OH212236   3.533   4.944   2.551
 4077TIP3    H112237   3.496   4.949   2.463
 4077TIP3    H212238   3.611   5.000   2.548
 4078TIP3   OH212239   1.708   1.106   1.497
 4078TIP3    H112240   1.685   1.196   1.472
 4078TIP3    H212241   1.801   1.099   1.475
 4079TIP3   OH212242   0.517   5.077   0.492
 4079TIP3    H112243   0.546   5.166   0.512
 4079TIP3    H212244   0.579   5.021   0.538
 4080TIP3   OH212245   2.755   1.146   0.919
 4080TIP3    H112246   2.822   1.127   0.985
 4080TIP3    H212247   2.676   1.165   0.969
 4081TIP3   OH212248   4.582   0.494   2.592
 4081TIP3    H112249   4.627   0.412   2.573
 4081TIP3    H212250   4.589   0.545   2.511
 4082TIP3   OH212251   2.768   1.762   3.860
 4082TIP3    H112252   2.829   1.830   3.831
 4082TIP3    H212253   2.750   1.711   3.782
 4083TIP3   OH212254   0.961   3.514   2.904
 4083TIP3    H112255   0.886   3.478   2.951
 4083TIP3    H212256   1.028   3.527   2.971
 4084TIP3   OH212257   5.533   2.152   0.212
 4084TIP3    H112258   5.445   2.163   0.176
 4084TIP3    H212259   5.538   2.060   0.236
 4085TIP3   OH212260   0.813   2.646   0.573
 4085TIP3    H112261   0.835   2.720   0.516
 4085TIP3    H212262   0.755   2.684   0.639
 4086TIP3   OH212263   1.701   2.498   3.247
 4086TIP3    H112264   1.762   2.549   3.194
 4086TIP3    H212265   1.654   2.564   3.298
 4087TIP3   OH212266   4.403   1.010   4.575
 4087TIP3    H112267   4.399   0.931   4.522
 4087TIP3    H212268   4.447   1.075   4.520
 4088TIP3   OH212269   5.103   4.592   4.698
 4088TIP3    H112270   5.064   4.574   4.784
 4088TIP3    H212271   5.178   4.648   4.717
 4089TIP3   OH212272   4.055   1.115   0.622
 4089TIP3    H112273   4.116   1.053   0.583
 4089TIP3    H212274   4.109   1.192   0.642
 4090TIP3   OH212275   0.382   5.388   0.141
 4090TIP3    H112276   0.324   5.323   0.182
 4090TIP3    H212277   0.419   5.437   0.214
 4091TIP3   OH212278   4.253   0.355   0.394
 4091TIP3    H112279   4.273   0.261   0.393
 4091TIP3    H212280   4.325   0.395   0.346
 4092TIP3   OH212281   5.284   2.420   4.820
 4092TIP3    H112282   5.339   2.479   4.871
 4092TIP3    H212283   5.265   2.467   4.739
 4093TIP3   OH212284   4.785   0.548   2.051
 4093TIP3    H112285   4.724   0.588   1.989
 4093TIP3    H212286   4.844   0.495   1.997
 4094TIP3   OH212287  -0.009   4.371   1.336
 4094TIP3    H112288  -0.002   4.466   1.346
 4094TIP3    H212289   0.081   4.339   1.348
 4095TIP3   OH212290   5.971   4.686   0.437
 4095TIP3    H112291   5.994   4.685   0.530
 4095TIP3    H212292   5.880   4.715   0.434
 4096TIP3   OH212293   3.437   3.376   2.466
 4096TIP3    H112294   3.391   3.373   2.382
 4096TIP3    H212295   3.428   3.287   2.500
 4097TIP3   OH212296   6.221   0.873   1.336
 4097TIP3    H112297   6.244   0.832   1.253
 4097TIP3    H212298   6.239   0.806   1.402
 4098TIP3   OH212299   3.951   4.716   2.810
 4098TIP3    H112300   4.016   4.651   2.781
 4098TIP3    H212301   3.970   4.793   2.758
 4099TIP3   OH212302   0.982   4.504   3.377
 4099TIP3    H112303   1.068   4.539   3.400
 4099TIP3    H212304   0.984   4.413   3.408
 4100TIP3   OH212305   3.688   3.450   2.807
 4100TIP3    H112306   3.649   3.396   2.877
 4100TIP3    H212307   3.624   3.519   2.792
 4101TIP3   OH212308   4.660   2.619   2.353
 4101TIP3    H112309   4.589   2.668   2.312
 4101TIP3    H212310   4.616   2.554   2.408
 4102TIP3   OH212311   5.299   0.876   0.729
 4102TIP3    H112312   5.217   0.877   0.680
 4102TIP3    H212313   5.318   0.969   0.745
 4103TIP3   OH212314   1.059   5.696   4.491
 4103TIP3    H112315   1.031   5.711   4.401
 4103TIP3    H212316   0.978   5.688   4.541
 4104TIP3   OH212317   2.503   4.870   2.861
 4104TIP3    H112318   2.447   4.806   2.817
 4104TIP3    H212319   2.530   4.930   2.791
 4105TIP3   OH212320   1.385   4.780   0.082
 4105TIP3    H112321   1.434   4.712   0.128
 4105TIP3    H212322   1.319   4.808   0.144
 4106TIP3   OH212323   1.153   4.559   0.382
 4106TIP3    H112324   1.061   4.534   0.392
 4106TIP3    H212325   1.176   4.535   0.293
 4107TIP3   OH212326   3.376   2.213   1.124
 4107TIP3    H112327   3.373   2.306   1.102
 4107TIP3    H212328   3.428   2.174   1.054
 4108TIP3   OH212329   0.726   0.949   1.304
 4108TIP3    H112330   0.750   0.936   1.212
 4108TIP3    H212331   0.647   0.895   1.315
 4109TIP3   OH212332   2.177   2.237   2.659
 4109TIP3    H112333   2.093   2.268   2.691
 4109TIP3    H212334   2.174   2.250   2.565
 4110TIP3   OH212335   0.015   2.607   3.649
 4110TIP3    H112336   0.051   2.623   3.736
 4110TIP3    H212337  -0.049   2.676   3.636
 4111TIP3   OH212338   0.769   4.804   3.124
 4111TIP3    H112339   0.765   4.792   3.219
 4111TIP3    H212340   0.703   4.871   3.106
 4112TIP3   OH212341   1.699   0.215   1.989
 4112TIP3    H112342   1.787   0.247   2.005
 4112TIP3    H212343   1.710   0.145   1.925
 4113TIP3   OH212344   1.522   0.254   3.502
 4113TIP3    H112345   1.549   0.221   3.587
 4113TIP3    H212346   1.601   0.293   3.465
 4114TIP3   OH212347   0.213   2.405   3.384
 4114TIP3    H112348   0.128   2.394   3.427
 4114TIP3    H212349   0.207   2.489   3.339
 4115TIP3   OH212350   3.462   1.103   3.024
 4115TIP3    H112351   3.529   1.165   3.054
 4115TIP3    H212352   3.418   1.150   2.953
 4116TIP3   OH212353   0.378   4.404   1.100
 4116TIP3    H112354   0.455   4.364   1.061
 4116TIP3    H212355   0.307   4.342   1.082
 4117TIP3   OH212356   4.208   2.021   5.000
 4117TIP3    H112357   4.267   2.085   5.040
 4117TIP3    H212358   4.136   2.012   5.063
 4118TIP3   OH212359   0.841   4.204   2.804
 4118TIP3    H112360   0.866   4.231   2.716
 4118TIP3    H212361   0.911   4.147   2.833
 4119TIP3   OH212362   0.847   2.683   5.080
 4119TIP3    H112363   0.942   2.686   5.090
 4119TIP3    H212364   0.814   2.675   5.170
 4120TIP3   OH212365   0.817   4.875   1.973
 4120TIP3    H112366   0.852   4.891   2.061
 4120TIP3    H212367   0.847   4.787   1.951
 4121TIP3   OH212368   3.405   2.139   5.119
 4121TIP3    H112369   3.387   2.060   5.069
 4121TIP3    H212370   3.335   2.200   5.095
 4122TIP3   OH212371   3.487   2.293   4.336
 4122TIP3    H112372   3.394   2.315   4.344
 4122TIP3    H212373   3.488   2.211   4.286
 4123TIP3   OH212374   0.317   2.196   3.067
 4123TIP3    H112375   0.304   2.290   3.081
 4123TIP3    H212376   0.326   2.188   2.972
 4124TIP3   OH212377   5.074   4.645   2.567
 4124TIP3    H112378   5.002   4.639   2.504
 4124TIP3    H212379   5.042   4.598   2.645
 4125TIP3   OH212380   2.731   4.056   1.575
 4125TIP3    H112381   2.739   4.150   1.563
 4125TIP3    H212382   2.817   4.021   1.554
 4126TIP3   OH212383   4.917   0.622   3.541
 4126TIP3    H112384   4.941   0.585   3.626
 4126TIP3    H212385   4.846   0.566   3.509
 4127TIP3   OH212386   5.519   5.675   1.593
 4127TIP3    H112387   5.525   5.767   1.567
 4127TIP3    H212388   5.540   5.675   1.686
 4128TIP3   OH212389   3.489   2.879   1.964
 4128TIP3    H112390   3.452   2.944   1.905
 4128TIP3    H212391   3.414   2.844   2.013
 4129TIP3   OH212392   5.007   4.815   3.228
 4129TIP3    H112393   5.048   4.750   3.171
 4129TIP3    H212394   4.976   4.764   3.303
 4130TIP3   OH212395   3.408   3.780   3.244
 4130TIP3    H112396   3.465   3.750   3.173
 4130TIP3    H212397   3.465   3.784   3.321
 4131TIP3   OH212398   3.352   1.073   1.578
 4131TIP3    H112399   3.361   1.165   1.604
 4131TIP3    H212400   3.424   1.057   1.517
 4132TIP3   OH212401   6.357   3.108   1.058
 4132TIP3    H112402   6.451   3.117   1.040
 4132TIP3    H212403   6.323   3.197   1.054
 4133TIP3   OH212404   2.405   3.679   1.212
 4133TIP3    H112405   2.456   3.600   1.195
 4133TIP3    H212406   2.325   3.647   1.254
 4134TIP3   OH212407   2.596   2.146   1.179
 4134TIP3    H112408   2.610   2.057   1.209
 4134TIP3    H212409   2.560   2.192   1.255
 4135TIP3   OH212410   0.194   5.256   0.271
 4135TIP3    H112411   0.152   5.187   0.219
 4135TIP3    H212412   0.172   5.235   0.362
 4136TIP3   OH212413   1.149   2.761   4.175
 4136TIP3    H112414   1.201   2.818   4.231
 4136TIP3    H212415   1.169   2.790   4.086
 4137TIP3   OH212416   1.964   0.397   2.295
 4137TIP3    H112417   1.925   0.414   2.381
 4137TIP3    H212418   1.962   0.481   2.250
 4138TIP3   OH212419   3.899   3.269   1.947
 4138TIP3    H112420   3.880   3.277   2.040
 4138TIP3    H212421   3.875   3.179   1.925
 4139TIP3   OH212422   4.136   2.820   2.686
 4139TIP3    H112423   4.101   2.905   2.713
 4139TIP3    H212424   4.077   2.790   2.617
 4140TIP3   OH212425   4.957   1.871   0.840
 4140TIP3    H112426   4.882   1.871   0.899
 4140TIP3    H212427   5.029   1.906   0.893
 4141TIP3   OH212428   3.508   5.316   1.396
 4141TIP3    H112429   3.475   5.227   1.408
 4141TIP3    H212430   3.446   5.357   1.335
 4142TIP3   OH212431   2.422   0.042   1.047
 4142TIP3    H112432   2.510   0.019   1.017
 4142TIP3    H212433   2.373   0.062   0.967
 4143TIP3   OH212434   5.734   1.973   4.349
 4143TIP3    H112435   5.749   2.059   4.311
 4143TIP3    H212436   5.700   1.991   4.436
 4144TIP3   OH212437   1.171   0.074   5.012
 4144TIP3    H112438   1.118  -0.005   5.022
 4144TIP3    H212439   1.217   0.062   4.929
 4145TIP3   OH212440   1.564   4.546   4.426
 4145TIP3    H112441   1.587   4.496   4.347
 4145TIP3    H212442   1.562   4.481   4.496
 4146TIP3   OH212443   4.275   3.483   5.129
 4146TIP3    H112444   4.365   3.465   5.155
 4146TIP3    H212445   4.262   3.431   5.050
 4147TIP3   OH212446   1.661   4.382   4.186
 4147TIP3    H112447   1.676   4.288   4.196
 4147TIP3    H212448   1.696   4.402   4.099
 4148TIP3   OH212449   4.106   5.475   3.687
 4148TIP3    H112450   4.182   5.437   3.642
 4148TIP3    H212451   4.140   5.555   3.727
 4149TIP3   OH212452   6.042   4.388   0.344
 4149TIP3    H112453   6.129   4.356   0.369
 4149TIP3    H212454   6.039   4.478   0.378
 4150TIP3   OH212455   1.851   5.715   3.738
 4150TIP3    H112456   1.934   5.699   3.692
 4150TIP3    H212457   1.795   5.758   3.674
 4151TIP3   OH212458   4.854   2.008   1.528
 4151TIP3    H112459   4.831   2.101   1.539
 4151TIP3    H212460   4.927   2.008   1.467
 4152TIP3   OH212461   4.223   4.284   3.081
 4152TIP3    H112462   4.155   4.294   3.015
 4152TIP3    H212463   4.221   4.365   3.131
 4153TIP3   OH212464   5.923   5.957   1.004
 4153TIP3    H112465   5.921   5.885   0.941
 4153TIP3    H212466   5.850   5.941   1.063
 4154TIP3   OH212467   2.284   2.535   3.682
 4154TIP3    H112468   2.363   2.587   3.693
 4154TIP3    H212469   2.232   2.552   3.761
 4155TIP3   OH212470   5.711   5.288   4.200
 4155TIP3    H112471   5.723   5.379   4.171
 4155TIP3    H212472   5.618   5.282   4.221
 4156TIP3   OH212473   1.015   1.714   1.826
 4156TIP3    H112474   1.082   1.663   1.872
 4156TIP3    H212475   1.021   1.686   1.735
 4157TIP3   OH212476   0.193   5.777   4.653
 4157TIP3    H112477   0.278   5.819   4.655
 4157TIP3    H212478   0.196   5.712   4.723
 4158TIP3   OH212479   1.393   3.900   5.159
 4158TIP3    H112480   1.383   3.815   5.202
 4158TIP3    H212481   1.365   3.884   5.068
 4159TIP3   OH212482   3.157   0.198   1.520
 4159TIP3    H112483   3.218   0.198   1.446
 4159TIP3    H212484   3.157   0.289   1.550
 4160TIP3   OH212485   0.826   4.271   2.222
 4160TIP3    H112486   0.914   4.301   2.199
 4160TIP3    H212487   0.810   4.197   2.163
 4161TIP3   OH212488   0.837   5.062   1.016
 4161TIP3    H112489   0.812   5.105   1.098
 4161TIP3    H212490   0.927   5.034   1.031
 4162TIP3   OH212491   5.304   2.603   0.171
 4162TIP3    H112492   5.386   2.595   0.221
 4162TIP3    H212493   5.320   2.554   0.090
 4163TIP3   OH212494   0.758   3.444   0.967
 4163TIP3    H112495   0.688   3.509   0.965
 4163TIP3    H212496   0.837   3.495   0.983
 4164TIP3   OH212497   2.734   2.472   0.256
 4164TIP3    H112498   2.642   2.446   0.248
 4164TIP3    H212499   2.745   2.542   0.192
 4165TIP3   OH212500   5.671   3.960   0.266
 4165TIP3    H112501   5.603   4.027   0.276
 4165TIP3    H212502   5.626   3.877   0.281
 4166TIP3   OH212503   0.136   2.076   4.644
 4166TIP3    H112504   0.214   2.049   4.597
 4166TIP3    H212505   0.064   2.057   4.584
 4167TIP3   OH212506   1.948   0.608   2.988
 4167TIP3    H112507   1.853   0.602   2.995
 4167TIP3    H212508   1.970   0.551   2.915
 4168TIP3   OH212509   2.532   3.607   3.412
 4168TIP3    H112510   2.595   3.664   3.457
 4168TIP3    H212511   2.572   3.520   3.416
 4169TIP3   OH212512   5.550   4.413   4.805
 4169TIP3    H112513   5.529   4.410   4.898
 4169TIP3    H212514   5.483   4.359   4.764
 4170TIP3   OH212515   5.315   1.642   4.844
 4170TIP3    H112516   5.371   1.683   4.777
 4170TIP3    H212517   5.367   1.646   4.924
 4171TIP3   OH212518   1.767   1.229   3.670
 4171TIP3    H112519   1.855   1.205   3.642
 4171TIP3    H212520   1.714   1.223   3.590
 4172TIP3   OH212521   1.306   0.827   2.942
 4172TIP3    H112522   1.218   0.845   2.908
 4172TIP3    H212523   1.290   0.791   3.030
 4173TIP3   OH212524   3.570   3.154   1.712
 4173TIP3    H112525   3.555   3.186   1.623
 4173TIP3    H212526   3.509   3.081   1.722
 4174TIP3   OH212527   2.977   2.981   2.648
 4174TIP3    H112528   2.992   2.916   2.717
 4174TIP3    H212529   2.885   2.973   2.626
 4175TIP3   OH212530   3.971   4.312   0.629
 4175TIP3    H112531   3.956   4.322   0.723
 4175TIP3    H212532   3.910   4.244   0.602
 4176TIP3   OH212533   3.350   3.324   0.515
 4176TIP3    H112534   3.344   3.279   0.600
 4176TIP3    H212535   3.335   3.417   0.536
 4177TIP3   OH212536   3.027   4.394   3.497
 4177TIP3    H112537   2.992   4.449   3.567
 4177TIP3    H212538   3.012   4.444   3.417
 4178TIP3   OH212539   0.992   0.261   1.326
 4178TIP3    H112540   0.961   0.176   1.358
 4178TIP3    H212541   0.948   0.272   1.242
 4179TIP3   OH212542   5.509   1.315   0.909
 4179TIP3    H112543   5.503   1.338   1.001
 4179TIP3    H212544   5.505   1.219   0.908
 4180TIP3   OH212545   3.162   1.609   3.916
 4180TIP3    H112546   3.092   1.618   3.981
 4180TIP3    H212547   3.234   1.660   3.951
 4181TIP3   OH212548   2.096   4.715   2.124
 4181TIP3    H112549   2.119   4.761   2.205
 4181TIP3    H212550   2.051   4.781   2.071
 4182TIP3   OH212551   1.102   5.610   3.363
 4182TIP3    H112552   1.101   5.535   3.303
 4182TIP3    H212553   1.124   5.685   3.308
 4183TIP3   OH212554   4.254   2.806   3.431
 4183TIP3    H112555   4.300   2.738   3.480
 4183TIP3    H212556   4.290   2.801   3.343
 4184TIP3   OH212557   2.390   3.980   2.071
 4184TIP3    H112558   2.395   4.020   1.984
 4184TIP3    H212559   2.352   4.048   2.126
 4185TIP3   OH212560   4.066   3.922   0.730
 4185TIP3    H112561   3.971   3.909   0.738
 4185TIP3    H212562   4.099   3.907   0.818
 4186TIP3   OH212563   1.846   1.835   1.192
 4186TIP3    H112564   1.788   1.850   1.267
 4186TIP3    H212565   1.884   1.921   1.174
 4187TIP3   OH212566   1.884   2.128   2.296
 4187TIP3    H112567   1.818   2.099   2.233
 4187TIP3    H212568   1.860   2.085   2.378
 4188TIP3   OH212569   0.770   5.984   0.711
 4188TIP3    H112570   0.802   5.994   0.801
 4188TIP3    H212571   0.848   6.000   0.657
 4189TIP3   OH212572   2.942   0.583   4.684
 4189TIP3    H112573   2.925   0.677   4.677
 4189TIP3    H212574   3.013   0.567   4.622
 4190TIP3   OH212575   0.375   0.399   2.466
 4190TIP3    H112576   0.425   0.391   2.385
 4190TIP3    H212577   0.425   0.460   2.520
 4191TIP3   OH212578   1.172   2.272   0.857
 4191TIP3    H112579   1.150   2.268   0.764
 4191TIP3    H212580   1.101   2.225   0.900
 4192TIP3   OH212581   2.439   4.525   3.376
 4192TIP3    H112582   2.452   4.482   3.291
 4192TIP3    H212583   2.392   4.605   3.356
 4193TIP3   OH212584   1.741   5.417   3.250
 4193TIP3    H112585   1.725   5.511   3.243
 4193TIP3    H212586   1.789   5.406   3.332
 4194TIP3   OH212587   4.541   3.353   2.498
 4194TIP3    H112588   4.469   3.351   2.436
 4194TIP3    H212589   4.618   3.375   2.446
 4195TIP3   OH212590   3.288   1.709   0.946
 4195TIP3    H112591   3.218   1.687   0.885
 4195TIP3    H212592   3.274   1.801   0.968
 4196TIP3   OH212593   2.931   0.931   2.867
 4196TIP3    H112594   2.907   0.973   2.785
 4196TIP3    H212595   2.963   1.002   2.922
 4197TIP3   OH212596   5.330   4.386   2.632
 4197TIP3    H112597   5.408   4.438   2.653
 4197TIP3    H212598   5.314   4.333   2.710
 4198TIP3   OH212599   3.758   1.082   4.780
 4198TIP3    H112600   3.707   1.161   4.798
 4198TIP3    H212601   3.838   1.093   4.831
 4199TIP3   OH212602   3.775   5.521   3.724
 4199TIP3    H112603   3.749   5.547   3.812
 4199TIP3    H212604   3.838   5.450   3.737
 4200TIP3   OH212605   2.302   4.432   5.154
 4200TIP3    H112606   2.337   4.358   5.203
 4200TIP3    H212607   2.217   4.402   5.122
 4201TIP3   OH212608   3.056   0.196   4.009
 4201TIP3    H112609   3.007   0.198   3.927
 4201TIP3    H212610   3.133   0.250   3.993
 4202TIP3   OH212611   5.450   4.224   3.684
 4202TIP3    H112612   5.426   4.315   3.666
 4202TIP3    H212613   5.488   4.193   3.602
 4203TIP3   OH212614   0.020   1.861   3.990
 4203TIP3    H112615   0.090   1.926   3.991
 4203TIP3    H212616  -0.030   1.880   3.911
 4204TIP3   OH212617   4.285   0.622   1.160
 4204TIP3    H112618   4.314   0.675   1.086
 4204TIP3    H212619   4.361   0.616   1.217
 4205TIP3   OH212620   2.931   0.925   4.912
 4205TIP3    H112621   3.011   0.889   4.951
 4205TIP3    H212622   2.863   0.862   4.934
 4206TIP3   OH212623   5.410   4.638   0.556
 4206TIP3    H112624   5.325   4.631   0.600
 4206TIP3    H212625   5.426   4.732   0.549
 4207TIP3   OH212626   0.767   2.466   2.491
 4207TIP3    H112627   0.819   2.540   2.523
 4207TIP3    H212628   0.823   2.422   2.427
 4208TIP3   OH212629   1.999   3.239   4.674
 4208TIP3    H112630   1.923   3.293   4.699
 4208TIP3    H212631   2.072   3.278   4.722
 4209TIP3   OH212632   6.169   4.242   1.566
 4209TIP3    H112633   6.170   4.207   1.477
 4209TIP3    H212634   6.248   4.294   1.572
 4210TIP3   OH212635   2.300   5.861   4.176
 4210TIP3    H112636   2.282   5.774   4.211
 4210TIP3    H212637   2.220   5.884   4.128
 4211TIP3   OH212638   2.462   5.197   2.456
 4211TIP3    H112639   2.392   5.160   2.403
 4211TIP3    H212640   2.451   5.292   2.447
 4212TIP3   OH212641   1.510   0.303   2.207
 4212TIP3    H112642   1.500   0.398   2.205
 4212TIP3    H212643   1.548   0.281   2.121
 4213TIP3   OH212644   0.676   0.442   3.293
 4213TIP3    H112645   0.690   0.534   3.318
 4213TIP3    H212646   0.619   0.446   3.217
 4214TIP3   OH212647   1.048   0.844   3.097
 4214TIP3    H112648   1.024   0.758   3.132
 4214TIP3    H212649   0.974   0.868   3.042
 4215TIP3   OH212650   4.323   4.034   3.867
 4215TIP3    H112651   4.405   4.039   3.818
 4215TIP3    H212652   4.350   4.024   3.958
 4216TIP3   OH212653   3.135   3.320   0.920
 4216TIP3    H112654   3.066   3.297   0.859
 4216TIP3    H212655   3.211   3.270   0.891
 4217TIP3   OH212656   1.368   4.155   4.859
 4217TIP3    H112657   1.445   4.203   4.828
 4217TIP3    H212658   1.361   4.178   4.951
 4218TIP3   OH212659   0.740   2.675   2.203
 4218TIP3    H112660   0.808   2.742   2.196
 4218TIP3    H212661   0.748   2.642   2.292
 4219TIP3   OH212662   3.453   2.972   4.791
 4219TIP3    H112663   3.390   3.044   4.782
 4219TIP3    H212664   3.505   2.996   4.868
 4220TIP3   OH212665   1.823   4.585   0.175
 4220TIP3    H112666   1.901   4.623   0.137
 4220TIP3    H212667   1.838   4.490   0.173
 4221TIP3   OH212668   2.816   1.746   1.993
 4221TIP3    H112669   2.882   1.710   1.935
 4221TIP3    H212670   2.832   1.840   1.992
 4222TIP3   OH212671   5.747   2.906   4.448
 4222TIP3    H112672   5.777   2.927   4.536
 4222TIP3    H212673   5.658   2.873   4.461
 4223TIP3   OH212674   2.910   1.912   2.598
 4223TIP3    H112675   2.828   1.880   2.636
 4223TIP3    H212676   2.913   1.874   2.511
 4224TIP3   OH212677   0.119   5.158   0.543
 4224TIP3    H112678   0.039   5.113   0.516
 4224TIP3    H212679   0.087   5.232   0.595
 4225TIP3   OH212680   0.533   4.259   5.155
 4225TIP3    H112681   0.531   4.352   5.136
 4225TIP3    H212682   0.502   4.217   5.075
 4226TIP3   OH212683   2.191   1.844   0.394
 4226TIP3    H112684   2.151   1.773   0.345
 4226TIP3    H212685   2.119   1.880   0.447
 4227TIP3   OH212686   3.012   1.915   3.810
 4227TIP3    H112687   2.990   1.999   3.851
 4227TIP3    H212688   3.096   1.890   3.850
 4228TIP3   OH212689   0.267   5.466   0.950
 4228TIP3    H112690   0.295   5.459   0.858
 4228TIP3    H212691   0.238   5.378   0.973
 4229TIP3   OH212692   2.177   1.864   0.870
 4229TIP3    H112693   2.134   1.950   0.875
 4229TIP3    H212694   2.156   1.822   0.953
 4230TIP3   OH212695   6.167   3.980   1.696
 4230TIP3    H112696   6.224   3.979   1.773
 4230TIP3    H212697   6.139   4.071   1.688
 4231TIP3   OH212698   3.706   0.164   2.136
 4231TIP3    H112699   3.791   0.127   2.161
 4231TIP3    H212700   3.729   0.238   2.078
 4232TIP3   OH212701   5.923   3.777   2.412
 4232TIP3    H112702   5.937   3.688   2.380
 4232TIP3    H212703   5.964   3.779   2.498
 4233TIP3   OH212704   5.539   3.969   1.394
 4233TIP3    H112705   5.529   3.876   1.371
 4233TIP3    H212706   5.523   4.016   1.312
 4234TIP3   OH212707   1.323   3.207   1.132
 4234TIP3    H112708   1.241   3.158   1.125
 4234TIP3    H212709   1.318   3.271   1.060
 4235TIP3   OH212710   1.019  -0.004   4.652
 4235TIP3    H112711   1.103  -0.019   4.609
 4235TIP3    H212712   1.013   0.091   4.660
 4236TIP3   OH212713   2.886   0.849   3.684
 4236TIP3    H112714   2.849   0.892   3.607
 4236TIP3    H212715   2.813   0.845   3.746
 4237TIP3   OH212716   5.022   1.989   4.470
 4237TIP3    H112717   5.010   1.931   4.545
 4237TIP3    H212718   4.959   2.059   4.484
 4238TIP3   OH212719   2.574   2.160   3.435
 4238TIP3    H112720   2.529   2.078   3.454
 4238TIP3    H212721   2.583   2.203   3.520
 4239TIP3   OH212722   0.418   2.229   2.005
 4239TIP3    H112723   0.360   2.157   2.032
 4239TIP3    H212724   0.375   2.307   2.039
 4240TIP3   OH212725   3.006   0.151   1.925
 4240TIP3    H112726   2.997   0.219   1.992
 4240TIP3    H212727   3.095   0.163   1.890
 4241TIP3   OH212728   0.597   3.428   2.841
 4241TIP3    H112729   0.683   3.388   2.855
 4241TIP3    H212730   0.539   3.354   2.823
 4242TIP3   OH212731   4.878   0.583   0.705
 4242TIP3    H112732   4.898   0.491   0.719
 4242TIP3    H212733   4.939   0.630   0.762
 4243TIP3   OH212734   5.165   0.633   2.398
 4243TIP3    H112735   5.180   0.614   2.305
 4243TIP3    H212736   5.145   0.727   2.400
 4244TIP3   OH212737   4.652   4.955   3.027
 4244TIP3    H112738   4.676   4.906   2.949
 4244TIP3    H212739   4.722   5.020   3.038
 4245TIP3   OH212740   3.146   1.808   2.951
 4245TIP3    H112741   3.239   1.792   2.933
 4245TIP3    H212742   3.101   1.735   2.909
 4246TIP3   OH212743   0.923   4.442   4.936
 4246TIP3    H112744   1.008   4.451   4.979
 4246TIP3    H212745   0.894   4.354   4.959
 4247TIP3   OH212746   1.699   5.735   0.777
 4247TIP3    H112747   1.783   5.699   0.749
 4247TIP3    H212748   1.715   5.829   0.788
 4248TIP3   OH212749   0.148   4.496   1.585
 4248TIP3    H112750   0.184   4.578   1.551
 4248TIP3    H212751   0.196   4.428   1.538
 4249TIP3   OH212752   0.757   0.397   3.619
 4249TIP3    H112753   0.755   0.482   3.575
 4249TIP3    H212754   0.673   0.357   3.597
 4250TIP3   OH212755   0.644   5.106   1.549
 4250TIP3    H112756   0.651   5.175   1.615
 4250TIP3    H212757   0.620   5.028   1.599
 4251TIP3   OH212758   5.699   4.224   2.236
 4251TIP3    H112759   5.748   4.165   2.294
 4251TIP3    H212760   5.691   4.305   2.286
 4252TIP3   OH212761   5.704   1.515   1.508
 4252TIP3    H112762   5.777   1.554   1.460
 4252TIP3    H212763   5.724   1.421   1.508
 4253TIP3   OH212764   5.545   4.092   4.394
 4253TIP3    H112765   5.521   4.037   4.469
 4253TIP3    H212766   5.636   4.117   4.411
 4254TIP3   OH212767   0.105   2.305   5.063
 4254TIP3    H112768   0.020   2.317   5.020
 4254TIP3    H212769   0.142   2.228   5.021
 4255TIP3   OH212770   4.391   0.448   4.290
 4255TIP3    H112771   4.478   0.406   4.292
 4255TIP3    H212772   4.377   0.478   4.380
 4256TIP3   OH212773   4.604   5.547   1.670
 4256TIP3    H112774   4.584   5.631   1.629
 4256TIP3    H212775   4.659   5.502   1.606
 4257TIP3   OH212776   5.481   5.421   1.232
 4257TIP3    H112777   5.449   5.338   1.268
 4257TIP3    H212778   5.568   5.431   1.270
 4258TIP3   OH212779   1.837   2.511   0.199
 4258TIP3    H112780   1.803   2.591   0.241
 4258TIP3    H212781   1.855   2.537   0.109
 4259TIP3   OH212782   2.520   0.795   2.836
 4259TIP3    H112783   2.602   0.815   2.881
 4259TIP3    H212784   2.499   0.705   2.863
 4260TIP3   OH212785   5.284   5.590   0.643
 4260TIP3    H112786   5.248   5.642   0.571
 4260TIP3    H212787   5.379   5.601   0.635
 4261TIP3   OH212788   6.301   3.509   3.806
 4261TIP3    H112789   6.243   3.509   3.731
 4261TIP3    H212790   6.247   3.541   3.879
 4262TIP3   OH212791   1.862   1.068   1.217
 4262TIP3    H112792   1.930   1.126   1.250
 4262TIP3    H212793   1.799   1.126   1.174
 4263TIP3   OH212794   1.571   0.893   0.412
 4263TIP3    H112795   1.650   0.923   0.368
 4263TIP3    H212796   1.502   0.903   0.347
 4264TIP3   OH212797   4.405   3.526   1.248
 4264TIP3    H112798   4.476   3.554   1.307
 4264TIP3    H212799   4.344   3.600   1.248
 4265TIP3   OH212800   5.432   4.629   3.162
 4265TIP3    H112801   5.479   4.699   3.117
 4265TIP3    H212802   5.444   4.552   3.105
 4266TIP3   OH212803   1.037   5.361   1.501
 4266TIP3    H112804   1.033   5.392   1.592
 4266TIP3    H212805   1.102   5.417   1.459
 4267TIP3   OH212806   3.365   3.714   1.083
 4267TIP3    H112807   3.290   3.761   1.046
 4267TIP3    H212808   3.338   3.622   1.082
 4268TIP3   OH212809   3.943   5.523   4.780
 4268TIP3    H112810   3.902   5.602   4.747
 4268TIP3    H212811   4.035   5.546   4.791
 4269TIP3   OH212812   3.563   2.553   4.454
 4269TIP3    H112813   3.481   2.603   4.449
 4269TIP3    H212814   3.536   2.462   4.449
 4270TIP3   OH212815   6.310   1.746   2.579
 4270TIP3    H112816   6.260   1.825   2.600
 4270TIP3    H212817   6.373   1.737   2.650
 4271TIP3   OH212818   0.038   1.317   2.762
 4271TIP3    H112819  -0.005   1.396   2.729
 4271TIP3    H212820   0.130   1.341   2.770
 4272TIP3   OH212821   4.342   3.141   1.164
 4272TIP3    H112822   4.362   3.177   1.251
 4272TIP3    H212823   4.422   3.153   1.114
 4273TIP3   OH212824   5.774   3.848   3.937
 4273TIP3    H112825   5.704   3.908   3.961
 4273TIP3    H212826   5.730   3.765   3.922
 4274TIP3   OH212827   1.079   4.125   0.714
 4274TIP3    H112828   1.111   4.037   0.694
 4274TIP3    H212829   1.101   4.177   0.637
 4275TIP3   OH212830   0.406   0.112   4.083
 4275TIP3    H112831   0.465   0.137   4.154
 4275TIP3    H212832   0.454   0.043   4.036
 4276TIP3   OH212833   0.791   5.387   5.076
 4276TIP3    H112834   0.792   5.474   5.037
 4276TIP3    H212835   0.744   5.399   5.159
 4277TIP3   OH212836   3.918   3.484   3.730
 4277TIP3    H112837   3.844   3.462   3.786
 4277TIP3    H212838   3.967   3.402   3.720
 4278TIP3   OH212839   0.294   5.054   1.111
 4278TIP3    H112840   0.367   5.086   1.059
 4278TIP3    H212841   0.270   5.128   1.167
 4279TIP3   OH212842   2.859   0.467   1.123
 4279TIP3    H112843   2.796   0.491   1.191
 4279TIP3    H212844   2.886   0.551   1.085
 4280TIP3   OH212845   0.757   1.148   1.486
 4280TIP3    H112846   0.769   1.072   1.429
 4280TIP3    H212847   0.721   1.216   1.429
 4281TIP3   OH212848   2.746   0.814   2.127
 4281TIP3    H112849   2.820   0.807   2.067
 4281TIP3    H212850   2.742   0.907   2.150
 4282TIP3   OH212851   2.434   4.443   4.269
 4282TIP3    H112852   2.525   4.424   4.247
 4282TIP3    H212853   2.432   4.538   4.283
 4283TIP3   OH212854   4.720   3.006   4.329
 4283TIP3    H112855   4.651   2.975   4.270
 4283TIP3    H212856   4.702   3.099   4.339
 4284TIP3   OH212857   6.264   5.066   2.345
 4284TIP3    H112858   6.298   5.143   2.301
 4284TIP3    H212859   6.205   5.101   2.412
 4285TIP3   OH212860   5.218   5.134   0.495
 4285TIP3    H112861   5.255   5.213   0.457
 4285TIP3    H212862   5.247   5.063   0.437
 4286TIP3   OH212863   6.213   0.057   1.967
 4286TIP3    H112864   6.252  -0.013   1.914
 4286TIP3    H212865   6.276   0.129   1.963
 4287TIP3   OH212866   4.499   5.450   0.612
 4287TIP3    H112867   4.552   5.422   0.687
 4287TIP3    H212868   4.502   5.376   0.552
 4288TIP3   OH212869   1.442   1.181   4.174
 4288TIP3    H112870   1.360   1.199   4.220
 4288TIP3    H212871   1.481   1.267   4.159
 4289TIP3   OH212872   5.194   0.623   2.120
 4289TIP3    H112873   5.140   0.698   2.093
 4289TIP3    H212874   5.218   0.581   2.038
 4290TIP3   OH212875   4.134   1.738   2.996
 4290TIP3    H112876   4.099   1.702   3.078
 4290TIP3    H212877   4.062   1.731   2.934
 4291TIP3   OH212878   4.107   2.043   4.164
 4291TIP3    H112879   4.165   2.015   4.093
 4291TIP3    H212880   4.162   2.041   4.242
 4292TIP3   OH212881   5.775   1.167   1.123
 4292TIP3    H112882   5.821   1.089   1.093
 4292TIP3    H212883   5.684   1.152   1.096
 4293TIP3   OH212884   1.255   3.010   1.648
 4293TIP3    H112885   1.197   2.934   1.635
 4293TIP3    H212886   1.206   3.084   1.612
 4294TIP3   OH212887   1.890   4.278   3.632
 4294TIP3    H112888   1.939   4.304   3.554
 4294TIP3    H212889   1.805   4.249   3.598
 4295TIP3   OH212890   0.573   0.271   1.294
 4295TIP3    H112891   0.625   0.254   1.373
 4295TIP3    H212892   0.511   0.198   1.290
 4296TIP3   OH212893   2.224   5.226   0.141
 4296TIP3    H112894   2.300   5.168   0.146
 4296TIP3    H212895   2.225   5.258   0.050
 4297TIP3   OH212896   3.378   3.716   2.033
 4297TIP3    H112897   3.425   3.684   2.110
 4297TIP3    H212898   3.381   3.643   1.971
 4298TIP3   OH212899   5.415   1.588   4.136
 4298TIP3    H112900   5.329   1.628   4.143
 4298TIP3    H212901   5.474   1.650   4.178
 4299TIP3   OH212902   5.614   4.445   3.065
 4299TIP3    H112903   5.694   4.483   3.028
 4299TIP3    H212904   5.623   4.458   3.159
 4300TIP3   OH212905   4.054   4.589   2.007
 4300TIP3    H112906   3.969   4.581   2.049
 4300TIP3    H212907   4.045   4.543   1.924
 4301TIP3   OH212908   5.282   1.571   0.311
 4301TIP3    H112909   5.231   1.490   0.309
 4301TIP3    H212910   5.371   1.543   0.333
 4302TIP3   OH212911   1.420   2.380   0.157
 4302TIP3    H112912   1.500   2.331   0.139
 4302TIP3    H212913   1.352   2.332   0.109
 4303TIP3   OH212914   5.328   0.719   2.939
 4303TIP3    H112915   5.366   0.634   2.919
 4303TIP3    H212916   5.239   0.700   2.968
 4304TIP3   OH212917   0.646   2.352   4.810
 4304TIP3    H112918   0.592   2.412   4.861
 4304TIP3    H212919   0.685   2.406   4.741
 4305TIP3   OH212920   4.670   4.454   2.370
 4305TIP3    H112921   4.636   4.542   2.352
 4305TIP3    H212922   4.763   4.468   2.389
 4306TIP3   OH212923   4.156   5.704   2.028
 4306TIP3    H112924   4.222   5.737   2.088
 4306TIP3    H212925   4.171   5.609   2.026
 4307TIP3   OH212926   4.430   5.336   1.835
 4307TIP3    H112927   4.443   5.320   1.742
 4307TIP3    H212928   4.433   5.432   1.843
 4308TIP3   OH212929   3.296   4.091   3.647
 4308TIP3    H112930   3.332   4.144   3.576
 4308TIP3    H212931   3.216   4.054   3.611
 4309TIP3   OH212932   0.324   1.752   5.052
 4309TIP3    H112933   0.401   1.789   5.007
 4309TIP3    H212934   0.356   1.671   5.091
 4310TIP3   OH212935   3.441   0.765   0.818
 4310TIP3    H112936   3.420   0.738   0.729
 4310TIP3    H212937   3.483   0.687   0.857
 4311TIP3   OH212938   3.470   2.449   3.683
 4311TIP3    H112939   3.503   2.524   3.633
 4311TIP3    H212940   3.545   2.391   3.690
 4312TIP3   OH212941   5.686   3.502   0.123
 4312TIP3    H112942   5.702   3.481   0.215
 4312TIP3    H212943   5.772   3.498   0.082
 4313TIP3   OH212944   3.071   4.553   1.234
 4313TIP3    H112945   3.132   4.485   1.203
 4313TIP3    H212946   2.990   4.537   1.185
 4314TIP3   OH212947   5.356   0.926   5.078
 4314TIP3    H112948   5.279   0.871   5.062
 4314TIP3    H212949   5.344   1.001   5.019
 4315TIP3   OH212950   1.954   1.149   4.832
 4315TIP3    H112951   1.894   1.221   4.851
 4315TIP3    H212952   1.977   1.161   4.740
 4316TIP3   OH212953   0.307   4.622   0.912
 4316TIP3    H112954   0.212   4.621   0.922
 4316TIP3    H212955   0.334   4.533   0.933
 4317TIP3   OH212956   3.158   1.088   0.483
 4317TIP3    H112957   3.132   0.997   0.492
 4317TIP3    H212958   3.080   1.138   0.506
 4318TIP3   OH212959   2.756   0.043   4.866
 4318TIP3    H112960   2.770   0.137   4.879
 4318TIP3    H212961   2.825   0.001   4.918
 4319TIP3   OH212962   4.645  -0.002   2.408
 4319TIP3    H112963   4.559   0.037   2.422
 4319TIP3    H212964   4.707   0.068   2.432
 4320TIP3   OH212965   3.723   0.545   3.096
 4320TIP3    H112966   3.764   0.582   3.175
 4320TIP3    H212967   3.658   0.610   3.071
 4321TIP3   OH212968   4.676   4.978   4.785
 4321TIP3    H112969   4.715   5.040   4.723
 4321TIP3    H212970   4.587   4.965   4.753
 4322TIP3   OH212971   0.025   4.918   2.122
 4322TIP3    H112972  -0.034   4.953   2.189
 4322TIP3    H212973   0.099   4.979   2.121
 4323TIP3   OH212974   2.580   3.308   0.338
 4323TIP3    H112975   2.557   3.374   0.274
 4323TIP3    H212976   2.551   3.225   0.299
 4324TIP3   OH212977   0.660   4.440   4.814
 4324TIP3    H112978   0.746   4.475   4.790
 4324TIP3    H212979   0.642   4.373   4.748
 4325TIP3   OH212980   0.131   0.560   1.044
 4325TIP3    H112981   0.165   0.557   0.955
 4325TIP3    H212982   0.208   0.543   1.099
 4326TIP3   OH212983   0.513   3.386   0.667
 4326TIP3    H112984   0.563   3.467   0.655
 4326TIP3    H212985   0.532   3.360   0.757
 4327TIP3   OH212986   2.853   3.705   1.613
 4327TIP3    H112987   2.798   3.710   1.534
 4327TIP3    H212988   2.822   3.625   1.657
 4328TIP3   OH212989   0.141   0.489   2.013
 4328TIP3    H112990   0.210   0.464   1.951
 4328TIP3    H212991   0.186   0.542   2.079
 4329TIP3   OH212992   2.704   5.787   1.525
 4329TIP3    H112993   2.637   5.854   1.509
 4329TIP3    H212994   2.743   5.811   1.608
 4330TIP3   OH212995   3.346   1.642   1.772
 4330TIP3    H112996   3.315   1.634   1.682
 4330TIP3    H212997   3.438   1.667   1.764
 4331TIP3   OH212998   6.005   0.333   1.360
 4331TIP3    H112999   6.098   0.314   1.368
 4331TIP3    H213000   5.964   0.280   1.429
 4332TIP3   OH213001   6.272   5.472   3.571
 4332TIP3    H113002   6.237   5.505   3.488
 4332TIP3    H213003   6.307   5.385   3.550
 4333TIP3   OH213004   3.681   0.923   0.510
 4333TIP3    H113005   3.595   0.917   0.553
 4333TIP3    H213006   3.666   0.980   0.435
 4334TIP3   OH213007   1.677   1.001   0.101
 4334TIP3    H113008   1.772   1.012   0.104
 4334TIP3    H213009   1.664   0.908   0.084
 4335TIP3   OH213010   6.065   5.375   1.498
 4335TIP3    H113011   6.081   5.420   1.581
 4335TIP3    H213012   6.116   5.424   1.434
 4336TIP3   OH213013   6.112   2.525   0.912
 4336TIP3    H113014   6.143   2.514   1.001
 4336TIP3    H213015   6.058   2.447   0.896
 4337TIP3   OH213016   5.754   4.247   4.502
 4337TIP3    H113017   5.751   4.334   4.541
 4337TIP3    H213018   5.836   4.246   4.451
 4338TIP3   OH213019   5.143   5.010   2.416
 4338TIP3    H113020   5.185   4.945   2.472
 4338TIP3    H213021   5.102   5.071   2.477
 4339TIP3   OH213022   1.349   5.907   1.808
 4339TIP3    H113023   1.392   5.980   1.764
 4339TIP3    H213024   1.389   5.829   1.770
 4340TIP3   OH213025   5.044   5.256   4.756
 4340TIP3    H113026   5.077   5.305   4.831
 4340TIP3    H213027   4.948   5.257   4.767
 4341TIP3   OH213028   0.441   5.246   1.269
 4341TIP3    H113029   0.466   5.338   1.276
 4341TIP3    H213030   0.524   5.199   1.262
 4342TIP3   OH213031   1.915   2.867   1.978
 4342TIP3    H113032   1.834   2.855   2.027
 4342TIP3    H213033   1.906   2.810   1.902
 4343TIP3   OH213034   5.265   3.987   4.569
 4343TIP3    H113035   5.211   4.002   4.491
 4343TIP3    H213036   5.272   3.891   4.575
 4344TIP3   OH213037   3.009   1.091   1.006
 4344TIP3    H113038   3.060   1.126   0.933
 4344TIP3    H213039   3.056   1.118   1.084
 4345TIP3   OH213040   0.366   2.546   3.997
 4345TIP3    H113041   0.449   2.554   4.043
 4345TIP3    H213042   0.347   2.452   3.997
 4346TIP3   OH213043   1.022   5.751   3.591
 4346TIP3    H113044   1.055   5.714   3.673
 4346TIP3    H213045   1.063   5.698   3.522
 4347TIP3   OH213046   6.148   3.923   0.751
 4347TIP3    H113047   6.180   4.012   0.738
 4347TIP3    H213048   6.133   3.890   0.662
 4348TIP3   OH213049   5.451   1.544   3.568
 4348TIP3    H113050   5.483   1.629   3.599
 4348TIP3    H213051   5.465   1.485   3.642
 4349TIP3   OH213052   5.319   2.014   4.541
 4349TIP3    H113053   5.354   2.066   4.469
 4349TIP3    H213054   5.227   1.999   4.518
 4350TIP3   OH213055   6.123   5.668   2.723
 4350TIP3    H113056   6.045   5.613   2.717
 4350TIP3    H213057   6.183   5.619   2.779
 4351TIP3   OH213058   0.082   4.375   0.618
 4351TIP3    H113059   0.118   4.363   0.530
 4351TIP3    H213060   0.006   4.317   0.621
 4352TIP3   OH213061   1.861   2.157   1.686
 4352TIP3    H113062   1.874   2.085   1.625
 4352TIP3    H213063   1.803   2.218   1.639
 4353TIP3   OH213064   4.514   2.100   3.018
 4353TIP3    H113065   4.455   2.026   3.035
 4353TIP3    H213066   4.463   2.177   3.042
 4354TIP3   OH213067   1.998   0.804   0.533
 4354TIP3    H113068   1.909   0.779   0.558
 4354TIP3    H213069   2.039   0.833   0.614
 4355TIP3   OH213070   5.659   1.919   3.202
 4355TIP3    H113071   5.698   1.831   3.208
 4355TIP3    H213072   5.723   1.970   3.152
 4356TIP3   OH213073   4.119   3.772   2.963
 4356TIP3    H113074   4.208   3.769   2.929
 4356TIP3    H213075   4.119   3.844   3.025
 4357TIP3   OH213076   2.173   0.683   2.578
 4357TIP3    H113077   2.250   0.699   2.523
 4357TIP3    H213078   2.199   0.607   2.632
 4358TIP3   OH213079   1.806   4.798   1.147
 4358TIP3    H113080   1.849   4.733   1.092
 4358TIP3    H213081   1.870   4.817   1.216
 4359TIP3   OH213082   5.914   3.974   0.096
 4359TIP3    H113083   5.829   4.001   0.130
 4359TIP3    H213084   5.896   3.894   0.046
 4360TIP3   OH213085   0.468   3.882   4.378
 4360TIP3    H113086   0.431   3.881   4.289
 4360TIP3    H213087   0.456   3.792   4.409
 4361TIP3   OH213088   1.539   4.007   0.986
 4361TIP3    H113089   1.465   4.055   0.949
 4361TIP3    H213090   1.594   4.075   1.026
 4362TIP3   OH213091   1.179   2.855   3.392
 4362TIP3    H113092   1.254   2.914   3.397
 4362TIP3    H213093   1.124   2.892   3.323
 4363TIP3   OH213094   3.529   1.018   0.958
 4363TIP3    H113095   3.475   0.950   0.917
 4363TIP3    H213096   3.590   1.044   0.889
 4364TIP3   OH213097   4.932   0.665   1.573
 4364TIP3    H113098   4.921   0.692   1.664
 4364TIP3    H213099   4.890   0.579   1.568
 4365TIP3   OH213100   0.280   1.885   4.208
 4365TIP3    H113101   0.236   1.938   4.141
 4365TIP3    H213102   0.327   1.818   4.159
 4366TIP3   OH213103   4.220   4.706   5.072
 4366TIP3    H113104   4.295   4.669   5.119
 4366TIP3    H213105   4.236   4.684   4.981
 4367TIP3   OH213106   4.809   3.016   2.508
 4367TIP3    H113107   4.720   2.991   2.482
 4367TIP3    H213108   4.797   3.100   2.552
 4368TIP3   OH213109   6.055   1.352   0.470
 4368TIP3    H113110   6.029   1.442   0.448
 4368TIP3    H213111   5.978   1.299   0.448
 4369TIP3   OH213112   2.565   0.696   0.341
 4369TIP3    H113113   2.554   0.611   0.384
 4369TIP3    H213114   2.494   0.700   0.278
 4370TIP3   OH213115   1.400   2.341   5.006
 4370TIP3    H113116   1.345   2.269   4.975
 4370TIP3    H213117   1.355   2.375   5.083
 4371TIP3   OH213118   4.293   4.955   0.356
 4371TIP3    H113119   4.388   4.947   0.356
 4371TIP3    H213120   4.266   4.911   0.437
 4372TIP3   OH213121   2.247   3.989   1.265
 4372TIP3    H113122   2.338   3.992   1.294
 4372TIP3    H213123   2.251   3.958   1.175
 4373TIP3   OH213124   3.525   3.946   1.084
 4373TIP3    H113125   3.451   3.886   1.090
 4373TIP3    H213126   3.542   3.973   1.174
 4374TIP3   OH213127   4.800   1.119   1.582
 4374TIP3    H113128   4.847   1.103   1.664
 4374TIP3    H213129   4.844   1.064   1.517
 4375TIP3   OH213130   6.041   3.884   4.107
 4375TIP3    H113131   5.956   3.876   4.064
 4375TIP3    H213132   6.052   3.801   4.154
 4376TIP3   OH213133   3.766   2.492   4.835
 4376TIP3    H113134   3.706   2.541   4.890
 4376TIP3    H213135   3.808   2.558   4.780
 4377TIP3   OH213136   0.388   3.065   2.862
 4377TIP3    H113137   0.431   3.134   2.914
 4377TIP3    H213138   0.301   3.056   2.902
 4378TIP3   OH213139   1.378   5.179   0.172
 4378TIP3    H113140   1.309   5.115   0.155
 4378TIP3    H213141   1.382   5.186   0.267
 4379TIP3   OH213142   2.488   0.864   4.252
 4379TIP3    H113143   2.424   0.871   4.324
 4379TIP3    H213144   2.567   0.906   4.287
 4380TIP3   OH213145   4.915   1.327   0.313
 4380TIP3    H113146   4.867   1.374   0.245
 4380TIP3    H213147   4.855   1.324   0.388
 4381TIP3   OH213148   0.699   0.882   2.755
 4381TIP3    H113149   0.742   0.931   2.685
 4381TIP3    H213150   0.606   0.886   2.734
 4382TIP3   OH213151   6.066   5.282   2.484
 4382TIP3    H113152   6.146   5.333   2.469
 4382TIP3    H213153   5.997   5.348   2.491
 4383TIP3   OH213154   0.140   5.644   0.222
 4383TIP3    H113155   0.127   5.571   0.160
 4383TIP3    H213156   0.130   5.723   0.169
 4384TIP3   OH213157   5.130   4.104   0.703
 4384TIP3    H113158   5.165   4.157   0.632
 4384TIP3    H213159   5.042   4.079   0.674
 4385TIP3   OH213160   4.988   1.757   1.134
 4385TIP3    H113161   4.894   1.747   1.123
 4385TIP3    H213162   5.022   1.667   1.128
 4386TIP3   OH213163   1.973   2.431   4.926
 4386TIP3    H113164   1.913   2.356   4.923
 4386TIP3    H213165   1.965   2.472   4.840
 4387TIP3   OH213166   6.170   4.970   1.399
 4387TIP3    H113167   6.265   4.965   1.399
 4387TIP3    H213168   6.149   5.022   1.477
 4388TIP3   OH213169   5.489   3.433   3.332
 4388TIP3    H113170   5.414   3.395   3.377
 4388TIP3    H213171   5.471   3.420   3.239
 4389TIP3   OH213172   0.727   5.183   1.307
 4389TIP3    H113173   0.690   5.152   1.390
 4389TIP3    H213174   0.816   5.147   1.305
 4390TIP3   OH213175   2.241   3.387   1.799
 4390TIP3    H113176   2.202   3.448   1.736
 4390TIP3    H213177   2.202   3.302   1.777
 4391TIP3   OH213178   3.146   4.238   4.295
 4391TIP3    H113179   3.092   4.317   4.304
 4391TIP3    H213180   3.208   4.259   4.225
 4392TIP3   OH213181   2.963   0.579   2.883
 4392TIP3    H113182   3.053   0.604   2.900
 4392TIP3    H213183   2.939   0.628   2.804
 4393TIP3   OH213184   3.017   2.277   0.584
 4393TIP3    H113185   2.994   2.236   0.668
 4393TIP3    H213186   3.036   2.368   0.606
 4394TIP3   OH213187   1.277   4.357   1.093
 4394TIP3    H113188   1.201   4.371   1.036
 4394TIP3    H213189   1.257   4.278   1.141
 4395TIP3   OH213190   2.434   3.508   1.572
 4395TIP3    H113191   2.389   3.482   1.653
 4395TIP3    H213192   2.415   3.602   1.564
 4396TIP3   OH213193   0.339   3.165   1.964
 4396TIP3    H113194   0.429   3.157   1.934
 4396TIP3    H213195   0.286   3.122   1.897
 4397TIP3   OH213196   2.347   2.610   2.435
 4397TIP3    H113197   2.298   2.658   2.501
 4397TIP3    H213198   2.283   2.550   2.397
 4398TIP3   OH213199   4.539   1.770   3.490
 4398TIP3    H113200   4.484   1.718   3.432
 4398TIP3    H213201   4.622   1.722   3.495
 4399TIP3   OH213202   2.322   4.087   0.852
 4399TIP3    H113203   2.300   3.998   0.879
 4399TIP3    H213204   2.407   4.077   0.807
 4400TIP3   OH213205   2.487   3.251   4.912
 4400TIP3    H113206   2.537   3.310   4.856
 4400TIP3    H213207   2.530   3.166   4.904
 4401TIP3   OH213208   5.792   2.141   3.047
 4401TIP3    H113209   5.767   2.218   3.098
 4401TIP3    H213210   5.870   2.107   3.092
 4402TIP3   OH213211   2.435   0.514   0.018
 4402TIP3    H113212   2.441   0.539   0.110
 4402TIP3    H213213   2.418   0.596  -0.028
 4403TIP3   OH213214   4.270   3.324   0.511
 4403TIP3    H113215   4.351   3.373   0.524
 4403TIP3    H213216   4.235   3.313   0.600
 4404TIP3   OH213217   2.334   1.560   1.126
 4404TIP3    H113218   2.363   1.516   1.046
 4404TIP3    H213219   2.266   1.621   1.097
 4405TIP3   OH213220   2.848   3.143   4.652
 4405TIP3    H113221   2.874   3.235   4.648
 4405TIP3    H213222   2.891   3.103   4.577
 4406TIP3   OH213223   0.386   3.214   3.401
 4406TIP3    H113224   0.430   3.129   3.404
 4406TIP3    H213225   0.446   3.270   3.352
 4407TIP3   OH213226   4.525   5.852   2.453
 4407TIP3    H113227   4.586   5.853   2.380
 4407TIP3    H213228   4.542   5.769   2.498
 4408TIP3   OH213229   5.520   3.725   0.007
 4408TIP3    H113230   5.560   3.658   0.062
 4408TIP3    H213231   5.426   3.715   0.022
 4409TIP3   OH213232   0.082   4.911   0.902
 4409TIP3    H113233   0.130   4.836   0.867
 4409TIP3    H213234  -0.006   4.902   0.864
 4410TIP3   OH213235   2.255   3.036   2.780
 4410TIP3    H113236   2.163   3.043   2.756
 4410TIP3    H213237   2.272   3.113   2.835
 4411TIP3   OH213238   1.104   4.161   2.365
 4411TIP3    H113239   1.081   4.137   2.276
 4411TIP3    H213240   1.196   4.138   2.374
 4412TIP3   OH213241   3.763   1.244   2.831
 4412TIP3    H113242   3.818   1.322   2.830
 4412TIP3    H213243   3.696   1.262   2.898
 4413TIP3   OH213244   1.924   2.280   2.773
 4413TIP3    H113245   1.884   2.325   2.699
 4413TIP3    H213246   1.880   2.195   2.777
 4414TIP3   OH213247   4.282   5.931   1.368
 4414TIP3    H113248   4.286   5.913   1.274
 4414TIP3    H213249   4.373   5.950   1.393
 4415TIP3   OH213250   2.361   3.509   4.170
 4415TIP3    H113251   2.294   3.473   4.112
 4415TIP3    H213252   2.440   3.460   4.149
 4416TIP3   OH213253   3.953   4.342   4.700
 4416TIP3    H113254   4.047   4.356   4.691
 4416TIP3    H213255   3.925   4.310   4.615
 4417TIP3   OH213256   2.730   2.195   3.961
 4417TIP3    H113257   2.743   2.131   3.892
 4417TIP3    H213258   2.724   2.143   4.041
 4418TIP3   OH213259   1.249   1.528   2.986
 4418TIP3    H113260   1.197   1.449   2.998
 4418TIP3    H213261   1.295   1.514   2.904
 4419TIP3   OH213262   4.890   3.025   0.104
 4419TIP3    H113263   4.964   3.079   0.077
 4419TIP3    H213264   4.813   3.079   0.086
 4420TIP3   OH213265   5.008   5.140   2.638
 4420TIP3    H113266   4.964   5.175   2.716
 4420TIP3    H213267   5.069   5.208   2.612
 4421TIP3   OH213268   5.679   4.658   0.964
 4421TIP3    H113269   5.657   4.593   0.897
 4421TIP3    H213270   5.740   4.612   1.022
 4422TIP3   OH213271   2.580   1.875   2.436
 4422TIP3    H113272   2.603   1.833   2.353
 4422TIP3    H213273   2.499   1.923   2.416
 4423TIP3   OH213274   0.585   2.316   2.914
 4423TIP3    H113275   0.647   2.268   2.859
 4423TIP3    H213276   0.563   2.394   2.862
 4424TIP3   OH213277   2.393   2.027   3.904
 4424TIP3    H113278   2.377   1.969   3.830
 4424TIP3    H213279   2.471   1.991   3.947
 4425TIP3   OH213280   4.903   4.304   2.196
 4425TIP3    H113281   4.868   4.228   2.242
 4425TIP3    H213282   4.924   4.271   2.109
 4426TIP3   OH213283   6.192   5.511   4.791
 4426TIP3    H113284   6.132   5.488   4.861
 4426TIP3    H213285   6.166   5.599   4.764
 4427TIP3   OH213286   1.497   4.589   2.790
 4427TIP3    H113287   1.436   4.521   2.765
 4427TIP3    H213288   1.473   4.611   2.880
 4428TIP3   OH213289   4.745   1.830   1.032
 4428TIP3    H113290   4.724   1.913   1.076
 4428TIP3    H213291   4.669   1.775   1.047
 4429TIP3   OH213292   2.522   1.768   5.162
 4429TIP3    H113293   2.526   1.756   5.257
 4429TIP3    H213294   2.428   1.779   5.143
 4430TIP3   OH213295   2.501   2.459   1.643
 4430TIP3    H113296   2.531   2.550   1.637
 4430TIP3    H213297   2.523   2.432   1.732
 4431TIP3   OH213298   6.160   5.781   4.936
 4431TIP3    H113299   6.242   5.802   4.980
 4431TIP3    H213300   6.096   5.772   5.006
 4432TIP3   OH213301   5.625   2.601   1.298
 4432TIP3    H113302   5.689   2.530   1.292
 4432TIP3    H213303   5.579   2.599   1.214
 4433TIP3   OH213304   0.586   1.436   0.826
 4433TIP3    H113305   0.543   1.354   0.849
 4433TIP3    H213306   0.535   1.504   0.869
 4434TIP3   OH213307   5.210   5.562   3.467
 4434TIP3    H113308   5.208   5.467   3.452
 4434TIP3    H213309   5.239   5.599   3.384
 4435TIP3   OH213310   2.541   1.610   0.425
 4435TIP3    H113311   2.566   1.617   0.517
 4435TIP3    H213312   2.498   1.524   0.418
 4436TIP3   OH213313   6.241   4.546   1.697
 4436TIP3    H113314   6.228   4.640   1.699
 4436TIP3    H213315   6.326   4.534   1.653
 4437TIP3   OH213316   1.698   3.555   3.647
 4437TIP3    H113317   1.689   3.505   3.729
 4437TIP3    H213318   1.789   3.543   3.622
 4438TIP3   OH213319   3.006   3.943   2.169
 4438TIP3    H113320   3.025   4.007   2.237
 4438TIP3    H213321   2.993   3.996   2.090
 4439TIP3   OH213322   3.702   0.653   3.377
 4439TIP3    H113323   3.642   0.670   3.450
 4439TIP3    H213324   3.744   0.571   3.400
 4440TIP3   OH213325   3.291   1.439   1.008
 4440TIP3    H113326   3.288   1.530   0.980
 4440TIP3    H213327   3.315   1.390   0.929
 4441TIP3   OH213328   5.597   3.902   4.171
 4441TIP3    H113329   5.585   3.959   4.095
 4441TIP3    H213330   5.643   3.957   4.235
 4442TIP3   OH213331   3.905   0.681   4.182
 4442TIP3    H113332   3.869   0.689   4.270
 4442TIP3    H213333   3.839   0.719   4.125
 4443TIP3   OH213334   2.503   5.465   2.383
 4443TIP3    H113335   2.517   5.555   2.353
 4443TIP3    H213336   2.519   5.411   2.305
 4444TIP3   OH213337   3.312   1.272   4.250
 4444TIP3    H113338   3.232   1.231   4.284
 4444TIP3    H213339   3.298   1.277   4.156
 4445TIP3   OH213340   5.640   3.266   3.145
 4445TIP3    H113341   5.631   3.229   3.233
 4445TIP3    H213342   5.732   3.292   3.139
 4446TIP3   OH213343   5.150   5.348   2.540
 4446TIP3    H113344   5.160   5.386   2.453
 4446TIP3    H213345   5.240   5.336   2.571
 4447TIP3   OH213346   3.627   3.200   2.947
 4447TIP3    H113347   3.532   3.187   2.951
 4447TIP3    H213348   3.662   3.133   3.005
 4448TIP3   OH213349   4.079   0.544   3.658
 4448TIP3    H113350   4.111   0.454   3.660
 4448TIP3    H213351   4.134   0.590   3.722
 4449TIP3   OH213352   4.780   1.678   3.128
 4449TIP3    H113353   4.770   1.773   3.128
 4449TIP3    H213354   4.758   1.651   3.039
 4450TIP3   OH213355   2.117   1.380   2.859
 4450TIP3    H113356   2.147   1.315   2.796
 4450TIP3    H213357   2.064   1.441   2.808
 4451TIP3   OH213358   5.373   4.157   4.176
 4451TIP3    H113359   5.292   4.113   4.201
 4451TIP3    H213360   5.423   4.163   4.257
 4452TIP3   OH213361   5.381   0.791   0.974
 4452TIP3    H113362   5.320   0.815   0.904
 4452TIP3    H213363   5.352   0.704   1.002
 4453TIP3   OH213364   4.494   5.578   1.012
 4453TIP3    H113365   4.549   5.655   1.004
 4453TIP3    H213366   4.407   5.607   0.984
 4454TIP3   OH213367   4.884   2.831   4.072
 4454TIP3    H113368   4.858   2.739   4.062
 4454TIP3    H213369   4.926   2.853   3.988
 4455TIP3   OH213370   1.576   0.114   2.375
 4455TIP3    H113371   1.668   0.110   2.349
 4455TIP3    H213372   1.540   0.186   2.322
 4456TIP3   OH213373   4.595   5.240   2.865
 4456TIP3    H113374   4.585   5.152   2.828
 4456TIP3    H213375   4.506   5.265   2.890
 4457TIP3   OH213376  -0.020   3.097   4.028
 4457TIP3    H113377  -0.037   3.163   3.961
 4457TIP3    H213378   0.019   3.024   3.981
 4458TIP3   OH213379   1.350   5.062   0.763
 4458TIP3    H113380   1.391   5.118   0.829
 4458TIP3    H213381   1.358   5.111   0.681
 4459TIP3   OH213382   5.683   0.954   2.058
 4459TIP3    H113383   5.620   0.894   2.100
 4459TIP3    H213384   5.725   0.901   1.991
 4460TIP3   OH213385   5.221   5.646   3.179
 4460TIP3    H113386   5.151   5.582   3.165
 4460TIP3    H213387   5.269   5.647   3.096
 4461TIP3   OH213388   3.953   3.158   2.934
 4461TIP3    H113389   3.932   3.119   2.849
 4461TIP3    H213390   3.878   3.137   2.989
 4462TIP3   OH213391   1.566   3.069   3.036
 4462TIP3    H113392   1.550   2.977   3.057
 4462TIP3    H213393   1.654   3.086   3.070
 4463TIP3   OH213394   2.748   0.191   2.044
 4463TIP3    H113395   2.735   0.100   2.071
 4463TIP3    H213396   2.792   0.185   1.959
 4464TIP3   OH213397   2.632   0.260   2.639
 4464TIP3    H113398   2.716   0.262   2.685
 4464TIP3    H213399   2.567   0.246   2.707
 4465TIP3   OH213400   6.313   3.314   2.979
 4465TIP3    H113401   6.295   3.220   2.968
 4465TIP3    H213402   6.361   3.339   2.900
 4466TIP3   OH213403   4.826   1.941   2.864
 4466TIP3    H113404   4.737   1.967   2.843
 4466TIP3    H213405   4.881   1.996   2.807
 4467TIP3   OH213406   1.678   2.574   4.385
 4467TIP3    H113407   1.736   2.577   4.309
 4467TIP3    H213408   1.600   2.529   4.353
 4468TIP3   OH213409   3.874   0.566   5.199
 4468TIP3    H113410   3.821   0.641   5.172
 4468TIP3    H213411   3.905   0.527   5.117
 4469TIP3   OH213412   4.276   4.388   1.342
 4469TIP3    H113413   4.255   4.360   1.253
 4469TIP3    H213414   4.334   4.463   1.330
 4470TIP3   OH213415   1.705   1.192   0.984
 4470TIP3    H113416   1.651   1.250   1.038
 4470TIP3    H213417   1.682   1.215   0.894
 4471TIP3   OH213418   2.351   4.128   3.792
 4471TIP3    H113419   2.401   4.090   3.863
 4471TIP3    H213420   2.350   4.222   3.810
 4472TIP3   OH213421   2.483   4.164   3.194
 4472TIP3    H113422   2.514   4.204   3.276
 4472TIP3    H213423   2.391   4.187   3.190
 4473TIP3   OH213424   2.816   3.898   3.184
 4473TIP3    H113425   2.798   3.815   3.139
 4473TIP3    H213426   2.823   3.962   3.113
 4474TIP3   OH213427   0.638   4.800   4.286
 4474TIP3    H113428   0.676   4.886   4.300
 4474TIP3    H213429   0.548   4.807   4.319
 4475TIP3   OH213430   6.244   3.785   1.216
 4475TIP3    H113431   6.201   3.816   1.295
 4475TIP3    H213432   6.175   3.742   1.166
 4476TIP3   OH213433   5.072   0.115   4.664
 4476TIP3    H113434   5.133   0.163   4.607
 4476TIP3    H213435   4.987   0.154   4.647
 4477TIP3   OH213436   5.901   1.462   2.076
 4477TIP3    H113437   5.807   1.458   2.092
 4477TIP3    H213438   5.934   1.525   2.140
 4478TIP3   OH213439   2.208   1.739   4.247
 4478TIP3    H113440   2.220   1.827   4.210
 4478TIP3    H213441   2.178   1.686   4.173
 4479TIP3   OH213442   0.609   5.658   0.431
 4479TIP3    H113443   0.653   5.684   0.512
 4479TIP3    H213444   0.546   5.591   0.458
 4480TIP3   OH213445   6.099   2.687   0.264
 4480TIP3    H113446   6.014   2.730   0.264
 4480TIP3    H213447   6.161   2.757   0.286
 4481TIP3   OH213448   0.166   3.874   3.897
 4481TIP3    H113449   0.073   3.854   3.911
 4481TIP3    H213450   0.177   3.964   3.927
 4482TIP3   OH213451   5.863   5.756   3.654
 4482TIP3    H113452   5.839   5.834   3.703
 4482TIP3    H213453   5.957   5.747   3.665
 4483TIP3   OH213454   4.982   5.521   4.135
 4483TIP3    H113455   5.049   5.456   4.111
 4483TIP3    H213456   4.997   5.594   4.075
 4484TIP3   OH213457   5.610   5.617   4.339
 4484TIP3    H113458   5.564   5.566   4.406
 4484TIP3    H213459   5.543   5.635   4.273
 4485TIP3   OH213460   4.303   2.271   3.053
 4485TIP3    H113461   4.231   2.208   3.065
 4485TIP3    H213462   4.266   2.355   3.079
 4486TIP3   OH213463   3.899   0.038   0.315
 4486TIP3    H113464   3.829   0.061   0.255
 4486TIP3    H213465   3.888   0.098   0.389
 4487TIP3   OH213466   4.002   5.011   3.951
 4487TIP3    H113467   4.076   5.052   3.996
 4487TIP3    H213468   3.969   5.079   3.892
 4488TIP3   OH213469   0.011   5.429   0.088
 4488TIP3    H113470  -0.068   5.446   0.139
 4488TIP3    H213471   0.041   5.343   0.118
 4489TIP3   OH213472   2.735   0.501   1.912
 4489TIP3    H113473   2.768   0.466   1.995
 4489TIP3    H213474   2.717   0.424   1.859
 4490TIP3   OH213475   4.691   3.308   2.924
 4490TIP3    H113476   4.739   3.374   2.976
 4490TIP3    H213477   4.617   3.357   2.888
 4491TIP3   OH213478   5.255   4.235   4.674
 4491TIP3    H113479   5.165   4.259   4.695
 4491TIP3    H213480   5.249   4.146   4.640
 4492TIP3   OH213481   5.772   4.163   1.020
 4492TIP3    H113482   5.821   4.114   1.086
 4492TIP3    H213483   5.790   4.118   0.938
 4493TIP3   OH213484   2.138   5.996   1.337
 4493TIP3    H113485   2.057   5.953   1.310
 4493TIP3    H213486   2.119   6.031   1.424
 4494TIP3   OH213487   2.414   0.013   0.387
 4494TIP3    H113488   2.437   0.093   0.341
 4494TIP3    H213489   2.498  -0.026   0.411
 4495TIP3   OH213490   5.469   2.520   3.108
 4495TIP3    H113491   5.415   2.467   3.168
 4495TIP3    H213492   5.444   2.610   3.127
 4496TIP3   OH213493   4.787   0.940   0.385
 4496TIP3    H113494   4.785   0.982   0.299
 4496TIP3    H213495   4.875   0.902   0.391
 4497TIP3   OH213496   2.638   5.645   0.951
 4497TIP3    H113497   2.696   5.681   0.884
 4497TIP3    H213498   2.609   5.721   1.001
 4498TIP3   OH213499   5.649   4.817   1.899
 4498TIP3    H113500   5.635   4.815   1.994
 4498TIP3    H213501   5.731   4.770   1.885
 4499TIP3   OH213502   3.282   3.472   4.373
 4499TIP3    H113503   3.332   3.539   4.326
 4499TIP3    H213504   3.336   3.393   4.364
 4500TIP3   OH213505   5.031   2.942   1.353
 4500TIP3    H113506   5.025   2.857   1.397
 4500TIP3    H213507   4.988   3.002   1.413
 4501TIP3   OH213508   4.486   4.727   4.604
 4501TIP3    H113509   4.540   4.774   4.541
 4501TIP3    H213510   4.460   4.793   4.668
 4502TIP3   OH213511   3.612   3.270   4.735
 4502TIP3    H113512   3.699   3.235   4.752
 4502TIP3    H213513   3.624   3.332   4.664
 4503TIP3   OH213514   0.395   2.316   0.260
 4503TIP3    H113515   0.425   2.380   0.195
 4503TIP3    H213516   0.309   2.289   0.229
 4504TIP3   OH213517   4.019   1.076   2.631
 4504TIP3    H113518   3.937   1.032   2.610
 4504TIP3    H213519   4.019   1.082   2.726
 4505TIP3   OH213520   1.801   4.206   2.518
 4505TIP3    H113521   1.837   4.168   2.438
 4505TIP3    H213522   1.758   4.132   2.562
 4506TIP3   OH213523   1.904   5.524   4.031
 4506TIP3    H113524   1.902   5.469   3.952
 4506TIP3    H213525   1.842   5.595   4.012
 4507TIP3   OH213526   5.173   2.025   3.562
 4507TIP3    H113527   5.129   2.090   3.507
 4507TIP3    H213528   5.130   1.942   3.542
 4508TIP3   OH213529   5.141   2.026   2.913
 4508TIP3    H113530   5.203   2.077   2.862
 4508TIP3    H213531   5.150   1.937   2.880
 4509TIP3   OH213532   4.111   2.998   1.744
 4509TIP3    H113533   4.095   2.981   1.651
 4509TIP3    H213534   4.093   3.092   1.754
 4510TIP3   OH213535   2.660   2.426   1.318
 4510TIP3    H113536   2.662   2.338   1.355
 4510TIP3    H213537   2.724   2.475   1.371
 4511TIP3   OH213538   3.595   0.184   2.433
 4511TIP3    H113539   3.551   0.257   2.389
 4511TIP3    H213540   3.530   0.148   2.493
 4512TIP3   OH213541   1.137   4.413   4.245
 4512TIP3    H113542   1.151   4.505   4.222
 4512TIP3    H213543   1.086   4.378   4.173
 4513TIP3   OH213544   2.034   2.764   4.970
 4513TIP3    H113545   1.942   2.751   4.990
 4513TIP3    H213546   2.037   2.778   4.875
 4514TIP3   OH213547   4.485   1.268   3.296
 4514TIP3    H113548   4.569   1.242   3.257
 4514TIP3    H213549   4.420   1.217   3.249
 4515TIP3   OH213550   3.646   4.918   3.368
 4515TIP3    H113551   3.627   5.012   3.370
 4515TIP3    H213552   3.667   4.900   3.276
 4516TIP3   OH213553   0.327   5.189   4.751
 4516TIP3    H113554   0.296   5.228   4.833
 4516TIP3    H213555   0.331   5.262   4.689
 4517TIP3   OH213556   4.327   3.889   5.170
 4517TIP3    H113557   4.279   3.970   5.191
 4517TIP3    H213558   4.258   3.822   5.162
 4518TIP3   OH213559   1.043   5.514   2.287
 4518TIP3    H113560   1.135   5.514   2.311
 4518TIP3    H213561   0.998   5.486   2.367
 4519TIP3   OH213562   4.214   5.340   2.776
 4519TIP3    H113563   4.282   5.367   2.837
 4519TIP3    H213564   4.262   5.314   2.697
 4520TIP3   OH213565   1.503   0.984   3.993
 4520TIP3    H113566   1.598   0.980   3.990
 4520TIP3    H213567   1.483   1.065   4.040
 4521TIP3   OH213568   2.838   4.104   4.416
 4521TIP3    H113569   2.830   4.155   4.496
 4521TIP3    H213570   2.755   4.058   4.408
 4522TIP3   OH213571   0.569   3.730   5.006
 4522TIP3    H113572   0.542   3.815   4.971
 4522TIP3    H213573   0.500   3.670   4.978
 4523TIP3   OH213574   4.613   3.735   2.476
 4523TIP3    H113575   4.649   3.773   2.396
 4523TIP3    H213576   4.526   3.703   2.450
 4524TIP3   OH213577   6.111   0.635   2.714
 4524TIP3    H113578   6.077   0.579   2.785
 4524TIP3    H213579   6.132   0.573   2.643
 4525TIP3   OH213580   1.847   0.068   2.238
 4525TIP3    H113581   1.846   0.136   2.171
 4525TIP3    H213582   1.927   0.084   2.288
 4526TIP3   OH213583   0.176   2.893   3.667
 4526TIP3    H113584   0.188   2.987   3.655
 4526TIP3    H213585   0.197   2.854   3.582
 4527TIP3   OH213586   3.952   2.427   4.069
 4527TIP3    H113587   3.862   2.430   4.100
 4527TIP3    H213588   3.954   2.353   4.008
 4528TIP3   OH213589   3.578   0.129   0.634
 4528TIP3    H113590   3.530   0.071   0.574
 4528TIP3    H213591   3.632   0.070   0.686
 4529TIP3   OH213592   4.127   4.893   4.780
 4529TIP3    H113593   4.093   4.981   4.764
 4529TIP3    H213594   4.056   4.847   4.825
 4530TIP3   OH213595   0.733   4.620   1.124
 4530TIP3    H113596   0.717   4.562   1.049
 4530TIP3    H213597   0.747   4.706   1.084
 4531TIP3   OH213598   2.034   1.550   2.338
 4531TIP3    H113599   2.006   1.573   2.426
 4531TIP3    H213600   1.954   1.522   2.293
 4532TIP3   OH213601   2.624   5.615   0.333
 4532TIP3    H113602   2.668   5.534   0.358
 4532TIP3    H213603   2.629   5.670   0.411
 4533TIP3   OH213604   4.551   0.223   4.545
 4533TIP3    H113605   4.485   0.206   4.612
 4533TIP3    H213606   4.512   0.190   4.464
 4534TIP3   OH213607   3.366   2.744   4.382
 4534TIP3    H113608   3.324   2.766   4.465
 4534TIP3    H213609   3.293   2.726   4.322
 4535TIP3   OH213610   2.194   2.603   0.243
 4535TIP3    H113611   2.127   2.638   0.183
 4535TIP3    H213612   2.158   2.518   0.271
 4536TIP3   OH213613   3.355   4.275   3.435
 4536TIP3    H113614   3.363   4.250   3.344
 4536TIP3    H213615   3.306   4.357   3.433
 4537TIP3   OH213616   5.265   3.637   0.038
 4537TIP3    H113617   5.192   3.648   0.099
 4537TIP3    H213618   5.311   3.559   0.069
 4538TIP3   OH213619   0.823   3.774   1.040
 4538TIP3    H113620   0.798   3.765   1.132
 4538TIP3    H213621   0.808   3.867   1.020
 4539TIP3   OH213622   2.147   2.183   3.835
 4539TIP3    H113623   2.185   2.224   3.758
 4539TIP3    H213624   2.220   2.138   3.877
 4540TIP3   OH213625   2.641   3.015   1.021
 4540TIP3    H113626   2.729   3.007   1.060
 4540TIP3    H213627   2.581   3.010   1.095
 4541TIP3   OH213628   4.803   0.343   1.044
 4541TIP3    H113629   4.800   0.350   1.139
 4541TIP3    H213630   4.716   0.372   1.016
 4542TIP3   OH213631   1.861   0.268   4.979
 4542TIP3    H113632   1.876   0.175   4.998
 4542TIP3    H213633   1.774   0.271   4.939
 4543TIP3   OH213634   5.015   4.551   0.190
 4543TIP3    H113635   4.928   4.513   0.197
 4543TIP3    H213636   5.067   4.505   0.256
 4544TIP3   OH213637   1.148   0.369   4.953
 4544TIP3    H113638   1.156   0.274   4.946
 4544TIP3    H213639   1.223   0.404   4.905
 4545TIP3   OH213640   0.657   3.220   1.504
 4545TIP3    H113641   0.579   3.164   1.510
 4545TIP3    H213642   0.643   3.271   1.424
 4546TIP3   OH213643   4.064   2.218   4.854
 4546TIP3    H113644   4.040   2.169   4.775
 4546TIP3    H213645   4.115   2.156   4.906
 4547TIP3   OH213646   1.678   2.015   2.169
 4547TIP3    H113647   1.681   2.011   2.073
 4547TIP3    H213648   1.640   2.100   2.189
 4548TIP3   OH213649   1.475   1.084   4.500
 4548TIP3    H113650   1.476   1.179   4.511
 4548TIP3    H213651   1.448   1.071   4.409
 4549TIP3   OH213652   3.363   4.411   4.179
 4549TIP3    H113653   3.333   4.501   4.186
 4549TIP3    H213654   3.357   4.391   4.086
 4550TIP3   OH213655   2.459   2.949   4.405
 4550TIP3    H113656   2.527   2.928   4.469
 4550TIP3    H213657   2.493   3.026   4.358
 4551TIP3   OH213658   2.583   4.972   2.315
 4551TIP3    H113659   2.678   4.963   2.312
 4551TIP3    H213660   2.568   5.062   2.345
 4552TIP3   OH213661   2.708   5.182   0.035
 4552TIP3    H113662   2.800   5.203   0.054
 4552TIP3    H213663   2.701   5.089   0.056
 4553TIP3   OH213664   6.005   0.859   1.770
 4553TIP3    H113665   6.043   0.812   1.695
 4553TIP3    H213666   6.075   0.860   1.835
 4554TIP3   OH213667   4.505   2.798   0.021
 4554TIP3    H113668   4.535   2.868  -0.037
 4554TIP3    H213669   4.577   2.787   0.084
 4555TIP3   OH213670   5.445   3.899   2.420
 4555TIP3    H113671   5.495   3.943   2.489
 4555TIP3    H213672   5.462   3.806   2.435
 4556TIP3   OH213673   6.316   5.389   0.715
 4556TIP3    H113674   6.285   5.398   0.625
 4556TIP3    H213675   6.238   5.371   0.766
 4557TIP3   OH213676   4.498   3.025   5.095
 4557TIP3    H113677   4.453   3.098   5.138
 4557TIP3    H213678   4.591   3.040   5.114
 4558TIP3   OH213679   0.181   2.357   4.386
 4558TIP3    H113680   0.126   2.385   4.459
 4558TIP3    H213681   0.263   2.330   4.426
 4559TIP3   OH213682   2.687   5.101   1.644
 4559TIP3    H113683   2.593   5.084   1.653
 4559TIP3    H213684   2.726   5.015   1.628
 4560TIP3   OH213685   5.065   3.695   4.307
 4560TIP3    H113686   5.151   3.666   4.275
 4560TIP3    H213687   5.012   3.615   4.308
 4561TIP3   OH213688   0.139   4.758   2.453
 4561TIP3    H113689   0.068   4.717   2.404
 4561TIP3    H213690   0.201   4.788   2.386
 4562TIP3   OH213691   2.054   3.236   2.547
 4562TIP3    H113692   2.037   3.241   2.641
 4562TIP3    H213693   1.990   3.173   2.514
 4563TIP3   OH213694   3.210   5.854   1.660
 4563TIP3    H113695   3.142   5.809   1.711
 4563TIP3    H213696   3.283   5.864   1.721
 4564TIP3   OH213697   3.017   4.398   4.943
 4564TIP3    H113698   2.951   4.462   4.970
 4564TIP3    H213699   2.970   4.315   4.938
 4565TIP3   OH213700   2.680   0.053   0.908
 4565TIP3    H113701   2.704   0.056   0.816
 4565TIP3    H213702   2.745   0.110   0.951
 4566TIP3   OH213703   5.600   5.315   3.025
 4566TIP3    H113704   5.577   5.300   2.933
 4566TIP3    H213705   5.564   5.240   3.072
 4567TIP3   OH213706   4.836   5.216   3.514
 4567TIP3    H113707   4.885   5.173   3.445
 4567TIP3    H213708   4.804   5.144   3.569
 4568TIP3   OH213709   3.154   3.738   3.201
 4568TIP3    H113710   3.113   3.814   3.243
 4568TIP3    H213711   3.247   3.747   3.223
 4569TIP3   OH213712   4.158   3.346   0.990
 4569TIP3    H113713   4.190   3.361   1.079
 4569TIP3    H213714   4.083   3.287   1.001
 4570TIP3   OH213715   2.469   5.151   3.435
 4570TIP3    H113716   2.559   5.181   3.428
 4570TIP3    H213717   2.473   5.058   3.414
 4571TIP3   OH213718   4.285   0.468   2.972
 4571TIP3    H113719   4.234   0.395   2.935
 4571TIP3    H213720   4.227   0.506   3.038
 4572TIP3   OH213721   6.181   0.895   3.351
 4572TIP3    H113722   6.277   0.892   3.356
 4572TIP3    H213723   6.161   0.867   3.261
 4573TIP3   OH213724   1.975   2.070   0.941
 4573TIP3    H113725   1.894   2.056   0.892
 4573TIP3    H213726   2.025   2.131   0.887
 4574TIP3   OH213727   3.095   1.185   1.444
 4574TIP3    H113728   3.097   1.090   1.429
 4574TIP3    H213729   3.125   1.223   1.361
 4575TIP3   OH213730   4.135   5.902   4.585
 4575TIP3    H113731   4.117   5.982   4.634
 4575TIP3    H213732   4.077   5.907   4.509
 4576TIP3   OH213733   4.700   4.406   3.286
 4576TIP3    H113734   4.669   4.315   3.284
 4576TIP3    H213735   4.640   4.451   3.345
 4577TIP3   OH213736   1.406   2.633   1.183
 4577TIP3    H113737   1.315   2.657   1.168
 4577TIP3    H213738   1.416   2.547   1.141
 4578TIP3   OH213739   4.722   0.727   4.438
 4578TIP3    H113740   4.639   0.774   4.443
 4578TIP3    H213741   4.698   0.635   4.448
 4579TIP3   OH213742   5.149   5.842   4.901
 4579TIP3    H113743   5.222   5.887   4.858
 4579TIP3    H213744   5.083   5.834   4.832
 4580TIP3   OH213745   4.267   3.807   3.510
 4580TIP3    H113746   4.328   3.869   3.550
 4580TIP3    H213747   4.189   3.811   3.565
 4581TIP3   OH213748   0.926   0.811   4.743
 4581TIP3    H113749   0.981   0.758   4.801
 4581TIP3    H213750   0.968   0.801   4.657
 4582TIP3   OH213751   3.031   2.786   3.263
 4582TIP3    H113752   2.975   2.860   3.241
 4582TIP3    H213753   3.114   2.805   3.219
 4583TIP3   OH213754   4.702   5.198   1.483
 4583TIP3    H113755   4.717   5.238   1.397
 4583TIP3    H213756   4.761   5.123   1.486
 4584TIP3   OH213757   0.328   5.892   4.958
 4584TIP3    H113758   0.232   5.892   4.951
 4584TIP3    H213759   0.356   5.823   4.898
 4585TIP3   OH213760   4.637   5.468   1.257
 4585TIP3    H113761   4.604   5.509   1.177
 4585TIP3    H213762   4.712   5.416   1.228
 4586TIP3   OH213763   1.956   2.539   4.616
 4586TIP3    H113764   1.930   2.626   4.584
 4586TIP3    H213765   2.036   2.555   4.666
 4587TIP3   OH213766   4.093   0.055   1.540
 4587TIP3    H113767   4.109  -0.039   1.550
 4587TIP3    H213768   4.017   0.073   1.595
 4588TIP3   OH213769   1.022   4.389   2.081
 4588TIP3    H113770   1.023   4.484   2.085
 4588TIP3    H213771   1.055   4.368   1.994
 4589TIP3   OH213772   3.009   1.317   2.822
 4589TIP3    H113773   3.028   1.273   2.740
 4589TIP3    H213774   2.956   1.393   2.797
 4590TIP3   OH213775   4.218   4.300   1.900
 4590TIP3    H113776   4.131   4.334   1.878
 4590TIP3    H213777   4.276   4.343   1.837
 4591TIP3   OH213778   1.562   4.824   5.069
 4591TIP3    H113779   1.613   4.776   5.135
 4591TIP3    H213780   1.542   4.908   5.110
 4592TIP3   OH213781   2.829   4.595   1.621
 4592TIP3    H113782   2.923   4.589   1.604
 4592TIP3    H213783   2.805   4.684   1.594
 4593TIP3   OH213784   4.668   2.717   5.076
 4593TIP3    H113785   4.695   2.640   5.026
 4593TIP3    H213786   4.714   2.709   5.160
 4594TIP3   OH213787   4.809   4.276   3.580
 4594TIP3    H113788   4.901   4.249   3.576
 4594TIP3    H213789   4.813   4.371   3.586
 4595TIP3   OH213790   2.363   0.726   1.355
 4595TIP3    H113791   2.364   0.726   1.259
 4595TIP3    H213792   2.335   0.814   1.378
 4596TIP3   OH213793   4.376   3.638   2.369
 4596TIP3    H113794   4.385   3.554   2.325
 4596TIP3    H213795   4.287   3.637   2.405
 4597TIP3   OH213796   1.562   4.911   1.131
 4597TIP3    H113797   1.641   4.859   1.140
 4597TIP3    H213798   1.525   4.914   1.219
 4598TIP3   OH213799   2.479   4.864   0.302
 4598TIP3    H113800   2.390   4.880   0.334
 4598TIP3    H213801   2.472   4.784   0.251
 4599TIP3   OH213802   4.996   1.355   4.876
 4599TIP3    H113803   4.966   1.273   4.916
 4599TIP3    H213804   5.011   1.333   4.784
 4600TIP3   OH213805   3.623   3.580   2.469
 4600TIP3    H113806   3.567   3.505   2.486
 4600TIP3    H213807   3.709   3.555   2.503
 4601TIP3   OH213808   0.653   4.462   3.394
 4601TIP3    H113809   0.681   4.553   3.383
 4601TIP3    H213810   0.677   4.441   3.485
 4602TIP3   OH213811   1.331   5.920   0.420
 4602TIP3    H113812   1.401   5.949   0.361
 4602TIP3    H213813   1.252   5.960   0.385
 4603TIP3   OH213814   4.790   1.734   0.260
 4603TIP3    H113815   4.765   1.815   0.216
 4603TIP3    H213816   4.835   1.762   0.339
 4604TIP3   OH213817   4.691   1.989   0.171
 4604TIP3    H113818   4.617   1.975   0.229
 4604TIP3    H213819   4.659   2.053   0.106
 4605TIP3   OH213820   4.442   1.603   1.797
 4605TIP3    H113821   4.368   1.550   1.767
 4605TIP3    H213822   4.519   1.561   1.759
 4606TIP3   OH213823   1.542   1.363   2.169
 4606TIP3    H113824   1.601   1.393   2.101
 4606TIP3    H213825   1.476   1.310   2.123
 4607TIP3   OH213826   2.856   4.043   4.694
 4607TIP3    H113827   2.868   4.135   4.672
 4607TIP3    H213828   2.813   4.044   4.779
 4608TIP3   OH213829   1.866   0.502   5.152
 4608TIP3    H113830   1.832   0.431   5.098
 4608TIP3    H213831   1.791   0.561   5.163
 4609TIP3   OH213832   2.694   4.510   4.529
 4609TIP3    H113833   2.668   4.599   4.556
 4609TIP3    H213834   2.711   4.518   4.435
 4610TIP3   OH213835   1.574   0.245   3.138
 4610TIP3    H113836   1.534   0.295   3.066
 4610TIP3    H213837   1.667   0.264   3.130
 4611TIP3   OH213838   1.999   1.312   5.071
 4611TIP3    H113839   1.916   1.266   5.080
 4611TIP3    H213840   2.042   1.300   5.156
 4612TIP3   OH213841   0.745   0.864   3.022
 4612TIP3    H113842   0.732   0.868   2.927
 4612TIP3    H213843   0.795   0.943   3.043
 4613TIP3   OH213844   5.986   5.272   2.807
 4613TIP3    H113845   5.980   5.206   2.876
 4613TIP3    H213846   6.047   5.234   2.743
 4614TIP3   OH213847   0.227   0.294   1.255
 4614TIP3    H113848   0.233   0.296   1.160
 4614TIP3    H213849   0.273   0.213   1.280
 4615TIP3   OH213850   2.755   5.511   3.407
 4615TIP3    H113851   2.671   5.517   3.453
 4615TIP3    H213852   2.817   5.557   3.465
 4616TIP3   OH213853   0.774   1.506   1.242
 4616TIP3    H113854   0.739   1.427   1.201
 4616TIP3    H213855   0.707   1.532   1.305
 4617TIP3   OH213856   3.942   5.594   1.619
 4617TIP3    H113857   3.884   5.634   1.683
 4617TIP3    H213858   4.009   5.660   1.602
 4618TIP3   OH213859   3.316   2.721   4.742
 4618TIP3    H113860   3.255   2.739   4.813
 4618TIP3    H213861   3.389   2.782   4.756
 4619TIP3   OH213862   4.349   3.340   2.308
 4619TIP3    H113863   4.347   3.370   2.217
 4619TIP3    H213864   4.272   3.283   2.317
 4620TIP3   OH213865   1.817   4.946   0.477
 4620TIP3    H113866   1.875   4.873   0.496
 4620TIP3    H213867   1.845   4.977   0.390
 4621TIP3   OH213868   3.463   1.660   4.861
 4621TIP3    H113869   3.544   1.626   4.899
 4621TIP3    H213870   3.476   1.755   4.858
 4622TIP3   OH213871   4.634   0.486   1.813
 4622TIP3    H113872   4.606   0.405   1.769
 4622TIP3    H213873   4.722   0.502   1.780
 4623TIP3   OH213874   3.265   3.459   1.112
 4623TIP3    H113875   3.223   3.410   1.041
 4623TIP3    H213876   3.347   3.412   1.128
 4624TIP3   OH213877   5.139   5.827   1.000
 4624TIP3    H113878   5.200   5.893   0.967
 4624TIP3    H213879   5.154   5.750   0.945
 4625TIP3   OH213880   4.592   4.711   2.253
 4625TIP3    H113881   4.604   4.799   2.217
 4625TIP3    H213882   4.525   4.722   2.320
 4626TIP3   OH213883   1.915   4.663   4.046
 4626TIP3    H113884   1.997   4.710   4.032
 4626TIP3    H213885   1.936   4.571   4.031
 4627TIP3   OH213886   5.875   5.502   2.742
 4627TIP3    H113887   5.799   5.477   2.691
 4627TIP3    H213888   5.914   5.419   2.771
 4628TIP3   OH213889   2.953   4.855   0.579
 4628TIP3    H113890   3.046   4.831   0.579
 4628TIP3    H213891   2.930   4.864   0.487
 4629TIP3   OH213892   1.632   4.764   2.053
 4629TIP3    H113893   1.707   4.711   2.025
 4629TIP3    H213894   1.670   4.838   2.099
 4630TIP3   OH213895   3.245   5.373   0.344
 4630TIP3    H113896   3.216   5.447   0.290
 4630TIP3    H213897   3.213   5.394   0.432
 4631TIP3   OH213898   6.117   4.206   1.270
 4631TIP3    H113899   6.053   4.273   1.297
 4631TIP3    H213900   6.193   4.257   1.241
 4632TIP3   OH213901   4.523   3.050   0.875
 4632TIP3    H113902   4.480   3.021   0.955
 4632TIP3    H213903   4.475   3.129   0.849
 4633TIP3   OH213904   6.174   5.132   1.604
 4633TIP3    H113905   6.176   5.163   1.695
 4633TIP3    H213906   6.154   5.210   1.553
 4634TIP3   OH213907   5.939   1.505   3.874
 4634TIP3    H113908   5.931   1.440   3.944
 4634TIP3    H213909   5.894   1.582   3.908
 4635TIP3   OH213910   1.913   3.122   4.423
 4635TIP3    H113911   1.931   3.147   4.513
 4635TIP3    H213912   1.817   3.126   4.416
 4636TIP3   OH213913   4.626   2.923   0.627
 4636TIP3    H113914   4.575   2.915   0.547
 4636TIP3    H213915   4.561   2.930   0.697
 4637TIP3   OH213916   6.174   1.510   4.123
 4637TIP3    H113917   6.218   1.436   4.166
 4637TIP3    H213918   6.102   1.532   4.182
 4638TIP3   OH213919   4.037   0.178   2.618
 4638TIP3    H113920   4.024   0.223   2.535
 4638TIP3    H213921   4.034   0.247   2.684
 4639TIP3   OH213922   0.341   0.229   3.610
 4639TIP3    H113923   0.388   0.300   3.653
 4639TIP3    H213924   0.409   0.178   3.566
 4640TIP3   OH213925   1.874   5.440   1.429
 4640TIP3    H113926   1.846   5.527   1.457
 4640TIP3    H213927   1.862   5.385   1.507
 4641TIP3   OH213928   1.720   0.514   2.739
 4641TIP3    H113929   1.679   0.558   2.665
 4641TIP3    H213930   1.685   0.558   2.816
 4642TIP3   OH213931   5.945   4.138   3.539
 4642TIP3    H113932   5.954   4.062   3.482
 4642TIP3    H213933   5.869   4.117   3.594
 4643TIP3   OH213934   1.392   1.070   3.276
 4643TIP3    H113935   1.354   1.100   3.194
 4643TIP3    H213936   1.333   1.002   3.307
 4644TIP3   OH213937   2.178   4.822   4.115
 4644TIP3    H113938   2.266   4.825   4.153
 4644TIP3    H213939   2.130   4.892   4.159
 4645TIP3   OH213940   3.016   4.661   3.067
 4645TIP3    H113941   2.987   4.701   2.986
 4645TIP3    H213942   3.098   4.705   3.088
 4646TIP3   OH213943   3.309   4.231   4.510
 4646TIP3    H113944   3.257   4.248   4.432
 4646TIP3    H213945   3.381   4.176   4.479
 4647TIP3   OH213946   5.153   3.013   1.093
 4647TIP3    H113947   5.152   2.919   1.113
 4647TIP3    H213948   5.159   3.017   0.997
 4648TIP3   OH213949   0.740   4.112   4.833
 4648TIP3    H113950   0.822   4.145   4.795
 4648TIP3    H213951   0.700   4.061   4.762
 4649TIP3   OH213952   1.909   0.016   0.115
 4649TIP3    H113953   1.973   0.087   0.111
 4649TIP3    H213954   1.831   0.051   0.072
 4650TIP3   OH213955   5.229   4.017   2.330
 4650TIP3    H113956   5.280   4.089   2.293
 4650TIP3    H213957   5.294   3.955   2.363
 4651TIP3   OH213958   0.882   3.513   0.076
 4651TIP3    H113959   0.956   3.565   0.045
 4651TIP3    H213960   0.895   3.507   0.171
 4652TIP3   OH213961   5.077   0.698   0.880
 4652TIP3    H113962   5.097   0.705   0.973
 4652TIP3    H213963   5.138   0.633   0.847
 4653TIP3   OH213964   6.139   4.578   4.205
 4653TIP3    H113965   6.144   4.633   4.283
 4653TIP3    H213966   6.208   4.612   4.148
 4654TIP3   OH213967   4.001   3.974   4.369
 4654TIP3    H113968   4.031   3.887   4.345
 4654TIP3    H213969   3.985   3.969   4.463
 4655TIP3   OH213970   4.682   5.526   2.873
 4655TIP3    H113971   4.771   5.515   2.839
 4655TIP3    H213972   4.641   5.440   2.861
 4656TIP3   OH213973   3.524   1.378   1.936
 4656TIP3    H113974   3.568   1.460   1.914
 4656TIP3    H213975   3.595   1.315   1.947
 4657TIP3   OH213976   1.085   5.703   4.823
 4657TIP3    H113977   1.139   5.697   4.902
 4657TIP3    H213978   1.117   5.634   4.766
 4658TIP3   OH213979   6.370   1.593   3.573
 4658TIP3    H113980   6.294   1.537   3.580
 4658TIP3    H213981   6.374   1.617   3.480
 4659TIP3   OH213982   2.798   2.031   1.448
 4659TIP3    H113983   2.858   2.105   1.449
 4659TIP3    H213984   2.837   1.969   1.386
 4660TIP3   OH213985   3.014   5.680   1.256
 4660TIP3    H113986   2.969   5.759   1.286
 4660TIP3    H213987   2.946   5.613   1.253
 4661TIP3   OH213988   0.065   2.649   2.043
 4661TIP3    H113989   0.024   2.586   1.984
 4661TIP3    H213990   0.023   2.633   2.128
 4662TIP3   OH213991   0.035   2.750   1.199
 4662TIP3    H113992   0.092   2.729   1.273
 4662TIP3    H213993  -0.013   2.828   1.227
 4663TIP3   OH213994   6.055   4.162   4.621
 4663TIP3    H113995   6.084   4.232   4.680
 4663TIP3    H213996   6.097   4.183   4.537
 4664TIP3   OH213997   4.758   5.296   4.825
 4664TIP3    H113998   4.765   5.357   4.752
 4664TIP3    H213999   4.701   5.340   4.888
 4665TIP3   OH214000   3.812   1.445   1.652
 4665TIP3    H114001   3.823   1.352   1.673
 4665TIP3    H214002   3.902   1.477   1.639
 4666TIP3   OH214003   4.623   5.230   4.266
 4666TIP3    H114004   4.610   5.261   4.356
 4666TIP3    H214005   4.561   5.158   4.257
 4667TIP3   OH214006   4.554   5.246   4.541
 4667TIP3    H114007   4.534   5.317   4.602
 4667TIP3    H214008   4.489   5.179   4.560
 4668TIP3   OH214009   3.891   3.833   1.108
 4668TIP3    H114010   3.907   3.764   1.044
 4668TIP3    H214011   3.958   3.899   1.090
 4669TIP3   OH214012   3.902   2.497   4.421
 4669TIP3    H114013   3.851   2.418   4.438
 4669TIP3    H214014   3.852   2.567   4.462
 4670TIP3   OH214015   0.549   0.656   3.904
 4670TIP3    H114016   0.511   0.686   3.987
 4670TIP3    H214017   0.641   0.639   3.925
 4671TIP3   OH214018   4.849   4.694   0.869
 4671TIP3    H114019   4.927   4.726   0.914
 4671TIP3    H214020   4.793   4.771   0.861
 4672TIP3   OH214021   1.350   2.214   1.439
 4672TIP3    H114022   1.402   2.295   1.435
 4672TIP3    H214023   1.300   2.223   1.520
 4673TIP3   OH214024   0.358   5.518   3.943
 4673TIP3    H114025   0.284   5.500   4.000
 4673TIP3    H214026   0.409   5.583   3.990
 4674TIP3   OH214027   3.931   0.353   1.209
 4674TIP3    H114028   3.969   0.266   1.195
 4674TIP3    H214029   3.837   0.339   1.202
 4675TIP3   OH214030   3.214   2.872   3.076
 4675TIP3    H114031   3.265   2.946   3.044
 4675TIP3    H214032   3.161   2.845   3.002
 4676TIP3   OH214033   2.644   3.861   2.084
 4676TIP3    H114034   2.690   3.879   2.002
 4676TIP3    H214035   2.555   3.892   2.069
 4677TIP3   OH214036   1.652   5.765   4.966
 4677TIP3    H114037   1.566   5.772   4.924
 4677TIP3    H214038   1.640   5.806   5.052
 4678TIP3   OH214039   1.653   3.176   4.069
 4678TIP3    H114040   1.653   3.096   4.015
 4678TIP3    H214041   1.565   3.179   4.106
 4679TIP3   OH214042   1.932   3.917   4.364
 4679TIP3    H114043   2.007   3.938   4.309
 4679TIP3    H214044   1.929   3.987   4.429
 4680TIP3   OH214045   1.620   1.866   1.349
 4680TIP3    H114046   1.587   1.924   1.417
 4680TIP3    H214047   1.585   1.901   1.267
 4681TIP3   OH214048   3.128   1.491   0.365
 4681TIP3    H114049   3.213   1.532   0.381
 4681TIP3    H214050   3.075   1.561   0.326
 4682TIP3   OH214051   3.355   2.088   1.403
 4682TIP3    H114052   3.286   2.024   1.422
 4682TIP3    H214053   3.332   2.124   1.318
 4683TIP3   OH214054   2.767   1.693   0.129
 4683TIP3    H114055   2.796   1.652   0.048
 4683TIP3    H214056   2.828   1.661   0.196
 4684TIP3   OH214057   5.050   0.470   3.750
 4684TIP3    H114058   5.060   0.382   3.787
 4684TIP3    H214059   5.140   0.502   3.740
 4685TIP3   OH214060   0.957   5.052   1.315
 4685TIP3    H114061   0.972   5.059   1.409
 4685TIP3    H214062   0.988   4.965   1.292
 4686TIP3   OH214063   1.308   4.353   3.523
 4686TIP3    H114064   1.344   4.376   3.437
 4686TIP3    H214065   1.319   4.259   3.529
 4687TIP3   OH214066   0.160   3.025   4.547
 4687TIP3    H114067   0.243   3.029   4.500
 4687TIP3    H214068   0.098   2.990   4.483
 4688TIP3   OH214069   6.273   1.737   5.205
 4688TIP3    H114070   6.348   1.795   5.191
 4688TIP3    H214071   6.213   1.757   5.133
 4689TIP3   OH214072   2.577   1.175   0.702
 4689TIP3    H114073   2.620   1.169   0.787
 4689TIP3    H214074   2.589   1.088   0.663
 4690TIP3   OH214075   0.202   2.781   4.808
 4690TIP3    H114076   0.244   2.864   4.829
 4690TIP3    H214077   0.250   2.716   4.859
 4691TIP3   OH214078   1.635   4.342   0.366
 4691TIP3    H114079   1.721   4.347   0.325
 4691TIP3    H214080   1.588   4.418   0.332
 4692TIP3   OH214081   0.227   1.475   2.579
 4692TIP3    H114082   0.315   1.489   2.542
 4692TIP3    H214083   0.189   1.563   2.582
 4693TIP3   OH214084   1.274   0.259   3.063
 4693TIP3    H114085   1.187   0.218   3.070
 4693TIP3    H214086   1.307   0.261   3.153
 4694TIP3   OH214087   5.418   3.087   0.588
 4694TIP3    H114088   5.428   2.993   0.572
 4694TIP3    H214089   5.507   3.121   0.585
 4695TIP3   OH214090   2.508   2.443   1.922
 4695TIP3    H114091   2.513   2.392   2.002
 4695TIP3    H214092   2.527   2.533   1.949
 4696TIP3   OH214093   4.726   2.128   1.813
 4696TIP3    H114094   4.716   2.206   1.869
 4696TIP3    H214095   4.770   2.064   1.869
 4697TIP3   OH214096   4.276   3.737   0.570
 4697TIP3    H114097   4.261   3.827   0.539
 4697TIP3    H214098   4.256   3.683   0.494
 4698TIP3   OH214099   2.359   4.559   0.200
 4698TIP3    H114100   2.446   4.519   0.212
 4698TIP3    H214101   2.333   4.587   0.288
 4699TIP3   OH214102   0.954   4.921   2.230
 4699TIP3    H114103   1.020   4.987   2.248
 4699TIP3    H214104   0.901   4.918   2.309
 4700TIP3   OH214105   4.867   4.747   3.869
 4700TIP3    H114106   4.889   4.777   3.958
 4700TIP3    H214107   4.881   4.824   3.814
 4701TIP3   OH214108   5.509   0.067   2.059
 4701TIP3    H114109   5.592   0.104   2.030
 4701TIP3    H214110   5.515   0.068   2.155
 4702TIP3   OH214111   1.932   0.789   2.532
 4702TIP3    H114112   1.886   0.721   2.482
 4702TIP3    H214113   2.010   0.745   2.565
 4703TIP3   OH214114   0.224   1.623   1.562
 4703TIP3    H114115   0.312   1.592   1.584
 4703TIP3    H214116   0.231   1.650   1.470
 4704TIP3   OH214117   1.803   5.247   1.222
 4704TIP3    H114118   1.887   5.202   1.207
 4704TIP3    H214119   1.823   5.315   1.285
 4705TIP3   OH214120   0.143   1.191   3.211
 4705TIP3    H114121   0.070   1.195   3.272
 4705TIP3    H214122   0.104   1.166   3.127
 4706TIP3   OH214123   6.312   3.589   3.154
 4706TIP3    H114124   6.347   3.601   3.065
 4706TIP3    H214125   6.339   3.501   3.179
 4707TIP3   OH214126   2.060   3.593   5.128
 4707TIP3    H114127   2.118   3.670   5.128
 4707TIP3    H214128   2.043   3.577   5.035
 4708TIP3   OH214129   5.288   2.478   2.737
 4708TIP3    H114130   5.245   2.392   2.742
 4708TIP3    H214131   5.350   2.478   2.809
 4709TIP3   OH214132   5.102   4.421   1.696
 4709TIP3    H114133   5.192   4.393   1.707
 4709TIP3    H214134   5.103   4.474   1.616
 4710TIP3   OH214135   1.142   1.931   4.708
 4710TIP3    H114136   1.048   1.924   4.691
 4710TIP3    H214137   1.176   1.983   4.635
 4711TIP3   OH214138   4.620   2.587   1.105
 4711TIP3    H114139   4.690   2.545   1.055
 4711TIP3    H214140   4.658   2.670   1.135
 4712TIP3   OH214141   5.487   4.253   5.096
 4712TIP3    H114142   5.426   4.302   5.041
 4712TIP3    H214143   5.477   4.162   5.067
 4713TIP3   OH214144   2.229   2.404   0.623
 4713TIP3    H114145   2.151   2.431   0.576
 4713TIP3    H214146   2.301   2.426   0.564
 4714TIP3   OH214147   0.453   1.784   2.300
 4714TIP3    H114148   0.479   1.850   2.364
 4714TIP3    H214149   0.496   1.810   2.218
 4715TIP3   OH214150   0.275   4.847   3.976
 4715TIP3    H114151   0.318   4.789   4.039
 4715TIP3    H214152   0.211   4.792   3.932
 4716TIP3   OH214153   5.909   5.504   2.455
 4716TIP3    H114154   5.901   5.521   2.549
 4716TIP3    H214155   5.822   5.520   2.420
 4717TIP3   OH214156   0.358   1.957   1.692
 4717TIP3    H114157   0.345   1.921   1.779
 4717TIP3    H214158   0.274   1.945   1.648
 4718TIP3   OH214159   5.994   0.900   2.768
 4718TIP3    H114160   5.903   0.872   2.778
 4718TIP3    H214161   6.005   0.971   2.831
 4719TIP3   OH214162   1.281   4.276   4.415
 4719TIP3    H114163   1.225   4.275   4.492
 4719TIP3    H214164   1.232   4.325   4.350
 4720TIP3   OH214165   5.130   0.204   4.246
 4720TIP3    H114166   5.045   0.229   4.282
 4720TIP3    H214167   5.114   0.121   4.202
 4721TIP3   OH214168   0.280   0.179   4.551
 4721TIP3    H114169   0.188   0.185   4.577
 4721TIP3    H214170   0.280   0.211   4.460
 4722TIP3   OH214171   1.850   4.124   0.430
 4722TIP3    H114172   1.796   4.047   0.413
 4722TIP3    H214173   1.935   4.088   0.454
 4723TIP3   OH214174   5.898   4.295   0.717
 4723TIP3    H114175   5.841   4.266   0.788
 4723TIP3    H214176   5.883   4.232   0.647
 4724TIP3   OH214177   4.629   5.380   3.489
 4724TIP3    H114178   4.622   5.407   3.581
 4724TIP3    H214179   4.685   5.303   3.492
 4725TIP3   OH214180   1.501   0.987   0.787
 4725TIP3    H114181   1.470   0.896   0.792
 4725TIP3    H214182   1.594   0.982   0.808
 4726TIP3   OH214183   4.016   5.456   4.448
 4726TIP3    H114184   4.059   5.445   4.533
 4726TIP3    H214185   4.052   5.538   4.414
 4727TIP3   OH214186   6.309   1.846   3.704
 4727TIP3    H114187   6.234   1.808   3.752
 4727TIP3    H214188   6.335   1.777   3.643
 4728TIP3   OH214189   1.691   0.160   0.020
 4728TIP3    H114190   1.610   0.113   0.036
 4728TIP3    H214191   1.693   0.230   0.085
 4729TIP3   OH214192   4.103   0.612   4.667
 4729TIP3    H114193   4.146   0.631   4.584
 4729TIP3    H214194   4.064   0.525   4.654
 4730TIP3   OH214195   4.009   1.598   1.281
 4730TIP3    H114196   4.051   1.520   1.245
 4730TIP3    H214197   4.050   1.610   1.367
 4731TIP3   OH214198   3.802   2.888   1.073
 4731TIP3    H114199   3.822   2.926   1.158
 4731TIP3    H214200   3.764   2.959   1.022
 4732TIP3   OH214201   3.105   2.147   1.066
 4732TIP3    H114202   3.033   2.201   1.100
 4732TIP3    H214203   3.179   2.170   1.121
 4733TIP3   OH214204   4.358   2.180   3.939
 4733TIP3    H114205   4.273   2.219   3.916
 4733TIP3    H214206   4.414   2.199   3.865
 4734TIP3   OH214207   0.452   2.559   4.789
 4734TIP3    H114208   0.405   2.476   4.793
 4734TIP3    H214209   0.470   2.573   4.696
 4735TIP3   OH214210   0.862   3.337   3.171
 4735TIP3    H114211   0.816   3.316   3.090
 4735TIP3    H214212   0.859   3.433   3.176
 4736TIP3   OH214213   4.751   4.233   1.921
 4736TIP3    H114214   4.716   4.311   1.965
 4736TIP3    H214215   4.768   4.262   1.831
 4737TIP3   OH214216   3.151   0.806   3.163
 4737TIP3    H114217   3.111   0.728   3.202
 4737TIP3    H214218   3.163   0.784   3.071
 4738TIP3   OH214219   5.709   2.661   3.762
 4738TIP3    H114220   5.686   2.599   3.692
 4738TIP3    H214221   5.630   2.668   3.815
 4739TIP3   OH214222   2.083   3.073   2.002
 4739TIP3    H114223   2.161   3.035   1.959
 4739TIP3    H214224   2.020   3.001   2.004
 4740TIP3   OH214225   3.509   4.094   2.242
 4740TIP3    H114226   3.585   4.132   2.286
 4740TIP3    H214227   3.513   4.129   2.153
 4741TIP3   OH214228   6.210   5.095   2.996
 4741TIP3    H114229   6.244   5.080   2.908
 4741TIP3    H214230   6.275   5.055   3.054
 4742TIP3   OH214231   3.355   0.657   4.307
 4742TIP3    H114232   3.301   0.628   4.233
 4742TIP3    H214233   3.435   0.605   4.299
 4743TIP3   OH214234   2.335   5.172   0.833
 4743TIP3    H114235   2.260   5.130   0.792
 4743TIP3    H214236   2.407   5.159   0.770
 4744TIP3   OH214237   1.139   4.953   4.314
 4744TIP3    H114238   1.203   4.995   4.256
 4744TIP3    H214239   1.091   5.026   4.354
 4745TIP3   OH214240   5.784   5.872   5.120
 4745TIP3    H114241   5.722   5.857   5.191
 4745TIP3    H214242   5.734   5.856   5.040
 4746TIP3   OH214243   5.388   2.276   3.402
 4746TIP3    H114244   5.325   2.215   3.362
 4746TIP3    H214245   5.335   2.333   3.457
 4747TIP3   OH214246   5.735   3.193   1.821
 4747TIP3    H114247   5.683   3.162   1.746
 4747TIP3    H214248   5.770   3.277   1.793
 4748TIP3   OH214249   4.772   4.096   2.279
 4748TIP3    H114250   4.715   4.033   2.234
 4748TIP3    H214251   4.834   4.042   2.327
 4749TIP3   OH214252   2.558   1.858   0.734
 4749TIP3    H114253   2.529   1.912   0.808
 4749TIP3    H214254   2.586   1.921   0.668
 4750TIP3   OH214255   2.691   0.952   3.905
 4750TIP3    H114256   2.777   0.972   3.942
 4750TIP3    H214257   2.677   1.019   3.839
 4751TIP3   OH214258   2.682   0.236   1.294
 4751TIP3    H114259   2.728   0.262   1.214
 4751TIP3    H214260   2.615   0.304   1.307
 4752TIP3   OH214261   4.442   3.654   0.307
 4752TIP3    H114262   4.453   3.559   0.302
 4752TIP3    H214263   4.524   3.687   0.342
 4753TIP3   OH214264   2.689   5.265   0.659
 4753TIP3    H114265   2.741   5.186   0.674
 4753TIP3    H214266   2.627   5.240   0.590
 4754TIP3   OH214267   5.142   5.736   1.603
 4754TIP3    H114268   5.083   5.686   1.547
 4754TIP3    H214269   5.218   5.753   1.548
 4755TIP3   OH214270   4.476   2.619   4.216
 4755TIP3    H114271   4.443   2.603   4.304
 4755TIP3    H214272   4.416   2.572   4.159
 4756TIP3   OH214273   2.531   3.762   1.752
 4756TIP3    H114274   2.593   3.690   1.737
 4756TIP3    H214275   2.568   3.810   1.826
 4757TIP3   OH214276   0.504   2.285   1.757
 4757TIP3    H114277   0.420   2.259   1.719
 4757TIP3    H214278   0.490   2.277   1.851
 4758TIP3   OH214279   6.025   4.289   2.341
 4758TIP3    H114280   6.048   4.232   2.414
 4758TIP3    H214281   5.936   4.263   2.318
 4759TIP3   OH214282   5.476   3.002   0.187
 4759TIP3    H114283   5.491   3.086   0.231
 4759TIP3    H214284   5.529   3.007   0.108
 4760TIP3   OH214285   0.248   1.752   3.335
 4760TIP3    H114286   0.171   1.804   3.356
 4760TIP3    H214287   0.287   1.797   3.259
 4761TIP3   OH214288   4.836   1.667   1.971
 4761TIP3    H114289   4.888   1.607   1.917
 4761TIP3    H214290   4.764   1.613   2.003
 4762TIP3   OH214291   1.799   0.760   1.638
 4762TIP3    H114292   1.799   0.783   1.545
 4762TIP3    H214293   1.755   0.675   1.641
 4763TIP3   OH214294   1.913   2.000   3.395
 4763TIP3    H114295   1.928   1.911   3.426
 4763TIP3    H214296   1.827   2.024   3.430
 4764TIP3   OH214297   2.405   5.626   2.075
 4764TIP3    H114298   2.417   5.661   2.163
 4764TIP3    H214299   2.366   5.699   2.026
 4765TIP3   OH214300   3.290   3.981   4.017
 4765TIP3    H114301   3.340   3.959   4.095
 4765TIP3    H214302   3.257   3.897   3.985
 4766TIP3   OH214303   1.413   0.414   4.208
 4766TIP3    H114304   1.445   0.455   4.127
 4766TIP3    H214305   1.368   0.335   4.178
 4767TIP3   OH214306   5.550   4.726   1.572
 4767TIP3    H114307   5.458   4.723   1.545
 4767TIP3    H214308   5.594   4.772   1.500
 4768TIP3   OH214309   1.364   2.860   0.826
 4768TIP3    H114310   1.314   2.778   0.824
 4768TIP3    H214311   1.297   2.929   0.823
 4769TIP3   OH214312   4.461   5.010   1.320
 4769TIP3    H114313   4.416   5.084   1.360
 4769TIP3    H214314   4.430   4.933   1.368
 4770TIP3   OH214315   2.587   4.299   3.699
 4770TIP3    H114316   2.640   4.264   3.771
 4770TIP3    H214317   2.526   4.360   3.741
 4771TIP3   OH214318   2.370   4.710   2.034
 4771TIP3    H114319   2.281   4.737   2.012
 4771TIP3    H214320   2.389   4.639   1.972
 4772TIP3   OH214321   2.176   5.475   1.370
 4772TIP3    H114322   2.191   5.556   1.320
 4772TIP3    H214323   2.082   5.477   1.390
 4773TIP3   OH214324   0.710   5.997   2.743
 4773TIP3    H114325   0.758   6.008   2.661
 4773TIP3    H214326   0.745   5.917   2.782
 4774TIP3   OH214327   2.382   0.611   4.197
 4774TIP3    H114328   2.318   0.607   4.269
 4774TIP3    H214329   2.415   0.700   4.200
 4775TIP3   OH214330   4.233   4.725   3.564
 4775TIP3    H114331   4.234   4.771   3.481
 4775TIP3    H214332   4.190   4.784   3.625
 4776TIP3   OH214333   4.017   0.383   0.250
 4776TIP3    H114334   3.980   0.295   0.239
 4776TIP3    H214335   4.108   0.368   0.275
 4777TIP3   OH214336   3.956   4.239   0.904
 4777TIP3    H114337   3.876   4.205   0.944
 4777TIP3    H214338   4.023   4.174   0.924
 4778TIP3   OH214339   1.861   4.035   2.990
 4778TIP3    H114340   1.911   4.040   3.072
 4778TIP3    H214341   1.897   4.105   2.936
 4779TIP3   OH214342   1.090   2.412   4.067
 4779TIP3    H114343   1.133   2.480   4.119
 4779TIP3    H214344   1.158   2.346   4.055
 4780TIP3   OH214345   2.318   3.264   2.954
 4780TIP3    H114346   2.411   3.287   2.956
 4780TIP3    H214347   2.274   3.340   2.992
 4781TIP3   OH214348   5.994   5.282   4.444
 4781TIP3    H114349   5.965   5.254   4.531
 4781TIP3    H214350   6.066   5.222   4.423
 4782TIP3   OH214351   0.025   5.960   0.373
 4782TIP3    H114352   0.017   5.878   0.422
 4782TIP3    H214353   0.119   5.977   0.369
 4783TIP3   OH214354  -0.021   0.799   2.605
 4783TIP3    H114355   0.024   0.714   2.607
 4783TIP3    H214356   0.022   0.847   2.534
 4784TIP3   OH214357   2.277   0.377   1.311
 4784TIP3    H114358   2.229   0.301   1.279
 4784TIP3    H214359   2.258   0.380   1.405
 4785TIP3   OH214360   2.922   3.037   0.919
 4785TIP3    H114361   2.868   3.062   0.843
 4785TIP3    H214362   2.910   3.109   0.981
 4786TIP3   OH214363   5.736   3.485   2.527
 4786TIP3    H114364   5.741   3.470   2.622
 4786TIP3    H214365   5.716   3.398   2.490
 4787TIP3   OH214366   2.774   5.355   2.396
 4787TIP3    H114367   2.711   5.425   2.379
 4787TIP3    H214368   2.783   5.353   2.491
 4788TIP3   OH214369   5.593   1.714   0.214
 4788TIP3    H114370   5.629   1.625   0.221
 4788TIP3    H214371   5.514   1.703   0.161
 4789TIP3   OH214372   5.797   3.519   5.145
 4789TIP3    H114373   5.805   3.480   5.233
 4789TIP3    H214374   5.754   3.452   5.093
 4790TIP3   OH214375   5.809   1.010   2.548
 4790TIP3    H114376   5.767   0.977   2.628
 4790TIP3    H214377   5.760   0.971   2.477
 4791TIP3   OH214378   1.245   4.920   2.456
 4791TIP3    H114379   1.259   4.830   2.427
 4791TIP3    H214380   1.192   4.912   2.535
 4792TIP3   OH214381   2.568   1.993   2.689
 4792TIP3    H114382   2.514   1.935   2.742
 4792TIP3    H214383   2.580   1.947   2.606
 4793TIP3   OH214384   2.986   1.010   3.283
 4793TIP3    H114385   2.990   1.080   3.217
 4793TIP3    H214386   3.043   0.942   3.248
 4794TIP3   OH214387   1.611   2.860   4.744
 4794TIP3    H114388   1.521   2.882   4.768
 4794TIP3    H214389   1.663   2.887   4.820
 4795TIP3   OH214390   1.053   0.905   5.154
 4795TIP3    H114391   0.972   0.893   5.203
 4795TIP3    H214392   1.039   0.858   5.072
 4796TIP3   OH214393   1.356   2.579   2.634
 4796TIP3    H114394   1.406   2.596   2.553
 4796TIP3    H214395   1.406   2.512   2.679
 4797TIP3   OH214396   0.980   5.386   4.075
 4797TIP3    H114397   1.049   5.341   4.124
 4797TIP3    H214398   0.924   5.316   4.043
 4798TIP3   OH214399   1.711   5.134   4.574
 4798TIP3    H114400   1.756   5.217   4.586
 4798TIP3    H214401   1.622   5.150   4.605
 4799TIP3   OH214402   2.151   0.589   0.949
 4799TIP3    H114403   2.188   0.664   0.996
 4799TIP3    H214404   2.221   0.524   0.949
 4800TIP3   OH214405   5.224   1.403   2.936
 4800TIP3    H114406   5.193   1.367   2.853
 4800TIP3    H214407   5.318   1.411   2.925
 4801TIP3   OH214408   0.109   5.372   4.023
 4801TIP3    H114409   0.111   5.291   3.971
 4801TIP3    H214410   0.068   5.436   3.965
 4802TIP3   OH214411   1.302   2.240   2.185
 4802TIP3    H114412   1.297   2.334   2.167
 4802TIP3    H214413   1.389   2.227   2.222
 4803TIP3   OH214414   4.958   2.638   0.486
 4803TIP3    H114415   4.906   2.596   0.554
 4803TIP3    H214416   4.960   2.731   0.511
 4804TIP3   OH214417   1.965   4.573   3.313
 4804TIP3    H114418   1.950   4.489   3.355
 4804TIP3    H214419   1.885   4.590   3.263
 4805TIP3   OH214420   2.740   1.092   2.124
 4805TIP3    H114421   2.694   1.162   2.078
 4805TIP3    H214422   2.796   1.138   2.187
 4806TIP3   OH214423   6.261   5.229   4.733
 4806TIP3    H114424   6.247   5.323   4.739
 4806TIP3    H214425   6.305   5.216   4.649
 4807TIP3   OH214426   3.135   3.762   4.369
 4807TIP3    H114427   3.229   3.767   4.389
 4807TIP3    H214428   3.102   3.849   4.391
 4808TIP3   OH214429   0.819   2.958   2.782
 4808TIP3    H114430   0.839   2.866   2.763
 4808TIP3    H214431   0.786   2.992   2.699
 4809TIP3   OH214432   1.716   5.758   3.980
 4809TIP3    H114433   1.678   5.845   3.972
 4809TIP3    H214434   1.761   5.744   3.896
 4810TIP3   OH214435   5.698   5.522   3.354
 4810TIP3    H114436   5.738   5.463   3.291
 4810TIP3    H214437   5.754   5.600   3.354
 4811TIP3   OH214438   5.271   2.619   2.065
 4811TIP3    H114439   5.323   2.581   2.136
 4811TIP3    H214440   5.181   2.592   2.084
 4812TIP3   OH214441   4.791   1.135   1.041
 4812TIP3    H114442   4.862   1.126   1.106
 4812TIP3    H214443   4.806   1.063   0.980
 4813TIP3   OH214444   4.272   4.195   3.376
 4813TIP3    H114445   4.340   4.252   3.411
 4813TIP3    H214446   4.253   4.231   3.289
 4814TIP3   OH214447   1.990   3.204   1.626
 4814TIP3    H114448   1.904   3.217   1.586
 4814TIP3    H214449   2.020   3.120   1.592
 4815TIP3   OH214450   4.555   1.729   0.803
 4815TIP3    H114451   4.541   1.813   0.847
 4815TIP3    H214452   4.493   1.728   0.731
 4816TIP3   OH214453   1.107   0.292   0.500
 4816TIP3    H114454   1.147   0.205   0.506
 4816TIP3    H214455   1.013   0.276   0.500
 4817TIP3   OH214456   3.044   4.652   1.811
 4817TIP3    H114457   2.959   4.610   1.825
 4817TIP3    H214458   3.108   4.589   1.845
 4818TIP3   OH214459   1.487   2.015   1.551
 4818TIP3    H114460   1.418   1.984   1.610
 4818TIP3    H214461   1.445   2.085   1.500
 4819TIP3   OH214462   3.756   5.477   0.858
 4819TIP3    H114463   3.665   5.503   0.869
 4819TIP3    H214464   3.776   5.498   0.767
 4820TIP3   OH214465   3.284   5.192   4.286
 4820TIP3    H114466   3.263   5.277   4.324
 4820TIP3    H214467   3.367   5.167   4.326
 4821TIP3   OH214468   2.694   4.701   3.023
 4821TIP3    H114469   2.780   4.691   2.981
 4821TIP3    H214470   2.644   4.756   2.962
 4822TIP3   OH214471   4.165   4.201   2.548
 4822TIP3    H114472   4.134   4.111   2.555
 4822TIP3    H214473   4.254   4.198   2.584
 4823TIP3   OH214474   5.760   5.942   4.546
 4823TIP3    H114475   5.797   5.858   4.518
 4823TIP3    H214476   5.666   5.925   4.553
 4824TIP3   OH214477   1.541   0.068   1.647
 4824TIP3    H114478   1.525  -0.025   1.630
 4824TIP3    H214479   1.596   0.068   1.725
 4825TIP3   OH214480   3.957   0.670   4.947
 4825TIP3    H114481   3.934   0.621   4.869
 4825TIP3    H214482   4.052   0.664   4.952
 4826TIP3   OH214483   5.823   0.651   2.557
 4826TIP3    H114484   5.770   0.714   2.507
 4826TIP3    H214485   5.890   0.704   2.599
 4827TIP3   OH214486   2.579   1.324   2.755
 4827TIP3    H114487   2.576   1.269   2.676
 4827TIP3    H214488   2.521   1.398   2.735
 4828TIP3   OH214489   0.363   2.014   4.447
 4828TIP3    H114490   0.338   1.974   4.363
 4828TIP3    H214491   0.354   2.108   4.433
 4829TIP3   OH214492   0.922   2.798   0.356
 4829TIP3    H114493   0.865   2.862   0.315
 4829TIP3    H214494   1.004   2.845   0.372
 4830TIP3   OH214495   5.183   2.966   2.773
 4830TIP3    H114496   5.100   3.012   2.784
 4830TIP3    H214497   5.225   2.970   2.858
 4831TIP3   OH214498   0.366   0.810   0.362
 4831TIP3    H114499   0.390   0.753   0.288
 4831TIP3    H214500   0.295   0.763   0.406
 4832TIP3   OH214501   4.409   3.274   0.834
 4832TIP3    H114502   4.317   3.299   0.821
 4832TIP3    H214503   4.439   3.330   0.905
 4833TIP3   OH214504   4.683   3.669   4.734
 4833TIP3    H114505   4.606   3.682   4.790
 4833TIP3    H214506   4.757   3.695   4.789
 4834TIP3   OH214507   1.612   1.649   1.511
 4834TIP3    H114508   1.535   1.615   1.466
 4834TIP3    H214509   1.640   1.724   1.458
 4835TIP3   OH214510   4.401   0.485   0.226
 4835TIP3    H114511   4.439   0.568   0.197
 4835TIP3    H214512   4.467   0.420   0.203
 4836TIP3   OH214513   5.527   0.845   4.397
 4836TIP3    H114514   5.489   0.932   4.387
 4836TIP3    H214515   5.460   0.786   4.363
 4837TIP3   OH214516   4.669   3.173   4.760
 4837TIP3    H114517   4.582   3.134   4.753
 4837TIP3    H214518   4.686   3.177   4.854
 4838TIP3   OH214519   0.763   0.568   0.989
 4838TIP3    H114520   0.841   0.530   0.948
 4838TIP3    H214521   0.700   0.496   0.992
 4839TIP3   OH214522   2.616   5.104   5.113
 4839TIP3    H114523   2.557   5.060   5.174
 4839TIP3    H214524   2.695   5.051   5.114
 4840TIP3   OH214525   4.361   1.856   4.824
 4840TIP3    H114526   4.281   1.806   4.805
 4840TIP3    H214527   4.332   1.926   4.882
 4841TIP3   OH214528   0.074   2.122   3.489
 4841TIP3    H114529   0.165   2.118   3.461
 4841TIP3    H214530   0.045   2.210   3.467
 4842TIP3   OH214531   1.010   1.586   0.238
 4842TIP3    H114532   1.021   1.492   0.254
 4842TIP3    H214533   1.029   1.597   0.145
 4843TIP3   OH214534   4.313   3.399   4.443
 4843TIP3    H114535   4.396   3.379   4.486
 4843TIP3    H214536   4.268   3.315   4.438
 4844TIP3   OH214537   4.155   0.094   2.196
 4844TIP3    H114538   4.083   0.070   2.255
 4844TIP3    H214539   4.156   0.024   2.131
 4845TIP3   OH214540   6.176   1.812   4.213
 4845TIP3    H114541   6.214   1.752   4.278
 4845TIP3    H214542   6.224   1.794   4.133
 4846TIP3   OH214543   5.790   4.895   2.905
 4846TIP3    H114544   5.804   4.859   2.818
 4846TIP3    H214545   5.879   4.901   2.942
 4847TIP3   OH214546   3.164   5.449   3.821
 4847TIP3    H114547   3.212   5.497   3.753
 4847TIP3    H214548   3.088   5.412   3.776
 4848TIP3   OH214549   1.152   1.325   5.174
 4848TIP3    H114550   1.227   1.383   5.157
 4848TIP3    H214551   1.176   1.279   5.254
 4849TIP3   OH214552   2.376   0.390   1.629
 4849TIP3    H114553   2.417   0.463   1.582
 4849TIP3    H214554   2.345   0.430   1.711
 4850TIP3   OH214555   2.353   1.038   2.049
 4850TIP3    H114556   2.302   0.975   2.099
 4850TIP3    H214557   2.378   0.992   1.969
 4851TIP3   OH214558   2.310   2.447   0.905
 4851TIP3    H114559   2.302   2.542   0.914
 4851TIP3    H214560   2.295   2.431   0.812
 4852TIP3   OH214561   3.241   3.740   2.767
 4852TIP3    H114562   3.282   3.823   2.741
 4852TIP3    H214563   3.184   3.763   2.840
 4853TIP3   OH214564   2.716   0.859   3.015
 4853TIP3    H114565   2.748   0.794   3.077
 4853TIP3    H214566   2.793   0.882   2.962
 4854TIP3   OH214567   6.023   0.019   1.351
 4854TIP3    H114568   5.954   0.070   1.392
 4854TIP3    H214569   6.088   0.007   1.420
 4855TIP3   OH214570   3.829   3.866   1.370
 4855TIP3    H114571   3.839   3.849   1.277
 4855TIP3    H214572   3.738   3.898   1.379
 4856TIP3   OH214573   3.222   2.342   3.250
 4856TIP3    H114574   3.203   2.419   3.303
 4856TIP3    H214575   3.150   2.282   3.267
 4857TIP3   OH214576   0.137   2.343   0.371
 4857TIP3    H114577   0.128   2.295   0.454
 4857TIP3    H214578   0.227   2.373   0.370
 4858TIP3   OH214579   5.183   3.685   2.325
 4858TIP3    H114580   5.186   3.758   2.263
 4858TIP3    H214581   5.252   3.626   2.295
 4859TIP3   OH214582   1.151   2.571   0.362
 4859TIP3    H114583   1.120   2.607   0.279
 4859TIP3    H214584   1.187   2.485   0.339
 4860TIP3   OH214585   0.353   4.728   2.636
 4860TIP3    H114586   0.272   4.699   2.594
 4860TIP3    H214587   0.346   4.823   2.639
 4861TIP3   OH214588   4.682   4.837   2.523
 4861TIP3    H114589   4.602   4.797   2.488
 4861TIP3    H214590   4.735   4.856   2.446
 4862TIP3   OH214591   3.457   2.230   2.276
 4862TIP3    H114592   3.389   2.183   2.323
 4862TIP3    H214593   3.410   2.296   2.224
 4863TIP3   OH214594   3.653   1.291   4.885
 4863TIP3    H114595   3.567   1.268   4.921
 4863TIP3    H214596   3.683   1.364   4.938
 4864TIP3   OH214597   0.092   1.568   0.228
 4864TIP3    H114598   0.037   1.639   0.197
 4864TIP3    H214599   0.121   1.523   0.149
 4865TIP3   OH214600   5.139   2.306   4.550
 4865TIP3    H114601   5.173   2.390   4.581
 4865TIP3    H214602   5.054   2.298   4.592
 4866TIP3   OH214603   5.392   3.870   2.778
 4866TIP3    H114604   5.426   3.914   2.855
 4866TIP3    H214605   5.468   3.826   2.739
 4867TIP3   OH214606   4.181   1.097   5.034
 4867TIP3    H114607   4.089   1.119   5.021
 4867TIP3    H214608   4.215   1.081   4.946
 4868TIP3   OH214609   4.962   1.034   1.783
 4868TIP3    H114610   4.893   1.008   1.843
 4868TIP3    H214611   5.031   0.968   1.796
 4869TIP3   OH214612   4.444   4.454   4.653
 4869TIP3    H114613   4.448   4.546   4.628
 4869TIP3    H214614   4.498   4.409   4.589
 4870TIP3   OH214615   2.529   4.411   1.396
 4870TIP3    H114616   2.507   4.350   1.325
 4870TIP3    H214617   2.461   4.478   1.391
 4871TIP3   OH214618   0.307   4.938   4.886
 4871TIP3    H114619   0.290   4.923   4.793
 4871TIP3    H214620   0.262   5.020   4.905
 4872TIP3   OH214621   1.347   2.979   0.178
 4872TIP3    H114622   1.346   2.901   0.234
 4872TIP3    H214623   1.278   2.963   0.113
 4873TIP3   OH214624   2.303   3.500   4.444
 4873TIP3    H114625   2.392   3.521   4.475
 4873TIP3    H214626   2.303   3.526   4.352
 4874TIP3   OH214627   6.203   3.795   2.299
 4874TIP3    H114628   6.188   3.822   2.390
 4874TIP3    H214629   6.127   3.827   2.252
 4875TIP3   OH214630   5.179   0.253   1.806
 4875TIP3    H114631   5.085   0.242   1.814
 4875TIP3    H214632   5.216   0.174   1.847
 4876TIP3   OH214633   1.013   0.098   2.406
 4876TIP3    H114634   1.089   0.050   2.375
 4876TIP3    H214635   1.019   0.094   2.501
 4877TIP3   OH214636   1.904   1.923   1.559
 4877TIP3    H114637   1.965   1.980   1.512
 4877TIP3    H214638   1.958   1.853   1.595
 4878TIP3   OH214639   2.001   3.571   3.326
 4878TIP3    H114640   1.961   3.658   3.317
 4878TIP3    H214641   2.089   3.582   3.289
 4879TIP3   OH214642   2.240   3.746   2.875
 4879TIP3    H114643   2.258   3.781   2.788
 4879TIP3    H214644   2.285   3.805   2.935
 4880TIP3   OH214645   5.443   3.585   2.968
 4880TIP3    H114646   5.436   3.660   3.027
 4880TIP3    H214647   5.537   3.571   2.957
 4881TIP3   OH214648   0.442   5.018   2.910
 4881TIP3    H114649   0.353   5.047   2.932
 4881TIP3    H214650   0.432   4.975   2.825
 4882TIP3   OH214651   0.398   5.715   2.417
 4882TIP3    H114652   0.434   5.670   2.341
 4882TIP3    H214653   0.468   5.711   2.483
 4883TIP3   OH214654   2.301   4.814   4.628
 4883TIP3    H114655   2.354   4.856   4.560
 4883TIP3    H214656   2.286   4.882   4.693
 4884TIP3   OH214657   1.240   0.931   1.381
 4884TIP3    H114658   1.211   0.864   1.319
 4884TIP3    H214659   1.207   1.013   1.345
 4885TIP3   OH214660   0.562   2.126   1.190
 4885TIP3    H114661   0.652   2.152   1.173
 4885TIP3    H214662   0.538   2.173   1.270
 4886TIP3   OH214663   2.117   2.662   3.879
 4886TIP3    H114664   2.090   2.736   3.933
 4886TIP3    H214665   2.036   2.633   3.836
 4887TIP3   OH214666   2.097   3.037   3.397
 4887TIP3    H114667   2.034   3.105   3.375
 4887TIP3    H214668   2.052   2.981   3.460
 4888TIP3   OH214669   4.342   2.763   3.181
 4888TIP3    H114670   4.344   2.670   3.160
 4888TIP3    H214671   4.384   2.806   3.106
 4889TIP3   OH214672   3.711   4.240   3.749
 4889TIP3    H114673   3.766   4.300   3.800
 4889TIP3    H214674   3.760   4.158   3.749
 4890TIP3   OH214675   0.288   5.354   2.191
 4890TIP3    H114676   0.354   5.323   2.255
 4890TIP3    H214677   0.234   5.415   2.241
 4891TIP3   OH214678   2.155   5.098   0.624
 4891TIP3    H114679   2.114   5.085   0.538
 4891TIP3    H214680   2.098   5.159   0.669
 4892TIP3   OH214681   5.379   2.557   5.025
 4892TIP3    H114682   5.381   2.637   5.078
 4892TIP3    H214683   5.393   2.486   5.088
 4893TIP3   OH214684   4.567   2.183   2.251
 4893TIP3    H114685   4.599   2.114   2.309
 4893TIP3    H214686   4.644   2.209   2.200
 4894TIP3   OH214687   3.611   0.181   4.555
 4894TIP3    H114688   3.573   0.104   4.514
 4894TIP3    H214689   3.584   0.254   4.499
 4895TIP3   OH214690   2.125   4.430   1.184
 4895TIP3    H114691   2.175   4.499   1.227
 4895TIP3    H214692   2.115   4.460   1.094
 4896TIP3   OH214693   1.968   3.384   4.445
 4896TIP3    H114694   1.993   3.368   4.536
 4896TIP3    H214695   1.951   3.297   4.409
 4897TIP3   OH214696   1.787   3.203   5.086
 4897TIP3    H114697   1.793   3.142   5.013
 4897TIP3    H214698   1.878   3.228   5.104
 4898TIP3   OH214699   2.104   0.699   3.807
 4898TIP3    H114700   2.072   0.717   3.895
 4898TIP3    H214701   2.106   0.785   3.764
 4899TIP3   OH214702   3.517   1.078   4.392
 4899TIP3    H114703   3.485   1.158   4.351
 4899TIP3    H214704   3.437   1.028   4.412
 4900TIP3   OH214705   1.450   0.015   1.228
 4900TIP3    H114706   1.368  -0.015   1.189
 4900TIP3    H214707   1.434   0.107   1.250
 4901TIP3   OH214708   3.284   0.149   1.885
 4901TIP3    H114709   3.351   0.199   1.932
 4901TIP3    H214710   3.331   0.073   1.851
 4902TIP3   OH214711   5.307   3.492   0.898
 4902TIP3    H114712   5.304   3.580   0.859
 4902TIP3    H214713   5.355   3.440   0.834
 4903TIP3   OH214714   4.088   2.527   0.070
 4903TIP3    H114715   4.045   2.609   0.047
 4903TIP3    H214716   4.141   2.548   0.146
 4904TIP3   OH214717   5.884   2.655   2.575
 4904TIP3    H114718   5.960   2.638   2.631
 4904TIP3    H214719   5.885   2.584   2.511
 4905TIP3   OH214720   4.107   0.708   1.686
 4905TIP3    H114721   4.147   0.622   1.697
 4905TIP3    H214722   4.013   0.690   1.681
 4906TIP3   OH214723   4.075   2.894   0.505
 4906TIP3    H114724   4.048   2.834   0.575
 4906TIP3    H214725   4.161   2.924   0.532
 4907TIP3   OH214726   5.442   1.787   1.676
 4907TIP3    H114727   5.439   1.732   1.597
 4907TIP3    H214728   5.509   1.852   1.656
 4908TIP3   OH214729   3.817   3.793   3.229
 4908TIP3    H114730   3.766   3.753   3.159
 4908TIP3    H214731   3.845   3.877   3.193
 4909TIP3   OH214732   0.156   0.208   2.454
 4909TIP3    H114733   0.079   0.239   2.406
 4909TIP3    H214734   0.222   0.275   2.439
 4910TIP3   OH214735   5.212   2.578   4.578
 4910TIP3    H114736   5.301   2.592   4.544
 4910TIP3    H214737   5.160   2.649   4.540
 4911TIP3   OH214738   4.537   3.380   1.043
 4911TIP3    H114739   4.514   3.440   1.114
 4911TIP3    H214740   4.564   3.299   1.087
 4912TIP3   OH214741   2.030   5.146   2.077
 4912TIP3    H114742   2.090   5.211   2.114
 4912TIP3    H214743   1.944   5.170   2.113
 4913TIP3   OH214744   5.818   3.767   0.417
 4913TIP3    H114745   5.832   3.783   0.510
 4913TIP3    H214746   5.830   3.853   0.376
 4914TIP3   OH214747   1.100   1.200   1.363
 4914TIP3    H114748   1.084   1.292   1.341
 4914TIP3    H214749   1.112   1.157   1.278
 4915TIP3   OH214750   3.373   3.376   0.240
 4915TIP3    H114751   3.282   3.369   0.211
 4915TIP3    H214752   3.366   3.387   0.335
 4916TIP3   OH214753   6.111   1.503   1.902
 4916TIP3    H114754   6.042   1.501   1.968
 4916TIP3    H214755   6.074   1.554   1.830
 4917TIP3   OH214756   4.171   1.054   4.761
 4917TIP3    H114757   4.088   1.013   4.736
 4917TIP3    H214758   4.219   1.062   4.678
 4918TIP3   OH214759   6.049   2.125   4.225
 4918TIP3    H114760   6.078   2.040   4.260
 4918TIP3    H214761   6.130   2.172   4.207
 4919TIP3   OH214762   0.132   5.593   4.170
 4919TIP3    H114763   0.104   5.509   4.135
 4919TIP3    H214764   0.053   5.630   4.210
 4920TIP3   OH214765   5.327   2.737   2.654
 4920TIP3    H114766   5.354   2.645   2.650
 4920TIP3    H214767   5.242   2.734   2.698
 4921TIP3   OH214768   4.606   0.878   5.021
 4921TIP3    H114769   4.651   0.794   5.027
 4921TIP3    H214770   4.650   0.924   4.949
 4922TIP3   OH214771   3.964   4.856   1.979
 4922TIP3    H114772   3.956   4.767   2.012
 4922TIP3    H214773   4.045   4.856   1.928
 4923TIP3   OH214774   6.100   1.432   0.746
 4923TIP3    H114775   6.099   1.402   0.655
 4923TIP3    H214776   6.092   1.527   0.740
 4924TIP3   OH214777   1.086   2.611   2.617
 4924TIP3    H114778   1.180   2.610   2.635
 4924TIP3    H214779   1.046   2.570   2.694
 4925TIP3   OH214780   6.252   0.205   1.328
 4925TIP3    H114781   6.193   0.165   1.264
 4925TIP3    H214782   6.334   0.156   1.319
 4926TIP3   OH214783   2.275   4.807   0.689
 4926TIP3    H114784   2.193   4.820   0.642
 4926TIP3    H214785   2.312   4.728   0.651
 4927TIP3   OH214786   5.646   2.628   0.826
 4927TIP3    H114787   5.701   2.683   0.882
 4927TIP3    H214788   5.593   2.689   0.775
 4928TIP3   OH214789   1.979   5.273   0.705
 4928TIP3    H114790   1.898   5.297   0.749
 4928TIP3    H214791   2.027   5.355   0.696
 4929TIP3   OH214792   2.475   1.953   1.314
 4929TIP3    H114793   2.420   2.007   1.258
 4929TIP3    H214794   2.475   1.867   1.272
 4930TIP3   OH214795   3.838   0.010   0.748
 4930TIP3    H114796   3.910   0.066   0.778
 4930TIP3    H214797   3.863  -0.015   0.659
 4931TIP3   OH214798   6.190   1.231   1.937
 4931TIP3    H114799   6.184   1.320   1.904
 4931TIP3    H214800   6.120   1.225   2.003
 4932TIP3   OH214801   3.381   4.043   3.136
 4932TIP3    H114802   3.426   4.049   3.051
 4932TIP3    H214803   3.364   3.949   3.147
 4933TIP3   OH214804   3.899   3.296   4.464
 4933TIP3    H114805   3.874   3.315   4.373
 4933TIP3    H214806   3.842   3.351   4.517
 4934TIP3   OH214807   6.288   3.629   4.983
 4934TIP3    H114808   6.270   3.687   5.057
 4934TIP3    H214809   6.326   3.551   5.023
 4935TIP3   OH214810   5.788   1.442   3.655
 4935TIP3    H114811   5.747   1.528   3.644
 4935TIP3    H214812   5.828   1.445   3.742
 4936TIP3   OH214813   6.090   0.168   4.522
 4936TIP3    H114814   6.133   0.199   4.442
 4936TIP3    H214815   6.007   0.132   4.492
 4937TIP3   OH214816   1.917   5.009   3.490
 4937TIP3    H114817   1.973   5.058   3.429
 4937TIP3    H214818   1.837   4.994   3.440
 4938TIP3   OH214819   2.873   2.243   3.075
 4938TIP3    H114820   2.922   2.304   3.020
 4938TIP3    H214821   2.781   2.257   3.051
 4939TIP3   OH214822   4.804   4.889   1.907
 4939TIP3    H114823   4.745   4.831   1.861
 4939TIP3    H214824   4.866   4.831   1.951
 4940TIP3   OH214825   5.008   4.618   1.858
 4940TIP3    H114826   5.066   4.657   1.923
 4940TIP3    H214827   5.056   4.542   1.825
 4941TIP3   OH214828   5.186   3.411   4.173
 4941TIP3    H114829   5.123   3.372   4.112
 4941TIP3    H214830   5.137   3.422   4.254
 4942TIP3   OH214831   0.724   4.539   1.578
 4942TIP3    H114832   0.777   4.618   1.582
 4942TIP3    H214833   0.634   4.570   1.572
 4943TIP3   OH214834   3.869   2.611   2.341
 4943TIP3    H114835   3.835   2.650   2.422
 4943TIP3    H214836   3.808   2.539   2.322
 4944TIP3   OH214837   2.390   4.959   2.119
 4944TIP3    H114838   2.386   4.867   2.093
 4944TIP3    H214839   2.471   4.966   2.169
 4945TIP3   OH214840   6.096   3.918   3.716
 4945TIP3    H114841   6.088   3.931   3.622
 4945TIP3    H214842   6.012   3.882   3.743
 4946TIP3   OH214843   0.490   0.385   4.861
 4946TIP3    H114844   0.424   0.352   4.922
 4946TIP3    H214845   0.473   0.479   4.856
 4947TIP3   OH214846   2.279   1.074   3.738
 4947TIP3    H114847   2.309   1.135   3.671
 4947TIP3    H214848   2.257   1.130   3.813
 4948TIP3   OH214849   6.145   5.580   0.186
 4948TIP3    H114850   6.195   5.613   0.111
 4948TIP3    H214851   6.138   5.656   0.245
 4949TIP3   OH214852   4.098   3.324   0.716
 4949TIP3    H114853   4.072   3.408   0.677
 4949TIP3    H214854   4.112   3.344   0.808
 4950TIP3   OH214855   3.892   1.263   1.267
 4950TIP3    H114856   3.864   1.282   1.357
 4950TIP3    H214857   3.977   1.220   1.278
 4951TIP3   OH214858   1.284   5.206   1.506
 4951TIP3    H114859   1.260   5.149   1.433
 4951TIP3    H214860   1.206   5.261   1.520
 4952TIP3   OH214861   3.697   2.082   0.412
 4952TIP3    H114862   3.602   2.093   0.424
 4952TIP3    H214863   3.709   2.077   0.318
 4953TIP3   OH214864   5.012   1.787   2.752
 4953TIP3    H114865   5.077   1.764   2.819
 4953TIP3    H214866   4.931   1.800   2.801
 4954TIP3   OH214867   4.738   5.930   3.697
 4954TIP3    H114868   4.760   6.009   3.647
 4954TIP3    H214869   4.787   5.939   3.779
 4955TIP3   OH214870   3.206   1.257   0.265
 4955TIP3    H114871   3.179   1.192   0.330
 4955TIP3    H214872   3.176   1.341   0.302
 4956TIP3   OH214873   3.126   1.000   1.967
 4956TIP3    H114874   3.187   1.003   2.041
 4956TIP3    H214875   3.079   1.083   1.972
 4957TIP3   OH214876   5.769   5.239   5.079
 4957TIP3    H114877   5.825   5.161   5.072
 4957TIP3    H214878   5.828   5.312   5.064
 4958TIP3   OH214879   1.461   5.632   3.849
 4958TIP3    H114880   1.407   5.641   3.928
 4958TIP3    H214881   1.543   5.596   3.880
 4959TIP3   OH214882   0.097   1.674   4.326
 4959TIP3    H114883   0.072   1.687   4.418
 4959TIP3    H214884   0.155   1.747   4.306
 4960TIP3   OH214885   2.355   4.082   5.000
 4960TIP3    H114886   2.401   4.166   4.999
 4960TIP3    H214887   2.329   4.070   5.091
 4961TIP3   OH214888   6.176   2.213   4.990
 4961TIP3    H114889   6.110   2.261   5.041
 4961TIP3    H214890   6.171   2.251   4.903
 4962TIP3   OH214891   0.963   3.654   3.960
 4962TIP3    H114892   1.014   3.581   3.996
 4962TIP3    H214893   1.028   3.713   3.923
 4963TIP3   OH214894   1.329   3.335   2.425
 4963TIP3    H114895   1.301   3.421   2.394
 4963TIP3    H214896   1.424   3.343   2.436
 4964TIP3   OH214897  -0.008   2.996   2.697
 4964TIP3    H114898   0.043   3.072   2.670
 4964TIP3    H214899   0.050   2.921   2.683
 4965TIP3   OH214900   2.142   4.258   4.419
 4965TIP3    H114901   2.150   4.349   4.449
 4965TIP3    H214902   2.149   4.264   4.323
 4966TIP3   OH214903   6.040   0.346   4.160
 4966TIP3    H114904   6.076   0.423   4.203
 4966TIP3    H214905   6.109   0.316   4.102
 4967TIP3   OH214906   3.691   1.601   3.229
 4967TIP3    H114907   3.596   1.612   3.234
 4967TIP3    H214908   3.718   1.655   3.155
 4968TIP3   OH214909   4.371   2.240   0.778
 4968TIP3    H114910   4.435   2.171   0.794
 4968TIP3    H214911   4.404   2.316   0.826
 4969TIP3   OH214912   0.767   1.964   0.946
 4969TIP3    H114913   0.775   1.878   0.989
 4969TIP3    H214914   0.794   1.949   0.856
 4970TIP3   OH214915   1.796   3.944   1.716
 4970TIP3    H114916   1.818   3.907   1.631
 4970TIP3    H214917   1.701   3.932   1.723
 4971TIP3   OH214918   3.894   2.097   3.986
 4971TIP3    H114919   3.825   2.062   4.042
 4971TIP3    H214920   3.970   2.103   4.043
 4972TIP3   OH214921   3.421   5.395   2.441
 4972TIP3    H114922   3.454   5.333   2.376
 4972TIP3    H214923   3.445   5.481   2.406
 4973TIP3   OH214924   2.646   2.696   4.303
 4973TIP3    H114925   2.650   2.774   4.248
 4973TIP3    H214926   2.615   2.728   4.388
 4974TIP3   OH214927   1.329   5.585   4.825
 4974TIP3    H114928   1.341   5.516   4.759
 4974TIP3    H214929   1.356   5.544   4.907
 4975TIP3   OH214930   3.175   3.103   4.979
 4975TIP3    H114931   3.160   3.196   4.993
 4975TIP3    H214932   3.210   3.097   4.890
 4976TIP3   OH214933   3.287   4.841   3.617
 4976TIP3    H114934   3.213   4.874   3.567
 4976TIP3    H214935   3.304   4.910   3.682
 4977TIP3   OH214936   1.372   4.479   3.233
 4977TIP3    H114937   1.408   4.508   3.149
 4977TIP3    H214938   1.335   4.392   3.214
 4978TIP3   OH214939   3.427   1.115   0.194
 4978TIP3    H114940   3.360   1.183   0.187
 4978TIP3    H214941   3.450   1.095   0.103
 4979TIP3   OH214942   6.074   1.339   2.858
 4979TIP3    H114943   6.078   1.246   2.880
 4979TIP3    H214944   6.092   1.384   2.941
 4980TIP3   OH214945   1.199   5.874   0.715
 4980TIP3    H114946   1.137   5.856   0.787
 4980TIP3    H214947   1.285   5.867   0.755
 4981TIP3   OH214948   3.149   4.736   4.762
 4981TIP3    H114949   3.125   4.804   4.699
 4981TIP3    H214950   3.104   4.761   4.842
 4982TIP3   OH214951   0.594   2.245   4.235
 4982TIP3    H114952   0.599   2.278   4.146
 4982TIP3    H214953   0.667   2.184   4.243
 4983TIP3   OH214954   1.962   3.003   2.719
 4983TIP3    H114955   1.891   3.055   2.756
 4983TIP3    H214956   1.950   3.009   2.624
 4984TIP3   OH214957   5.831   2.615   3.477
 4984TIP3    H114958   5.869   2.692   3.520
 4984TIP3    H214959   5.786   2.650   3.401
 4985TIP3   OH214960   3.990   3.484   4.849
 4985TIP3    H114961   3.957   3.398   4.878
 4985TIP3    H214962   4.053   3.509   4.915
 4986TIP3   OH214963   5.710   3.100   2.204
 4986TIP3    H114964   5.659   3.020   2.216
 4986TIP3    H214965   5.718   3.138   2.291
 4987TIP3   OH214966   5.415   4.353   4.459
 4987TIP3    H114967   5.479   4.284   4.440
 4987TIP3    H214968   5.362   4.318   4.530
 4988TIP3   OH214969   2.810   1.704   3.278
 4988TIP3    H114970   2.773   1.729   3.362
 4988TIP3    H214971   2.874   1.635   3.299
 4989TIP3   OH214972   4.196   4.620   1.190
 4989TIP3    H114973   4.292   4.621   1.189
 4989TIP3    H214974   4.172   4.656   1.275
 4990TIP3   OH214975   4.171   0.604   0.195
 4990TIP3    H114976   4.097   0.547   0.219
 4990TIP3    H214977   4.246   0.545   0.189
 4991TIP3   OH214978   3.828   1.418   3.757
 4991TIP3    H114979   3.877   1.352   3.708
 4991TIP3    H214980   3.888   1.493   3.762
 4992TIP3   OH214981   1.298   3.590   1.056
 4992TIP3    H114982   1.346   3.513   1.028
 4992TIP3    H214983   1.312   3.595   1.151
 4993TIP3   OH214984   4.644   0.163   0.499
 4993TIP3    H114985   4.616   0.109   0.425
 4993TIP3    H214986   4.647   0.101   0.573
 4994TIP3   OH214987   2.018   5.517   0.933
 4994TIP3    H114988   2.087   5.499   0.997
 4994TIP3    H214989   1.937   5.507   0.982
 4995TIP3   OH214990   1.833   3.429   1.072
 4995TIP3    H114991   1.921   3.431   1.034
 4995TIP3    H214992   1.836   3.358   1.136
 4996TIP3   OH214993   0.114   5.573   2.940
 4996TIP3    H114994   0.167   5.512   2.888
 4996TIP3    H214995   0.048   5.518   2.981
 4997TIP3   OH214996   4.964   2.326   0.158
 4997TIP3    H114997   4.980   2.232   0.149
 4997TIP3    H214998   5.038   2.359   0.208
 4998TIP3   OH214999   3.114   1.309   1.187
 4998TIP3    H115000   3.163   1.354   1.117
 4998TIP3    H215001   3.027   1.295   1.149
 4999TIP3   OH215002   4.499   1.496   3.979
 4999TIP3    H115003   4.450   1.553   3.919
 4999TIP3    H215004   4.571   1.462   3.925
 5000TIP3   OH215005   2.793   2.780   0.808
 5000TIP3    H115006   2.827   2.702   0.853
 5000TIP3    H215007   2.820   2.853   0.863
 5001TIP3   OH215008   3.267   5.340   1.797
 5001TIP3    H115009   3.317   5.414   1.762
 5001TIP3    H215010   3.252   5.283   1.722
 5002TIP3   OH215011   4.029   0.939   4.212
 5002TIP3    H115012   3.945   0.893   4.210
 5002TIP3    H215013   4.016   1.009   4.276
 5003TIP3   OH215014   5.484   2.182   4.307
 5003TIP3    H115015   5.539   2.195   4.385
 5003TIP3    H215016   5.436   2.264   4.298
 5004TIP3   OH215017   5.546   2.520   2.851
 5004TIP3    H115018   5.511   2.537   2.938
 5004TIP3    H215019   5.613   2.588   2.839
 5005TIP3   OH215020   0.592   5.102   1.964
 5005TIP3    H115021   0.654   5.135   2.028
 5005TIP3    H215022   0.642   5.037   1.914
 5006TIP3   OH215023   0.481   3.726   0.738
 5006TIP3    H115024   0.409   3.673   0.704
 5006TIP3    H215025   0.557   3.701   0.685
 5007TIP3   OH215026   1.529   3.838   1.676
 5007TIP3    H115027   1.485   3.839   1.761
 5007TIP3    H215028   1.576   3.754   1.674
 5008TIP3   OH215029   3.515   2.015   3.714
 5008TIP3    H115030   3.515   1.989   3.806
 5008TIP3    H215031   3.457   2.092   3.711
 5009TIP3   OH215032   2.716   2.851   2.268
 5009TIP3    H115033   2.624   2.841   2.293
 5009TIP3    H215034   2.733   2.945   2.279
 5010TIP3   OH215035   3.658   2.926   2.393
 5010TIP3    H115036   3.661   2.907   2.299
 5010TIP3    H215037   3.574   2.890   2.422
 5011TIP3   OH215038   3.333   0.328   4.339
 5011TIP3    H115039   3.411   0.328   4.283
 5011TIP3    H215040   3.265   0.371   4.286
 5012TIP3   OH215041   5.601   0.450   5.084
 5012TIP3    H115042   5.681   0.399   5.074
 5012TIP3    H215043   5.571   0.467   4.995
 5013TIP3   OH215044   0.897   5.891   4.012
 5013TIP3    H115045   0.889   5.985   4.028
 5013TIP3    H215046   0.812   5.865   3.978
 5014TIP3   OH215047   5.967   5.174   0.134
 5014TIP3    H115048   5.936   5.218   0.055
 5014TIP3    H215049   5.895   5.116   0.160
 5015TIP3   OH215050   6.216   1.044   2.661
 5015TIP3    H115051   6.143   1.095   2.629
 5015TIP3    H215052   6.284   1.108   2.682
 5016TIP3   OH215053   3.652   5.665   0.113
 5016TIP3    H115054   3.681   5.754   0.135
 5016TIP3    H215055   3.726   5.609   0.135
 5017TIP3   OH215056   4.040   2.468   0.466
 5017TIP3    H115057   4.104   2.524   0.422
 5017TIP3    H215058   4.086   2.384   0.478
 5018TIP3   OH215059   1.231   2.393   3.652
 5018TIP3    H115060   1.142   2.429   3.651
 5018TIP3    H215061   1.243   2.362   3.742
 5019TIP3   OH215062   5.369   0.929   1.736
 5019TIP3    H115063   5.354   0.924   1.830
 5019TIP3    H215064   5.290   0.972   1.701
 5020TIP3   OH215065   1.944   5.418   2.346
 5020TIP3    H115066   2.035   5.426   2.316
 5020TIP3    H215067   1.921   5.506   2.376
 5021TIP3   OH215068   6.296   2.503   4.879
 5021TIP3    H115069   6.337   2.569   4.936
 5021TIP3    H215070   6.224   2.550   4.836
 5022TIP3   OH215071   0.853   0.197   0.354
 5022TIP3    H115072   0.916   0.143   0.307
 5022TIP3    H215073   0.831   0.268   0.293
 5023TIP3   OH215074   3.401   4.764   3.195
 5023TIP3    H115075   3.443   4.735   3.114
 5023TIP3    H215076   3.430   4.702   3.262
 5024TIP3   OH215077   0.097   3.942   3.122
 5024TIP3    H115078   0.171   3.949   3.062
 5024TIP3    H215079   0.042   3.874   3.083
 5025TIP3   OH215080   3.410   5.115   1.936
 5025TIP3    H115081   3.476   5.081   1.876
 5025TIP3    H215082   3.370   5.188   1.890
 5026TIP3   OH215083   1.872   5.445   4.299
 5026TIP3    H115084   1.782   5.421   4.323
 5026TIP3    H215085   1.864   5.478   4.209
 5027TIP3   OH215086   3.375   2.590   1.332
 5027TIP3    H115087   3.310   2.659   1.319
 5027TIP3    H215088   3.459   2.636   1.336
 5028TIP3   OH215089   2.727   0.321   4.637
 5028TIP3    H115090   2.707   0.369   4.556
 5028TIP3    H215091   2.649   0.330   4.691
 5029TIP3   OH215092   4.199   0.964   1.741
 5029TIP3    H115093   4.181   0.969   1.835
 5029TIP3    H215094   4.192   0.871   1.720
 5030TIP3   OH215095   1.027   1.704   1.547
 5030TIP3    H115096   0.984   1.619   1.558
 5030TIP3    H215097   0.993   1.737   1.463
 5031TIP3   OH215098   0.067   0.642   5.133
 5031TIP3    H115099  -0.022   0.606   5.126
 5031TIP3    H215100   0.076   0.664   5.226
 5032TIP3   OH215101   4.692   4.079   3.732
 5032TIP3    H115102   4.721   4.130   3.657
 5032TIP3    H215103   4.773   4.054   3.777
 5033TIP3   OH215104   5.784   4.973   0.998
 5033TIP3    H115105   5.691   4.969   0.976
 5033TIP3    H215106   5.786   4.999   1.090
 5034TIP3   OH215107   1.176   0.942   3.355
 5034TIP3    H115108   1.171   0.896   3.271
 5034TIP3    H215109   1.103   0.906   3.406
 5035TIP3   OH215110   2.894   0.801   2.383
 5035TIP3    H115111   2.980   0.777   2.350
 5035TIP3    H215112   2.842   0.819   2.305
 5036TIP3   OH215113   6.060   1.579   4.356
 5036TIP3    H115114   6.009   1.644   4.307
 5036TIP3    H215115   6.020   1.577   4.443
 5037TIP3   OH215116   5.493   5.245   5.068
 5037TIP3    H115117   5.469   5.198   4.989
 5037TIP3    H215118   5.584   5.219   5.085
 5038TIP3   OH215119   1.171   4.956   0.180
 5038TIP3    H115120   1.167   4.902   0.260
 5038TIP3    H215121   1.080   4.974   0.159
 5039TIP3   OH215122   4.566   3.414   4.647
 5039TIP3    H115123   4.624   3.347   4.684
 5039TIP3    H215124   4.614   3.496   4.659
 5040TIP3   OH215125   1.925   3.971   1.953
 5040TIP3    H115126   1.943   3.880   1.975
 5040TIP3    H215127   1.869   3.967   1.876
 5041TIP3   OH215128   0.548   1.015   1.090
 5041TIP3    H115129   0.498   0.936   1.109
 5041TIP3    H215130   0.605   0.991   1.018
 5042TIP3   OH215131   1.321   1.556   0.753
 5042TIP3    H115132   1.405   1.551   0.798
 5042TIP3    H215133   1.288   1.644   0.773
 5043TIP3   OH215134   4.307   4.043   4.256
 5043TIP3    H115135   4.274   4.046   4.346
 5043TIP3    H215136   4.228   4.051   4.202
 5044TIP3   OH215137   2.505   2.790   0.826
 5044TIP3    H115138   2.499   2.842   0.906
 5044TIP3    H215139   2.595   2.803   0.795
 5045TIP3   OH215140   3.893   2.746   0.001
 5045TIP3    H115141   3.919   2.784   0.085
 5045TIP3    H215142   3.809   2.789  -0.019
 5046TIP3   OH215143   5.698   3.139   3.451
 5046TIP3    H115144   5.745   3.094   3.521
 5046TIP3    H215145   5.708   3.232   3.471
 5047TIP3   OH215146   5.464   5.549   3.832
 5047TIP3    H115147   5.511   5.596   3.763
 5047TIP3    H215148   5.520   5.560   3.910
 5048TIP3   OH215149   2.642   0.245   3.830
 5048TIP3    H115150   2.581   0.309   3.793
 5048TIP3    H215151   2.588   0.171   3.855
 5049TIP3   OH215152   1.908   4.624   1.485
 5049TIP3    H115153   1.858   4.612   1.565
 5049TIP3    H215154   1.920   4.536   1.450
 5050TIP3   OH215155   0.466   1.691   0.916
 5050TIP3    H115156   0.503   1.742   0.843
 5050TIP3    H215157   0.497   1.736   0.994
 5051TIP3   OH215158   0.722   0.217   1.512
 5051TIP3    H115159   0.738   0.140   1.566
 5051TIP3    H215160   0.750   0.291   1.566
 5052TIP3   OH215161   3.437   0.020   4.447
 5052TIP3    H115162   3.433   0.077   4.370
 5052TIP3    H215163   3.350   0.029   4.487
 5053TIP3   OH215164   4.208   4.281   1.108
 5053TIP3    H115165   4.231   4.305   1.018
 5053TIP3    H215166   4.187   4.188   1.104
 5054TIP3   OH215167   5.449   0.978   0.365
 5054TIP3    H115168   5.525   0.958   0.311
 5054TIP3    H215169   5.401   0.895   0.371
 5055TIP3   OH215170   5.839   4.230   4.162
 5055TIP3    H115171   5.885   4.236   4.078
 5055TIP3    H215172   5.762   4.285   4.151
 5056TIP3   OH215173   0.686   3.234   5.161
 5056TIP3    H115174   0.780   3.219   5.156
 5056TIP3    H215175   0.677   3.318   5.206
 5057TIP3   OH215176   3.051   5.240   5.049
 5057TIP3    H115177   3.126   5.211   4.997
 5057TIP3    H215178   3.087   5.309   5.105
 5058TIP3   OH215179   3.365   5.572   4.127
 5058TIP3    H115180   3.441   5.523   4.095
 5058TIP3    H215181   3.372   5.657   4.084
 5059TIP3   OH215182   3.902   2.390   1.964
 5059TIP3    H115183   3.853   2.325   1.914
 5059TIP3    H215184   3.983   2.345   1.990
 5060TIP3   OH215185   6.150   3.932   1.431
 5060TIP3    H115186   6.157   3.935   1.527
 5060TIP3    H215187   6.056   3.932   1.414
 5061TIP3   OH215188   1.649   3.622   0.332
 5061TIP3    H115189   1.645   3.628   0.236
 5061TIP3    H215190   1.668   3.530   0.350
 5062TIP3   OH215191   5.983   1.806   0.092
 5062TIP3    H115192   5.969   1.858   0.171
 5062TIP3    H215193   6.025   1.866   0.030
 5063TIP3   OH215194   1.535   2.702   3.358
 5063TIP3    H115195   1.539   2.792   3.392
 5063TIP3    H215196   1.507   2.650   3.434
 5064TIP3   OH215197   0.505   1.642   2.968
 5064TIP3    H115198   0.420   1.687   2.972
 5064TIP3    H215199   0.531   1.633   3.059
 5065TIP3   OH215200   1.972   1.879   4.354
 5065TIP3    H115201   2.055   1.916   4.383
 5065TIP3    H215202   1.968   1.898   4.261
 5066TIP3   OH215203   1.018   3.948   4.433
 5066TIP3    H115204   1.076   3.962   4.359
 5066TIP3    H215205   0.930   3.947   4.395
 5067TIP3   OH215206   0.858   4.467   0.414
 5067TIP3    H115207   0.904   4.384   0.410
 5067TIP3    H215208   0.765   4.443   0.414
 5068TIP3   OH215209   0.517   1.122   1.662
 5068TIP3    H115210   0.527   1.060   1.734
 5068TIP3    H215211   0.604   1.126   1.622
 5069TIP3   OH215212   3.438   3.701   3.944
 5069TIP3    H115213   3.441   3.788   3.905
 5069TIP3    H215214   3.381   3.651   3.885
 5070TIP3   OH215215   3.571   5.331   2.169
 5070TIP3    H115216   3.515   5.368   2.101
 5070TIP3    H215217   3.622   5.264   2.123
 5071TIP3   OH215218   2.844   5.842   1.773
 5071TIP3    H115219   2.919   5.790   1.801
 5071TIP3    H215220   2.866   5.932   1.800
 5072TIP3   OH215221   1.834   2.702   1.101
 5072TIP3    H115222   1.865   2.626   1.149
 5072TIP3    H215223   1.776   2.665   1.033
 5073TIP3   OH215224   2.480   1.203   4.918
 5073TIP3    H115225   2.455   1.112   4.932
 5073TIP3    H215226   2.404   1.243   4.877
 5074TIP3   OH215227   6.137   1.464   0.191
 5074TIP3    H115228   6.075   1.500   0.255
 5074TIP3    H215229   6.223   1.491   0.224
 5075TIP3   OH215230   2.326   4.846   0.954
 5075TIP3    H115231   2.326   4.861   0.860
 5075TIP3    H215232   2.387   4.774   0.968
 5076TIP3   OH215233   2.780   0.935   4.306
 5076TIP3    H115234   2.815   0.855   4.345
 5076TIP3    H215235   2.764   0.913   4.215
 5077TIP3   OH215236   2.124   5.956   2.995
 5077TIP3    H115237   2.157   5.866   3.003
 5077TIP3    H215238   2.157   6.000   3.074
 5078TIP3   OH215239   5.016   5.936   2.454
 5078TIP3    H115240   5.103   5.971   2.433
 5078TIP3    H215241   4.974   6.006   2.505
 5079TIP3   OH215242   5.125   5.323   3.946
 5079TIP3    H115243   5.156   5.295   4.032
 5079TIP3    H215244   5.043   5.276   3.933
 5080TIP3   OH215245   4.254   5.009   2.276
 5080TIP3    H115246   4.205   4.932   2.304
 5080TIP3    H215247   4.266   4.997   2.182
 5081TIP3   OH215248   3.318   4.160   1.092
 5081TIP3    H115249   3.281   4.173   1.005
 5081TIP3    H215250   3.412   4.160   1.079
 5082TIP3   OH215251   4.130   5.592   0.495
 5082TIP3    H115252   4.156   5.507   0.530
 5082TIP3    H215253   4.158   5.590   0.404
 5083TIP3   OH215254   5.296   0.745   4.714
 5083TIP3    H115255   5.231   0.761   4.645
 5083TIP3    H215256   5.379   0.770   4.675
 5084TIP3   OH215257   5.510   1.133   4.463
 5084TIP3    H115258   5.421   1.163   4.480
 5084TIP3    H215259   5.550   1.204   4.413
 5085TIP3   OH215260   2.336   1.416   4.571
 5085TIP3    H115261   2.431   1.406   4.583
 5085TIP3    H215262   2.318   1.374   4.488
 5086TIP3   OH215263   4.451   0.902   0.649
 5086TIP3    H115264   4.529   0.956   0.662
 5086TIP3    H215265   4.400   0.949   0.584
 5087TIP3   OH215266   3.365   3.736   3.609
 5087TIP3    H115267   3.443   3.745   3.553
 5087TIP3    H215268   3.301   3.693   3.553
 5088TIP3   OH215269   5.485   1.643   1.415
 5088TIP3    H115270   5.569   1.598   1.423
 5088TIP3    H215271   5.420   1.572   1.414
 5089TIP3   OH215272   6.308   0.890   4.455
 5089TIP3    H115273   6.286   0.961   4.394
 5089TIP3    H215274   6.225   0.871   4.499
 5090TIP3   OH215275   2.129   2.121   3.045
 5090TIP3    H115276   2.138   2.091   2.955
 5090TIP3    H215277   2.139   2.216   3.040
 5091TIP3   OH215278   4.009   3.094   4.595
 5091TIP3    H115279   3.953   3.155   4.546
 5091TIP3    H215280   4.091   3.142   4.608
 5092TIP3   OH215281   3.284   4.677   4.207
 5092TIP3    H115282   3.218   4.667   4.276
 5092TIP3    H215283   3.360   4.715   4.251
 5093TIP3   OH215284   3.280   5.263   2.790
 5093TIP3    H115285   3.254   5.349   2.756
 5093TIP3    H215286   3.349   5.282   2.853
 5094TIP3   OH215287   1.451   4.556   1.003
 5094TIP3    H115288   1.496   4.510   0.932
 5094TIP3    H215289   1.383   4.495   1.031
 5095TIP3   OH215290   2.253   3.671   3.206
 5095TIP3    H115291   2.308   3.621   3.266
 5095TIP3    H215292   2.290   3.759   3.207
 5096TIP3   OH215293   3.881   0.972   0.842
 5096TIP3    H115294   3.936   1.034   0.793
 5096TIP3    H215295   3.791   0.999   0.821
 5097TIP3   OH215296   3.226   3.416   2.650
 5097TIP3    H115297   3.300   3.390   2.594
 5097TIP3    H215298   3.243   3.507   2.671
 5098TIP3   OH215299   5.617   0.866   1.641
 5098TIP3    H115300   5.533   0.893   1.678
 5098TIP3    H215301   5.626   0.922   1.563
 5099TIP3   OH215302   4.358   3.295   1.407
 5099TIP3    H115303   4.386   3.342   1.329
 5099TIP3    H215304   4.338   3.364   1.471
 5100TIP3   OH215305   3.732   5.274   2.742
 5100TIP3    H115306   3.692   5.360   2.729
 5100TIP3    H215307   3.722   5.257   2.835
 5101TIP3   OH215308   6.067   4.995   2.743
 5101TIP3    H115309   6.049   4.926   2.679
 5101TIP3    H215310   6.162   5.006   2.740
 5102TIP3   OH215311   2.832   4.873   1.525
 5102TIP3    H115312   2.851   4.952   1.474
 5102TIP3    H215313   2.897   4.809   1.496
 5103TIP3   OH215314   1.236   1.717   0.319
 5103TIP3    H115315   1.306   1.652   0.319
 5103TIP3    H215316   1.168   1.679   0.263
 5104TIP3   OH215317   4.463   5.248   1.578
 5104TIP3    H115318   4.544   5.235   1.529
 5104TIP3    H215319   4.413   5.311   1.526
 5105TIP3   OH215320   2.219   3.731   0.212
 5105TIP3    H115321   2.191   3.657   0.266
 5105TIP3    H215322   2.140   3.785   0.204
 5106TIP3   OH215323   1.273   5.610   2.008
 5106TIP3    H115324   1.179   5.606   1.994
 5106TIP3    H215325   1.308   5.642   1.924
 5107TIP3   OH215326   2.462   4.236   2.396
 5107TIP3    H115327   2.381   4.194   2.367
 5107TIP3    H215328   2.483   4.299   2.327
 5108TIP3   OH215329   3.404   1.338   1.672
 5108TIP3    H115330   3.451   1.386   1.740
 5108TIP3    H215331   3.436   1.374   1.590
 5109TIP3   OH215332   5.966   2.531   4.803
 5109TIP3    H115333   5.874   2.518   4.824
 5109TIP3    H215334   5.970   2.614   4.757
 5110TIP3   OH215335   5.514   3.152   1.326
 5110TIP3    H115336   5.438   3.111   1.284
 5110TIP3    H215337   5.590   3.107   1.289
 5111TIP3   OH215338   0.042   5.249   4.484
 5111TIP3    H115339   0.028   5.235   4.390
 5111TIP3    H215340   0.051   5.344   4.493
 5112TIP3   OH215341   4.693   1.647   2.865
 5112TIP3    H115342   4.737   1.589   2.803
 5112TIP3    H215343   4.657   1.718   2.810
 5113TIP3   OH215344   4.510   2.510   0.753
 5113TIP3    H115345   4.448   2.552   0.693
 5113TIP3    H215346   4.527   2.576   0.820
 5114TIP3   OH215347   4.222   5.449   4.122
 5114TIP3    H115348   4.260   5.469   4.208
 5114TIP3    H215349   4.295   5.459   4.061
 5115TIP3   OH215350   3.582   5.231   0.755
 5115TIP3    H115351   3.556   5.320   0.779
 5115TIP3    H215352   3.513   5.176   0.792
 5116TIP3   OH215353   4.542   4.975   2.152
 5116TIP3    H115354   4.530   5.017   2.067
 5116TIP3    H215355   4.458   4.984   2.196
 5117TIP3   OH215356   5.202   3.266   0.558
 5117TIP3    H115357   5.139   3.264   0.630
 5117TIP3    H215358   5.253   3.186   0.568
 5118TIP3   OH215359   3.740   2.605   3.824
 5118TIP3    H115360   3.748   2.528   3.767
 5118TIP3    H215361   3.809   2.663   3.795
 5119TIP3   OH215362   5.552   0.724   2.175
 5119TIP3    H115363   5.486   0.687   2.234
 5119TIP3    H215364   5.602   0.648   2.144
 5120TIP3   OH215365   2.085   1.994   2.784
 5120TIP3    H115366   2.125   2.065   2.733
 5120TIP3    H215367   2.023   1.953   2.724
 5121TIP3   OH215368   4.725   4.775   2.792
 5121TIP3    H115369   4.750   4.822   2.713
 5121TIP3    H215370   4.671   4.702   2.761
 5122TIP3   OH215371   5.833   1.679   3.287
 5122TIP3    H115372   5.928   1.680   3.300
 5122TIP3    H215373   5.805   1.595   3.324
 5123TIP3   OH215374   2.577   3.375   3.540
 5123TIP3    H115375   2.514   3.319   3.585
 5123TIP3    H215376   2.605   3.325   3.464
 5124TIP3   OH215377   2.246   2.550   1.842
 5124TIP3    H115378   2.340   2.532   1.838
 5124TIP3    H215379   2.207   2.478   1.792
 5125TIP3   OH215380   3.855   3.613   4.432
 5125TIP3    H115381   3.884   3.586   4.345
 5125TIP3    H215382   3.934   3.608   4.486
 5126TIP3   OH215383   1.409   3.434   1.762
 5126TIP3    H115384   1.408   3.403   1.671
 5126TIP3    H215385   1.364   3.518   1.759
 5127TIP3   OH215386   4.129   4.044   2.013
 5127TIP3    H115387   4.159   4.084   1.932
 5127TIP3    H215388   4.036   4.067   2.018
 5128TIP3   OH215389   0.187   3.777   4.912
 5128TIP3    H115390   0.093   3.765   4.928
 5128TIP3    H215391   0.225   3.690   4.926
 5129TIP3   OH215392   4.141   4.489   3.252
 5129TIP3    H115393   4.089   4.568   3.239
 5129TIP3    H215394   4.136   4.473   3.346
 5130TIP3   OH215395   1.825   0.519   0.392
 5130TIP3    H115396   1.870   0.489   0.472
 5130TIP3    H215397   1.789   0.605   0.415
 5131TIP3   OH215398   1.500   1.868   0.775
 5131TIP3    H115399   1.517   1.880   0.682
 5131TIP3    H215400   1.408   1.892   0.786
 5132TIP3   OH215401   1.689   4.877   3.688
 5132TIP3    H115402   1.617   4.914   3.637
 5132TIP3    H215403   1.756   4.946   3.687
 5133TIP3   OH215404   3.965   1.880   3.595
 5133TIP3    H115405   3.877   1.844   3.584
 5133TIP3    H215406   3.990   1.911   3.508
 5134TIP3   OH215407   6.159   4.996   0.032
 5134TIP3    H115408   6.168   4.926   0.096
 5134TIP3    H215409   6.083   5.046   0.062
 5135TIP3   OH215410   4.569   1.817   1.697
 5135TIP3    H115411   4.543   1.736   1.741
 5135TIP3    H215412   4.632   1.858   1.756
 5136TIP3   OH215413   2.255   1.383   1.335
 5136TIP3    H115414   2.312   1.312   1.365
 5136TIP3    H215415   2.308   1.429   1.270
 5137TIP3   OH215416   3.322   5.614   3.656
 5137TIP3    H115417   3.415   5.638   3.656
 5137TIP3    H215418   3.277   5.695   3.633
 5138TIP3   OH215419   0.122   2.676   0.273
 5138TIP3    H115420   0.062   2.743   0.305
 5138TIP3    H215421   0.133   2.695   0.180
 5139TIP3   OH215422   5.174   1.625   3.927
 5139TIP3    H115423   5.111   1.678   3.977
 5139TIP3    H215424   5.246   1.685   3.908
 5140TIP3   OH215425   0.721   4.999   5.092
 5140TIP3    H115426   0.684   4.945   5.022
 5140TIP3    H215427   0.645   5.039   5.134
 5141TIP3   OH215428   6.003   3.106   4.907
 5141TIP3    H115429   6.054   3.105   4.988
 5141TIP3    H215430   6.066   3.130   4.839
 5142TIP3   OH215431   2.617   3.580   2.315
 5142TIP3    H115432   2.609   3.637   2.392
 5142TIP3    H215433   2.558   3.620   2.250
 5143TIP3   OH215434   0.488   0.174   3.072
 5143TIP3    H115435   0.519   0.089   3.104
 5143TIP3    H215436   0.441   0.211   3.146
 5144TIP3   OH215437   6.202   0.386   0.090
 5144TIP3    H115438   6.257   0.451   0.046
 5144TIP3    H215439   6.166   0.432   0.166
 5145TIP3   OH215440   3.788   2.023   3.355
 5145TIP3    H115441   3.708   2.012   3.303
 5145TIP3    H215442   3.761   2.004   3.445
 5146TIP3   OH215443   0.503   2.204   2.588
 5146TIP3    H115444   0.590   2.180   2.554
 5146TIP3    H215445   0.486   2.290   2.550
 5147TIP3   OH215446   2.830   0.485   3.347
 5147TIP3    H115447   2.895   0.418   3.363
 5147TIP3    H215448   2.748   0.449   3.382
 5148TIP3   OH215449   4.802   5.860   1.122
 5148TIP3    H115450   4.744   5.898   1.188
 5148TIP3    H215451   4.851   5.793   1.170
 5149TIP3   OH215452   1.023   3.492   1.026
 5149TIP3    H115453   1.036   3.469   0.934
 5149TIP3    H215454   1.109   3.521   1.056
 5150TIP3   OH215455   3.898   1.152   5.033
 5150TIP3    H115456   3.868   1.227   5.084
 5150TIP3    H215457   3.869   1.075   5.083
 5151TIP3   OH215458   2.154   3.100   0.195
 5151TIP3    H115459   2.153   3.063   0.283
 5151TIP3    H215460   2.201   3.036   0.142
 5152TIP3   OH215461   5.305   3.152   3.828
 5152TIP3    H115462   5.377   3.091   3.809
 5152TIP3    H215463   5.279   3.131   3.918
 5153TIP3   OH215464   3.292   1.263   3.668
 5153TIP3    H115465   3.230   1.329   3.636
 5153TIP3    H215466   3.356   1.314   3.719
 5154TIP3   OH215467   5.133   0.932   2.632
 5154TIP3    H115468   5.087   1.011   2.605
 5154TIP3    H215469   5.080   0.896   2.703
 5155TIP3   OH215470   2.196   5.362   2.195
 5155TIP3    H115471   2.286   5.383   2.170
 5155TIP3    H215472   2.204   5.283   2.249
 5156TIP3   OH215473   4.783   5.568   1.459
 5156TIP3    H115474   4.867   5.585   1.418
 5156TIP3    H215475   4.731   5.524   1.392
 5157TIP3   OH215476   5.698   2.393   3.121
 5157TIP3    H115477   5.720   2.403   3.214
 5157TIP3    H215478   5.610   2.428   3.113
 5158TIP3   OH215479   5.085   1.491   1.221
 5158TIP3    H115480   5.070   1.439   1.300
 5158TIP3    H215481   5.068   1.432   1.149
 5159TIP3   OH215482   2.950   1.169   3.035
 5159TIP3    H115483   2.980   1.244   2.984
 5159TIP3    H215484   2.855   1.171   3.028
 5160TIP3   OH215485   4.357   5.922   5.183
 5160TIP3    H115486   4.321   5.839   5.151
 5160TIP3    H215487   4.435   5.936   5.130
 5161TIP3   OH215488   5.105   2.746   2.391
 5161TIP3    H115489   5.071   2.807   2.326
 5161TIP3    H215490   5.161   2.799   2.447
 5162TIP3   OH215491   1.654   1.337   3.898
 5162TIP3    H115492   1.564   1.367   3.884
 5162TIP3    H215493   1.678   1.295   3.815
 5163TIP3   OH215494   0.487   4.392   1.673
 5163TIP3    H115495   0.465   4.479   1.640
 5163TIP3    H215496   0.435   4.332   1.619
 5164TIP3   OH215497   3.643   2.319   1.536
 5164TIP3    H115498   3.658   2.231   1.501
 5164TIP3    H215499   3.556   2.314   1.575
 5165TIP3   OH215500   1.406   5.428   3.074
 5165TIP3    H115501   1.493   5.390   3.081
 5165TIP3    H215502   1.346   5.356   3.094
 5166TIP3   OH215503   3.747   1.176   1.505
 5166TIP3    H115504   3.708   1.168   1.592
 5166TIP3    H215505   3.820   1.113   1.506
 5167TIP3   OH215506   2.938   3.699   1.012
 5167TIP3    H115507   2.949   3.648   1.092
 5167TIP3    H215508   2.994   3.655   0.948
 5168TIP3   OH215509   2.556   5.372   4.566
 5168TIP3    H115510   2.505   5.296   4.595
 5168TIP3    H215511   2.594   5.407   4.647
 5169TIP3   OH215512   2.242   5.789   0.407
 5169TIP3    H115513   2.174   5.748   0.354
 5169TIP3    H215514   2.288   5.716   0.448
 5170TIP3   OH215515   4.816   5.774   4.576
 5170TIP3    H115516   4.726   5.799   4.558
 5170TIP3    H215517   4.854   5.850   4.620
 5171TIP3   OH215518   3.405   5.825   4.509
 5171TIP3    H115519   3.354   5.876   4.446
 5171TIP3    H215520   3.420   5.884   4.582
 5172TIP3   OH215521   4.733   1.082   2.632
 5172TIP3    H115522   4.703   1.014   2.573
 5172TIP3    H215523   4.677   1.157   2.613
 5173TIP3   OH215524   5.729   5.380   0.852
 5173TIP3    H115525   5.634   5.384   0.863
 5173TIP3    H215526   5.764   5.448   0.909
 5174TIP3   OH215527   5.935   2.344   1.116
 5174TIP3    H115528   5.927   2.276   1.183
 5174TIP3    H215529   6.010   2.396   1.143
 5175TIP3   OH215530   1.008   2.433   2.824
 5175TIP3    H115531   1.090   2.392   2.853
 5175TIP3    H215532   0.949   2.359   2.808
 5176TIP3   OH215533   3.086   5.693   1.829
 5176TIP3    H115534   3.147   5.710   1.900
 5176TIP3    H215535   3.072   5.598   1.831
 5177TIP3   OH215536   4.667   1.480   1.712
 5177TIP3    H115537   4.712   1.476   1.628
 5177TIP3    H215538   4.711   1.414   1.766
 5178TIP3   OH215539   3.965   2.164   3.618
 5178TIP3    H115540   3.970   2.069   3.608
 5178TIP3    H215541   4.001   2.198   3.537
 5179TIP3   OH215542   2.291   0.145   4.697
 5179TIP3    H115543   2.239   0.074   4.736
 5179TIP3    H215544   2.363   0.158   4.759
 5180TIP3   OH215545   3.062   4.730   1.420
 5180TIP3    H115546   3.086   4.655   1.366
 5180TIP3    H215547   3.125   4.729   1.493
 5181TIP3   OH215548   3.726   0.939   4.525
 5181TIP3    H115549   3.662   0.990   4.476
 5181TIP3    H215550   3.739   0.988   4.606
 5182TIP3   OH215551   1.688   3.378   2.082
 5182TIP3    H115552   1.594   3.392   2.074
 5182TIP3    H215553   1.709   3.316   2.013
 5183TIP3   OH215554   1.984   4.893   1.957
 5183TIP3    H115555   2.074   4.889   1.925
 5183TIP3    H215556   1.975   4.981   1.993
 5184TIP3   OH215557   1.071   0.280   0.901
 5184TIP3    H115558   1.070   0.185   0.888
 5184TIP3    H215559   0.985   0.300   0.938
 5185TIP3   OH215560   0.688   3.301   2.527
 5185TIP3    H115561   0.687   3.379   2.471
 5185TIP3    H215562   0.770   3.307   2.575
 5186TIP3   OH215563   0.627   3.084   4.894
 5186TIP3    H115564   0.557   3.047   4.840
 5186TIP3    H215565   0.596   3.076   4.984
 5187TIP3   OH215566   3.101   1.915   1.806
 5187TIP3    H115567   3.087   1.829   1.846
 5187TIP3    H215568   3.028   1.968   1.837
 5188TIP3   OH215569   0.167   4.896   2.984
 5188TIP3    H115570   0.213   4.908   3.067
 5188TIP3    H215571   0.119   4.814   2.995
 5189TIP3   OH215572   3.398   0.257   0.227
 5189TIP3    H115573   3.338   0.208   0.283
 5189TIP3    H215574   3.471   0.196   0.213
 5190TIP3   OH215575   4.250   4.755   3.026
 5190TIP3    H115576   4.253   4.697   2.950
 5190TIP3    H215577   4.303   4.830   3.001
 5191TIP3   OH215578   5.536   5.096   4.018
 5191TIP3    H115579   5.629   5.100   3.993
 5191TIP3    H215580   5.506   5.186   4.010
 5192TIP3   OH215581   1.836   1.669   4.521
 5192TIP3    H115582   1.886   1.654   4.601
 5192TIP3    H215583   1.887   1.734   4.473
 5193TIP3   OH215584   0.785   1.492   4.880
 5193TIP3    H115585   0.690   1.480   4.879
 5193TIP3    H215586   0.813   1.458   4.965
 5194TIP3   OH215587   4.753   4.534   3.586
 5194TIP3    H115588   4.692   4.585   3.534
 5194TIP3    H215589   4.718   4.537   3.675
 5195TIP3   OH215590   4.507   0.945   3.118
 5195TIP3    H115591   4.550   0.875   3.070
 5195TIP3    H215592   4.516   1.022   3.062
 5196TIP3   OH215593   3.795   4.073   1.762
 5196TIP3    H115594   3.834   4.110   1.841
 5196TIP3    H215595   3.856   4.097   1.692
 5197TIP3   OH215596   2.158   0.063   2.946
 5197TIP3    H115597   2.063   0.069   2.933
 5197TIP3    H215598   2.173  -0.027   2.975
 5198TIP3   OH215599   2.722   0.407   0.226
 5198TIP3    H115600   2.788   0.394   0.294
 5198TIP3    H215601   2.749   0.487   0.181
 5199TIP3   OH215602   2.250   5.102   2.303
 5199TIP3    H115603   2.204   5.025   2.337
 5199TIP3    H215604   2.314   5.066   2.241
 5200TIP3   OH215605   1.122   3.405   0.773
 5200TIP3    H115606   1.149   3.357   0.694
 5200TIP3    H215607   1.125   3.497   0.746
 5201TIP3   OH215608   4.248   5.663   4.396
 5201TIP3    H115609   4.208   5.743   4.430
 5201TIP3    H215610   4.330   5.654   4.444
 5202TIP3   OH215611   3.091   0.536   2.387
 5202TIP3    H115612   3.138   0.584   2.454
 5202TIP3    H215613   3.051   0.463   2.434
 5203TIP3   OH215614   4.254   5.280   4.903
 5203TIP3    H115615   4.194   5.216   4.942
 5203TIP3    H215616   4.341   5.254   4.936
 5204TIP3   OH215617   4.430   5.056   3.472
 5204TIP3    H115618   4.421   5.060   3.377
 5204TIP3    H215619   4.487   4.981   3.488
 5205TIP3   OH215620   3.428   0.338   0.614
 5205TIP3    H115621   3.498   0.401   0.629
 5205TIP3    H215622   3.472   0.255   0.599
 5206TIP3   OH215623   5.490   5.959   2.337
 5206TIP3    H115624   5.502   5.909   2.418
 5206TIP3    H215625   5.549   6.034   2.346
 5207TIP3   OH215626   3.772   2.540   0.849
 5207TIP3    H115627   3.835   2.609   0.827
 5207TIP3    H215628   3.798   2.466   0.795
 5208TIP3   OH215629   1.947   2.370   0.548
 5208TIP3    H115630   1.964   2.389   0.456
 5208TIP3    H215631   1.854   2.347   0.551
 5209TIP3   OH215632   4.965   0.376   0.839
 5209TIP3    H115633   4.918   0.391   0.920
 5209TIP3    H215634   4.999   0.286   0.848
 5210TIP3   OH215635   3.467   2.270   3.310
 5210TIP3    H115636   3.439   2.181   3.289
 5210TIP3    H215637   3.385   2.320   3.315
 5211TIP3   OH215638   5.865   5.663   4.427
 5211TIP3    H115639   5.780   5.624   4.407
 5211TIP3    H215640   5.929   5.606   4.383
 5212TIP3   OH215641   3.772   2.313   5.071
 5212TIP3    H115642   3.755   2.225   5.035
 5212TIP3    H215643   3.772   2.370   4.994
 5213TIP3   OH215644   3.519   4.266   1.401
 5213TIP3    H115645   3.502   4.303   1.487
 5213TIP3    H215646   3.613   4.276   1.388
 5214TIP3   OH215647   6.186   1.847   3.133
 5214TIP3    H115648   6.242   1.771   3.145
 5214TIP3    H215649   6.141   1.831   3.050
 5215TIP3   OH215650   5.646   5.103   0.694
 5215TIP3    H115651   5.611   5.033   0.749
 5215TIP3    H215652   5.683   5.166   0.755
 5216TIP3   OH215653   5.881   4.977   5.078
 5216TIP3    H115654   5.951   4.914   5.058
 5216TIP3    H215655   5.803   4.923   5.088
 5217TIP3   OH215656   0.358   6.003   3.872
 5217TIP3    H115657   0.290   6.021   3.807
 5217TIP3    H215658   0.328   5.924   3.917
 5218TIP3   OH215659   2.124   5.514   0.570
 5218TIP3    H115660   2.180   5.499   0.494
 5218TIP3    H215661   2.186   5.527   0.642
 5219TIP3   OH215662   1.005   5.078   2.921
 5219TIP3    H115663   0.981   4.990   2.892
 5219TIP3    H215664   1.022   5.068   3.015
 5220TIP3   OH215665   2.498   1.092   0.993
 5220TIP3    H115666   2.456   1.121   1.074
 5220TIP3    H215667   2.426   1.089   0.929
 5221TIP3   OH215668   3.994   5.150   1.794
 5221TIP3    H115669   4.008   5.149   1.888
 5221TIP3    H215670   3.925   5.215   1.780
 5222TIP3   OH215671   3.708   0.828   2.222
 5222TIP3    H115672   3.767   0.893   2.260
 5222TIP3    H215673   3.622   0.870   2.222
 5223TIP3   OH215674   3.111   1.175   3.470
 5223TIP3    H115675   3.055   1.129   3.408
 5223TIP3    H215676   3.071   1.262   3.478
 5224TIP3   OH215677   3.979   2.945   4.223
 5224TIP3    H115678   3.985   2.850   4.218
 5224TIP3    H215679   3.912   2.962   4.289
 5225TIP3   OH215680   0.590   2.740   0.260
 5225TIP3    H115681   0.531   2.804   0.220
 5225TIP3    H215682   0.560   2.733   0.350
 5226TIP3   OH215683   3.713   2.307   2.154
 5226TIP3    H115684   3.797   2.344   2.126
 5226TIP3    H215685   3.717   2.310   2.250
 5227TIP3   OH215686   2.806   0.516   3.778
 5227TIP3    H115687   2.734   0.556   3.827
 5227TIP3    H215688   2.764   0.450   3.723
 5228TIP3   OH215689   1.075   1.505   0.950
 5228TIP3    H115690   1.132   1.511   0.873
 5228TIP3    H215691   0.989   1.533   0.918
 5229TIP3   OH215692   4.240   1.984   1.682
 5229TIP3    H115693   4.155   1.940   1.679
 5229TIP3    H215694   4.295   1.934   1.622
 5230TIP3   OH215695   4.568   0.077   1.769
 5230TIP3    H115696   4.623   0.132   1.824
 5230TIP3    H215697   4.512   0.138   1.721
 5231TIP3   OH215698   5.347   4.349   0.887
 5231TIP3    H115699   5.392   4.265   0.887
 5231TIP3    H215700   5.308   4.355   0.974
 5232TIP3   OH215701   4.441   4.079   0.933
 5232TIP3    H115702   4.414   4.171   0.933
 5232TIP3    H215703   4.368   4.032   0.972
 5233TIP3   OH215704   4.621   5.761   3.086
 5233TIP3    H115705   4.702   5.806   3.108
 5233TIP3    H215706   4.641   5.713   3.005
 5234TIP3   OH215707   6.090   2.829   3.875
 5234TIP3    H115708   6.088   2.912   3.922
 5234TIP3    H215709   6.177   2.827   3.834
 5235TIP3   OH215710   1.277   3.426   1.455
 5235TIP3    H115711   1.342   3.484   1.415
 5235TIP3    H215712   1.198   3.439   1.404
 5236TIP3   OH215713   3.512   4.032   2.870
 5236TIP3    H115714   3.452   4.009   2.800
 5236TIP3    H215715   3.533   4.124   2.855
 5237TIP3   OH215716   3.728   4.632   0.644
 5237TIP3    H115717   3.689   4.595   0.565
 5237TIP3    H215718   3.792   4.696   0.612
 5238TIP3   OH215719   2.434   0.119   3.266
 5238TIP3    H115720   2.421   0.212   3.248
 5238TIP3    H215721   2.520   0.099   3.230
 5239TIP3   OH215722   2.495   4.694   4.336
 5239TIP3    H115723   2.488   4.776   4.288
 5239TIP3    H215724   2.575   4.653   4.303
 5240TIP3   OH215725   4.617   1.571   0.130
 5240TIP3    H115726   4.650   1.552   0.042
 5240TIP3    H215727   4.693   1.603   0.178
 5241TIP3   OH215728   4.210   5.520   2.349
 5241TIP3    H115729   4.175   5.604   2.377
 5241TIP3    H215730   4.272   5.542   2.279
 5242TIP3   OH215731   6.212   4.598   4.937
 5242TIP3    H115732   6.154   4.656   4.986
 5242TIP3    H215733   6.293   4.596   4.988
 5243TIP3   OH215734   6.227   3.775   4.613
 5243TIP3    H115735   6.179   3.716   4.671
 5243TIP3    H215736   6.163   3.844   4.592
 5244TIP3   OH215737   1.848   3.652   3.945
 5244TIP3    H115738   1.877   3.696   3.865
 5244TIP3    H215739   1.862   3.717   4.014
 5245TIP3   OH215740   1.549   4.143   3.792
 5245TIP3    H115741   1.579   4.230   3.818
 5245TIP3    H215742   1.587   4.084   3.857
 5246TIP3   OH215743   3.280   3.008   3.399
 5246TIP3    H115744   3.210   3.059   3.440
 5246TIP3    H215745   3.294   3.049   3.314
 5247TIP3   OH215746   5.921   4.883   0.758
 5247TIP3    H115747   5.884   4.916   0.840
 5247TIP3    H215748   5.893   4.792   0.754
 5248TIP3   OH215749   1.302   2.289   3.906
 5248TIP3    H115750   1.389   2.309   3.941
 5248TIP3    H215751   1.312   2.203   3.865
 5249TIP3   OH215752   2.929   0.725   4.004
 5249TIP3    H115753   2.859   0.698   4.063
 5249TIP3    H215754   2.915   0.673   3.925
 5250TIP3   OH215755   5.884   5.134   1.824
 5250TIP3    H115756   5.837   5.135   1.741
 5250TIP3    H215757   5.850   5.209   1.873
 5251TIP3   OH215758   4.708   4.244   0.420
 5251TIP3    H115759   4.701   4.184   0.495
 5251TIP3    H215760   4.624   4.237   0.375
 5252TIP3   OH215761   5.865   4.217   5.024
 5252TIP3    H115762   5.858   4.195   4.931
 5252TIP3    H215763   5.949   4.263   5.031
 5253TIP3   OH215764   4.978   5.729   3.483
 5253TIP3    H115765   5.009   5.779   3.559
 5253TIP3    H215766   5.046   5.664   3.468
 5254TIP3   OH215767   2.434   4.331   4.925
 5254TIP3    H115768   2.452   4.347   4.832
 5254TIP3    H215769   2.407   4.416   4.959
 5255TIP3   OH215770   3.296   5.670   0.783
 5255TIP3    H115771   3.300   5.731   0.710
 5255TIP3    H215772   3.214   5.691   0.827
 5256TIP3   OH215773   1.419   5.372   1.936
 5256TIP3    H115774   1.362   5.435   1.979
 5256TIP3    H215775   1.460   5.421   1.865
 5257TIP3   OH215776   2.833   3.906   0.478
 5257TIP3    H115777   2.771   3.859   0.421
 5257TIP3    H215778   2.779   3.974   0.518
 5258TIP3   OH215779   3.230   3.351   1.947
 5258TIP3    H115780   3.177   3.340   2.026
 5258TIP3    H215781   3.190   3.424   1.901
 5259TIP3   OH215782   4.139   0.390   4.919
 5259TIP3    H115783   4.185   0.474   4.927
 5259TIP3    H215784   4.109   0.389   4.828
 5260TIP3   OH215785   1.850   4.972   1.531
 5260TIP3    H115786   1.864   5.065   1.551
 5260TIP3    H215787   1.864   4.927   1.614
 5261TIP3   OH215788   6.001   0.226   0.864
 5261TIP3    H115789   5.996   0.294   0.797
 5261TIP3    H215790   5.965   0.148   0.822
 5262TIP3   OH215791   0.125   1.718   1.102
 5262TIP3    H115792   0.115   1.629   1.135
 5262TIP3    H215793   0.141   1.707   1.008
 5263TIP3   OH215794   2.937   0.199   4.509
 5263TIP3    H115795   2.873   0.244   4.565
 5263TIP3    H215796   3.012   0.259   4.507
 5264TIP3   OH215797   3.325   5.374   0.034
 5264TIP3    H115798   3.283   5.453   0.067
 5264TIP3    H215799   3.294   5.304   0.092
 5265TIP3   OH215800   4.761   4.850   3.452
 5265TIP3    H115801   4.757   4.821   3.361
 5265TIP3    H215802   4.673   4.835   3.486
 5266TIP3   OH215803   4.414   4.017   1.728
 5266TIP3    H115804   4.453   4.045   1.811
 5266TIP3    H215805   4.387   4.098   1.684
 5267TIP3   OH215806   1.400   5.891   2.800
 5267TIP3    H115807   1.474   5.949   2.781
 5267TIP3    H215808   1.346   5.894   2.721
 5268TIP3   OH215809   1.811   0.225   4.174
 5268TIP3    H115810   1.904   0.217   4.196
 5268TIP3    H215811   1.765   0.194   4.252
 5269TIP3   OH215812   4.916   3.733   1.180
 5269TIP3    H115813   4.836   3.766   1.140
 5269TIP3    H215814   4.934   3.652   1.133
 5270TIP3   OH215815   1.246   0.368   2.368
 5270TIP3    H115816   1.324   0.384   2.314
 5270TIP3    H215817   1.278   0.311   2.439
 5271TIP3   OH215818   4.241   1.405   0.645
 5271TIP3    H115819   4.298   1.357   0.705
 5271TIP3    H215820   4.295   1.420   0.568
 5272TIP3   OH215821   5.970   5.998   4.919
 5272TIP3    H115822   5.930   5.921   4.959
 5272TIP3    H215823   5.902   6.066   4.923
 5273TIP3   OH215824   0.895   3.802   3.590
 5273TIP3    H115825   0.800   3.806   3.590
 5273TIP3    H215826   0.919   3.792   3.497
 5274TIP3   OH215827   6.258   0.382   3.728
 5274TIP3    H115828   6.258   0.394   3.823
 5274TIP3    H215829   6.172   0.413   3.700
 5275TIP3   OH215830   4.714   0.643   0.486
 5275TIP3    H115831   4.750   0.614   0.570
 5275TIP3    H215832   4.722   0.738   0.488
 5276TIP3   OH215833   1.914   4.337   0.222
 5276TIP3    H115834   1.947   4.248   0.217
 5276TIP3    H215835   1.961   4.377   0.295
 5277TIP3   OH215836   4.787   2.056   2.409
 5277TIP3    H115837   4.813   2.028   2.497
 5277TIP3    H215838   4.802   1.980   2.354
 5278TIP3   OH215839   2.160   5.141   1.625
 5278TIP3    H115840   2.187   5.050   1.608
 5278TIP3    H215841   2.221   5.194   1.573
 5279TIP3   OH215842   0.011   1.085   0.779
 5279TIP3    H115843   0.038   1.010   0.833
 5279TIP3    H215844   0.069   1.082   0.703
 5280TIP3   OH215845   0.497   5.760   0.960
 5280TIP3    H115846   0.577   5.728   1.003
 5280TIP3    H215847   0.521   5.847   0.928
 5281TIP3   OH215848   1.800   0.899   1.877
 5281TIP3    H115849   1.831   0.845   1.949
 5281TIP3    H215850   1.788   0.838   1.804
 5282TIP3   OH215851   0.621   1.773   4.262
 5282TIP3    H115852   0.546   1.833   4.270
 5282TIP3    H215853   0.618   1.720   4.341
 5283TIP3   OH215854   4.300   5.683   2.910
 5283TIP3    H115855   4.234   5.684   2.978
 5283TIP3    H215856   4.356   5.759   2.929
 5284TIP3   OH215857   4.891   5.463   1.680
 5284TIP3    H115858   4.860   5.462   1.589
 5284TIP3    H215859   4.867   5.550   1.712
 5285TIP3   OH215860   5.557   1.831   0.805
 5285TIP3    H115861   5.583   1.742   0.782
 5285TIP3    H215862   5.632   1.885   0.779
 5286TIP3   OH215863   5.178   4.960   1.438
 5286TIP3    H115864   5.178   4.930   1.529
 5286TIP3    H215865   5.133   5.045   1.441
 5287TIP3   OH215866   2.771   1.525   1.250
 5287TIP3    H115867   2.844   1.570   1.209
 5287TIP3    H215868   2.807   1.490   1.331
 5288TIP3   OH215869   2.932   3.297   0.733
 5288TIP3    H115870   2.860   3.276   0.673
 5288TIP3    H215871   2.991   3.222   0.727
 5289TIP3   OH215872   3.774   0.261   5.112
 5289TIP3    H115873   3.791   0.306   5.195
 5289TIP3    H215874   3.718   0.321   5.063
 5290TIP3   OH215875   4.916   4.180   4.467
 5290TIP3    H115876   4.968   4.100   4.466
 5290TIP3    H215877   4.842   4.162   4.409
 5291TIP3   OH215878   3.750   0.906   1.857
 5291TIP3    H115879   3.804   0.969   1.809
 5291TIP3    H215880   3.668   0.953   1.872
 5292TIP3   OH215881   4.290   5.040   1.652
 5292TIP3    H115882   4.371   5.090   1.661
 5292TIP3    H215883   4.234   5.095   1.598
 5293TIP3   OH215884   6.324  -0.030   3.350
 5293TIP3    H115885   6.356   0.043   3.297
 5293TIP3    H215886   6.251   0.008   3.400
 5294TIP3   OH215887   4.692   4.935   0.859
 5294TIP3    H115888   4.758   4.996   0.825
 5294TIP3    H215889   4.665   4.973   0.942
 5295TIP3   OH215890   1.660   4.255   3.483
 5295TIP3    H115891   1.571   4.225   3.465
 5295TIP3    H215892   1.671   4.332   3.427
 5296TIP3   OH215893   6.221   4.746   3.249
 5296TIP3    H115894   6.198   4.663   3.290
 5296TIP3    H215895   6.255   4.722   3.163
 5297TIP3   OH215896   3.919   5.554   1.054
 5297TIP3    H115897   3.878   5.508   1.127
 5297TIP3    H215898   3.861   5.537   0.980
 5298TIP3   OH215899   2.734   3.079   3.910
 5298TIP3    H115900   2.810   3.127   3.876
 5298TIP3    H215901   2.682   3.145   3.955
 5299TIP3   OH215902   6.048   4.835   2.996
 5299TIP3    H115903   6.110   4.774   3.035
 5299TIP3    H215904   6.099   4.884   2.932
 5300TIP3   OH215905   0.757   3.965   4.323
 5300TIP3    H115906   0.677   3.913   4.326
 5300TIP3    H215907   0.731   4.052   4.354
 5301TIP3   OH215908   6.133   4.543   1.974
 5301TIP3    H115909   6.198   4.603   2.009
 5301TIP3    H215910   6.153   4.537   1.881
 5302TIP3   OH215911   4.985   2.569   1.898
 5302TIP3    H115912   4.914   2.579   1.962
 5302TIP3    H215913   4.950   2.508   1.833
 5303TIP3   OH215914   3.052   0.553   3.643
 5303TIP3    H115915   2.958   0.556   3.661
 5303TIP3    H215916   3.089   0.620   3.701
 5304TIP3   OH215917   0.482   1.469   3.725
 5304TIP3    H115918   0.496   1.562   3.746
 5304TIP3    H215919   0.477   1.426   3.810
 5305TIP3   OH215920   2.959   2.834   4.208
 5305TIP3    H115921   2.900   2.891   4.159
 5305TIP3    H215922   2.933   2.844   4.300
 5306TIP3   OH215923   3.085   5.190   0.866
 5306TIP3    H115924   3.126   5.131   0.802
 5306TIP3    H215925   3.142   5.184   0.943
 5307TIP3   OH215926   0.090   0.190   3.804
 5307TIP3    H115927   0.147   0.164   3.731
 5307TIP3    H215928   0.037   0.262   3.768
 5308TIP3   OH215929   0.865   0.653   4.099
 5308TIP3    H115930   0.938   0.636   4.160
 5308TIP3    H215931   0.867   0.578   4.039
 5309TIP3   OH215932   0.680   2.461   0.772
 5309TIP3    H115933   0.731   2.447   0.852
 5309TIP3    H215934   0.746   2.471   0.703
 5310TIP3   OH215935   3.926   0.696   0.890
 5310TIP3    H115936   3.903   0.778   0.846
 5310TIP3    H215937   3.975   0.723   0.967
 5311TIP3   OH215938   1.747   4.443   4.713
 5311TIP3    H115939   1.840   4.450   4.692
 5311TIP3    H215940   1.729   4.349   4.713
 5312TIP3   OH215941   5.491   5.852   4.504
 5312TIP3    H115942   5.427   5.781   4.497
 5312TIP3    H215943   5.482   5.901   4.423
 5313TIP3   OH215944   2.054   1.104   2.765
 5313TIP3    H115945   1.990   1.035   2.785
 5313TIP3    H215946   2.109   1.109   2.842
 5314TIP3   OH215947   0.960   0.232   1.752
 5314TIP3    H115948   0.899   0.167   1.717
 5314TIP3    H215949   1.046   0.194   1.738
 5315TIP3   OH215950   1.403   5.740   3.041
 5315TIP3    H115951   1.442   5.759   2.956
 5315TIP3    H215952   1.392   5.645   3.043
 5316TIP3   OH215953   2.825   4.528   2.257
 5316TIP3    H115954   2.755   4.587   2.283
 5316TIP3    H215955   2.805   4.445   2.302
 5317TIP3   OH215956   1.389   0.395   3.313
 5317TIP3    H115957   1.468   0.353   3.279
 5317TIP3    H215958   1.381   0.361   3.402
 5318TIP3   OH215959   5.513   0.498   4.816
 5318TIP3    H115960   5.509   0.588   4.849
 5318TIP3    H215961   5.494   0.505   4.723
 5319TIP3   OH215962   1.875   1.967   2.549
 5319TIP3    H115963   1.961   1.962   2.509
 5319TIP3    H215964   1.825   1.897   2.508
 5320TIP3   OH215965   4.042   0.364   4.619
 5320TIP3    H115966   3.951   0.343   4.640
 5320TIP3    H215967   4.051   0.341   4.527
 5321TIP3   OH215968   3.431   3.924   4.257
 5321TIP3    H115969   3.457   3.916   4.349
 5321TIP3    H215970   3.497   3.983   4.219
 5322TIP3   OH215971   3.565   2.256   3.924
 5322TIP3    H115972   3.622   2.261   4.001
 5322TIP3    H215973   3.485   2.300   3.951
 5323TIP3   OH215974   2.155   1.378   0.894
 5323TIP3    H115975   2.150   1.466   0.857
 5323TIP3    H215976   2.068   1.364   0.932
 5324TIP3   OH215977   2.727   5.602   2.584
 5324TIP3    H115978   2.750   5.695   2.581
 5324TIP3    H215979   2.631   5.601   2.582
 5325TIP3   OH215980   2.478   4.921   1.631
 5325TIP3    H115981   2.391   4.936   1.592
 5325TIP3    H215982   2.511   4.844   1.585
 5326TIP3   OH215983   1.454   4.388   0.769
 5326TIP3    H115984   1.436   4.295   0.785
 5326TIP3    H215985   1.544   4.390   0.737
 5327TIP3   OH215986   4.528   5.870   4.579
 5327TIP3    H115987   4.520   5.955   4.623
 5327TIP3    H215988   4.500   5.886   4.489
 5328TIP3   OH215989   1.924   1.074   2.495
 5328TIP3    H115990   1.834   1.090   2.467
 5328TIP3    H215991   1.933   0.979   2.495
 5329TIP3   OH215992   0.187   1.846   0.517
 5329TIP3    H115993   0.161   1.868   0.607
 5329TIP3    H215994   0.206   1.753   0.520
 5330TIP3   OH215995   3.202   4.192   2.868
 5330TIP3    H115996   3.144   4.268   2.873
 5330TIP3    H215997   3.164   4.129   2.929
 5331TIP3   OH215998   2.374   2.851   3.514
 5331TIP3    H115999   2.287   2.852   3.554
 5331TIP3    H216000   2.388   2.940   3.484
 5332TIP3   OH216001   2.328   1.961   2.096
 5332TIP3    H116002   2.359   2.001   2.177
 5332TIP3    H216003   2.256   1.904   2.124
 5333TIP3   OH216004   3.103   4.015   4.468
 5333TIP3    H116005   3.012   4.037   4.448
 5333TIP3    H216006   3.154   4.053   4.396
 5334TIP3   OH216007   4.462   5.855   0.256
 5334TIP3    H116008   4.421   5.836   0.172
 5334TIP3    H216009   4.458   5.772   0.303
 5335TIP3   OH216010   1.491   4.612   1.420
 5335TIP3    H116011   1.520   4.638   1.507
 5335TIP3    H216012   1.500   4.692   1.367
 5336TIP3   OH216013   5.275   5.353   3.721
 5336TIP3    H116014   5.219   5.360   3.798
 5336TIP3    H216015   5.341   5.422   3.734
 5337TIP3   OH216016   3.505   2.842   0.610
 5337TIP3    H116017   3.447   2.766   0.602
 5337TIP3    H216018   3.589   2.811   0.576
 5338TIP3   OH216019   3.582   4.117   1.926
 5338TIP3    H116020   3.548   4.029   1.914
 5338TIP3    H216021   3.656   4.123   1.865
 5339TIP3   OH216022   2.070   0.139   4.233
 5339TIP3    H116023   2.090   0.069   4.296
 5339TIP3    H216024   2.150   0.146   4.181
 5340TIP3   OH216025   5.425   5.331   4.016
 5340TIP3    H116026   5.435   5.392   3.943
 5340TIP3    H216027   5.408   5.386   4.092
 5341TIP3   OH216028   3.265   5.637   2.977
 5341TIP3    H116029   3.273   5.591   2.894
 5341TIP3    H216030   3.355   5.650   3.006
 5342TIP3   OH216031   4.379   5.300   1.097
 5342TIP3    H116032   4.325   5.290   1.176
 5342TIP3    H216033   4.376   5.394   1.078
 5343TIP3   OH216034   4.495   5.872   3.844
 5343TIP3    H116035   4.511   5.813   3.917
 5343TIP3    H216036   4.581   5.884   3.804
 5344TIP3   OH216037   2.732   0.508   4.840
 5344TIP3    H116038   2.656   0.552   4.800
 5344TIP3    H216039   2.794   0.497   4.768
 5345TIP3   OH216040   2.111   3.671   1.230
 5345TIP3    H116041   2.039   3.642   1.173
 5345TIP3    H216042   2.147   3.748   1.187
 5346TIP3   OH216043   2.924   1.856   1.268
 5346TIP3    H116044   2.915   1.778   1.213
 5346TIP3    H216045   3.017   1.875   1.268
 5347TIP3   OH216046   2.748   4.401   0.824
 5347TIP3    H116047   2.678   4.406   0.758
 5347TIP3    H216048   2.717   4.336   0.887
 5348TIP3   OH216049   0.540   4.071   0.423
 5348TIP3    H116050   0.528   4.148   0.368
 5348TIP3    H216051   0.594   4.012   0.370
 5349TIP3   OH216052  -0.022   2.915   4.306
 5349TIP3    H116053  -0.031   2.843   4.368
 5349TIP3    H216054   0.005   2.874   4.224
 5350TIP3   OH216055   1.876   2.978   3.798
 5350TIP3    H116056   1.956   2.982   3.850
 5350TIP3    H216057   1.810   2.945   3.859
 5351TIP3   OH216058   4.750   1.498   4.931
 5351TIP3    H116059   4.735   1.579   4.883
 5351TIP3    H216060   4.833   1.464   4.896
 5352TIP3   OH216061   3.487   0.386   1.548
 5352TIP3    H116062   3.445   0.431   1.474
 5352TIP3    H216063   3.575   0.367   1.517
 5353TIP3   OH216064   6.001   4.018   2.694
 5353TIP3    H116065   5.977   3.926   2.704
 5353TIP3    H216066   6.075   4.030   2.753
 5354TIP3   OH216067   1.467   5.774   4.342
 5354TIP3    H116068   1.396   5.828   4.376
 5354TIP3    H216069   1.429   5.686   4.337
 5355TIP3   OH216070   5.364   5.195   1.276
 5355TIP3    H116071   5.325   5.201   1.189
 5355TIP3    H216072   5.350   5.104   1.302
 5356TIP3   OH216073   1.959   0.657   1.151
 5356TIP3    H116074   1.999   0.574   1.177
 5356TIP3    H216075   1.977   0.665   1.058
 5357TIP3   OH216076   3.820   4.654   3.358
 5357TIP3    H116077   3.795   4.566   3.328
 5357TIP3    H216078   3.886   4.682   3.295
 5358TIP3   OH216079   2.163   1.912   4.719
 5358TIP3    H116080   2.102   1.843   4.692
 5358TIP3    H216081   2.246   1.889   4.679
 5359TIP3   OH216082   5.421   4.065   1.831
 5359TIP3    H116083   5.459   4.066   1.744
 5359TIP3    H216084   5.492   4.035   1.888
 5360TIP3   OH216085   4.577   2.289   1.058
 5360TIP3    H116086   4.588   2.384   1.060
 5360TIP3    H216087   4.532   2.269   1.141
 5361TIP3   OH216088   2.360   3.396   5.160
 5361TIP3    H116089   2.444   3.362   5.194
 5361TIP3    H216090   2.305   3.318   5.153
 5362TIP3   OH216091   0.446   2.436   0.563
 5362TIP3    H116092   0.534   2.438   0.525
 5362TIP3    H216093   0.395   2.496   0.509
 5363TIP3   OH216094   1.095   2.934   3.838
 5363TIP3    H116095   1.002   2.910   3.839
 5363TIP3    H216096   1.138   2.859   3.798
 5364TIP3   OH216097   1.560   3.397   1.141
 5364TIP3    H116098   1.505   3.345   1.082
 5364TIP3    H216099   1.644   3.403   1.095
 5365TIP3   OH216100   5.473   0.629   0.677
 5365TIP3    H116101   5.534   0.586   0.737
 5365TIP3    H216102   5.448   0.710   0.721
 5366TIP3   OH216103   3.265   1.785   4.155
 5366TIP3    H116104   3.361   1.786   4.153
 5366TIP3    H216105   3.243   1.719   4.222
 5367TIP3   OH216106   3.960   0.073   1.166
 5367TIP3    H116107   3.881   0.071   1.221
 5367TIP3    H216108   4.011  -0.002   1.196
 5368TIP3   OH216109   6.151   3.144   0.132
 5368TIP3    H116110   6.118   3.227   0.166
 5368TIP3    H216111   6.218   3.168   0.069
 5369TIP3   OH216112   1.233   2.589   3.269
 5369TIP3    H116113   1.207   2.676   3.300
 5369TIP3    H216114   1.270   2.605   3.182
 5370TIP3   OH216115   3.400   5.540   1.675
 5370TIP3    H116116   3.480   5.534   1.624
 5370TIP3    H216117   3.345   5.603   1.628
 5371TIP3   OH216118   2.467   1.165   1.272
 5371TIP3    H116119   2.527   1.229   1.235
 5371TIP3    H216120   2.524   1.099   1.311
 5372TIP3   OH216121   3.338   5.553   4.824
 5372TIP3    H116122   3.424   5.543   4.783
 5372TIP3    H216123   3.344   5.632   4.876
 5373TIP3   OH216124   3.738   0.124   2.709
 5373TIP3    H116125   3.717   0.186   2.639
 5373TIP3    H216126   3.775   0.178   2.779
 5374TIP3   OH216127   2.026   5.359   2.603
 5374TIP3    H116128   1.975   5.364   2.523
 5374TIP3    H216129   2.113   5.393   2.579
 5375TIP3   OH216130   4.451   1.927   0.302
 5375TIP3    H116131   4.412   1.997   0.249
 5375TIP3    H216132   4.437   1.954   0.393
 5376TIP3   OH216133   5.769   3.721   0.702
 5376TIP3    H116134   5.740   3.631   0.717
 5376TIP3    H216135   5.694   3.775   0.728
 5377TIP3   OH216136   3.049   0.361   2.110
 5377TIP3    H116137   2.975   0.400   2.157
 5377TIP3    H216138   3.088   0.301   2.174
 5378TIP3   OH216139   3.064   4.757   4.370
 5378TIP3    H116140   3.115   4.800   4.439
 5378TIP3    H216141   3.036   4.828   4.313
 5379TIP3   OH216142   4.244   4.473   3.715
 5379TIP3    H116143   4.272   4.553   3.672
 5379TIP3    H216144   4.148   4.476   3.712
 5380TIP3   OH216145   2.728   3.969   1.847
 5380TIP3    H116146   2.823   3.981   1.835
 5380TIP3    H216147   2.691   3.981   1.759
 5381TIP3   OH216148   3.360   2.515   0.824
 5381TIP3    H116149   3.394   2.488   0.909
 5381TIP3    H216150   3.384   2.443   0.765
 5382TIP3   OH216151   2.274   1.249   2.604
 5382TIP3    H116152   2.310   1.267   2.517
 5382TIP3    H216153   2.341   1.194   2.646
 5383TIP3   OH216154   0.833   2.508   4.484
 5383TIP3    H116155   0.862   2.445   4.418
 5383TIP3    H216156   0.900   2.577   4.483
 5384TIP3   OH216157   5.803   3.046   3.671
 5384TIP3    H116158   5.845   2.960   3.675
 5384TIP3    H216159   5.774   3.063   3.761
 5385TIP3   OH216160   2.775   5.281   3.023
 5385TIP3    H116161   2.847   5.324   3.068
 5385TIP3    H216162   2.817   5.214   2.968
 5386TIP3   OH216163   5.362   5.873   1.810
 5386TIP3    H116164   5.393   5.946   1.863
 5386TIP3    H216165   5.322   5.914   1.733
 5387TIP3   OH216166   5.343   1.266   2.370
 5387TIP3    H116167   5.371   1.195   2.427
 5387TIP3    H216168   5.421   1.290   2.320
 5388TIP3   OH216169   2.413   1.283   4.344
 5388TIP3    H116170   2.474   1.252   4.276
 5388TIP3    H216171   2.328   1.249   4.316
 5389TIP3   OH216172   3.220   4.706   0.937
 5389TIP3    H116173   3.295   4.731   0.990
 5389TIP3    H216174   3.148   4.762   0.967
 5390TIP3   OH216175   2.997   1.419   3.543
 5390TIP3    H116176   2.940   1.416   3.620
 5390TIP3    H216177   3.052   1.496   3.557
 5391TIP3   OH216178   5.183   5.562   0.913
 5391TIP3    H116179   5.199   5.569   0.819
 5391TIP3    H216180   5.091   5.536   0.920
 5392TIP3   OH216181   3.486   3.550   1.825
 5392TIP3    H116182   3.436   3.579   1.748
 5392TIP3    H216183   3.561   3.502   1.788
 5393TIP3   OH216184   0.697   3.691   2.801
 5393TIP3    H116185   0.689   3.596   2.806
 5393TIP3    H216186   0.619   3.724   2.845
 5394TIP3   OH216187   2.479   2.083   4.442
 5394TIP3    H116188   2.564   2.126   4.433
 5394TIP3    H216189   2.491   2.020   4.513
 5395TIP3   OH216190   1.419   4.107   3.511
 5395TIP3    H116191   1.479   4.117   3.584
 5395TIP3    H216192   1.414   4.012   3.496
 5396TIP3   OH216193   0.713   3.059   4.262
 5396TIP3    H116194   0.789   3.093   4.215
 5396TIP3    H216195   0.715   3.104   4.346
 5397TIP3   OH216196   3.127   2.970   1.461
 5397TIP3    H116197   3.109   3.001   1.550
 5397TIP3    H216198   3.085   3.034   1.404
 5398TIP3   OH216199   6.193   1.954   2.715
 5398TIP3    H116200   6.111   1.999   2.736
 5398TIP3    H216201   6.262   2.011   2.748
 5399TIP3   OH216202   1.955   1.611   1.888
 5399TIP3    H116203   1.936   1.702   1.910
 5399TIP3    H216204   2.027   1.615   1.825
 5400TIP3   OH216205   2.929   3.528   2.788
 5400TIP3    H116206   3.015   3.511   2.749
 5400TIP3    H216207   2.867   3.514   2.717
 5401TIP3   OH216208   5.906   4.014   4.298
 5401TIP3    H116209   5.957   3.987   4.222
 5401TIP3    H216210   5.867   4.097   4.271
 5402TIP3   OH216211   5.846   4.984   2.066
 5402TIP3    H116212   5.860   4.998   1.972
 5402TIP3    H216213   5.877   5.065   2.107
 5403TIP3   OH216214   4.216   4.730   2.312
 5403TIP3    H116215   4.134   4.680   2.312
 5403TIP3    H216216   4.265   4.693   2.239
 5404TIP3   OH216217   2.344   2.823   4.854
 5404TIP3    H116218   2.285   2.889   4.817
 5404TIP3    H216219   2.381   2.865   4.931
 5405TIP3   OH216220   0.769   5.042   4.364
 5405TIP3    H116221   0.786   4.976   4.432
 5405TIP3    H216222   0.853   5.085   4.351
 5406TIP3   OH216223   3.604   4.810   0.908
 5406TIP3    H116224   3.685   4.774   0.945
 5406TIP3    H216225   3.549   4.828   0.984
 5407TIP3   OH216226   5.047   3.110   2.103
 5407TIP3    H116227   5.003   3.046   2.159
 5407TIP3    H216228   5.099   3.057   2.042
 5408TIP3   OH216229   2.734   2.263   2.681
 5408TIP3    H116230   2.673   2.319   2.729
 5408TIP3    H216231   2.682   2.186   2.658
 5409TIP3   OH216232   5.664   5.722   1.022
 5409TIP3    H116233   5.580   5.680   1.040
 5409TIP3    H216234   5.661   5.805   1.070
 5410TIP3   OH216235   0.311   1.741   2.591
 5410TIP3    H116236   0.306   1.809   2.524
 5410TIP3    H216237   0.404   1.734   2.612
 5411TIP3   OH216238   1.052   0.517   1.462
 5411TIP3    H116239   1.019   0.428   1.448
 5411TIP3    H216240   1.125   0.506   1.523
 5412TIP3   OH216241   5.756   0.072   3.874
 5412TIP3    H116242   5.727   0.120   3.952
 5412TIP3    H216243   5.728   0.126   3.800
 5413TIP3   OH216244   3.208   0.068   0.289
 5413TIP3    H116245   3.173  -0.016   0.259
 5413TIP3    H216246   3.161   0.133   0.237
 5414TIP3   OH216247   1.285   3.385   3.611
 5414TIP3    H116248   1.362   3.350   3.655
 5414TIP3    H216249   1.211   3.348   3.660
 5415TIP3   OH216250   6.322   5.831   0.958
 5415TIP3    H116251   6.268   5.761   0.996
 5415TIP3    H216252   6.410   5.814   0.991
 5416TIP3   OH216253   5.852   2.132   4.771
 5416TIP3    H116254   5.893   2.058   4.816
 5416TIP3    H216255   5.922   2.197   4.764
 5417TIP3   OH216256   4.798   3.566   1.827
 5417TIP3    H116257   4.863   3.605   1.886
 5417TIP3    H216258   4.816   3.607   1.742
 5418TIP3   OH216259   4.450   4.789   0.896
 5418TIP3    H116260   4.466   4.747   0.811
 5418TIP3    H216261   4.515   4.859   0.901
 5419TIP3   OH216262   4.592   3.640   3.979
 5419TIP3    H116263   4.540   3.661   3.901
 5419TIP3    H216264   4.655   3.712   3.986
 5420TIP3   OH216265   5.367   4.543   2.320
 5420TIP3    H116266   5.394   4.634   2.332
 5420TIP3    H216267   5.308   4.526   2.394
 5421TIP3   OH216268   2.022   4.998   4.234
 5421TIP3    H116269   1.978   4.961   4.311
 5421TIP3    H216270   2.050   5.085   4.262
 5422TIP3   OH216271   5.796   0.475   3.373
 5422TIP3    H116272   5.815   0.382   3.365
 5422TIP3    H216273   5.878   0.519   3.351
 5423TIP3   OH216274   3.310   5.097   3.771
 5423TIP3    H116275   3.261   5.116   3.852
 5423TIP3    H216276   3.402   5.112   3.794
 5424TIP3   OH216277   0.273   0.512   4.992
 5424TIP3    H116278   0.199   0.548   5.042
 5424TIP3    H216279   0.298   0.584   4.934
 5425TIP3   OH216280   4.740   1.370   0.522
 5425TIP3    H116281   4.805   1.422   0.569
 5425TIP3    H216282   4.681   1.338   0.591
 5426TIP3   OH216283   1.530   0.601   1.908
 5426TIP3    H116284   1.449   0.634   1.870
 5426TIP3    H216285   1.510   0.587   2.000
 5427TIP3   OH216286   2.161   1.706   3.985
 5427TIP3    H116287   2.251   1.676   3.997
 5427TIP3    H216288   2.144   1.694   3.891
 5428TIP3   OH216289   1.786   3.617   2.164
 5428TIP3    H116290   1.824   3.643   2.079
 5428TIP3    H216291   1.746   3.532   2.146
 5429TIP3   OH216292   1.568   1.622   4.572
 5429TIP3    H116293   1.531   1.706   4.547
 5429TIP3    H216294   1.662   1.638   4.580
 5430TIP3   OH216295   0.751   5.236   2.132
 5430TIP3    H116296   0.802   5.228   2.213
 5430TIP3    H216297   0.735   5.330   2.123
 5431TIP3   OH216298   5.585   0.195   0.521
 5431TIP3    H116299   5.557   0.129   0.457
 5431TIP3    H216300   5.644   0.147   0.579
 5432TIP3   OH216301   1.400   3.177   4.915
 5432TIP3    H116302   1.424   3.104   4.858
 5432TIP3    H216303   1.336   3.227   4.864
 5433TIP3   OH216304   5.778   5.402   0.549
 5433TIP3    H116305   5.823   5.322   0.523
 5433TIP3    H216306   5.789   5.405   0.644
 5434TIP3   OH216307   0.842   2.452   1.616
 5434TIP3    H116308   0.930   2.446   1.580
 5434TIP3    H216309   0.856   2.474   1.709
 5435TIP3   OH216310   0.220   2.696   2.925
 5435TIP3    H116311   0.170   2.704   2.843
 5435TIP3    H216312   0.311   2.708   2.899
 5436TIP3   OH216313   2.859   1.691   0.628
 5436TIP3    H116314   2.807   1.617   0.660
 5436TIP3    H216315   2.805   1.768   0.649
 5437TIP3   OH216316   0.896   4.537   2.658
 5437TIP3    H116317   0.910   4.624   2.619
 5437TIP3    H216318   0.803   4.519   2.642
 5438TIP3   OH216319   2.748   5.221   3.706
 5438TIP3    H116320   2.785   5.132   3.712
 5438TIP3    H216321   2.733   5.247   3.797
 5439TIP3   OH216322   1.054   4.819   4.921
 5439TIP3    H116323   1.093   4.733   4.935
 5439TIP3    H216324   1.124   4.871   4.882
 5440TIP3   OH216325   1.902   1.596   4.060
 5440TIP3    H116326   1.843   1.660   4.019
 5440TIP3    H216327   1.988   1.639   4.059
 5441TIP3   OH216328   4.889   2.620   1.364
 5441TIP3    H116329   4.920   2.531   1.347
 5441TIP3    H216330   4.880   2.625   1.459
 5442TIP3   OH216331   3.654   1.486   4.670
 5442TIP3    H116332   3.644   1.571   4.712
 5442TIP3    H216333   3.657   1.423   4.742
 5443TIP3   OH216334   2.542   3.593   2.979
 5443TIP3    H116335   2.513   3.582   2.889
 5443TIP3    H216336   2.468   3.635   3.023
 5444TIP3   OH216337   2.904   1.296   0.095
 5444TIP3    H116338   2.922   1.236   0.167
 5444TIP3    H216339   2.854   1.367   0.135
 5445TIP3   OH216340   3.170   2.294   4.207
 5445TIP3    H116341   3.232   2.225   4.184
 5445TIP3    H216342   3.157   2.343   4.126
 5446TIP3   OH216343   6.110   4.560   4.533
 5446TIP3    H116344   6.096   4.510   4.453
 5446TIP3    H216345   6.094   4.497   4.604
 5447TIP3   OH216346   1.909   5.638   4.489
 5447TIP3    H116347   1.852   5.615   4.563
 5447TIP3    H216348   1.852   5.638   4.413
 5448TIP3   OH216349   2.060   0.468   4.863
 5448TIP3    H116350   2.008   0.413   4.921
 5448TIP3    H216351   2.056   0.555   4.903
 5449TIP3   OH216352   4.197   0.451   1.710
 5449TIP3    H116353   4.127   0.393   1.682
 5449TIP3    H216354   4.275   0.421   1.662
 5450TIP3   OH216355   3.105   2.746   1.298
 5450TIP3    H116356   3.086   2.799   1.220
 5450TIP3    H216357   3.112   2.810   1.369
 5451TIP3   OH216358   5.424   4.136   2.895
 5451TIP3    H116359   5.432   4.125   2.990
 5451TIP3    H216360   5.365   4.211   2.886
 5452TIP3   OH216361   1.774   2.081   0.424
 5452TIP3    H116362   1.695   2.066   0.476
 5452TIP3    H216363   1.786   2.176   0.426
 5453TIP3   OH216364   4.558   4.292   3.035
 5453TIP3    H116365   4.605   4.369   3.069
 5453TIP3    H216366   4.588   4.285   2.944
 5454TIP3   OH216367   3.411   4.412   2.548
 5454TIP3    H116368   3.484   4.388   2.606
 5454TIP3    H216369   3.453   4.452   2.472
 5455TIP3   OH216370   2.080   5.830   0.959
 5455TIP3    H116371   2.100   5.796   0.871
 5455TIP3    H216372   2.089   5.925   0.951
 5456TIP3   OH216373   5.593   1.873   3.944
 5456TIP3    H116374   5.665   1.827   3.986
 5456TIP3    H216375   5.612   1.966   3.959
 5457TIP3   OH216376   2.063   5.183   3.344
 5457TIP3    H116377   2.005   5.238   3.397
 5457TIP3    H216378   2.045   5.209   3.254
 5458TIP3   OH216379   6.318   2.490   4.190
 5458TIP3    H116380   6.227   2.516   4.178
 5458TIP3    H216381   6.314   2.406   4.236
 5459TIP3   OH216382   3.245   4.715   1.595
 5459TIP3    H116383   3.205   4.673   1.671
 5459TIP3    H216384   3.338   4.692   1.601
 5460TIP3   OH216385   3.528   3.315   1.232
 5460TIP3    H116386   3.583   3.394   1.230
 5460TIP3    H216387   3.569   3.255   1.171
 5461TIP3   OH216388   3.607   0.455   4.970
 5461TIP3    H116389   3.535   0.394   4.958
 5461TIP3    H216390   3.570   0.541   4.949
 5462TIP3   OH216391   3.249   4.243   0.822
 5462TIP3    H116392   3.299   4.310   0.776
 5462TIP3    H216393   3.177   4.292   0.863
 5463TIP3   OH216394   0.093   1.340   1.735
 5463TIP3    H116395   0.003   1.371   1.721
 5463TIP3    H216396   0.147   1.416   1.716
 5464TIP3   OH216397   5.100   0.931   0.195
 5464TIP3    H116398   5.154   0.993   0.145
 5464TIP3    H216399   5.031   0.906   0.134
 5465TIP3   OH216400   1.718   4.806   3.366
 5465TIP3    H116401   1.634   4.850   3.351
 5465TIP3    H216402   1.760   4.805   3.279
 5466TIP3   OH216403   2.508   2.229   4.150
 5466TIP3    H116404   2.486   2.316   4.117
 5466TIP3    H216405   2.460   2.168   4.093
 5467TIP3   OH216406   0.042   3.455   4.747
 5467TIP3    H116407   0.021   3.438   4.839
 5467TIP3    H216408  -0.035   3.424   4.699
 5468TIP3   OH216409   4.498   0.515   1.276
 5468TIP3    H116410   4.563   0.447   1.262
 5468TIP3    H216411   4.450   0.487   1.354
 5469TIP3   OH216412   3.995   5.910   4.932
 5469TIP3    H116413   3.951   5.933   4.850
 5469TIP3    H216414   3.931   5.857   4.980
 5470TIP3   OH216415   1.797   4.547   1.946
 5470TIP3    H116416   1.885   4.561   1.981
 5470TIP3    H216417   1.810   4.484   1.875
 5471TIP3   OH216418   5.154   2.155   0.731
 5471TIP3    H116419   5.163   2.115   0.818
 5471TIP3    H216420   5.207   2.100   0.674
 5472TIP3   OH216421   6.092   0.703   1.540
 5472TIP3    H116422   6.019   0.645   1.562
 5472TIP3    H216423   6.110   0.685   1.448
 5473TIP3   OH216424   4.768   5.873   2.276
 5473TIP3    H116425   4.779   5.816   2.199
 5473TIP3    H216426   4.857   5.890   2.307
 5474TIP3   OH216427   0.749   0.717   4.362
 5474TIP3    H116428   0.791   0.799   4.388
 5474TIP3    H216429   0.778   0.703   4.272
 5475TIP3   OH216430   1.098   0.468   3.507
 5475TIP3    H116431   1.057   0.431   3.586
 5475TIP3    H216432   1.105   0.393   3.447
 5476TIP3   OH216433   4.939   0.517   4.409
 5476TIP3    H116434   4.935   0.606   4.444
 5476TIP3    H216435   4.863   0.472   4.445
 5477TIP3   OH216436   1.957   5.057   0.905
 5477TIP3    H116437   1.997   5.077   0.820
 5477TIP3    H216438   1.864   5.045   0.886
 5478TIP3   OH216439   3.004   5.431   1.838
 5478TIP3    H116440   2.930   5.386   1.798
 5478TIP3    H216441   3.079   5.376   1.817
 5479TIP3   OH216442   5.437   1.155   3.028
 5479TIP3    H116443   5.363   1.153   2.968
 5479TIP3    H216444   5.497   1.220   2.992
 5480TIP3   OH216445   2.616   2.564   4.855
 5480TIP3    H116446   2.612   2.528   4.766
 5480TIP3    H216447   2.548   2.518   4.903
 5481TIP3   OH216448   0.771   4.445   1.330
 5481TIP3    H116449   0.750   4.510   1.263
 5481TIP3    H216450   0.743   4.486   1.412
 5482TIP3   OH216451   2.344   0.600   2.285
 5482TIP3    H116452   2.388   0.627   2.204
 5482TIP3    H216453   2.257   0.571   2.257
 5483TIP3   OH216454   5.836   5.053   4.292
 5483TIP3    H116455   5.927   5.040   4.317
 5483TIP3    H216456   5.822   5.147   4.300
 5484TIP3   OH216457   3.550   4.475   1.963
 5484TIP3    H116458   3.468   4.452   2.007
 5484TIP3    H216459   3.559   4.570   1.977
 5485TIP3   OH216460   4.333   0.711   3.329
 5485TIP3    H116461   4.387   0.696   3.406
 5485TIP3    H216462   4.271   0.780   3.356
 5486TIP3   OH216463   3.750   4.117   2.605
 5486TIP3    H116464   3.733   4.023   2.611
 5486TIP3    H216465   3.726   4.140   2.515
 5487TIP3   OH216466   0.545   1.831   1.153
 5487TIP3    H116467   0.613   1.813   1.218
 5487TIP3    H216468   0.547   1.926   1.142
 5488TIP3   OH216469   1.558   3.340   0.368
 5488TIP3    H116470   1.643   3.296   0.381
 5488TIP3    H216471   1.531   3.315   0.280
 5489TIP3   OH216472   2.388   4.161   1.860
 5489TIP3    H116473   2.422   4.237   1.813
 5489TIP3    H216474   2.299   4.187   1.887
 5490TIP3   OH216475   1.148   5.477   5.126
 5490TIP3    H116476   1.179   5.458   5.037
 5490TIP3    H216477   1.183   5.405   5.179
 5491TIP3   OH216478   0.440   3.765   2.960
 5491TIP3    H116479   0.371   3.830   2.945
 5491TIP3    H216480   0.398   3.681   2.944
 5492TIP3   OH216481   4.517   4.799   3.581
 5492TIP3    H116482   4.554   4.757   3.658
 5492TIP3    H216483   4.436   4.840   3.612
 5493TIP3   OH216484   3.744   3.512   1.362
 5493TIP3    H116485   3.836   3.491   1.344
 5493TIP3    H216486   3.718   3.568   1.290
 5494TIP3   OH216487   0.566   3.855   3.470
 5494TIP3    H116488   0.626   3.928   3.455
 5494TIP3    H216489   0.483   3.896   3.493
 5495TIP3   OH216490   6.025   1.592   2.281
 5495TIP3    H116491   6.112   1.613   2.314
 5495TIP3    H216492   5.982   1.547   2.354
 5496TIP3   OH216493   3.185   0.595   3.366
 5496TIP3    H116494   3.149   0.543   3.294
 5496TIP3    H216495   3.121   0.586   3.436
 5497TIP3   OH216496   3.018   2.208   4.922
 5497TIP3    H116497   3.018   2.174   4.833
 5497TIP3    H216498   2.935   2.255   4.930
 5498TIP3   OH216499   0.578   2.492   2.704
 5498TIP3    H116500   0.630   2.443   2.641
 5498TIP3    H216501   0.607   2.583   2.694
 5499TIP3   OH216502   4.564   0.267   4.876
 5499TIP3    H116503   4.644   0.217   4.893
 5499TIP3    H216504   4.503   0.203   4.838
 5500TIP3   OH216505   0.505   1.035   0.410
 5500TIP3    H116506   0.472   0.951   0.380
 5500TIP3    H216507   0.426   1.089   0.421
 5501TIP3   OH216508   5.316   3.299   2.686
 5501TIP3    H116509   5.229   3.335   2.667
 5501TIP3    H216510   5.314   3.278   2.780
 5502TIP3   OH216511   4.962   1.102   0.714
 5502TIP3    H116512   4.954   1.196   0.698
 5502TIP3    H216513   5.011   1.069   0.639
 5503TIP3   OH216514   0.052   3.186   4.950
 5503TIP3    H116515   0.135   3.141   4.933
 5503TIP3    H216516  -0.001   3.169   4.872
 5504TIP3   OH216517   1.425   5.193   0.509
 5504TIP3    H116518   1.514   5.185   0.543
 5504TIP3    H216519   1.393   5.275   0.545
 5505TIP3   OH216520   0.655   3.179   3.395
 5505TIP3    H116521   0.596   3.131   3.455
 5505TIP3    H216522   0.704   3.238   3.452
 5506TIP3   OH216523   0.036   1.407   4.278
 5506TIP3    H116524   0.061   1.499   4.280
 5506TIP3    H216525   0.101   1.365   4.222
 5507TIP3   OH216526   3.707   2.373   3.438
 5507TIP3    H116527   3.626   2.325   3.423
 5507TIP3    H216528   3.717   2.376   3.533
 5508TIP3   OH216529   5.902   2.929   0.016
 5508TIP3    H116530   5.911   3.021  -0.010
 5508TIP3    H216531   5.882   2.932   0.109
 5509TIP3   OH216532   4.302   5.226   3.635
 5509TIP3    H116533   4.299   5.298   3.572
 5509TIP3    H216534   4.321   5.148   3.582
 5510TIP3   OH216535   2.833   5.064   0.790
 5510TIP3    H116536   2.841   4.973   0.764
 5510TIP3    H216537   2.920   5.101   0.775
 5511TIP3   OH216538   3.502   0.823   1.191
 5511TIP3    H116539   3.563   0.827   1.266
 5511TIP3    H216540   3.526   0.899   1.138
 5512TIP3   OH216541   5.161   2.521   0.822
 5512TIP3    H116542   5.088   2.467   0.849
 5512TIP3    H216543   5.171   2.504   0.729
 5513TIP3   OH216544   3.018   1.879   3.185
 5513TIP3    H116545   3.082   1.836   3.128
 5513TIP3    H216546   2.953   1.811   3.203
 5514TIP3   OH216547   4.036   1.821   1.699
 5514TIP3    H116548   3.949   1.810   1.660
 5514TIP3    H216549   4.018   1.835   1.792
 5515TIP3   OH216550   1.846   4.594   5.100
 5515TIP3    H116551   1.789   4.671   5.109
 5515TIP3    H216552   1.846   4.554   5.187
 5516TIP3   OH216553   6.201   1.192   0.086
 5516TIP3    H116554   6.165   1.256   0.147
 5516TIP3    H216555   6.243   1.244   0.018
 5517TIP3   OH216556   2.884   2.280   1.149
 5517TIP3    H116557   2.790   2.265   1.142
 5517TIP3    H216558   2.896   2.318   1.236
 5518TIP3   OH216559   4.585   5.719   4.909
 5518TIP3    H116560   4.581   5.809   4.940
 5518TIP3    H216561   4.678   5.703   4.894
 5519TIP3   OH216562   5.277   1.320   5.133
 5519TIP3    H116563   5.316   1.396   5.090
 5519TIP3    H216564   5.351   1.259   5.144
 5520TIP3   OH216565   0.691   5.124   2.757
 5520TIP3    H116566   0.615   5.101   2.810
 5520TIP3    H216567   0.681   5.217   2.739
 5521TIP3   OH216568   1.106   0.242   3.371
 5521TIP3    H116569   1.066   0.211   3.290
 5521TIP3    H216570   1.172   0.177   3.392
 5522TIP3   OH216571   1.472   5.846   2.318
 5522TIP3    H116572   1.536   5.842   2.388
 5522TIP3    H216573   1.524   5.858   2.238
 5523TIP3   OH216574   3.184   0.194   2.973
 5523TIP3    H116575   3.220   0.239   2.896
 5523TIP3    H216576   3.092   0.221   2.976
 5524TIP3   OH216577   4.147   3.171   4.328
 5524TIP3    H116578   4.085   3.243   4.339
 5524TIP3    H216579   4.095   3.101   4.289
 5525TIP3   OH216580   6.320   4.406   2.481
 5525TIP3    H116581   6.379   4.370   2.548
 5525TIP3    H216582   6.264   4.333   2.456
 5526TIP3   OH216583   4.301   5.468   3.504
 5526TIP3    H116584   4.255   5.487   3.422
 5526TIP3    H216585   4.358   5.544   3.517
 5527TIP3   OH216586   2.401   1.256   3.561
 5527TIP3    H116587   2.440   1.231   3.477
 5527TIP3    H216588   2.355   1.338   3.543
 5528TIP3   OH216589   3.107   1.019   3.731
 5528TIP3    H116590   3.066   0.935   3.748
 5528TIP3    H216591   3.050   1.083   3.773
 5529TIP3   OH216592   5.457   5.706   0.164
 5529TIP3    H116593   5.369   5.709   0.125
 5529TIP3    H216594   5.473   5.612   0.179
 5530TIP3   OH216595   1.521   4.641   3.055
 5530TIP3    H116596   1.509   4.714   3.116
 5530TIP3    H216597   1.616   4.631   3.048
 5531TIP3   OH216598   2.154   0.778   2.970
 5531TIP3    H116599   2.086   0.711   2.967
 5531TIP3    H216600   2.153   0.817   2.882
 5532TIP3   OH216601   2.516   5.773   4.975
 5532TIP3    H116602   2.511   5.842   4.909
 5532TIP3    H216603   2.466   5.807   5.049
 5533TIP3   OH216604   5.538   2.441   2.572
 5533TIP3    H116605   5.570   2.525   2.540
 5533TIP3    H216606   5.503   2.461   2.659
 5534TIP3   OH216607   2.057   3.847   2.668
 5534TIP3    H116608   2.117   3.912   2.703
 5534TIP3    H216609   1.970   3.877   2.697
 5535TIP3   OH216610   1.490   3.237   1.432
 5535TIP3    H116611   1.403   3.276   1.442
 5535TIP3    H216612   1.516   3.259   1.343
 5536TIP3   OH216613   4.384   3.044   1.493
 5536TIP3    H116614   4.369   3.138   1.482
 5536TIP3    H216615   4.478   3.033   1.484
 5537TIP3   OH216616   4.205   4.219   0.134
 5537TIP3    H116617   4.207   4.124   0.132
 5537TIP3    H216618   4.257   4.242   0.211
 5538TIP3   OH216619   0.805   1.139   3.063
 5538TIP3    H116620   0.816   1.168   3.154
 5538TIP3    H216621   0.801   1.220   3.012
 5539TIP3   OH216622   5.630   5.042   4.516
 5539TIP3    H116623   5.561   4.987   4.553
 5539TIP3    H216624   5.697   4.980   4.487
 5540TIP3   OH216625   6.094   3.311   3.398
 5540TIP3    H116626   6.119   3.244   3.463
 5540TIP3    H216627   6.174   3.328   3.349
 5541TIP3   OH216628   5.693   5.631   2.240
 5541TIP3    H116629   5.649   5.550   2.263
 5541TIP3    H216630   5.623   5.686   2.202
 5542TIP3   OH216631   6.269   1.770   0.127
 5542TIP3    H116632   6.286   1.815   0.044
 5542TIP3    H216633   6.173   1.766   0.133
 5543TIP3   OH216634   4.843   3.347   1.413
 5543TIP3    H116635   4.924   3.335   1.363
 5543TIP3    H216636   4.850   3.283   1.484
 5544TIP3   OH216637   0.943   3.644   4.518
 5544TIP3    H116638   0.969   3.561   4.477
 5544TIP3    H216639   1.025   3.685   4.544
 5545TIP3   OH216640   2.958   2.020   4.699
 5545TIP3    H116641   2.907   1.953   4.743
 5545TIP3    H216642   3.034   1.973   4.664
 5546TIP3   OH216643   2.003   1.346   2.568
 5546TIP3    H116644   1.911   1.327   2.546
 5546TIP3    H216645   2.000   1.431   2.612
 5547TIP3   OH216646   6.226   5.211   0.204
 5547TIP3    H116647   6.130   5.217   0.202
 5547TIP3    H216648   6.249   5.155   0.130
 5548TIP3   OH216649   5.422   3.637   1.585
 5548TIP3    H116650   5.369   3.716   1.577
 5548TIP3    H216651   5.418   3.616   1.679
 5549TIP3   OH216652   4.286   1.038   1.502
 5549TIP3    H116653   4.333   0.968   1.456
 5549TIP3    H216654   4.297   1.017   1.595
 5550TIP3   OH216655   2.186   2.630   1.257
 5550TIP3    H116656   2.249   2.569   1.295
 5550TIP3    H216657   2.229   2.664   1.179
 5551TIP3   OH216658   2.172   2.591   3.158
 5551TIP3    H116659   2.206   2.564   3.243
 5551TIP3    H216660   2.176   2.512   3.104
 5552TIP3   OH216661   4.866   2.387   4.610
 5552TIP3    H116662   4.857   2.471   4.564
 5552TIP3    H216663   4.903   2.411   4.695
 5553TIP3   OH216664   1.776   1.632   4.847
 5553TIP3    H116665   1.800   1.682   4.925
 5553TIP3    H216666   1.734   1.696   4.790
 5554TIP3   OH216667   1.295   0.855   4.053
 5554TIP3    H116668   1.244   0.811   3.986
 5554TIP3    H216669   1.360   0.906   4.004
 5555TIP3   OH216670   5.241   0.482   0.836
 5555TIP3    H116671   5.174   0.416   0.855
 5555TIP3    H216672   5.251   0.480   0.741
 5556TIP3   OH216673   0.612   2.834   4.149
 5556TIP3    H116674   0.643   2.919   4.179
 5556TIP3    H216675   0.690   2.778   4.152
 5557TIP3   OH216676   3.205   2.031   2.284
 5557TIP3    H116677   3.222   1.937   2.282
 5557TIP3    H216678   3.208   2.058   2.193
 5558TIP3   OH216679   6.310   0.063   3.007
 5558TIP3    H116680   6.328   0.156   2.992
 5558TIP3    H216681   6.396   0.022   3.002
 5559TIP3   OH216682   1.971   0.648   4.365
 5559TIP3    H116683   1.890   0.657   4.414
 5559TIP3    H216684   1.985   0.553   4.359
 5560TIP3   OH216685   0.095   3.778   0.577
 5560TIP3    H116686   0.005   3.767   0.546
 5560TIP3    H216687   0.092   3.854   0.635
 5561TIP3   OH216688   2.703   1.541   0.843
 5561TIP3    H116689   2.669   1.601   0.909
 5561TIP3    H216690   2.779   1.500   0.885
 5562TIP3   OH216691   2.737   3.747   3.525
 5562TIP3    H116692   2.716   3.839   3.514
 5562TIP3    H216693   2.832   3.742   3.519
 5563TIP3   OH216694   0.138   0.658   0.430
 5563TIP3    H116695   0.116   0.568   0.406
 5563TIP3    H216696   0.061   0.691   0.476
 5564TIP3   OH216697   3.184   2.004   2.558
 5564TIP3    H116698   3.177   2.017   2.464
 5564TIP3    H216699   3.094   2.004   2.590
 5565TIP3   OH216700   3.444   3.649   4.243
 5565TIP3    H116701   3.438   3.650   4.147
 5565TIP3    H216702   3.430   3.741   4.268
 5566TIP3   OH216703   2.997   5.329   3.629
 5566TIP3    H116704   2.920   5.284   3.662
 5566TIP3    H216705   3.043   5.263   3.577
 5567TIP3   OH216706   0.803   5.512   3.048
 5567TIP3    H116707   0.893   5.541   3.033
 5567TIP3    H216708   0.771   5.488   2.962
 5568TIP3   OH216709   1.541   1.160   3.480
 5568TIP3    H116710   1.558   1.243   3.436
 5568TIP3    H216711   1.479   1.114   3.423
 5569TIP3   OH216712   0.588   5.235   4.180
 5569TIP3    H116713   0.494   5.236   4.162
 5569TIP3    H216714   0.594   5.233   4.276
 5570TIP3   OH216715   4.907   0.531   2.470
 5570TIP3    H116716   4.982   0.590   2.471
 5570TIP3    H216717   4.846   0.571   2.407
 5571TIP3   OH216718   0.924   2.578   3.333
 5571TIP3    H116719   0.929   2.487   3.303
 5571TIP3    H216720   0.967   2.577   3.418
 5572TIP3   OH216721   0.881   5.475   0.414
 5572TIP3    H116722   0.940   5.411   0.374
 5572TIP3    H216723   0.908   5.479   0.506
 5573TIP3   OH216724   5.298   1.406   0.684
 5573TIP3    H116725   5.332   1.339   0.625
 5573TIP3    H216726   5.305   1.367   0.771
 5574TIP3   OH216727   1.796   5.227   2.168
 5574TIP3    H116728   1.702   5.208   2.170
 5574TIP3    H216729   1.807   5.307   2.220
 5575TIP3   OH216730   0.919   1.222   4.687
 5575TIP3    H116731   0.948   1.181   4.768
 5575TIP3    H216732   0.900   1.149   4.628
 5576TIP3   OH216733   2.564   4.418   0.080
 5576TIP3    H116734   2.566   4.450  -0.010
 5576TIP3    H216735   2.527   4.330   0.073
 5577TIP3   OH216736   3.593   0.068   0.212
 5577TIP3    H116737   3.650   0.140   0.185
 5577TIP3    H216738   3.610  -0.001   0.147
 5578TIP3   OH216739   1.679   2.810   2.124
 5578TIP3    H116740   1.659   2.722   2.094
 5578TIP3    H216741   1.684   2.803   2.219
 5579TIP3   OH216742   5.990   2.076   3.460
 5579TIP3    H116743   5.966   2.138   3.529
 5579TIP3    H216744   5.919   2.012   3.459
 5580TIP3   OH216745   1.838   1.241   2.029
 5580TIP3    H116746   1.908   1.193   1.984
 5580TIP3    H216747   1.765   1.179   2.030
 5581TIP3   OH216748   0.495   2.160   2.271
 5581TIP3    H116749   0.552   2.105   2.218
 5581TIP3    H216750   0.496   2.245   2.227
 5582TIP3   OH216751   2.686   2.948   1.820
 5582TIP3    H116752   2.675   2.870   1.767
 5582TIP3    H216753   2.604   2.954   1.870
 5583TIP3   OH216754   4.867   0.456   5.104
 5583TIP3    H116755   4.947   0.461   5.155
 5583TIP3    H216756   4.798   0.488   5.163
 5584TIP3   OH216757   1.436   5.938   0.904
 5584TIP3    H116758   1.467   5.923   0.993
 5584TIP3    H216759   1.497   5.889   0.848
 5585TIP3   OH216760   3.383   4.269   3.955
 5585TIP3    H116761   3.395   4.266   3.861
 5585TIP3    H216762   3.371   4.178   3.981
 5586TIP3   OH216763   4.158   4.510   4.376
 5586TIP3    H116764   4.076   4.476   4.341
 5586TIP3    H216765   4.132   4.562   4.452
 5587TIP3   OH216766   2.104   3.564   1.997
 5587TIP3    H116767   2.046   3.617   1.943
 5587TIP3    H216768   2.135   3.495   1.938
 5588TIP3   OH216769   5.086   1.378   3.832
 5588TIP3    H116770   5.012   1.420   3.788
 5588TIP3    H216771   5.130   1.450   3.879
 5589TIP3   OH216772   2.809   3.645   3.046
 5589TIP3    H116773   2.847   3.598   2.971
 5589TIP3    H216774   2.715   3.635   3.034
 5590TIP3   OH216775   2.773   2.294   1.934
 5590TIP3    H116776   2.713   2.231   1.894
 5590TIP3    H216777   2.717   2.368   1.958
 5591TIP3   OH216778   0.130   3.289   4.382
 5591TIP3    H116779   0.180   3.236   4.320
 5591TIP3    H216780   0.053   3.236   4.402
 5592TIP3   OH216781   4.343   0.356   2.674
 5592TIP3    H116782   4.371   0.420   2.739
 5592TIP3    H216783   4.387   0.275   2.698
 5593TIP3   OH216784   5.042   1.278   4.632
 5593TIP3    H116785   5.082   1.319   4.555
 5593TIP3    H216786   4.979   1.217   4.596
 5594TIP3   OH216787   0.509   2.181   0.669
 5594TIP3    H116788   0.505   2.121   0.594
 5594TIP3    H216789   0.489   2.267   0.633
 5595TIP3   OH216790   0.534   4.471   0.066
 5595TIP3    H116791   0.514   4.489  -0.025
 5595TIP3    H216792   0.622   4.506   0.079
 5596TIP3   OH216793   3.973   3.063   2.685
 5596TIP3    H116794   3.962   3.121   2.610
 5596TIP3    H216795   3.940   2.978   2.655
 5597TIP3   OH216796   4.660   4.942   4.490
 5597TIP3    H116797   4.590   5.002   4.466
 5597TIP3    H216798   4.739   4.996   4.491
 5598TIP3   OH216799   3.348   2.224   3.620
 5598TIP3    H116800   3.370   2.314   3.645
 5598TIP3    H216801   3.253   2.225   3.609
 5599TIP3   OH216802   3.709   2.031   2.065
 5599TIP3    H116803   3.758   2.109   2.091
 5599TIP3    H216804   3.626   2.065   2.031
 5600TIP3   OH216805   1.381   4.094   2.360
 5600TIP3    H116806   1.429   4.151   2.420
 5600TIP3    H216807   1.415   4.006   2.377
 5601TIP3   OH216808   5.118   2.452   0.353
 5601TIP3    H116809   5.165   2.494   0.280
 5601TIP3    H216810   5.066   2.522   0.391
 5602TIP3   OH216811   4.951   4.895   0.378
 5602TIP3    H116812   5.046   4.900   0.386
 5602TIP3    H216813   4.921   4.986   0.388
 5603TIP3   OH216814   5.699   0.221   3.625
 5603TIP3    H116815   5.661   0.309   3.630
 5603TIP3    H216816   5.776   0.231   3.569
 5604TIP3   OH216817   4.129   1.417   2.274
 5604TIP3    H116818   4.213   1.443   2.314
 5604TIP3    H216819   4.075   1.390   2.348
 5605TIP3   OH216820   4.677   5.235   2.545
 5605TIP3    H116821   4.605   5.220   2.608
 5605TIP3    H216822   4.737   5.163   2.562
 5606TIP3   OH216823   1.535   2.115   1.110
 5606TIP3    H116824   1.564   2.176   1.177
 5606TIP3    H216825   1.445   2.092   1.135
 5607TIP3   OH216826   4.379   2.534   4.821
 5607TIP3    H116827   4.462   2.521   4.868
 5607TIP3    H216828   4.314   2.488   4.875
 5608TIP3   OH216829   3.312   1.293   2.869
 5608TIP3    H116830   3.304   1.384   2.841
 5608TIP3    H216831   3.227   1.271   2.906
 5609TIP3   OH216832   3.063   1.356   3.821
 5609TIP3    H116833   2.971   1.376   3.806
 5609TIP3    H216834   3.096   1.430   3.872
 5610TIP3   OH216835   5.561   0.127   1.652
 5610TIP3    H116836   5.502   0.190   1.611
 5610TIP3    H216837   5.583   0.167   1.736
 5611TIP3   OH216838   4.455   2.700   4.621
 5611TIP3    H116839   4.418   2.643   4.688
 5611TIP3    H216840   4.456   2.646   4.542
 5612TIP3   OH216841   5.841   2.961   4.710
 5612TIP3    H116842   5.867   3.006   4.790
 5612TIP3    H216843   5.914   2.901   4.692
 5613TIP3   OH216844   0.659   4.844   4.869
 5613TIP3    H116845   0.608   4.875   4.794
 5613TIP3    H216846   0.639   4.750   4.873
 5614TIP3   OH216847   1.481   2.291   4.661
 5614TIP3    H116848   1.431   2.298   4.742
 5614TIP3    H216849   1.570   2.267   4.689
 5615TIP3   OH216850   0.799   3.354   4.235
 5615TIP3    H116851   0.890   3.332   4.255
 5615TIP3    H216852   0.799   3.376   4.142
 5616TIP3   OH216853   4.802   0.970   2.017
 5616TIP3    H116854   4.731   0.906   2.006
 5616TIP3    H216855   4.782   1.013   2.100
 5617TIP3   OH216856   5.651   1.335   1.986
 5617TIP3    H116857   5.658   1.414   1.932
 5617TIP3    H216858   5.557   1.316   1.988
 5618TIP3   OH216859   6.145   3.006   0.461
 5618TIP3    H116860   6.191   2.928   0.491
 5618TIP3    H216861   6.066   2.972   0.419
 5619TIP3   OH216862   5.149   2.918   0.470
 5619TIP3    H116863   5.138   2.878   0.556
 5619TIP3    H216864   5.225   2.873   0.433
 5620TIP3   OH216865   1.823   3.027   4.872
 5620TIP3    H116866   1.821   2.935   4.897
 5620TIP3    H216867   1.897   3.034   4.812
 5621TIP3   OH216868   1.202   5.342   0.017
 5621TIP3    H116869   1.263   5.328   0.089
 5621TIP3    H216870   1.125   5.289   0.040
 5622TIP3   OH216871   0.784   4.847   0.287
 5622TIP3    H116872   0.706   4.793   0.299
 5622TIP3    H216873   0.765   4.900   0.210
 5623TIP3   OH216874   3.598   1.947   2.737
 5623TIP3    H116875   3.560   1.979   2.656
 5623TIP3    H216876   3.634   2.026   2.779
 5624TIP3   OH216877   1.293   4.567   4.706
 5624TIP3    H116878   1.285   4.502   4.637
 5624TIP3    H216879   1.204   4.602   4.716
 5625TIP3   OH216880   0.729   4.927   3.703
 5625TIP3    H116881   0.663   4.882   3.649
 5625TIP3    H216882   0.755   5.003   3.651
 5626TIP3   OH216883   0.692   3.574   0.614
 5626TIP3    H116884   0.712   3.596   0.523
 5626TIP3    H216885   0.762   3.616   0.664
 5627TIP3   OH216886   2.402   1.620   1.559
 5627TIP3    H116887   2.441   1.603   1.474
 5627TIP3    H216888   2.402   1.716   1.567
 5628TIP3   OH216889   1.232   2.856   2.028
 5628TIP3    H116890   1.323   2.856   1.998
 5628TIP3    H216891   1.207   2.949   2.029
 5629TIP3   OH216892   1.932   0.074   4.703
 5629TIP3    H116893   1.978   0.000   4.664
 5629TIP3    H216894   1.868   0.035   4.762
 5630TIP3   OH216895   1.910   3.330   0.231
 5630TIP3    H116896   1.874   3.286   0.308
 5630TIP3    H216897   1.933   3.259   0.171
 5631TIP3   OH216898   4.336   1.387   3.671
 5631TIP3    H116899   4.423   1.393   3.630
 5631TIP3    H216900   4.283   1.450   3.623
 5632TIP3   OH216901   5.021   3.292   0.758
 5632TIP3    H116902   4.937   3.246   0.751
 5632TIP3    H216903   4.999   3.375   0.801
 5633TIP3   OH216904   1.717   2.019   4.312
 5633TIP3    H116905   1.731   2.112   4.295
 5633TIP3    H216906   1.763   1.974   4.241
 5634TIP3   OH216907   5.784   2.379   5.068
 5634TIP3    H116908   5.791   2.284   5.053
 5634TIP3    H216909   5.698   2.402   5.034
 5635TIP3   OH216910   0.028   2.305   3.097
 5635TIP3    H116911   0.062   2.216   3.108
 5635TIP3    H216912   0.099   2.362   3.125
 5636TIP3   OH216913   4.175   3.517   2.147
 5636TIP3    H116914   4.107   3.552   2.088
 5636TIP3    H216915   4.127   3.460   2.207
 5637TIP3   OH216916   1.067   1.408   4.095
 5637TIP3    H116917   1.090   1.500   4.082
 5637TIP3    H216918   1.009   1.387   4.022
 5638TIP3   OH216919   1.492   3.021   0.534
 5638TIP3    H116920   1.449   2.945   0.492
 5638TIP3    H216921   1.546   3.058   0.464
 5639TIP3   OH216922   1.067   3.424   1.289
 5639TIP3    H116923   1.017   3.417   1.208
 5639TIP3    H216924   1.062   3.517   1.312
 5640TIP3   OH216925   5.480   2.963   2.779
 5640TIP3    H116926   5.511   2.943   2.690
 5640TIP3    H216927   5.389   2.934   2.779
 5641TIP3   OH216928   1.115   2.962   0.467
 5641TIP3    H116929   1.117   3.042   0.416
 5641TIP3    H216930   1.184   2.907   0.428
 5642TIP3   OH216931   1.489   1.596   0.317
 5642TIP3    H116932   1.550   1.599   0.244
 5642TIP3    H216933   1.500   1.508   0.355
 5643TIP3   OH216934   2.066   0.720   1.446
 5643TIP3    H116935   2.005   0.777   1.399
 5643TIP3    H216936   2.148   0.728   1.398
 5644TIP3   OH216937   5.807   5.130   3.968
 5644TIP3    H116938   5.877   5.156   3.908
 5644TIP3    H216939   5.819   5.187   4.044
 5645TIP3   OH216940   3.208   3.449   4.634
 5645TIP3    H116941   3.233   3.482   4.548
 5645TIP3    H216942   3.227   3.521   4.694
 5646TIP3   OH216943   6.235   0.646   2.270
 5646TIP3    H116944   6.235   0.627   2.176
 5646TIP3    H216945   6.295   0.583   2.308
 5647TIP3   OH216946   3.462   2.550   4.880
 5647TIP3    H116947   3.504   2.629   4.847
 5647TIP3    H216948   3.412   2.579   4.956
 5648TIP3   OH216949   6.081   2.264   1.799
 5648TIP3    H116950   6.134   2.337   1.831
 5648TIP3    H216951   5.991   2.291   1.815
 5649TIP3   OH216952   1.243   2.545   2.344
 5649TIP3    H116953   1.334   2.536   2.372
 5649TIP3    H216954   1.192   2.522   2.422
 5650TIP3   OH216955   0.847   1.471   3.568
 5650TIP3    H116956   0.896   1.447   3.490
 5650TIP3    H216957   0.806   1.389   3.597
 5651TIP3   OH216958   6.149   0.565   5.097
 5651TIP3    H116959   6.136   0.505   5.023
 5651TIP3    H216960   6.073   0.551   5.153
 5652TIP3   OH216961   2.120   3.317   2.125
 5652TIP3    H116962   2.113   3.231   2.084
 5652TIP3    H216963   2.115   3.379   2.053
 5653TIP3   OH216964   5.298   0.356   2.242
 5653TIP3    H116965   5.251   0.429   2.202
 5653TIP3    H216966   5.361   0.329   2.176
 5654TIP3   OH216967   1.282   3.087   2.294
 5654TIP3    H116968   1.204   3.127   2.255
 5654TIP3    H216969   1.340   3.161   2.314
 5655TIP3   OH216970   4.841   1.462   2.693
 5655TIP3    H116971   4.908   1.469   2.625
 5655TIP3    H216972   4.762   1.433   2.646
 5656TIP3   OH216973   2.316   3.265   3.983
 5656TIP3    H116974   2.338   3.194   3.922
 5656TIP3    H216975   2.257   3.321   3.933
 5657TIP3   OH216976   1.341   5.643   0.398
 5657TIP3    H116977   1.394   5.607   0.469
 5657TIP3    H216978   1.338   5.737   0.415
 5658TIP3   OH216979   1.644   3.532   4.277
 5658TIP3    H116980   1.556   3.513   4.308
 5658TIP3    H216981   1.682   3.589   4.344
 5659TIP3   OH216982   5.049   2.670   5.037
 5659TIP3    H116983   5.033   2.759   5.066
 5659TIP3    H216984   5.064   2.621   5.118
 5660TIP3   OH216985   3.902   1.121   1.743
 5660TIP3    H116986   3.962   1.191   1.769
 5660TIP3    H216987   3.950   1.070   1.679
 5661TIP3   OH216988   1.411   1.137   1.189
 5661TIP3    H116989   1.463   1.069   1.233
 5661TIP3    H216990   1.336   1.151   1.246
 5662TIP3   OH216991   3.084   0.345   0.163
 5662TIP3    H116992   3.004   0.294   0.156
 5662TIP3    H216993   3.086   0.397   0.082
 5663TIP3   OH216994   0.648   4.279   4.317
 5663TIP3    H116995   0.719   4.274   4.253
 5663TIP3    H216996   0.573   4.237   4.274
 5664TIP3   OH216997   3.705   3.376   1.772
 5664TIP3    H116998   3.662   3.292   1.753
 5664TIP3    H216999   3.780   3.352   1.827
 5665TIP3   OH217000   6.081   0.530   0.298
 5665TIP3    H117001   6.015   0.462   0.310
 5665TIP3    H217002   6.030   0.609   0.278
 5666TIP3   OH217003   1.455   1.450   4.157
 5666TIP3    H117004   1.530   1.475   4.212
 5666TIP3    H217005   1.379   1.483   4.204
 5667TIP3   OH217006   4.012   3.325   1.203
 5667TIP3    H117007   4.007   3.306   1.296
 5667TIP3    H217008   4.033   3.419   1.199
 5668TIP3   OH217009   5.685   2.945   1.253
 5668TIP3    H117010   5.765   2.908   1.216
 5668TIP3    H217011   5.620   2.876   1.242
 5669TIP3   OH217012   4.271   1.206   3.106
 5669TIP3    H117013   4.327   1.205   3.028
 5669TIP3    H217014   4.215   1.129   3.096
 5670TIP3   OH217015   3.778   5.924   1.104
 5670TIP3    H117016   3.746   5.849   1.154
 5670TIP3    H217017   3.818   5.981   1.169
 5671TIP3   OH217018   2.710   4.402   2.714
 5671TIP3    H117019   2.734   4.320   2.670
 5671TIP3    H217020   2.739   4.471   2.655
 5672TIP3   OH217021   4.192   5.425   1.969
 5672TIP3    H117022   4.272   5.420   1.917
 5672TIP3    H217023   4.149   5.341   1.955
 5673TIP3   OH217024   0.358   3.630   2.636
 5673TIP3    H117025   0.387   3.558   2.691
 5673TIP3    H217026   0.411   3.705   2.663
 5674TIP3   OH217027   1.195   3.627   3.006
 5674TIP3    H117028   1.222   3.633   2.914
 5674TIP3    H217029   1.116   3.681   3.011
 5675TIP3   OH217030   1.044   4.971   3.686
 5675TIP3    H117031   0.979   5.033   3.718
 5675TIP3    H217032   1.110   4.968   3.754
 5676TIP3   OH217033   4.431   0.704   1.818
 5676TIP3    H117034   4.499   0.637   1.830
 5676TIP3    H217035   4.359   0.674   1.873
 5677TIP3   OH217036   5.264   0.224   4.464
 5677TIP3    H117037   5.213   0.212   4.383
 5677TIP3    H217038   5.346   0.177   4.448
 5678TIP3   OH217039   3.364   0.053   4.177
 5678TIP3    H117040   3.429   0.123   4.175
 5678TIP3    H217041   3.299   0.082   4.242
 5679TIP3   OH217042   3.400   3.361   4.083
 5679TIP3    H117043   3.444   3.309   4.151
 5679TIP3    H217044   3.313   3.323   4.076
 5680TIP3   OH217045   5.762   3.492   0.387
 5680TIP3    H117046   5.785   3.584   0.376
 5680TIP3    H217047   5.713   3.488   0.469
 5681TIP3   OH217048   2.916   4.992   3.719
 5681TIP3    H117049   2.942   4.932   3.650
 5681TIP3    H217050   2.966   4.964   3.796
 5682TIP3   OH217051   1.333   3.292   2.807
 5682TIP3    H117052   1.301   3.373   2.769
 5682TIP3    H217053   1.313   3.225   2.742
 5683TIP3   OH217054   1.713   5.479   3.790
 5683TIP3    H117055   1.760   5.562   3.800
 5683TIP3    H217056   1.665   5.489   3.708
 5684TIP3   OH217057   0.345   1.085   4.426
 5684TIP3    H117058   0.367   1.177   4.413
 5684TIP3    H217059   0.411   1.038   4.374
 5685TIP3   OH217060   4.968   2.572   4.252
 5685TIP3    H117061   4.926   2.564   4.166
 5685TIP3    H217062   5.053   2.613   4.233
 5686TIP3   OH217063   5.862   5.725   3.393
 5686TIP3    H117064   5.803   5.795   3.365
 5686TIP3    H217065   5.866   5.733   3.488
 5687TIP3   OH217066   5.421   1.896   3.421
 5687TIP3    H117067   5.454   1.889   3.511
 5687TIP3    H217068   5.495   1.931   3.372
 5688TIP3   OH217069   0.675   5.292   1.726
 5688TIP3    H117070   0.598   5.348   1.732
 5688TIP3    H217071   0.745   5.350   1.696
 5689TIP3   OH217072   0.759   5.532   4.176
 5689TIP3    H117073   0.832   5.482   4.138
 5689TIP3    H217074   0.688   5.521   4.113
 5690TIP3   OH217075   1.297   1.271   0.407
 5690TIP3    H117076   1.248   1.277   0.489
 5690TIP3    H217077   1.374   1.326   0.421
 5691TIP3   OH217078   4.795   0.610   3.039
 5691TIP3    H117079   4.706   0.583   3.018
 5691TIP3    H217080   4.834   0.533   3.081
 5692TIP3   OH217081   4.015   4.893   4.418
 5692TIP3    H117082   4.082   4.825   4.408
 5692TIP3    H217083   3.933   4.848   4.401
 5693TIP3   OH217084   0.334   3.299   0.303
 5693TIP3    H117085   0.393   3.261   0.367
 5693TIP3    H217086   0.360   3.259   0.220
 5694TIP3   OH217087   1.448   1.106   1.585
 5694TIP3    H117088   1.543   1.108   1.570
 5694TIP3    H217089   1.428   1.014   1.602
 5695TIP3   OH217090   5.336   0.619   1.659
 5695TIP3    H117091   5.354   0.711   1.679
 5695TIP3    H217092   5.306   0.619   1.568
 5696TIP3   OH217093   3.926   0.762   3.538
 5696TIP3    H117094   3.951   0.676   3.571
 5696TIP3    H217095   3.898   0.745   3.448
 5697TIP3   OH217096   5.936   0.913   4.939
 5697TIP3    H117097   5.889   0.861   4.873
 5697TIP3    H217098   5.867   0.958   4.987
 5698TIP3   OH217099   5.746   0.662   3.588
 5698TIP3    H117100   5.826   0.711   3.570
 5698TIP3    H217101   5.737   0.602   3.514
 5699TIP3   OH217102   4.606   2.624   3.328
 5699TIP3    H117103   4.702   2.619   3.333
 5699TIP3    H217104   4.586   2.715   3.347
 5700TIP3   OH217105   2.094   4.515   4.223
 5700TIP3    H117106   2.040   4.594   4.216
 5700TIP3    H217107   2.107   4.486   4.133
 5701TIP3   OH217108   2.550   2.319   2.154
 5701TIP3    H117109   2.584   2.354   2.237
 5701TIP3    H217110   2.584   2.229   2.151
 5702TIP3   OH217111   0.723   3.855   1.280
 5702TIP3    H117112   0.741   3.949   1.273
 5702TIP3    H217113   0.691   3.844   1.370
 5703TIP3   OH217114   4.739   1.568   3.384
 5703TIP3    H117115   4.736   1.603   3.295
 5703TIP3    H217116   4.827   1.531   3.392
 5704TIP3   OH217117   5.816   3.029   1.471
 5704TIP3    H117118   5.904   3.048   1.440
 5704TIP3    H217119   5.767   3.008   1.391
 5705TIP3   OH217120   6.322   1.039   0.341
 5705TIP3    H117121   6.386   0.973   0.369
 5705TIP3    H217122   6.333   1.043   0.246
 5706TIP3   OH217123   0.518   2.973   1.576
 5706TIP3    H117124   0.526   2.956   1.483
 5706TIP3    H217125   0.438   2.929   1.603
 5707TIP3   OH217126   0.413   1.985   0.489
 5707TIP3    H117127   0.320   1.965   0.478
 5707TIP3    H217128   0.458   1.921   0.435
 5708TIP3   OH217129   0.721   4.941   0.036
 5708TIP3    H117130   0.690   5.030   0.052
 5708TIP3    H217131   0.650   4.900  -0.013
 5709TIP3   OH217132   2.670   5.748   4.579
 5709TIP3    H117133   2.647   5.798   4.657
 5709TIP3    H217134   2.588   5.739   4.530
 5710TIP3   OH217135   4.236   0.718   3.781
 5710TIP3    H117136   4.177   0.786   3.813
 5710TIP3    H217137   4.284   0.759   3.709
 5711TIP3   OH217138   2.786   1.417   3.765
 5711TIP3    H117139   2.757   1.393   3.853
 5711TIP3    H217140   2.714   1.467   3.728
 5712TIP3   OH217141   2.644   3.657   4.971
 5712TIP3    H117142   2.551   3.677   4.981
 5712TIP3    H217143   2.684   3.690   5.051
 5713TIP3   OH217144   3.814   5.526   3.992
 5713TIP3    H117145   3.867   5.456   4.030
 5713TIP3    H217146   3.863   5.606   4.013
 5714TIP3   OH217147   1.641   2.752   0.404
 5714TIP3    H117148   1.731   2.757   0.435
 5714TIP3    H217149   1.618   2.660   0.412
 5715TIP3   OH217150   6.034   3.054   2.385
 5715TIP3    H117151   5.960   3.023   2.437
 5715TIP3    H217152   6.092   2.978   2.380
 5716TIP3   OH217153   5.139   4.575   1.445
 5716TIP3    H117154   5.173   4.658   1.479
 5716TIP3    H217155   5.080   4.600   1.374
 5717TIP3   OH217156   5.318   4.516   1.224
 5717TIP3    H117157   5.388   4.537   1.286
 5717TIP3    H217158   5.238   4.520   1.276
 5718TIP3   OH217159   2.221   1.092   0.930
 5718TIP3    H117160   2.221   1.188   0.927
 5718TIP3    H217161   2.183   1.071   1.015
 5719TIP3   OH217162   2.957   2.485   2.973
 5719TIP3    H117163   3.034   2.541   2.975
 5719TIP3    H217164   2.891   2.532   3.023
 5720TIP3   OH217165   4.665   5.760   0.888
 5720TIP3    H117166   4.588   5.816   0.881
 5720TIP3    H217167   4.715   5.797   0.961
 5721TIP3   OH217168   0.501   5.028   3.173
 5721TIP3    H117169   0.507   5.019   3.078
 5721TIP3    H217170   0.591   5.042   3.202
 5722TIP3   OH217171   0.269   5.714   0.692
 5722TIP3    H117172   0.226   5.749   0.614
 5722TIP3    H217173   0.218   5.637   0.715
 5723TIP3   OH217174   4.161   0.168   3.450
 5723TIP3    H117175   4.133   0.226   3.380
 5723TIP3    H217176   4.178   0.227   3.524
 5724TIP3   OH217177   0.607   5.710   2.584
 5724TIP3    H117178   0.613   5.626   2.629
 5724TIP3    H217179   0.688   5.755   2.606
 5725TIP3   OH217180   1.571   5.000   1.425
 5725TIP3    H117181   1.552   5.021   1.517
 5725TIP3    H217182   1.665   5.011   1.417
 5726TIP3   OH217183   3.356   4.489   0.774
 5726TIP3    H117184   3.390   4.527   0.693
 5726TIP3    H217185   3.309   4.560   0.817
 5727TIP3   OH217186   3.499   3.643   2.760
 5727TIP3    H117187   3.505   3.668   2.668
 5727TIP3    H217188   3.420   3.686   2.791
 5728TIP3   OH217189   2.208   4.211   3.174
 5728TIP3    H117190   2.125   4.173   3.144
 5728TIP3    H217191   2.205   4.204   3.270
 5729TIP3   OH217192   3.211   5.002   1.626
 5729TIP3    H117193   3.237   4.909   1.624
 5729TIP3    H217194   3.140   5.006   1.689
 5730TIP3   OH217195   2.107   1.297   4.217
 5730TIP3    H117196   2.015   1.290   4.191
 5730TIP3    H217197   2.114   1.383   4.258
 5731TIP3   OH217198   5.961   2.030   1.056
 5731TIP3    H117199   6.031   1.965   1.049
 5731TIP3    H217200   5.971   2.067   1.144
 5732TIP3   OH217201   2.248   3.872   4.711
 5732TIP3    H117202   2.190   3.811   4.665
 5732TIP3    H217203   2.197   3.953   4.717
 5733TIP3   OH217204   1.534   1.473   3.422
 5733TIP3    H117205   1.586   1.513   3.352
 5733TIP3    H217206   1.545   1.533   3.496
 5734TIP3   OH217207   0.850   5.873   2.285
 5734TIP3    H117208   0.828   5.871   2.378
 5734TIP3    H217209   0.932   5.822   2.278
 5735TIP3   OH217210   4.478   1.818   5.079
 5735TIP3    H117211   4.573   1.808   5.087
 5735TIP3    H217212   4.463   1.819   4.984
 5736TIP3   OH217213   5.463   3.812   2.035
 5736TIP3    H117214   5.533   3.860   1.991
 5736TIP3    H217215   5.507   3.755   2.097
 5737TIP3   OH217216   5.956   3.441   3.929
 5737TIP3    H117217   5.937   3.365   3.876
 5737TIP3    H217218   6.031   3.415   3.984
 5738TIP3   OH217219   3.388   2.516   3.924
 5738TIP3    H117220   3.295   2.496   3.937
 5738TIP3    H217221   3.398   2.521   3.829
 5739TIP3   OH217222   0.913   5.435   3.494
 5739TIP3    H117223   0.860   5.473   3.564
 5739TIP3    H217224   0.982   5.499   3.479
 5740TIP3   OH217225   0.211   5.165   2.991
 5740TIP3    H117226   0.153   5.188   3.063
 5740TIP3    H217227   0.184   5.076   2.966
 5741TIP3   OH217228   3.595   4.306   2.720
 5741TIP3    H117229   3.657   4.362   2.765
 5741TIP3    H217230   3.649   4.235   2.684
 5742TIP3   OH217231   5.423   5.906   1.111
 5742TIP3    H117232   5.416   5.811   1.107
 5742TIP3    H217233   5.386   5.936   1.028
 5743TIP3   OH217234   4.815   2.206   4.433
 5743TIP3    H117235   4.829   2.265   4.507
 5743TIP3    H217236   4.881   2.233   4.369
 5744TIP3   OH217237   3.093   3.376   4.987
 5744TIP3    H117238   2.998   3.365   4.994
 5744TIP3    H217239   3.120   3.402   5.075
 5745TIP3   OH217240   5.159   4.702   2.092
 5745TIP3    H117241   5.084   4.664   2.137
 5745TIP3    H217242   5.227   4.709   2.159
 5746TIP3   OH217243   3.632   1.617   1.770
 5746TIP3    H117244   3.693   1.554   1.731
 5746TIP3    H217245   3.688   1.677   1.819
 5747TIP3   OH217246   2.818   3.137   4.963
 5747TIP3    H117247   2.840   3.231   4.959
 5747TIP3    H217248   2.782   3.117   4.876
 5748TIP3   OH217249   1.665   1.848   1.733
 5748TIP3    H117250   1.727   1.790   1.689
 5748TIP3    H217251   1.633   1.906   1.664
 5749TIP3   OH217252   0.075   2.605   3.966
 5749TIP3    H117253   0.170   2.605   3.973
 5749TIP3    H217254   0.046   2.547   4.037
 5750TIP3   OH217255   1.244   3.735   3.913
 5750TIP3    H117256   1.256   3.821   3.873
 5750TIP3    H217257   1.275   3.673   3.847
 5751TIP3   OH217258   0.475   0.710   4.465
 5751TIP3    H117259   0.535   0.722   4.392
 5751TIP3    H217260   0.392   0.746   4.435
 5752TIP3   OH217261   2.677   4.560   4.193
 5752TIP3    H117262   2.738   4.488   4.212
 5752TIP3    H217263   2.682   4.571   4.098
 5753TIP3   OH217264   4.791   1.400   1.489
 5753TIP3    H117265   4.741   1.417   1.409
 5753TIP3    H217266   4.759   1.315   1.520
 5754TIP3   OH217267   5.774   2.128   0.024
 5754TIP3    H117268   5.704   2.177   0.066
 5754TIP3    H217269   5.854   2.152   0.071
 5755TIP3   OH217270   0.620   2.620   3.885
 5755TIP3    H117271   0.657   2.708   3.888
 5755TIP3    H217272   0.538   2.630   3.837
 5756TIP3   OH217273   0.801   4.108   1.500
 5756TIP3    H117274   0.827   4.196   1.528
 5756TIP3    H217275   0.764   4.121   1.413
 5757TIP3   OH217276   0.211   1.772   2.167
 5757TIP3    H117277   0.285   1.754   2.226
 5757TIP3    H217278   0.143   1.711   2.195
 5758TIP3   OH217279   5.085   0.823   4.525
 5758TIP3    H117280   5.021   0.808   4.594
 5758TIP3    H217281   5.053   0.900   4.478
 5759TIP3   OH217282   0.643   4.437   0.916
 5759TIP3    H117283   0.597   4.438   0.832
 5759TIP3    H217284   0.717   4.378   0.902
 5760TIP3   OH217285   4.962   3.880   3.547
 5760TIP3    H117286   4.940   3.880   3.453
 5760TIP3    H217287   4.898   3.939   3.586
 5761TIP3   OH217288   4.063   1.006   3.172
 5761TIP3    H117289   4.074   0.963   3.256
 5761TIP3    H217290   3.997   1.073   3.187
 5762TIP3   OH217291   0.742   3.107   3.881
 5762TIP3    H117292   0.753   3.200   3.865
 5762TIP3    H217293   0.705   3.102   3.969
 5763TIP3   OH217294   0.853   5.906   1.749
 5763TIP3    H117295   0.939   5.867   1.733
 5763TIP3    H217296   0.872   5.986   1.798
 5764TIP3   OH217297   3.215   4.304   0.356
 5764TIP3    H117298   3.262   4.232   0.314
 5764TIP3    H217299   3.164   4.262   0.425
 5765TIP3   OH217300   1.144   4.851   0.442
 5765TIP3    H117301   1.235   4.856   0.469
 5765TIP3    H217302   1.110   4.773   0.485
 5766TIP3   OH217303   3.843   4.697   4.369
 5766TIP3    H117304   3.781   4.650   4.425
 5766TIP3    H217305   3.814   4.679   4.280
 5767TIP3   OH217306   2.307   4.682   2.761
 5767TIP3    H117307   2.335   4.653   2.674
 5767TIP3    H217308   2.216   4.653   2.767
 5768TIP3   OH217309   1.538   4.404   2.463
 5768TIP3    H117310   1.607   4.406   2.397
 5768TIP3    H217311   1.476   4.471   2.434
 5769TIP3   OH217312   4.338   1.545   4.978
 5769TIP3    H117313   4.286   1.601   5.036
 5769TIP3    H217314   4.377   1.480   5.037
 5770TIP3   OH217315   1.936   2.735   2.827
 5770TIP3    H117316   1.945   2.829   2.810
 5770TIP3    H217317   1.847   2.714   2.799
 5771TIP3   OH217318   6.180   3.767   0.520
 5771TIP3    H117319   6.138   3.681   0.532
 5771TIP3    H217320   6.123   3.812   0.457
 5772TIP3   OH217321   4.763   5.493   4.625
 5772TIP3    H117322   4.710   5.460   4.552
 5772TIP3    H217323   4.759   5.588   4.617
 5773TIP3   OH217324   0.173   0.538   3.726
 5773TIP3    H117325   0.085   0.509   3.700
 5773TIP3    H217326   0.178   0.628   3.696
 5774TIP3   OH217327   3.047   4.715   2.197
 5774TIP3    H117328   3.056   4.728   2.291
 5774TIP3    H217329   2.968   4.661   2.188
 5775TIP3   OH217330   6.047   1.706   0.679
 5775TIP3    H117331   5.987   1.754   0.736
 5775TIP3    H217332   6.078   1.771   0.616
 5776TIP3   OH217333   1.868   3.948   5.124
 5776TIP3    H117334   1.910   4.009   5.185
 5776TIP3    H217335   1.793   3.997   5.089
 5777TIP3   OH217336   0.354   3.214   4.912
 5777TIP3    H117337   0.443   3.249   4.922
 5777TIP3    H217338   0.328   3.239   4.824
 5778TIP3   OH217339   0.951   1.726   4.505
 5778TIP3    H117340   0.926   1.641   4.469
 5778TIP3    H217341   0.894   1.737   4.582
 5779TIP3   OH217342   5.249   1.077   3.534
 5779TIP3    H117343   5.307   1.094   3.608
 5779TIP3    H217344   5.241   1.162   3.490
 5780TIP3   OH217345   2.922   5.668   3.820
 5780TIP3    H117346   2.830   5.694   3.822
 5780TIP3    H217347   2.937   5.643   3.728
 5781TIP3   OH217348   3.281   3.341   3.702
 5781TIP3    H117349   3.232   3.388   3.769
 5781TIP3    H217350   3.261   3.249   3.718
 5782TIP3   OH217351   2.414   2.094   2.342
 5782TIP3    H117352   2.391   2.182   2.371
 5782TIP3    H217353   2.498   2.104   2.297
 5783TIP3   OH217354   3.215   0.385   1.763
 5783TIP3    H117355   3.295   0.386   1.710
 5783TIP3    H217356   3.224   0.306   1.817
 5784TIP3   OH217357   3.001   5.883   2.280
 5784TIP3    H117358   2.934   5.845   2.337
 5784TIP3    H217359   3.051   5.808   2.248
 5785TIP3   OH217360   6.080   5.645   1.903
 5785TIP3    H117361   6.027   5.678   1.976
 5785TIP3    H217362   6.044   5.688   1.826
 5786TIP3   OH217363   0.627   0.721   1.629
 5786TIP3    H117364   0.660   0.726   1.540
 5786TIP3    H217365   0.706   0.726   1.684
 5787TIP3   OH217366   1.858   1.962   2.964
 5787TIP3    H117367   1.948   1.972   2.931
 5787TIP3    H217368   1.865   1.898   3.035
 5788TIP3   OH217369   2.488   5.707   4.364
 5788TIP3    H117370   2.508   5.744   4.278
 5788TIP3    H217371   2.396   5.683   4.359
 5789TIP3   OH217372   4.406   0.664   2.709
 5789TIP3    H117373   4.417   0.747   2.664
 5789TIP3    H217374   4.465   0.604   2.663
 5790TIP3   OH217375   3.161   3.699   2.472
 5790TIP3    H117376   3.133   3.745   2.551
 5790TIP3    H217377   3.235   3.752   2.439
 5791TIP3   OH217378   4.490   0.654   3.904
 5791TIP3    H117379   4.468   0.571   3.947
 5791TIP3    H217380   4.417   0.669   3.843
 5792TIP3   OH217381   5.958   3.507   2.389
 5792TIP3    H117382   5.882   3.483   2.441
 5792TIP3    H217383   6.030   3.456   2.425
 5793TIP3   OH217384   3.008   4.373   0.911
 5793TIP3    H117385   3.030   4.462   0.883
 5793TIP3    H217386   2.930   4.351   0.860
 5794TIP3   OH217387   3.544   5.317   5.027
 5794TIP3    H117388   3.557   5.369   4.948
 5794TIP3    H217389   3.621   5.336   5.081
 5795TIP3   OH217390   3.534   2.170   0.869
 5795TIP3    H117391   3.611   2.188   0.923
 5795TIP3    H217392   3.538   2.237   0.801
 5796TIP3   OH217393   2.986   2.501   3.310
 5796TIP3    H117394   2.905   2.504   3.258
 5796TIP3    H217395   3.015   2.592   3.315
 5797TIP3   OH217396   4.445   1.140   2.892
 5797TIP3    H117397   4.408   1.170   2.809
 5797TIP3    H217398   4.531   1.183   2.897
 5798TIP3   OH217399   0.535   4.026   0.827
 5798TIP3    H117400   0.526   3.932   0.813
 5798TIP3    H217401   0.462   4.049   0.885
 5799TIP3   OH217402   1.293   1.658   1.545
 5799TIP3    H117403   1.197   1.662   1.545
 5799TIP3    H217404   1.321   1.743   1.581
 5800TIP3   OH217405   1.937   0.170   3.263
 5800TIP3    H117406   1.947   0.265   3.272
 5800TIP3    H217407   1.890   0.159   3.180
 5801TIP3   OH217408   3.853   2.880   3.974
 5801TIP3    H117409   3.921   2.883   4.042
 5801TIP3    H217410   3.803   2.800   3.994
 5802TIP3   OH217411   3.725   1.378   3.364
 5802TIP3    H117412   3.702   1.469   3.343
 5802TIP3    H217413   3.650   1.344   3.412
 5803TIP3   OH217414   1.299   0.766   0.305
 5803TIP3    H117415   1.326   0.821   0.379
 5803TIP3    H217416   1.229   0.712   0.340
 5804TIP3   OH217417   3.438   5.660   0.330
 5804TIP3    H117418   3.434   5.718   0.255
 5804TIP3    H217419   3.504   5.594   0.307
 5805TIP3   OH217420   4.657   4.756   3.210
 5805TIP3    H117421   4.587   4.691   3.199
 5805TIP3    H217422   4.652   4.811   3.132
 5806TIP3   OH217423   1.188   4.657   2.522
 5806TIP3    H117424   1.199   4.592   2.592
 5806TIP3    H217425   1.097   4.649   2.496
 5807TIP3   OH217426   4.121   1.565   0.903
 5807TIP3    H117427   4.049   1.504   0.917
 5807TIP3    H217428   4.165   1.533   0.824
 5808TIP3   OH217429   4.878   0.837   3.204
 5808TIP3    H117430   4.951   0.783   3.234
 5808TIP3    H217431   4.830   0.781   3.144
 5809TIP3   OH217432   3.709   4.879   4.665
 5809TIP3    H117433   3.630   4.879   4.720
 5809TIP3    H217434   3.741   4.789   4.670
 5810TIP3   OH217435   4.817   4.403   1.696
 5810TIP3    H117436   4.867   4.443   1.767
 5810TIP3    H217437   4.882   4.354   1.645
 5811TIP3   OH217438   1.957   1.610   2.594
 5811TIP3    H117439   2.040   1.647   2.625
 5811TIP3    H217440   1.894   1.632   2.664
 5812TIP3   OH217441   4.348   3.843   2.811
 5812TIP3    H117442   4.349   3.939   2.808
 5812TIP3    H217443   4.430   3.819   2.853
 5813TIP3   OH217444   2.037   0.865   4.711
 5813TIP3    H117445   1.943   0.877   4.722
 5813TIP3    H217446   2.073   0.953   4.702
 5814TIP3   OH217447   1.451   1.914   2.320
 5814TIP3    H117448   1.495   1.895   2.403
 5814TIP3    H217449   1.517   1.957   2.267
 5815TIP3   OH217450   4.356   0.046   0.732
 5815TIP3    H117451   4.346   0.061   0.826
 5815TIP3    H217452   4.275   0.078   0.693
 5816TIP3   OH217453   0.681   2.390   0.404
 5816TIP3    H117454   0.685   2.317   0.343
 5816TIP3    H217455   0.719   2.464   0.356
 5817TIP3   OH217456   4.748   4.282   4.222
 5817TIP3    H117457   4.749   4.237   4.137
 5817TIP3    H217458   4.778   4.370   4.203
 5818TIP3   OH217459   1.271   0.823   1.001
 5818TIP3    H117460   1.259   0.746   1.057
 5818TIP3    H217461   1.346   0.869   1.039
 5819TIP3   OH217462   5.246   2.475   3.899
 5819TIP3    H117463   5.166   2.437   3.935
 5819TIP3    H217464   5.287   2.403   3.851
 5820TIP3   OH217465   4.273   1.983   4.377
 5820TIP3    H117466   4.213   2.023   4.440
 5820TIP3    H217467   4.293   1.897   4.414
 5821TIP3   OH217468   5.763   3.926   3.261
 5821TIP3    H117469   5.835   3.901   3.318
 5821TIP3    H217470   5.800   3.993   3.204
 5822TIP3   OH217471   0.730   1.573   3.186
 5822TIP3    H117472   0.695   1.571   3.275
 5822TIP3    H217473   0.825   1.581   3.197
 5823TIP3   OH217474   6.065   2.797   3.011
 5823TIP3    H117475   5.998   2.833   2.953
 5823TIP3    H217476   6.025   2.720   3.050
 5824TIP3   OH217477   2.086   5.247   4.317
 5824TIP3    H117478   2.136   5.212   4.390
 5824TIP3    H217479   2.011   5.291   4.358
 5825TIP3   OH217480   5.036   1.528   3.360
 5825TIP3    H117481   5.104   1.473   3.398
 5825TIP3    H217482   5.052   1.523   3.266
 5826TIP3   OH217483   1.350   2.067   4.534
 5826TIP3    H117484   1.302   2.090   4.454
 5826TIP3    H217485   1.377   2.151   4.570
 5827TIP3   OH217486   2.279   5.564   4.736
 5827TIP3    H117487   2.351   5.528   4.788
 5827TIP3    H217488   2.309   5.555   4.645
 5828TIP3   OH217489   0.293   2.867   4.155
 5828TIP3    H117490   0.385   2.855   4.131
 5828TIP3    H217491   0.267   2.784   4.195
 5829TIP3   OH217492   2.074   3.914   1.556
 5829TIP3    H117493   2.110   3.941   1.471
 5829TIP3    H217494   1.985   3.887   1.536
 5830TIP3   OH217495   5.546   1.530   0.777
 5830TIP3    H117496   5.458   1.534   0.738
 5830TIP3    H217497   5.543   1.454   0.834
 5831TIP3   OH217498   5.546   2.100   2.635
 5831TIP3    H117499   5.567   2.120   2.544
 5831TIP3    H217500   5.598   2.023   2.656
 5832TIP3   OH217501   2.604   0.733   4.534
 5832TIP3    H117502   2.530   0.780   4.495
 5832TIP3    H217503   2.583   0.727   4.627
 5833TIP3   OH217504   2.426   5.161   0.555
 5833TIP3    H117505   2.477   5.086   0.524
 5833TIP3    H217506   2.336   5.141   0.532
 5834TIP3   OH217507   1.642   3.192   1.651
 5834TIP3    H117508   1.585   3.228   1.583
 5834TIP3    H217509   1.609   3.103   1.665
 5835TIP3   OH217510   3.007   5.036   3.151
 5835TIP3    H117511   3.076   4.984   3.109
 5835TIP3    H217512   3.010   5.120   3.105
 5836TIP3   OH217513   0.316   5.237   4.221
 5836TIP3    H117514   0.255   5.284   4.164
 5836TIP3    H217515   0.268   5.157   4.245
 5837TIP3   OH217516   3.097   2.101   2.959
 5837TIP3    H117517   3.095   2.009   2.931
 5837TIP3    H217518   3.017   2.113   3.010
 5838TIP3   OH217519   6.171   3.378   4.606
 5838TIP3    H117520   6.206   3.303   4.558
 5838TIP3    H217521   6.088   3.397   4.562
 5839TIP3   OH217522   2.042   3.287   0.925
 5839TIP3    H117523   2.088   3.233   0.990
 5839TIP3    H217524   2.095   3.279   0.846
 5840TIP3   OH217525   2.279   5.725   3.106
 5840TIP3    H117526   2.375   5.733   3.104
 5840TIP3    H217527   2.256   5.680   3.025
 5841TIP3   OH217528   1.101   3.104   0.931
 5841TIP3    H117529   1.027   3.164   0.924
 5841TIP3    H217530   1.143   3.107   0.845
 5842TIP3   OH217531   3.239   5.456   3.443
 5842TIP3    H117532   3.244   5.368   3.480
 5842TIP3    H217533   3.267   5.513   3.515
 5843TIP3   OH217534   3.474   2.824   0.122
 5843TIP3    H117535   3.387   2.830   0.083
 5843TIP3    H217536   3.471   2.884   0.196
 5844TIP3   OH217537   2.462   5.855   0.704
 5844TIP3    H117538   2.395   5.924   0.700
 5844TIP3    H217539   2.486   5.852   0.797
 5845TIP3   OH217540   4.523   2.106   1.638
 5845TIP3    H117541   4.453   2.065   1.689
 5845TIP3    H217542   4.602   2.088   1.688
 5846TIP3   OH217543   3.883   2.823   2.562
 5846TIP3    H117544   3.798   2.825   2.518
 5846TIP3    H217545   3.870   2.763   2.635
 5847TIP3   OH217546   4.301   4.617   2.081
 5847TIP3    H117547   4.208   4.607   2.063
 5847TIP3    H217548   4.344   4.604   1.996
 5848TIP3   OH217549   6.149   4.643   3.795
 5848TIP3    H117550   6.231   4.663   3.749
 5848TIP3    H217551   6.109   4.574   3.743
 5849TIP3   OH217552   1.356   3.066   3.429
 5849TIP3    H117553   1.447   3.045   3.452
 5849TIP3    H217554   1.350   3.161   3.441
 5850TIP3   OH217555   1.467   4.902   2.696
 5850TIP3    H117556   1.533   4.953   2.650
 5850TIP3    H217557   1.458   4.821   2.646
 5851TIP3   OH217558   4.017   5.828   0.584
 5851TIP3    H117559   4.054   5.746   0.553
 5851TIP3    H217560   4.087   5.869   0.635
 5852TIP3   OH217561   5.837   0.208   2.414
 5852TIP3    H117562   5.923   0.235   2.381
 5852TIP3    H217563   5.844   0.112   2.421
 5853TIP3   OH217564   2.907   0.679   1.509
 5853TIP3    H117565   2.860   0.597   1.496
 5853TIP3    H217566   2.859   0.743   1.457
 5854TIP3   OH217567   3.972   2.361   2.928
 5854TIP3    H117568   3.989   2.299   2.999
 5854TIP3    H217569   4.025   2.438   2.949
 5855TIP3   OH217570   1.783   2.759   1.576
 5855TIP3    H117571   1.809   2.759   1.484
 5855TIP3    H217572   1.689   2.779   1.575
 5856TIP3   OH217573   2.611   2.122   1.802
 5856TIP3    H117574   2.628   2.036   1.763
 5856TIP3    H217575   2.516   2.125   1.814
 5857TIP3   OH217576   3.882   0.488   3.870
 5857TIP3    H117577   3.905   0.427   3.940
 5857TIP3    H217578   3.953   0.480   3.807
 5858TIP3   OH217579   1.041   4.232   3.471
 5858TIP3    H117580   1.080   4.152   3.436
 5858TIP3    H217581   1.025   4.213   3.563
 5859TIP3   OH217582   4.595   1.910   3.829
 5859TIP3    H117583   4.676   1.947   3.793
 5859TIP3    H217584   4.528   1.934   3.765
 5860TIP3   OH217585   0.842   0.559   0.543
 5860TIP3    H117586   0.796   0.615   0.605
 5860TIP3    H217587   0.803   0.472   0.556
 5861TIP3   OH217588   5.206   2.899   0.088
 5861TIP3    H117589   5.234   2.951   0.163
 5861TIP3    H217590   5.184   2.814   0.125
 5862TIP3   OH217591   5.896   4.034   1.251
 5862TIP3    H117592   5.860   4.013   1.337
 5862TIP3    H217593   5.969   4.093   1.270
 5863TIP3   OH217594   6.264   3.192   0.746
 5863TIP3    H117595   6.329   3.257   0.720
 5863TIP3    H217596   6.190   3.244   0.778
 5864TIP3   OH217597   3.249   1.850   0.314
 5864TIP3    H117598   3.273   1.920   0.374
 5864TIP3    H217599   3.216   1.895   0.236
 5865TIP3   OH217600   0.199   2.099   4.918
 5865TIP3    H117601   0.268   2.034   4.931
 5865TIP3    H217602   0.169   2.085   4.828
 5866TIP3   OH217603   4.345   0.840   4.797
 5866TIP3    H117604   4.258   0.880   4.811
 5866TIP3    H217605   4.386   0.896   4.732
 5867TIP3   OH217606   4.640   4.267   2.781
 5867TIP3    H117607   4.733   4.267   2.757
 5867TIP3    H217608   4.597   4.219   2.710
 5868TIP3   OH217609   1.611   2.213   0.061
 5868TIP3    H117610   1.643   2.138   0.112
 5868TIP3    H217611   1.612   2.182  -0.030
 5869TIP3   OH217612   4.132   2.300   2.099
 5869TIP3    H117613   4.215   2.315   2.144
 5869TIP3    H217614   4.082   2.244   2.159
 5870TIP3   OH217615   2.400   0.295   2.973
 5870TIP3    H117616   2.386   0.265   2.883
 5870TIP3    H217617   2.361   0.226   3.027
 5871TIP3   OH217618   0.893   0.874   3.882
 5871TIP3    H117619   0.869   0.819   3.957
 5871TIP3    H217620   0.987   0.888   3.891
 5872TIP3   OH217621   4.821   3.321   0.465
 5872TIP3    H117622   4.786   3.299   0.552
 5872TIP3    H217623   4.876   3.246   0.443
 5873TIP3   OH217624   2.270   1.568   0.061
 5873TIP3    H117625   2.195   1.519   0.096
 5873TIP3    H217626   2.345   1.535   0.109
 5874TIP3   OH217627   4.133   2.275   3.364
 5874TIP3    H117628   4.103   2.363   3.339
 5874TIP3    H217629   4.227   2.276   3.347
 5875TIP3   OH217630   0.306   2.853   5.081
 5875TIP3    H117631   0.368   2.814   5.019
 5875TIP3    H217632   0.283   2.781   5.141
 5876TIP3   OH217633   0.736   2.072   3.622
 5876TIP3    H117634   0.725   2.157   3.580
 5876TIP3    H217635   0.648   2.034   3.623
 5877TIP3   OH217636   2.590   3.995   4.384
 5877TIP3    H117637   2.560   3.918   4.334
 5877TIP3    H217638   2.522   4.009   4.450
 5878TIP3   OH217639   3.885   3.228   4.912
 5878TIP3    H117640   3.925   3.151   4.873
 5878TIP3    H217641   3.874   3.206   5.004
 5879TIP3   OH217642   1.641   5.614   2.026
 5879TIP3    H117643   1.628   5.577   2.114
 5879TIP3    H217644   1.658   5.707   2.041
 5880TIP3   OH217645   0.117   0.470   4.581
 5880TIP3    H117646   0.044   0.420   4.618
 5880TIP3    H217647   0.085   0.500   4.496
 5881TIP3   OH217648   4.515   3.738   3.693
 5881TIP3    H117649   4.576   3.701   3.630
 5881TIP3    H217650   4.499   3.827   3.663
 5882TIP3   OH217651   2.814   3.063   0.318
 5882TIP3    H117652   2.903   3.049   0.351
 5882TIP3    H217653   2.809   3.157   0.302
 5883TIP3   OH217654   3.608   2.996   0.836
 5883TIP3    H117655   3.616   3.055   0.761
 5883TIP3    H217656   3.593   2.910   0.797
 5884TIP3   OH217657   6.193   2.059   1.650
 5884TIP3    H117658   6.218   2.004   1.724
 5884TIP3    H217659   6.147   2.134   1.689
 5885TIP3   OH217660   4.446   5.565   0.076
 5885TIP3    H117661   4.421   5.536  -0.012
 5885TIP3    H217662   4.534   5.531   0.088
 5886TIP3   OH217663   0.365   2.410   1.119
 5886TIP3    H117664   0.381   2.349   1.047
 5886TIP3    H217665   0.305   2.475   1.082
 5887TIP3   OH217666   6.033   2.425   3.448
 5887TIP3    H117667   5.979   2.504   3.446
 5887TIP3    H217668   5.981   2.362   3.498
 5888TIP3   OH217669   2.917   5.349   4.448
 5888TIP3    H117670   2.858   5.276   4.462
 5888TIP3    H217671   2.966   5.356   4.530
 5889TIP3   OH217672   2.812   4.282   2.345
 5889TIP3    H117673   2.740   4.219   2.336
 5889TIP3    H217674   2.890   4.227   2.352
 5890TIP3   OH217675   3.008   1.692   2.764
 5890TIP3    H117676   2.991   1.743   2.685
 5890TIP3    H217677   2.931   1.636   2.774
 5891TIP3   OH217678   5.250   5.852   3.398
 5891TIP3    H117679   5.186   5.796   3.354
 5891TIP3    H217680   5.287   5.905   3.328
 5892TIP3   OH217681   5.976   3.192   1.213
 5892TIP3    H117682   5.907   3.256   1.232
 5892TIP3    H217683   6.055   3.228   1.253
 5893TIP3   OH217684   0.743   0.157   5.155
 5893TIP3    H117685   0.735   0.206   5.237
 5893TIP3    H217686   0.743   0.225   5.086
 5894TIP3   OH217687   5.996   1.600   1.663
 5894TIP3    H117688   5.967   1.618   1.574
 5894TIP3    H217689   5.932   1.645   1.718
 5895TIP3   OH217690   3.858   1.597   2.129
 5895TIP3    H117691   3.946   1.635   2.134
 5895TIP3    H217692   3.813   1.630   2.207
 5896TIP3   OH217693   3.455   5.796   3.997
 5896TIP3    H117694   3.446   5.890   4.006
 5896TIP3    H217695   3.373   5.768   3.956
 5897TIP3   OH217696   5.048   2.295   2.523
 5897TIP3    H117697   5.041   2.384   2.487
 5897TIP3    H217698   5.024   2.305   2.615
 5898TIP3   OH217699   0.180   4.434   4.429
 5898TIP3    H117700   0.142   4.414   4.515
 5898TIP3    H217701   0.251   4.495   4.448
 5899TIP3   OH217702   0.573   3.113   1.812
 5899TIP3    H117703   0.668   3.129   1.811
 5899TIP3    H217704   0.554   3.074   1.727
 5900TIP3   OH217705   5.341   4.619   1.872
 5900TIP3    H117706   5.299   4.628   1.957
 5900TIP3    H217707   5.410   4.685   1.872
 5901TIP3   OH217708   4.438   5.623   0.422
 5901TIP3    H117709   4.384   5.566   0.368
 5901TIP3    H217710   4.449   5.574   0.504
 5902TIP3   OH217711   0.778   1.734   3.567
 5902TIP3    H117712   0.795   1.640   3.556
 5902TIP3    H217713   0.845   1.777   3.514
 5903TIP3   OH217714   0.247   2.460   3.093
 5903TIP3    H117715   0.204   2.538   3.057
 5903TIP3    H217716   0.328   2.493   3.132
 5904TIP3   OH217717   3.547   0.233   0.948
 5904TIP3    H117718   3.536   0.144   0.915
 5904TIP3    H217719   3.538   0.288   0.871
 5905TIP3   OH217720   0.561   2.013   4.931
 5905TIP3    H117721   0.593   1.924   4.944
 5905TIP3    H217722   0.639   2.065   4.913
 5906TIP3   OH217723   4.889   0.727   4.719
 5906TIP3    H117724   4.845   0.644   4.739
 5906TIP3    H217725   4.819   0.792   4.718
 5907TIP3   OH217726   4.035   5.652   4.118
 5907TIP3    H117727   4.072   5.564   4.115
 5907TIP3    H217728   4.054   5.682   4.207
 5908TIP3   OH217729   4.234   1.706   4.104
 5908TIP3    H117730   4.228   1.641   4.034
 5908TIP3    H217731   4.289   1.776   4.068
 5909TIP3   OH217732   1.550   3.783   3.241
 5909TIP3    H117733   1.517   3.703   3.282
 5909TIP3    H217734   1.512   3.782   3.153
 5910TIP3   OH217735   2.102   2.061   1.441
 5910TIP3    H117736   2.093   2.092   1.351
 5910TIP3    H217737   2.171   2.115   1.478
 5911TIP3   OH217738   0.780   2.122   3.073
 5911TIP3    H117739   0.795   2.152   2.983
 5911TIP3    H217740   0.690   2.148   3.092
 5912TIP3   OH217741   3.671   1.165   0.793
 5912TIP3    H117742   3.728   1.230   0.834
 5912TIP3    H217743   3.624   1.214   0.725
 5913TIP3   OH217744   0.842   2.443   1.901
 5913TIP3    H117745   0.851   2.383   1.975
 5913TIP3    H217746   0.861   2.529   1.938
 5914TIP3   OH217747   4.062   5.858   3.723
 5914TIP3    H117748   4.129   5.792   3.740
 5914TIP3    H217749   4.048   5.899   3.808
 5915TIP3   OH217750   2.643   3.691   0.951
 5915TIP3    H117751   2.723   3.718   0.996
 5915TIP3    H217752   2.669   3.614   0.901
 5916TIP3   OH217753   0.340   4.768   5.099
 5916TIP3    H117754   0.359   4.837   5.163
 5916TIP3    H217755   0.323   4.814   5.018
 5917TIP3   OH217756   2.134   3.596   4.838
 5917TIP3    H117757   2.174   3.608   4.752
 5917TIP3    H217758   2.135   3.501   4.852
 5918TIP3   OH217759   1.790   2.315   3.661
 5918TIP3    H117760   1.722   2.301   3.595
 5918TIP3    H217761   1.836   2.231   3.666
 5919TIP3   OH217762   4.766   2.889   1.914
 5919TIP3    H117763   4.717   2.900   1.833
 5919TIP3    H217764   4.854   2.866   1.886
 5920TIP3   OH217765   3.642   0.627   1.023
 5920TIP3    H117766   3.737   0.643   1.020
 5920TIP3    H217767   3.612   0.676   1.099
 5921TIP3   OH217768   3.503   3.358   2.092
 5921TIP3    H117769   3.528   3.401   2.010
 5921TIP3    H217770   3.411   3.335   2.080
 5922TIP3   OH217771   4.801   1.636   0.636
 5922TIP3    H117772   4.844   1.715   0.603
 5922TIP3    H217773   4.721   1.668   0.678
 5923TIP3   OH217774   6.042   0.508   3.605
 5923TIP3    H117775   6.072   0.599   3.602
 5923TIP3    H217776   6.056   0.475   3.516
 5924TIP3   OH217777   0.916   2.877   2.170
 5924TIP3    H117778   0.899   2.915   2.084
 5924TIP3    H217779   0.915   2.951   2.230
 5925TIP3   OH217780   0.223   4.266   3.006
 5925TIP3    H117781   0.208   4.361   3.009
 5925TIP3    H217782   0.138   4.228   3.029
 5926TIP3   OH217783   0.300   1.897   3.101
 5926TIP3    H117784   0.387   1.935   3.097
 5926TIP3    H217785   0.261   1.918   3.016
 5927TIP3   OH217786   5.662   3.415   1.251
 5927TIP3    H117787   5.716   3.370   1.316
 5927TIP3    H217788   5.724   3.464   1.198
 5928TIP3   OH217789   0.171   4.189   1.075
 5928TIP3    H117790   0.234   4.125   1.042
 5928TIP3    H217791   0.098   4.137   1.107
 5929TIP3   OH217792   6.309   3.536   2.422
 5929TIP3    H117793   6.315   3.467   2.356
 5929TIP3    H217794   6.264   3.608   2.378
 5930TIP3   OH217795   5.877   2.167   0.729
 5930TIP3    H117796   5.799   2.175   0.675
 5930TIP3    H217797   5.854   2.208   0.812
 5931TIP3   OH217798   4.654   4.776   1.245
 5931TIP3    H117799   4.700   4.850   1.206
 5931TIP3    H217800   4.609   4.814   1.321
 5932TIP3   OH217801   0.037   4.262   4.651
 5932TIP3    H117802  -0.004   4.217   4.577
 5932TIP3    H217803   0.078   4.192   4.702
 5933TIP3   OH217804   5.677   0.101   1.268
 5933TIP3    H117805   5.582   0.107   1.276
 5933TIP3    H217806   5.696   0.134   1.180
 5934TIP3   OH217807   0.718   5.241   3.922
 5934TIP3    H117808   0.639   5.211   3.878
 5934TIP3    H217809   0.699   5.228   4.015
 5935TIP3   OH217810   1.332   1.538   5.073
 5935TIP3    H117811   1.303   1.593   5.000
 5935TIP3    H217812   1.421   1.512   5.050
 5936TIP3   OH217813   0.533   0.945   4.268
 5936TIP3    H117814   0.536   0.937   4.173
 5936TIP3    H217815   0.624   0.957   4.294
 5937TIP3   OH217816   5.343   0.870   1.391
 5937TIP3    H117817   5.289   0.915   1.456
 5937TIP3    H217818   5.314   0.779   1.396
 5938TIP3   OH217819   1.426   1.771   3.826
 5938TIP3    H117820   1.335   1.779   3.799
 5938TIP3    H217821   1.422   1.740   3.917
 5939TIP3   OH217822   5.740   2.469   0.178
 5939TIP3    H117823   5.782   2.410   0.240
 5939TIP3    H217824   5.810   2.530   0.152
 5940TIP3   OH217825   0.528   5.731   3.069
 5940TIP3    H117826   0.469   5.655   3.077
 5940TIP3    H217827   0.485   5.788   3.005
 5941TIP3   OH217828   1.093   0.014   0.861
 5941TIP3    H117829   1.043   0.037   0.783
 5941TIP3    H217830   1.183   0.006   0.829
 5942TIP3   OH217831   3.333   2.597   2.467
 5942TIP3    H117832   3.273   2.543   2.417
 5942TIP3    H217833   3.342   2.552   2.552
 5943TIP3   OH217834   6.086   3.651   4.791
 5943TIP3    H117835   6.132   3.641   4.874
 5943TIP3    H217836   6.101   3.568   4.745
 5944TIP3   OH217837   3.742   5.149   2.002
 5944TIP3    H117838   3.710   5.111   1.920
 5944TIP3    H217839   3.764   5.240   1.978
 5945TIP3   OH217840   1.251   1.587   1.919
 5945TIP3    H117841   1.323   1.564   1.861
 5945TIP3    H217842   1.283   1.662   1.969
 5946TIP3   OH217843   1.257   2.949   2.595
 5946TIP3    H117844   1.259   2.896   2.674
 5946TIP3    H217845   1.215   3.031   2.622
 5947TIP3   OH217846   3.261   4.328   1.293
 5947TIP3    H117847   3.254   4.279   1.211
 5947TIP3    H217848   3.346   4.302   1.329
 5948TIP3   OH217849   3.394   2.636   1.804
 5948TIP3    H117850   3.409   2.555   1.853
 5948TIP3    H217851   3.444   2.702   1.852
 5949TIP3   OH217852   0.962   5.187   0.068
 5949TIP3    H117853   0.881   5.193   0.120
 5949TIP3    H217854   0.933   5.202  -0.022
 5950TIP3   OH217855   0.456   4.617   4.769
 5950TIP3    H117856   0.501   4.534   4.755
 5950TIP3    H217857   0.364   4.594   4.780
 5951TIP3   OH217858   4.558   4.572   1.541
 5951TIP3    H117859   4.623   4.540   1.604
 5951TIP3    H217860   4.599   4.557   1.455
 5952TIP3   OH217861   6.219   1.650   4.907
 5952TIP3    H117862   6.292   1.588   4.907
 5952TIP3    H217863   6.258   1.733   4.878
 5953TIP3   OH217864   2.052   4.532   2.799
 5953TIP3    H117865   1.989   4.599   2.827
 5953TIP3    H217866   2.084   4.493   2.881
 5954TIP3   OH217867   4.116   4.369   4.979
 5954TIP3    H117868   4.147   4.290   4.934
 5954TIP3    H217869   4.149   4.442   4.926
 5955TIP3   OH217870   3.632   4.836   0.362
 5955TIP3    H117871   3.697   4.891   0.405
 5955TIP3    H217872   3.560   4.895   0.340
 5956TIP3   OH217873   2.405   0.030   3.535
 5956TIP3    H117874   2.426   0.069   3.450
 5956TIP3    H217875   2.482  -0.022   3.557
 5957TIP3   OH217876   3.443   5.040   0.341
 5957TIP3    H117877   3.376   5.034   0.273
 5957TIP3    H217878   3.397   5.078   0.416
 5958TIP3   OH217879   3.227   2.746   0.023
 5958TIP3    H117880   3.251   2.660   0.056
 5958TIP3    H217881   3.146   2.768   0.069
 5959TIP3   OH217882   1.495   1.151   4.956
 5959TIP3    H117883   1.469   1.209   4.885
 5959TIP3    H217884   1.437   1.075   4.947
 5960TIP3   OH217885   3.729   0.348   2.888
 5960TIP3    H117886   3.676   0.289   2.942
 5960TIP3    H217887   3.737   0.427   2.941
 5961TIP3   OH217888   1.402   2.594   1.562
 5961TIP3    H117889   1.307   2.599   1.562
 5961TIP3    H217890   1.430   2.662   1.500
 5962TIP3   OH217891   5.085   3.303   5.046
 5962TIP3    H117892   5.058   3.213   5.025
 5962TIP3    H217893   5.020   3.358   5.002
 5963TIP3   OH217894   0.418   4.745   1.829
 5963TIP3    H117895   0.411   4.665   1.882
 5963TIP3    H217896   0.436   4.713   1.741
 5964TIP3   OH217897   5.351   3.192   1.874
 5964TIP3    H117898   5.384   3.165   1.788
 5964TIP3    H217899   5.340   3.109   1.921
 5965TIP3   OH217900   4.248   3.092   2.109
 5965TIP3    H117901   4.258   3.008   2.064
 5965TIP3    H217902   4.305   3.152   2.060
 5966TIP3   OH217903   3.303   2.757   0.945
 5966TIP3    H117904   3.395   2.783   0.952
 5966TIP3    H217905   3.305   2.670   0.906
 5967TIP3   OH217906   1.405   3.169   4.231
 5967TIP3    H117907   1.326   3.128   4.196
 5967TIP3    H217908   1.373   3.239   4.288
 5968TIP3   OH217909   0.873   4.300   1.678
 5968TIP3    H117910   0.819   4.378   1.665
 5968TIP3    H217911   0.810   4.232   1.701
 5969TIP3   OH217912   2.845   2.424   4.923
 5969TIP3    H117913   2.895   2.438   4.843
 5969TIP3    H217914   2.760   2.465   4.906
 5970TIP3   OH217915   5.817   5.802   1.355
 5970TIP3    H117916   5.755   5.851   1.301
 5970TIP3    H217917   5.903   5.836   1.329
 5971TIP3   OH217918   1.503   4.443   4.843
 5971TIP3    H117919   1.443   4.501   4.797
 5971TIP3    H217920   1.579   4.435   4.786
 5972TIP3   OH217921   6.245   5.951   1.924
 5972TIP3    H117922   6.266   5.991   2.009
 5972TIP3    H217923   6.150   5.952   1.920
 5973TIP3   OH217924   0.163   2.226   2.454
 5973TIP3    H117925   0.076   2.265   2.448
 5973TIP3    H217926   0.202   2.265   2.532
 5974TIP3   OH217927   6.264   5.013   0.462
 5974TIP3    H117928   6.169   5.016   0.477
 5974TIP3    H217929   6.273   4.967   0.378
 5975TIP3   OH217930   2.465   1.116   4.617
 5975TIP3    H117931   2.487   1.149   4.530
 5975TIP3    H217932   2.380   1.074   4.606
 5976TIP3   OH217933   1.240   4.548   0.721
 5976TIP3    H117934   1.274   4.600   0.648
 5976TIP3    H217935   1.317   4.505   0.758
 5977TIP3   OH217936   4.655   1.278   5.056
 5977TIP3    H117937   4.585   1.323   5.104
 5977TIP3    H217938   4.689   1.344   4.996
 5978TIP3   OH217939   0.529   3.422   3.215
 5978TIP3    H117940   0.598   3.433   3.281
 5978TIP3    H217941   0.469   3.495   3.230
 5979TIP3   OH217942   0.734   3.957   0.245
 5979TIP3    H117943   0.820   3.918   0.260
 5979TIP3    H217944   0.745   4.006   0.163
 5980TIP3   OH217945   0.860   4.782   1.340
 5980TIP3    H117946   0.863   4.715   1.272
 5980TIP3    H217947   0.937   4.766   1.394
 5981TIP3   OH217948   5.709   3.677   2.998
 5981TIP3    H117949   5.703   3.765   2.962
 5981TIP3    H217950   5.700   3.689   3.093
 5982TIP3   OH217951   0.205   1.489   3.180
 5982TIP3    H117952   0.220   1.397   3.199
 5982TIP3    H217953   0.243   1.536   3.254
 5983TIP3   OH217954   0.213   4.480   4.786
 5983TIP3    H117955   0.149   4.534   4.740
 5983TIP3    H217956   0.243   4.418   4.719
 5984TIP3   OH217957   5.744   3.709   3.606
 5984TIP3    H117958   5.656   3.703   3.568
 5984TIP3    H217959   5.735   3.671   3.693
 5985TIP3   OH217960   1.066   3.942   2.534
 5985TIP3    H117961   1.007   3.894   2.477
 5985TIP3    H217962   1.072   4.029   2.495
 5986TIP3   OH217963   5.047   3.407   4.428
 5986TIP3    H117964   4.973   3.400   4.367
 5986TIP3    H217965   5.029   3.340   4.494
 5987TIP3   OH217966   0.359   4.156   2.716
 5987TIP3    H117967   0.443   4.159   2.763
 5987TIP3    H217968   0.376   4.099   2.641
 5988TIP3   OH217969   1.905   0.129   3.902
 5988TIP3    H117970   1.979   0.190   3.912
 5988TIP3    H217971   1.879   0.109   3.992
 5989TIP3   OH217972   4.957   4.412   3.378
 5989TIP3    H117973   4.876   4.422   3.329
 5989TIP3    H217974   4.965   4.493   3.428
 5990TIP3   OH217975   1.545   3.361   4.612
 5990TIP3    H117976   1.596   3.420   4.668
 5990TIP3    H217977   1.578   3.274   4.634
 5991TIP3   OH217978   5.714   5.986   0.098
 5991TIP3    H117979   5.732   5.931   0.175
 5991TIP3    H217980   5.619   5.995   0.097
 5992TIP3   OH217981   5.305   3.463   2.206
 5992TIP3    H117982   5.239   3.474   2.137
 5992TIP3    H217983   5.388   3.459   2.159
 5993TIP3   OH217984   1.287   0.401   1.545
 5993TIP3    H117985   1.325   0.407   1.633
 5993TIP3    H217986   1.317   0.481   1.501
 5994TIP3   OH217987   2.033   4.988   2.932
 5994TIP3    H117988   2.110   5.023   2.886
 5994TIP3    H217989   2.052   4.895   2.943
 5995TIP3   OH217990   2.587   2.023   5.176
 5995TIP3    H117991   2.504   2.069   5.180
 5995TIP3    H217992   2.563   1.931   5.165
 5996TIP3   OH217993   4.832   5.738   1.805
 5996TIP3    H117994   4.871   5.822   1.828
 5996TIP3    H217995   4.744   5.760   1.773
 5997TIP3   OH217996   3.989   0.774   2.501
 5997TIP3    H117997   4.023   0.685   2.490
 5997TIP3    H217998   4.056   0.830   2.462
 5998TIP3   OH217999   5.228   1.034   1.163
 5998TIP3    H118000   5.277   0.970   1.214
 5998TIP3    H218001   5.287   1.109   1.157
 5999TIP3   OH218002   5.445   5.465   0.038
 5999TIP3    H118003   5.358   5.478   0.000
 5999TIP3    H218004   5.498   5.433  -0.034
 6000TIP3   OH218005   1.108   4.410   1.522
 6000TIP3    H118006   1.049   4.362   1.580
 6000TIP3    H218007   1.115   4.497   1.562
 6001TIP3   OH218008   3.336   2.905   2.676
 6001TIP3    H118009   3.339   3.001   2.675
 6001TIP3    H218010   3.338   2.880   2.583
 6002TIP3   OH218011   2.728   0.251   2.354
 6002TIP3    H118012   2.678   0.274   2.432
 6002TIP3    H218013   2.704   0.160   2.335
 6003TIP3   OH218014   5.379   3.395   3.675
 6003TIP3    H118015   5.337   3.309   3.670
 6003TIP3    H218016   5.311   3.456   3.650
 6004TIP3   OH218017   5.499   0.493   4.548
 6004TIP3    H118018   5.407   0.501   4.521
 6004TIP3    H218019   5.547   0.481   4.467
 6005TIP3   OH218020   1.249   0.622   3.229
 6005TIP3    H118021   1.166   0.595   3.190
 6005TIP3    H218022   1.286   0.541   3.263
 6006TIP3   OH218023   1.818   5.715   1.443
 6006TIP3    H118024   1.737   5.761   1.465
 6006TIP3    H218025   1.875   5.728   1.519
 6007TIP3   OH218026   4.905   2.385   3.252
 6007TIP3    H118027   4.885   2.477   3.265
 6007TIP3    H218028   4.856   2.360   3.173
 6008TIP3   OH218029   5.566   3.219   2.796
 6008TIP3    H118030   5.542   3.126   2.796
 6008TIP3    H218031   5.491   3.264   2.759
 6009TIP3   OH218032   0.198   5.740   2.710
 6009TIP3    H118033   0.269   5.708   2.766
 6009TIP3    H218034   0.120   5.736   2.765
 6010TIP3   OH218035   3.755   3.614   1.612
 6010TIP3    H118036   3.750   3.536   1.667
 6010TIP3    H218037   3.738   3.582   1.524
 6011TIP3   OH218038   3.667   4.851   4.950
 6011TIP3    H118039   3.637   4.762   4.970
 6011TIP3    H218040   3.601   4.908   4.988
 6012TIP3   OH218041   2.141   0.079   0.775
 6012TIP3    H118042   2.116  -0.009   0.803
 6012TIP3    H218043   2.057   0.126   0.767
 6013TIP3   OH218044   4.959   1.092   2.499
 6013TIP3    H118045   4.954   1.176   2.454
 6013TIP3    H218046   4.882   1.090   2.556
 6014TIP3   OH218047   1.881   5.804   2.655
 6014TIP3    H118048   1.836   5.776   2.735
 6014TIP3    H218049   1.949   5.864   2.686
 6015TIP3   OH218050   5.040   5.151   1.607
 6015TIP3    H118051   5.022   5.194   1.691
 6015TIP3    H218052   4.974   5.082   1.601
 6016TIP3   OH218053   5.213   1.584   2.075
 6016TIP3    H118054   5.301   1.617   2.093
 6016TIP3    H218055   5.157   1.633   2.136
 6017TIP3   OH218056   2.037   3.490   1.448
 6017TIP3    H118057   2.049   3.537   1.365
 6017TIP3    H218058   2.037   3.397   1.423
 6018TIP3   OH218059   2.989   0.841   0.083
 6018TIP3    H118060   3.067   0.797   0.116
 6018TIP3    H218061   2.987   0.821  -0.011
 6019TIP3   OH218062   0.232   5.732   1.028
 6019TIP3    H118063   0.240   5.637   1.015
 6019TIP3    H218064   0.318   5.766   1.005
 6020TIP3   OH218065   5.212   5.309   1.029
 6020TIP3    H118066   5.170   5.382   1.075
 6020TIP3    H218067   5.197   5.327   0.937
 6021TIP3   OH218068   2.692   5.066   1.289
 6021TIP3    H118069   2.730   5.106   1.211
 6021TIP3    H218070   2.708   4.972   1.278
 6022TIP3   OH218071   3.381   3.778   5.117
 6022TIP3    H118072   3.309   3.841   5.111
 6022TIP3    H218073   3.339   3.693   5.106
 6023TIP3   OH218074   3.192   0.864   4.995
 6023TIP3    H118075   3.215   0.863   4.902
 6023TIP3    H218076   3.177   0.772   5.017
 6024TIP3   OH218077   2.029   0.697   5.019
 6024TIP3    H118078   1.984   0.638   5.079
 6024TIP3    H218079   1.980   0.779   5.024
 6025TIP3   OH218080   5.824   0.158   4.471
 6025TIP3    H118081   5.817   0.191   4.381
 6025TIP3    H218082   5.735   0.158   4.504
 6026TIP3   OH218083   5.454   2.888   1.083
 6026TIP3    H118084   5.389   2.897   1.153
 6026TIP3    H218085   5.408   2.841   1.013
 6027TIP3   OH218086   2.261   4.826   2.385
 6027TIP3    H118087   2.234   4.755   2.444
 6027TIP3    H218088   2.349   4.849   2.414
 6028TIP3   OH218089   5.955   1.935   4.979
 6028TIP3    H118090   6.023   1.968   5.038
 6028TIP3    H218091   5.875   1.977   5.010
 6029TIP3   OH218092   0.099   5.912   2.141
 6029TIP3    H118093   0.133   6.002   2.141
 6029TIP3    H218094   0.177   5.858   2.125
 6030TIP3   OH218095   6.172   2.884   2.075
 6030TIP3    H118096   6.256   2.929   2.088
 6030TIP3    H218097   6.149   2.904   1.984
 6031TIP3   OH218098   5.818   2.888   2.000
 6031TIP3    H118099   5.778   2.973   1.984
 6031TIP3    H218100   5.911   2.901   1.985
 6032TIP3   OH218101   3.620   3.788   3.423
 6032TIP3    H118102   3.660   3.723   3.481
 6032TIP3    H218103   3.688   3.808   3.359
 6033TIP3   OH218104   0.033   1.349   1.403
 6033TIP3    H118105   0.102   1.385   1.459
 6033TIP3    H218106  -0.047   1.360   1.455
 6034TIP3   OH218107   1.745   1.167   5.078
 6034TIP3    H118108   1.727   1.206   5.163
 6034TIP3    H218109   1.659   1.155   5.038
 6035TIP3   OH218110   6.341   2.480   2.840
 6035TIP3    H118111   6.318   2.429   2.917
 6035TIP3    H218112   6.406   2.426   2.794
 6036TIP3   OH218113   3.659   3.125   0.603
 6036TIP3    H118114   3.747   3.090   0.617
 6036TIP3    H218115   3.632   3.091   0.518
 6037TIP3   OH218116   3.514   1.255   3.455
 6037TIP3    H118117   3.450   1.204   3.405
 6037TIP3    H218118   3.522   1.210   3.539
 6038TIP3   OH218119   1.471   3.335   3.030
 6038TIP3    H118120   1.493   3.242   3.034
 6038TIP3    H218121   1.420   3.344   2.950
 6039TIP3   OH218122   2.965   5.287   0.103
 6039TIP3    H118123   2.996   5.328   0.022
 6039TIP3    H218124   3.045   5.256   0.145
 6040TIP3   OH218125   5.955   5.446   5.092
 6040TIP3    H118126   5.935   5.528   5.048
 6040TIP3    H218127   6.021   5.469   5.158
 6041TIP3   OH218128   0.696   3.615   4.336
 6041TIP3    H118129   0.691   3.659   4.251
 6041TIP3    H218130   0.785   3.631   4.367
 6042TIP3   OH218131   4.806   0.217   4.639
 6042TIP3    H118132   4.829   0.307   4.662
 6042TIP3    H218133   4.725   0.225   4.589
 6043TIP3   OH218134   4.833   4.678   0.592
 6043TIP3    H118135   4.836   4.689   0.687
 6043TIP3    H218136   4.890   4.746   0.558
 6044TIP3   OH218137   1.299   4.745   1.190
 6044TIP3    H118138   1.360   4.700   1.131
 6044TIP3    H218139   1.227   4.683   1.202
 6045TIP3   OH218140   6.279   2.252   4.346
 6045TIP3    H118141   6.371   2.267   4.367
 6045TIP3    H218142   6.252   2.181   4.404
 6046TIP3   OH218143   0.847   2.768   0.030
 6046TIP3    H118144   0.796   2.806  -0.041
 6046TIP3    H218145   0.810   2.807   0.110
 6047TIP3   OH218146   2.319   3.408   2.671
 6047TIP3    H118147   2.393   3.466   2.687
 6047TIP3    H218148   2.321   3.345   2.744
 6048TIP3   OH218149   3.115   3.402   3.247
 6048TIP3    H118150   3.039   3.454   3.273
 6048TIP3    H218151   3.100   3.381   3.155
 6049TIP3   OH218152   0.911   3.913   2.777
 6049TIP3    H118153   0.899   3.890   2.685
 6049TIP3    H218154   0.849   3.858   2.825
 6050TIP3   OH218155   5.760   0.484   0.234
 6050TIP3    H118156   5.808   0.402   0.246
 6050TIP3    H218157   5.763   0.527   0.320
 6051TIP3   OH218158   2.451   1.046   2.757
 6051TIP3    H118159   2.384   1.073   2.821
 6051TIP3    H218160   2.488   0.966   2.793
 6052TIP3   OH218161   2.993   4.863   1.022
 6052TIP3    H118162   2.947   4.857   0.938
 6052TIP3    H218163   2.961   4.943   1.062
 6053TIP3   OH218164   6.040   2.678   5.125
 6053TIP3    H118165   6.022   2.705   5.215
 6053TIP3    H218166   6.044   2.582   5.129
 6054TIP3   OH218167   0.243   3.649   3.443
 6054TIP3    H118168   0.150   3.652   3.465
 6054TIP3    H218169   0.253   3.713   3.372
 6055TIP3   OH218170   1.737   1.215   4.358
 6055TIP3    H118171   1.690   1.134   4.335
 6055TIP3    H218172   1.750   1.260   4.275
 6056TIP3   OH218173   5.502   0.338   0.720
 6056TIP3    H118174   5.560   0.323   0.646
 6056TIP3    H218175   5.422   0.290   0.698
 6057TIP3   OH218176   5.867   3.293   2.074
 6057TIP3    H118177   5.840   3.211   2.116
 6057TIP3    H218178   5.849   3.279   1.981
 6058TIP3   OH218179   3.522   1.114   3.924
 6058TIP3    H118180   3.592   1.109   3.989
 6058TIP3    H218181   3.447   1.148   3.973
 6059TIP3   OH218182   4.653   3.201   1.228
 6059TIP3    H118183   4.655   3.258   1.305
 6059TIP3    H218184   4.745   3.192   1.203
 6060TIP3   OH218185   2.198   5.861   2.456
 6060TIP3    H118186   2.179   5.909   2.536
 6060TIP3    H218187   2.225   5.928   2.393
 6061TIP3   OH218188   2.943   5.513   2.104
 6061TIP3    H118189   3.009   5.458   2.146
 6061TIP3    H218190   2.975   5.527   2.016
 6062TIP3   OH218191   5.082   5.685   2.519
 6062TIP3    H118192   5.068   5.779   2.503
 6062TIP3    H218193   5.025   5.641   2.456
 6063TIP3   OH218194   0.913   5.157   4.965
 6063TIP3    H118195   0.844   5.098   4.994
 6063TIP3    H218196   0.875   5.245   4.973
 6064TIP3   OH218197   5.438   5.948   3.830
 6064TIP3    H118198   5.415   5.885   3.762
 6064TIP3    H218199   5.434   6.033   3.787
 6065TIP3   OH218200   2.983   4.157   1.382
 6065TIP3    H118201   3.034   4.233   1.355
 6065TIP3    H218202   3.043   4.083   1.371
 6066TIP3   OH218203   0.839   2.247   2.304
 6066TIP3    H118204   0.764   2.189   2.294
 6066TIP3    H218205   0.876   2.254   2.216
 6067TIP3   OH218206   6.157   5.869   2.552
 6067TIP3    H118207   6.225   5.841   2.491
 6067TIP3    H218208   6.134   5.790   2.601
 6068TIP3   OH218209   4.258   3.089   3.377
 6068TIP3    H118210   4.302   3.043   3.306
 6068TIP3    H218211   4.264   3.030   3.452
 6069TIP3   OH218212   5.729   2.965   4.176
 6069TIP3    H118213   5.806   3.017   4.150
 6069TIP3    H218214   5.740   2.951   4.270
 6070TIP3   OH218215   4.741   5.851   0.325
 6070TIP3    H118216   4.653   5.857   0.289
 6070TIP3    H218217   4.775   5.768   0.292
 6071TIP3   OH218218   2.038   4.356   5.060
 6071TIP3    H118219   1.994   4.437   5.085
 6071TIP3    H218220   2.007   4.339   4.971
 6072TIP3   OH218221   2.100   3.456   3.974
 6072TIP3    H118222   2.007   3.457   3.998
 6072TIP3    H218223   2.101   3.466   3.879
 6073TIP3   OH218224   4.365   4.001   0.292
 6073TIP3    H118225   4.441   3.984   0.348
 6073TIP3    H218226   4.290   3.979   0.347
 6074TIP3   OH218227   2.833   3.896   1.229
 6074TIP3    H118228   2.844   3.907   1.134
 6074TIP3    H218229   2.877   3.972   1.267
 6075TIP3   OH218230   2.900   2.986   2.933
 6075TIP3    H118231   2.836   2.995   2.863
 6075TIP3    H218232   2.972   2.937   2.893
 6076TIP3   OH218233   0.385   0.590   3.418
 6076TIP3    H118234   0.439   0.533   3.471
 6076TIP3    H218235   0.354   0.658   3.479
 6077TIP3   OH218236   4.227   5.220   0.851
 6077TIP3    H118237   4.233   5.204   0.946
 6077TIP3    H218238   4.265   5.142   0.811
 6078TIP3   OH218239   5.703   3.891   2.220
 6078TIP3    H118240   5.757   3.876   2.298
 6078TIP3    H218241   5.614   3.900   2.253
 6079TIP3   OH218242   5.102   1.774   0.391
 6079TIP3    H118243   5.088   1.772   0.486
 6079TIP3    H218244   5.134   1.686   0.370
 6080TIP3   OH218245   0.546   5.700   4.021
 6080TIP3    H118246   0.522   5.780   4.068
 6080TIP3    H218247   0.605   5.730   3.952
 6081TIP3   OH218248   2.444   4.561   2.546
 6081TIP3    H118249   2.397   4.514   2.478
 6081TIP3    H218250   2.534   4.529   2.540
 6082TIP3   OH218251   1.201   5.369   4.693
 6082TIP3    H118252   1.192   5.322   4.776
 6082TIP3    H218253   1.120   5.420   4.686
 6083TIP3   OH218254   6.238   1.050   4.251
 6083TIP3    H118255   6.189   1.046   4.168
 6083TIP3    H218256   6.207   1.130   4.293
 6084TIP3   OH218257   0.133   0.392   0.420
 6084TIP3    H118258   0.222   0.376   0.388
 6084TIP3    H218259   0.084   0.314   0.395
 6085TIP3   OH218260   2.899   4.121   0.293
 6085TIP3    H118261   2.823   4.066   0.274
 6085TIP3    H218262   2.867   4.211   0.286
 6086TIP3   OH218263   4.728   4.050   3.000
 6086TIP3    H118264   4.686   4.129   3.034
 6086TIP3    H218265   4.709   4.051   2.906
 6087TIP3   OH218266   2.532   4.585   3.877
 6087TIP3    H118267   2.575   4.637   3.810
 6087TIP3    H218268   2.456   4.636   3.904
 6088TIP3   OH218269   2.200   1.629   0.726
 6088TIP3    H118270   2.182   1.713   0.769
 6088TIP3    H218271   2.295   1.628   0.713
 6089TIP3   OH218272   5.723   5.329   3.554
 6089TIP3    H118273   5.640   5.285   3.571
 6089TIP3    H218274   5.703   5.394   3.487
 6090TIP3   OH218275   3.828   4.857   3.584
 6090TIP3    H118276   3.798   4.942   3.617
 6090TIP3    H218277   3.918   4.849   3.616
 6091TIP3   OH218278   0.775   3.675   0.370
 6091TIP3    H118279   0.850   3.714   0.324
 6091TIP3    H218280   0.700   3.694   0.314
 6092TIP3   OH218281   2.423   1.946   0.996
 6092TIP3    H118282   2.438   2.040   0.981
 6092TIP3    H218283   2.358   1.922   0.929
 6093TIP3   OH218284   4.715   3.812   2.191
 6093TIP3    H118285   4.712   3.763   2.108
 6093TIP3    H218286   4.790   3.775   2.238
 6094TIP3   OH218287   4.787   4.116   5.025
 6094TIP3    H118288   4.720   4.181   5.003
 6094TIP3    H218289   4.745   4.059   5.090
 6095TIP3   OH218290   6.119   0.818   3.089
 6095TIP3    H118291   6.193   0.770   3.052
 6095TIP3    H218292   6.046   0.756   3.087
 6096TIP3   OH218293   0.362   2.450   2.161
 6096TIP3    H118294   0.416   2.508   2.216
 6096TIP3    H218295   0.374   2.484   2.072
 6097TIP3   OH218296   1.344   2.913   4.787
 6097TIP3    H118297   1.307   2.920   4.699
 6097TIP3    H218298   1.273   2.944   4.845
 6098TIP3   OH218299   4.807   5.661   2.065
 6098TIP3    H118300   4.803   5.675   1.970
 6098TIP3    H218301   4.771   5.573   2.077
 6099TIP3   OH218302   5.110   4.213   4.274
 6099TIP3    H118303   5.104   4.298   4.230
 6099TIP3    H218304   5.039   4.214   4.339
 6100TIP3   OH218305   2.436   1.481   2.368
 6100TIP3    H118306   2.475   1.412   2.314
 6100TIP3    H218307   2.358   1.508   2.320
 6101TIP3   OH218308   5.118   1.358   2.251
 6101TIP3    H118309   5.157   1.406   2.177
 6101TIP3    H218310   5.193   1.325   2.300
 6102TIP3   OH218311   2.724   1.393   3.248
 6102TIP3    H118312   2.690   1.404   3.160
 6102TIP3    H218313   2.819   1.401   3.238
 6103TIP3   OH218314   2.729   0.329   5.210
 6103TIP3    H118315   2.821   0.318   5.186
 6103TIP3    H218316   2.683   0.333   5.126
 6104TIP3   OH218317   1.564   4.595   0.273
 6104TIP3    H118318   1.650   4.602   0.232
 6104TIP3    H218319   1.572   4.645   0.355
 6105TIP3   OH218320   6.140   5.960   2.830
 6105TIP3    H118321   6.173   5.968   2.740
 6105TIP3    H218322   6.070   5.895   2.824
 6106TIP3   OH218323   5.331   2.246   1.372
 6106TIP3    H118324   5.298   2.182   1.309
 6106TIP3    H218325   5.315   2.207   1.458
 6107TIP3   OH218326  -0.020   4.137   0.123
 6107TIP3    H118327   0.045   4.070   0.141
 6107TIP3    H218328  -0.043   4.124   0.030
 6108TIP3   OH218329   1.588   3.415   2.437
 6108TIP3    H118330   1.629   3.421   2.524
 6108TIP3    H218331   1.647   3.463   2.380
 6109TIP3   OH218332   1.955   0.123   3.545
 6109TIP3    H118333   1.992   0.095   3.629
 6109TIP3    H218334   1.892   0.191   3.569
 6110TIP3   OH218335   3.714   0.768   5.106
 6110TIP3    H118336   3.624   0.742   5.085
 6110TIP3    H218337   3.758   0.771   5.021
 6111TIP3   OH218338   3.980   5.251   3.769
 6111TIP3    H118339   4.029   5.295   3.699
 6111TIP3    H218340   4.010   5.293   3.849
 6112TIP3   OH218341   0.589   5.803   4.376
 6112TIP3    H118342   0.601   5.710   4.396
 6112TIP3    H218343   0.669   5.829   4.332
 6113TIP3   OH218344   0.294   0.233   5.016
 6113TIP3    H118345   0.213   0.212   4.972
 6113TIP3    H218346   0.281   0.322   5.049
 6114TIP3   OH218347   0.270   2.800   2.099
 6114TIP3    H118348   0.212   2.733   2.063
 6114TIP3    H218349   0.261   2.792   2.194
 6115TIP3   OH218350   0.745   4.084   2.038
 6115TIP3    H118351   0.659   4.126   2.039
 6115TIP3    H218352   0.755   4.051   1.949
 6116TIP3   OH218353   2.449   3.076   0.262
 6116TIP3    H118354   2.427   3.035   0.345
 6116TIP3    H218355   2.445   3.005   0.198
 6117TIP3   OH218356   0.918   3.024   3.329
 6117TIP3    H118357   0.979   3.097   3.337
 6117TIP3    H218358   0.832   3.066   3.325
 6118TIP3   OH218359   3.117   2.763   4.918
 6118TIP3    H118360   3.141   2.764   5.011
 6118TIP3    H218361   3.025   2.736   4.917
 6119TIP3   OH218362   3.054   5.960   4.059
 6119TIP3    H118363   2.997   5.887   4.084
 6119TIP3    H218364   3.142   5.922   4.056
 6120TIP3   OH218365   4.314   3.997   4.692
 6120TIP3    H118366   4.408   3.983   4.686
 6120TIP3    H218367   4.276   3.926   4.640
 6121TIP3   OH218368   2.385   3.061   2.366
 6121TIP3    H118369   2.427   3.050   2.451
 6121TIP3    H218370   2.406   3.151   2.341
 6122TIP3   OH218371   0.187   3.663   0.896
 6122TIP3    H118372   0.130   3.739   0.904
 6122TIP3    H218373   0.188   3.643   0.802
 6123TIP3   OH218374   2.656   2.326   3.669
 6123TIP3    H118375   2.696   2.239   3.667
 6123TIP3    H218376   2.710   2.376   3.730
 6124TIP3   OH218377   2.608   2.394  -0.009
 6124TIP3    H118378   2.628   2.485   0.013
 6124TIP3    H218379   2.678   2.344   0.033
 6125TIP3   OH218380   2.204   0.999   2.280
 6125TIP3    H118381   2.214   1.092   2.303
 6125TIP3    H218382   2.161   0.960   2.356
 6126TIP3   OH218383   5.264   4.033   3.828
 6126TIP3    H118384   5.226   3.997   3.748
 6126TIP3    H218385   5.291   4.122   3.804
 6127TIP3   OH218386   0.447   4.180   4.915
 6127TIP3    H118387   0.529   4.153   4.873
 6127TIP3    H218388   0.379   4.135   4.865
 6128TIP3   OH218389   2.786   1.994   4.230
 6128TIP3    H118390   2.795   1.950   4.314
 6128TIP3    H218391   2.804   2.086   4.249
 6129TIP3   OH218392   3.725   0.157   3.752
 6129TIP3    H118393   3.666   0.209   3.807
 6129TIP3    H218394   3.698   0.067   3.767
 6130TIP3   OH218395   1.558   5.152   2.300
 6130TIP3    H118396   1.525   5.242   2.298
 6130TIP3    H218397   1.567   5.131   2.393
 6131TIP3   OH218398   0.731   4.837   2.742
 6131TIP3    H118399   0.821   4.826   2.771
 6131TIP3    H218400   0.720   4.932   2.733
 6132TIP3   OH218401   4.587   2.054   0.818
 6132TIP3    H118402   4.667   2.065   0.870
 6132TIP3    H218403   4.524   2.018   0.880
 6133TIP3   OH218404   4.033   4.964   1.364
 6133TIP3    H118405   4.011   4.983   1.456
 6133TIP3    H218406   4.046   4.870   1.362
 6134TIP3   OH218407   2.401   0.575   2.955
 6134TIP3    H118408   2.406   0.486   2.990
 6134TIP3    H218409   2.364   0.626   3.027
 6135TIP3   OH218410   1.489   2.861   1.916
 6135TIP3    H118411   1.528   2.870   1.829
 6135TIP3    H218412   1.562   2.865   1.976
 6136TIP3   OH218413   5.064   0.219   4.954
 6136TIP3    H118414   5.080   0.214   5.048
 6136TIP3    H218415   5.126   0.284   4.922
 6137TIP3   OH218416   3.238   5.851   0.184
 6137TIP3    H118417   3.255   5.934   0.139
 6137TIP3    H218418   3.143   5.845   0.188
 6138TIP3   OH218419   3.437   5.432   1.111
 6138TIP3    H118420   3.360   5.454   1.164
 6138TIP3    H218421   3.506   5.489   1.146
 6139TIP3   OH218422   5.784   5.004   0.293
 6139TIP3    H118423   5.760   4.913   0.274
 6139TIP3    H218424   5.703   5.043   0.326
 6140TIP3   OH218425   5.712   4.744   3.248
 6140TIP3    H118426   5.715   4.806   3.321
 6140TIP3    H218427   5.683   4.796   3.173
 6141TIP3   OH218428   3.600   2.631   4.040
 6141TIP3    H118429   3.507   2.615   4.024
 6141TIP3    H218430   3.640   2.626   3.953
 6142TIP3   OH218431   3.764   5.000   0.762
 6142TIP3    H118432   3.688   4.951   0.794
 6142TIP3    H218433   3.730   5.087   0.743
 6143TIP3   OH218434   2.448   5.317   3.166
 6143TIP3    H118435   2.435   5.280   3.253
 6143TIP3    H218436   2.444   5.243   3.106
 6144TIP3   OH218437   4.813   2.164   0.995
 6144TIP3    H118438   4.735   2.214   1.020
 6144TIP3    H218439   4.853   2.140   1.079
 6145TIP3   OH218440   5.513   1.736   2.473
 6145TIP3    H118441   5.566   1.677   2.528
 6145TIP3    H218442   5.443   1.766   2.530
 6146TIP3   OH218443   5.869   4.579   0.700
 6146TIP3    H118444   5.809   4.525   0.648
 6146TIP3    H218445   5.888   4.525   0.777
 6147TIP3   OH218446   2.587   2.730   5.085
 6147TIP3    H118447   2.620   2.691   5.004
 6147TIP3    H218448   2.515   2.786   5.058
 6148TIP3   OH218449   0.228   3.489   4.571
 6148TIP3    H118450   0.178   3.480   4.652
 6148TIP3    H218451   0.185   3.429   4.510
 6149TIP3   OH218452   4.037   3.589   1.486
 6149TIP3    H118453   4.055   3.496   1.501
 6149TIP3    H218454   3.976   3.613   1.556
 6150TIP3   OH218455   5.371   2.787   3.019
 6150TIP3    H118456   5.294   2.756   2.970
 6150TIP3    H218457   5.341   2.867   3.062
 6151TIP3   OH218458   0.441   1.008   3.180
 6151TIP3    H118459   0.350   1.012   3.152
 6151TIP3    H218460   0.480   1.089   3.148
 6152TIP3   OH218461   1.580   2.257   2.263
 6152TIP3    H118462   1.639   2.325   2.230
 6152TIP3    H218463   1.543   2.293   2.343
 6153TIP3   OH218464   0.675   1.747   3.810
 6153TIP3    H118465   0.590   1.788   3.799
 6153TIP3    H218466   0.702   1.723   3.722
 6154TIP3   OH218467   2.110   3.638   0.913
 6154TIP3    H118468   2.168   3.562   0.914
 6154TIP3    H218469   2.101   3.661   0.821
 6155TIP3   OH218470   3.421   4.818   4.750
 6155TIP3    H118471   3.470   4.753   4.801
 6155TIP3    H218472   3.329   4.792   4.759
 6156TIP3   OH218473   2.895   1.416   1.478
 6156TIP3    H118474   2.967   1.479   1.468
 6156TIP3    H218475   2.936   1.331   1.463
 6157TIP3   OH218476   3.698   2.824   1.780
 6157TIP3    H118477   3.663   2.758   1.720
 6157TIP3    H218478   3.637   2.823   1.854
 6158TIP3   OH218479   5.086   2.884   3.902
 6158TIP3    H118480   5.124   2.897   3.815
 6158TIP3    H218481   5.138   2.941   3.959
 6159TIP3   OH218482   5.297   4.428   0.135
 6159TIP3    H118483   5.259   4.386   0.057
 6159TIP3    H218484   5.265   4.376   0.208
 6160TIP3   OH218485   6.102   1.579   4.653
 6160TIP3    H118486   6.032   1.513   4.652
 6160TIP3    H218487   6.112   1.601   4.746
 6161TIP3   OH218488   1.563   1.563   3.688
 6161TIP3    H118489   1.506   1.493   3.721
 6161TIP3    H218490   1.528   1.643   3.727
 6162TIP3   OH218491   1.807   4.780   3.114
 6162TIP3    H118492   1.819   4.767   3.020
 6162TIP3    H218493   1.892   4.809   3.146
 6163TIP3   OH218494   4.557   2.692   2.617
 6163TIP3    H118495   4.627   2.730   2.566
 6163TIP3    H218496   4.479   2.743   2.594
 6164TIP3   OH218497   5.964   5.141   3.130
 6164TIP3    H118498   6.053   5.153   3.097
 6164TIP3    H218499   5.964   5.053   3.168
 6165TIP3   OH218500   2.098   4.381   2.334
 6165TIP3    H118501   2.029   4.444   2.352
 6165TIP3    H218502   2.165   4.432   2.288
 6166TIP3   OH218503   5.092   0.640   3.054
 6166TIP3    H118504   5.098   0.630   3.149
 6166TIP3    H218505   5.071   0.552   3.023
 6167TIP3   OH218506   4.941   4.273   4.717
 6167TIP3    H118507   4.923   4.232   4.632
 6167TIP3    H218508   4.855   4.304   4.747
 6168TIP3   OH218509   1.848   0.915   4.993
 6168TIP3    H118510   1.881   0.928   4.904
 6168TIP3    H218511   1.787   0.987   5.007
 6169TIP3   OH218512   2.783   0.938   3.454
 6169TIP3    H118513   2.863   0.958   3.406
 6169TIP3    H218514   2.724   1.011   3.433
 6170TIP3   OH218515   0.660   1.918   5.185
 6170TIP3    H118516   0.657   1.833   5.140
 6170TIP3    H218517   0.645   1.982   5.115
 6171TIP3   OH218518   3.830   5.239   4.771
 6171TIP3    H118519   3.880   5.321   4.771
 6171TIP3    H218520   3.824   5.214   4.679
 6172TIP3   OH218521   6.094   0.176   2.816
 6172TIP3    H118522   6.082   0.096   2.765
 6172TIP3    H218523   6.056   0.156   2.902
 6173TIP3   OH218524   6.173   2.485   1.184
 6173TIP3    H118525   6.250   2.429   1.196
 6173TIP3    H218526   6.200   2.569   1.220
 6174TIP3   OH218527   5.851   0.841   0.897
 6174TIP3    H118528   5.909   0.899   0.947
 6174TIP3    H218529   5.804   0.791   0.964
 6175TIP3   OH218530   4.102   1.726   2.461
 6175TIP3    H118531   4.191   1.705   2.432
 6175TIP3    H218532   4.048   1.653   2.430
 6176TIP3   OH218533   0.867   5.190   3.682
 6176TIP3    H118534   0.826   5.234   3.756
 6176TIP3    H218535   0.892   5.261   3.622
 6177TIP3   OH218536   3.977   1.816   4.966
 6177TIP3    H118537   4.018   1.843   5.048
 6177TIP3    H218538   4.044   1.767   4.920
 6178TIP3   OH218539   5.546   2.920   4.781
 6178TIP3    H118540   5.641   2.925   4.768
 6178TIP3    H218541   5.514   2.877   4.702
 6179TIP3   OH218542   4.200   3.071   3.982
 6179TIP3    H118543   4.106   3.082   3.991
 6179TIP3    H218544   4.222   2.998   4.040
 6180TIP3   OH218545   0.431   0.096   0.713
 6180TIP3    H118546   0.420   0.147   0.633
 6180TIP3    H218547   0.404   0.007   0.689
 6181TIP3   OH218548   4.580   5.092   1.060
 6181TIP3    H118549   4.500   5.145   1.058
 6181TIP3    H218550   4.581   5.054   1.147
 6182TIP3   OH218551   2.028   5.091   1.190
 6182TIP3    H118552   2.065   5.015   1.236
 6182TIP3    H218553   1.998   5.055   1.106
 6183TIP3   OH218554   2.190   3.299   4.880
 6183TIP3    H118555   2.284   3.283   4.870
 6183TIP3    H218556   2.163   3.239   4.949
 6184TIP3   OH218557   4.091   3.930   3.695
 6184TIP3    H118558   4.057   3.995   3.632
 6184TIP3    H218559   4.165   3.974   3.736
 6185TIP3   OH218560   3.356   2.304   3.015
 6185TIP3    H118561   3.308   2.306   3.098
 6185TIP3    H218562   3.402   2.220   3.016
 6186TIP3   OH218563   4.370   4.347   0.866
 6186TIP3    H118564   4.345   4.433   0.901
 6186TIP3    H218565   4.364   4.358   0.771
 6187TIP3   OH218566   0.854   4.214   0.121
 6187TIP3    H118567   0.862   4.276   0.194
 6187TIP3    H218568   0.916   4.246   0.055
 6188TIP3   OH218569   2.253   0.466   2.704
 6188TIP3    H118570   2.324   0.449   2.641
 6188TIP3    H218571   2.297   0.480   2.787
 6189TIP3   OH218572   3.365   1.085   1.191
 6189TIP3    H118573   3.394   1.161   1.242
 6189TIP3    H218574   3.426   1.083   1.117
 6190TIP3   OH218575   0.075   0.453   3.027
 6190TIP3    H118576   0.111   0.379   2.978
 6190TIP3    H218577   0.149   0.485   3.079
 6191TIP3   OH218578   1.888   2.650   3.123
 6191TIP3    H118579   1.885   2.686   3.034
 6191TIP3    H218580   1.978   2.620   3.134
 6192TIP3   OH218581   1.113   2.960   0.038
 6192TIP3    H118582   1.066   2.880   0.063
 6192TIP3    H218583   1.067   2.991  -0.040
 6193TIP3   OH218584   0.855   4.729   0.547
 6193TIP3    H118585   0.841   4.634   0.544
 6193TIP3    H218586   0.859   4.756   0.455
 6194TIP3   OH218587   3.052   5.027   4.228
 6194TIP3    H118588   3.128   5.077   4.258
 6194TIP3    H218589   2.982   5.049   4.290
 6195TIP3   OH218590   0.710   1.282   4.294
 6195TIP3    H118591   0.679   1.236   4.216
 6195TIP3    H218592   0.751   1.214   4.347
 6196TIP3   OH218593   2.542   0.012   1.366
 6196TIP3    H118594   2.586   0.086   1.323
 6196TIP3    H218595   2.578   0.012   1.454
 6197TIP3   OH218596   0.979   4.773   4.649
 6197TIP3    H118597   0.937   4.811   4.725
 6197TIP3    H218598   1.062   4.820   4.641
 6198TIP3   OH218599   4.702   1.498   2.354
 6198TIP3    H118600   4.795   1.521   2.362
 6198TIP3    H218601   4.657   1.583   2.356
 6199TIP3   OH218602   2.198   1.221   0.003
 6199TIP3    H118603   2.271   1.225   0.066
 6199TIP3    H218604   2.241   1.221  -0.082
 6200TIP3   OH218605   5.492   5.144   3.201
 6200TIP3    H118606   5.498   5.170   3.293
 6200TIP3    H218607   5.444   5.061   3.203
 6201TIP3   OH218608   3.921   0.295   1.727
 6201TIP3    H118609   3.942   0.209   1.764
 6201TIP3    H218610   3.932   0.356   1.800
 6202TIP3   OH218611   4.704   0.804   3.765
 6202TIP3    H118612   4.684   0.770   3.678
 6202TIP3    H218613   4.635   0.768   3.822
 6203TIP3   OH218614   5.778   3.258   0.853
 6203TIP3    H118615   5.710   3.190   0.852
 6203TIP3    H218616   5.855   3.213   0.887
 6204TIP3   OH218617   5.336   4.579   3.431
 6204TIP3    H118618   5.377   4.559   3.346
 6204TIP3    H218619   5.407   4.569   3.495
 6205TIP3   OH218620   2.003   4.966   3.740
 6205TIP3    H118621   1.983   4.962   3.647
 6205TIP3    H218622   2.097   4.947   3.746
 6206TIP3   OH218623   2.103   0.088   2.418
 6206TIP3    H118624   2.182   0.048   2.455
 6206TIP3    H218625   2.133   0.130   2.337
 6207TIP3   OH218626   5.073   3.645   0.253
 6207TIP3    H118627   5.062   3.731   0.295
 6207TIP3    H218628   4.984   3.610   0.246
 6208TIP3   OH218629   1.933   5.850   5.083
 6208TIP3    H118630   1.911   5.800   5.005
 6208TIP3    H218631   1.861   5.912   5.094
 6209TIP3   OH218632   2.464   2.925   0.496
 6209TIP3    H118633   2.458   2.908   0.590
 6209TIP3    H218634   2.502   2.845   0.459
 6210TIP3   OH218635   0.313   3.916   3.624
 6210TIP3    H118636   0.271   3.854   3.564
 6210TIP3    H218637   0.293   3.883   3.711
 6211TIP3   OH218638   2.286   2.980   4.170
 6211TIP3    H118639   2.348   2.913   4.200
 6211TIP3    H218640   2.304   3.056   4.225
 6212TIP3   OH218641   0.054   5.993   4.918
 6212TIP3    H118642   0.025   6.024   5.004
 6212TIP3    H218643  -0.027   5.970   4.873
 6213TIP3   OH218644   0.282   1.867   4.794
 6213TIP3    H118645   0.339   1.821   4.732
 6213TIP3    H218646   0.275   1.808   4.869
 6214TIP3   OH218647   3.206   4.665   3.949
 6214TIP3    H118648   3.279   4.650   3.889
 6214TIP3    H218649   3.241   4.647   4.036
 6215TIP3   OH218650   3.315   1.800   3.217
 6215TIP3    H118651   3.286   1.842   3.298
 6215TIP3    H218652   3.297   1.707   3.231
 6216TIP3   OH218653   1.149   4.019   3.380
 6216TIP3    H118654   1.237   3.984   3.396
 6216TIP3    H218655   1.102   3.947   3.338
 6217TIP3   OH218656   5.871   4.176   0.301
 6217TIP3    H118657   5.933   4.122   0.253
 6217TIP3    H218658   5.918   4.257   0.319
 6218TIP3   OH218659   4.923   1.194   3.487
 6218TIP3    H118660   4.905   1.107   3.524
 6218TIP3    H218661   4.893   1.255   3.554
 6219TIP3   OH218662   5.188   1.982   0.944
 6219TIP3    H118663   5.261   1.947   0.892
 6219TIP3    H218664   5.225   1.998   1.031
 6220TIP3   OH218665   0.584   2.476   1.299
 6220TIP3    H118666   0.512   2.454   1.240
 6220TIP3    H218667   0.556   2.556   1.344
 6221TIP3   OH218668   4.507   4.163   4.948
 6221TIP3    H118669   4.549   4.229   4.892
 6221TIP3    H218670   4.492   4.088   4.890
 6222TIP3   OH218671   2.100   4.456   3.966
 6222TIP3    H118672   2.082   4.518   3.895
 6222TIP3    H218673   2.067   4.372   3.934
 6223TIP3   OH218674   5.595   4.481   1.363
 6223TIP3    H118675   5.624   4.460   1.452
 6223TIP3    H218676   5.630   4.568   1.347
 6224TIP3   OH218677   0.240   2.247   1.687
 6224TIP3    H118678   0.215   2.174   1.744
 6224TIP3    H218679   0.177   2.243   1.615
 6225TIP3   OH218680   2.949   4.603   3.659
 6225TIP3    H118681   2.866   4.636   3.623
 6225TIP3    H218682   2.940   4.613   3.753
 6226TIP3   OH218683   3.076   1.627   0.813
 6226TIP3    H118684   3.022   1.560   0.857
 6226TIP3    H218685   3.015   1.671   0.754
 6227TIP3   OH218686   1.259   2.321   0.386
 6227TIP3    H118687   1.281   2.276   0.304
 6227TIP3    H218688   1.243   2.250   0.449
 6228TIP3   OH218689   3.004   3.510   1.198
 6228TIP3    H118690   2.990   3.524   1.291
 6228TIP3    H218691   3.096   3.486   1.191
 6229TIP3   OH218692   5.672   3.208   0.549
 6229TIP3    H118693   5.727   3.194   0.626
 6229TIP3    H218694   5.732   3.203   0.475
 6230TIP3   OH218695   5.375   1.996   1.851
 6230TIP3    H118696   5.456   1.990   1.901
 6230TIP3    H218697   5.390   1.940   1.775
 6231TIP3   OH218698   3.179   3.979   1.367
 6231TIP3    H118699   3.168   3.892   1.407
 6231TIP3    H218700   3.234   3.963   1.290
 6232TIP3   OH218701   2.614   6.003   2.129
 6232TIP3    H118702   2.636   5.922   2.084
 6232TIP3    H218703   2.584   5.975   2.215
 6233TIP3   OH218704   1.261   1.069   2.450
 6233TIP3    H118705   1.181   1.112   2.418
 6233TIP3    H218706   1.230   0.997   2.504
 6234TIP3   OH218707   0.286   2.271   4.124
 6234TIP3    H118708   0.243   2.328   4.189
 6234TIP3    H218709   0.366   2.241   4.169
 6235TIP3   OH218710   0.440   3.577   0.968
 6235TIP3    H118711   0.487   3.645   0.921
 6235TIP3    H218712   0.349   3.607   0.968
 6236TIP3   OH218713   1.892   4.608   0.975
 6236TIP3    H118714   1.891   4.515   0.955
 6236TIP3    H218715   1.976   4.639   0.939
 6237TIP3   OH218716   2.095   0.976   0.734
 6237TIP3    H118717   2.074   1.055   0.683
 6237TIP3    H218718   2.155   1.006   0.801
 6238TIP3   OH218719   0.441   2.325   5.002
 6238TIP3    H118720   0.425   2.236   4.970
 6238TIP3    H218721   0.496   2.313   5.079
 6239TIP3   OH218722   2.374   3.942   3.044
 6239TIP3    H118723   2.428   4.012   3.080
 6239TIP3    H218724   2.294   3.944   3.098
 6240TIP3   OH218725   0.078   5.524   4.518
 6240TIP3    H118726   0.000   5.555   4.564
 6240TIP3    H218727   0.113   5.601   4.474
 6241TIP3   OH218728   0.516   0.676   4.918
 6241TIP3    H118729   0.487   0.764   4.942
 6241TIP3    H218730   0.571   0.689   4.841
 6242TIP3   OH218731   1.447   3.597   1.313
 6242TIP3    H118732   1.524   3.546   1.289
 6242TIP3    H218733   1.467   3.687   1.288
 6243TIP3   OH218734   3.113   0.732   2.192
 6243TIP3    H118735   3.110   0.657   2.251
 6243TIP3    H218736   3.048   0.713   2.124
 6244TIP3   OH218737   3.100   4.328   2.112
 6244TIP3    H118738   3.021   4.338   2.058
 6244TIP3    H218739   3.171   4.319   2.050
 6245TIP3   OH218740   3.926   0.744   0.401
 6245TIP3    H118741   3.912   0.784   0.487
 6245TIP3    H218742   3.948   0.818   0.344
 6246TIP3   OH218743   1.912   2.843   0.137
 6246TIP3    H118744   1.933   2.920   0.085
 6246TIP3    H218745   1.977   2.844   0.208
 6247TIP3   OH218746   1.351   0.166   2.535
 6247TIP3    H118747   1.389   0.216   2.608
 6247TIP3    H218748   1.426   0.123   2.494
 6248TIP3   OH218749   2.203   1.992   1.790
 6248TIP3    H118750   2.118   1.988   1.834
 6248TIP3    H218751   2.251   2.060   1.837
 6249TIP3   OH218752   2.511   2.698   2.007
 6249TIP3    H118753   2.485   2.716   2.097
 6249TIP3    H218754   2.467   2.766   1.955
 6250TIP3   OH218755   4.282   5.853   0.019
 6250TIP3    H118756   4.224   5.868   0.094
 6250TIP3    H218757   4.245   5.777  -0.025
 6251TIP3   OH218758   3.710   3.604   0.064
 6251TIP3    H118759   3.783   3.665   0.077
 6251TIP3    H218760   3.633   3.660   0.054
 6252TIP3   OH218761   5.660   0.055   0.722
 6252TIP3    H118762   5.743   0.008   0.713
 6252TIP3    H218763   5.643   0.054   0.817
 6253TIP3   OH218764   0.909   1.694   5.165
 6253TIP3    H118765   0.972   1.696   5.237
 6253TIP3    H218766   0.858   1.615   5.180
 6254TIP3   OH218767   0.443   5.667   4.801
 6254TIP3    H118768   0.509   5.597   4.806
 6254TIP3    H218769   0.478   5.729   4.737
 6255TIP3   OH218770   2.481   0.353   4.215
 6255TIP3    H118771   2.425   0.431   4.218
 6255TIP3    H218772   2.468   0.312   4.300
 6256TIP3   OH218773   3.585   5.881   2.757
 6256TIP3    H118774   3.577   5.811   2.822
 6256TIP3    H218775   3.554   5.960   2.802
 6257TIP3   OH218776   5.554   2.305   4.958
 6257TIP3    H118777   5.499   2.322   5.034
 6257TIP3    H218778   5.511   2.234   4.912
 6258TIP3   OH218779   2.431   4.089   0.394
 6258TIP3    H118780   2.512   4.116   0.436
 6258TIP3    H218781   2.435   4.128   0.307
 6259TIP3   OH218782   4.504   5.843   0.658
 6259TIP3    H118783   4.434   5.860   0.720
 6259TIP3    H218784   4.466   5.782   0.595
 6260TIP3   OH218785   4.747   4.140   0.911
 6260TIP3    H118786   4.809   4.212   0.921
 6260TIP3    H218787   4.663   4.175   0.939
 6261TIP3   OH218788   2.935   3.378   3.637
 6261TIP3    H118789   2.985   3.455   3.611
 6261TIP3    H218790   2.845   3.410   3.644
 6262TIP3   OH218791   1.522   2.902   1.622
 6262TIP3    H118792   1.435   2.941   1.622
 6262TIP3    H218793   1.532   2.867   1.533
 6263TIP3   OH218794   2.630   4.163   0.965
 6263TIP3    H118795   2.669   4.090   1.013
 6263TIP3    H218796   2.611   4.127   0.878
 6264TIP3   OH218797   4.499   5.298   5.013
 6264TIP3    H118798   4.533   5.208   5.014
 6264TIP3    H218799   4.544   5.341   5.085
 6265TIP3   OH218800   3.821   0.831   2.998
 6265TIP3    H118801   3.852   0.782   2.921
 6265TIP3    H218802   3.872   0.912   2.996
 6266TIP3   OH218803   3.515   3.622   0.507
 6266TIP3    H118804   3.422   3.620   0.485
 6266TIP3    H218805   3.558   3.574   0.437
 6267TIP3   OH218806   1.831   3.773   1.501
 6267TIP3    H118807   1.878   3.690   1.505
 6267TIP3    H218808   1.812   3.786   1.408
 6268TIP3   OH218809   0.055   0.554   2.659
 6268TIP3    H118810   0.122   0.548   2.727
 6268TIP3    H218811   0.011   0.469   2.661
 6269TIP3   OH218812   0.222   0.250   4.270
 6269TIP3    H118813   0.234   0.195   4.193
 6269TIP3    H218814   0.235   0.339   4.238
 6270TIP3   OH218815   1.990   0.533   1.820
 6270TIP3    H118816   2.084   0.554   1.816
 6270TIP3    H218817   1.973   0.484   1.739
 6271TIP3   OH218818   2.748   5.157   4.606
 6271TIP3    H118819   2.802   5.191   4.677
 6271TIP3    H218820   2.678   5.108   4.649
 6272TIP3   OH218821   4.812   2.676   3.808
 6272TIP3    H118822   4.907   2.667   3.811
 6272TIP3    H218823   4.797   2.745   3.744
 6273TIP3   OH218824   0.296   3.577   0.563
 6273TIP3    H118825   0.232   3.641   0.531
 6273TIP3    H218826   0.345   3.550   0.485
 6274TIP3   OH218827   0.402   3.758   1.459
 6274TIP3    H118828   0.419   3.841   1.503
 6274TIP3    H218829   0.408   3.692   1.527
 6275TIP3   OH218830   1.389   4.759   4.461
 6275TIP3    H118831   1.464   4.818   4.457
 6275TIP3    H218832   1.427   4.672   4.478
 6276TIP3   OH218833   0.243   3.743   4.177
 6276TIP3    H118834   0.299   3.793   4.117
 6276TIP3    H218835   0.302   3.715   4.247
 6277TIP3   OH218836   6.058   5.203   4.944
 6277TIP3    H118837   6.066   5.254   4.863
 6277TIP3    H218838   6.016   5.263   5.006
 6278TIP3   OH218839   2.696   0.529   2.571
 6278TIP3    H118840   2.686   0.472   2.647
 6278TIP3    H218841   2.764   0.591   2.596
 6279TIP3   OH218842   5.035   5.277   0.292
 6279TIP3    H118843   5.038   5.249   0.201
 6279TIP3    H218844   5.123   5.310   0.310
 6280TIP3   OH218845   2.030   5.677   3.512
 6280TIP3    H118846   1.970   5.703   3.442
 6280TIP3    H218847   2.085   5.610   3.472
 6281TIP3   OH218848   4.883   2.102   4.014
 6281TIP3    H118849   4.830   2.180   4.006
 6281TIP3    H218850   4.868   2.054   3.932
 6282TIP3   OH218851   5.671   2.325   1.346
 6282TIP3    H118852   5.691   2.277   1.265
 6282TIP3    H218853   5.586   2.291   1.374
 6283TIP3   OH218854   3.377   2.865   1.476
 6283TIP3    H118855   3.442   2.920   1.433
 6283TIP3    H218856   3.303   2.924   1.492
 6284TIP3   OH218857   4.488   2.434   4.453
 6284TIP3    H118858   4.479   2.342   4.475
 6284TIP3    H218859   4.582   2.451   4.458
 6285TIP3   OH218860   3.152   1.963   1.554
 6285TIP3    H118861   3.141   1.944   1.647
 6285TIP3    H218862   3.081   2.024   1.533
 6286TIP3   OH218863   4.687   3.623   1.285
 6286TIP3    H118864   4.776   3.617   1.319
 6286TIP3    H218865   4.685   3.707   1.238
 6287TIP3   OH218866   5.841   5.240   1.538
 6287TIP3    H118867   5.826   5.177   1.467
 6287TIP3    H218868   5.926   5.280   1.517
 6288TIP3   OH218869   1.136   2.558   1.453
 6288TIP3    H118870   1.148   2.609   1.372
 6288TIP3    H218871   1.159   2.469   1.429
 6289TIP3   OH218872   2.488   4.471   3.093
 6289TIP3    H118873   2.569   4.522   3.098
 6289TIP3    H218874   2.486   4.437   3.004
 6290TIP3   OH218875   2.032   4.827   1.363
 6290TIP3    H118876   1.982   4.898   1.404
 6290TIP3    H218877   1.996   4.747   1.402
 6291TIP3   OH218878   0.958   3.282   4.991
 6291TIP3    H118879   0.938   3.374   5.010
 6291TIP3    H218880   1.017   3.256   5.063
 6292TIP3   OH218881   2.303   0.949   1.507
 6292TIP3    H118882   2.387   0.969   1.547
 6292TIP3    H218883   2.243   1.016   1.541
 6293TIP3   OH218884   2.122   3.663   4.549
 6293TIP3    H118885   2.081   3.691   4.467
 6293TIP3    H218886   2.200   3.614   4.522
 6294TIP3   OH218887   5.435   0.073   4.013
 6294TIP3    H118888   5.504   0.139   4.014
 6294TIP3    H218889   5.399   0.077   3.925
 6295TIP3   OH218890   3.941   1.068   4.437
 6295TIP3    H118891   3.876   1.137   4.421
 6295TIP3    H218892   3.895   1.005   4.492
 6296TIP3   OH218893   6.053   0.765   3.564
 6296TIP3    H118894   6.007   0.837   3.606
 6296TIP3    H218895   6.112   0.808   3.501
 6297TIP3   OH218896   4.661   3.063   2.127
 6297TIP3    H118897   4.604   3.133   2.094
 6297TIP3    H218898   4.662   2.999   2.056
 6298TIP3   OH218899   0.956   3.807   3.014
 6298TIP3    H118900   0.964   3.834   2.922
 6298TIP3    H218901   0.957   3.889   3.063
 6299TIP3   OH218902   3.976   1.795   0.497
 6299TIP3    H118903   4.032   1.718   0.507
 6299TIP3    H218904   3.951   1.794   0.404
 6300TIP3   OH218905   4.621   4.333   4.484
 6300TIP3    H118906   4.680   4.364   4.415
 6300TIP3    H218907   4.615   4.238   4.469
 6301TIP3   OH218908   4.517   4.001   1.452
 6301TIP3    H118909   4.463   4.014   1.529
 6301TIP3    H218910   4.606   4.024   1.481
 6302TIP3   OH218911   2.765   2.258   0.480
 6302TIP3    H118912   2.856   2.256   0.510
 6302TIP3    H218913   2.761   2.334   0.422
 6303TIP3   OH218914   2.590  -0.054   2.871
 6303TIP3    H118915   2.663  -0.034   2.814
 6303TIP3    H218916   2.523   0.011   2.848
 6304TIP3   OH218917   5.685   5.560   2.938
 6304TIP3    H118918   5.747   5.529   2.871
 6304TIP3    H218919   5.657   5.480   2.984
 6305TIP3   OH218920   5.646   1.149   3.288
 6305TIP3    H118921   5.557   1.145   3.323
 6305TIP3    H218922   5.635   1.163   3.194
 6306TIP3   OH218923   5.825   4.127   2.481
 6306TIP3    H118924   5.888   4.066   2.518
 6306TIP3    H218925   5.754   4.130   2.545
 6307TIP3   OH218926   1.571   4.038   2.632
 6307TIP3    H118927   1.499   3.975   2.628
 6307TIP3    H218928   1.531   4.118   2.666
 6308TIP3   OH218929   2.062   4.799   0.908
 6308TIP3    H118930   2.149   4.824   0.938
 6308TIP3    H218931   2.009   4.877   0.919
 6309TIP3   OH218932   4.771   0.169   3.109
 6309TIP3    H118933   4.789   0.094   3.166
 6309TIP3    H218934   4.679   0.190   3.124
 6310TIP3   OH218935   1.730   3.095   0.017
 6310TIP3    H118936   1.825   3.098   0.001
 6310TIP3    H218937   1.692   3.129  -0.064
 6311TIP3   OH218938   2.387   5.483   0.995
 6311TIP3    H118939   2.310   5.535   0.971
 6311TIP3    H218940   2.457   5.548   1.008
 6312TIP3   OH218941   1.801   3.938   4.682
 6312TIP3    H118942   1.838   3.876   4.746
 6312TIP3    H218943   1.875   3.995   4.660
 6313TIP3   OH218944   3.770   0.138   3.424
 6313TIP3    H118945   3.688   0.166   3.384
 6313TIP3    H218946   3.752   0.139   3.518
 6314TIP3   OH218947   3.392   1.793   3.558
 6314TIP3    H118948   3.325   1.857   3.532
 6314TIP3    H218949   3.464   1.847   3.591
 6315TIP3   OH218950   4.614   2.933   3.358
 6315TIP3    H118951   4.567   2.949   3.276
 6315TIP3    H218952   4.614   3.017   3.402
 6316TIP3   OH218953   3.547   1.892   4.027
 6316TIP3    H118954   3.632   1.904   3.985
 6316TIP3    H218955   3.557   1.933   4.113
 6317TIP3   OH218956   5.323   0.272   3.665
 6317TIP3    H118957   5.392   0.338   3.671
 6317TIP3    H218958   5.370   0.189   3.669
 6318TIP3   OH218959   1.773   5.629   2.869
 6318TIP3    H118960   1.755   5.699   2.932
 6318TIP3    H218961   1.697   5.629   2.810
 6319TIP3   OH218962   5.923   1.191   3.308
 6319TIP3    H118963   5.828   1.177   3.303
 6319TIP3    H218964   5.946   1.170   3.398
 6320TIP3   OH218965   4.273   4.945   2.008
 6320TIP3    H118966   4.237   4.901   1.932
 6320TIP3    H218967   4.353   4.988   1.976
 6321TIP3   OH218968   2.776   3.059   0.623
 6321TIP3    H118969   2.709   2.996   0.595
 6321TIP3    H218970   2.851   3.040   0.567
 6322TIP3   OH218971   3.383   5.056   1.324
 6322TIP3    H118972   3.436   5.005   1.386
 6322TIP3    H218973   3.306   5.001   1.309
 6323TIP3   OH218974   1.022   5.662   1.289
 6323TIP3    H118975   1.099   5.609   1.311
 6323TIP3    H218976   0.967   5.604   1.237
 6324TIP3   OH218977   2.147   4.274   2.005
 6324TIP3    H118978   2.053   4.268   1.993
 6324TIP3    H218979   2.165   4.218   2.081
 6325TIP3   OH218980   5.833   0.471   4.751
 6325TIP3    H118981   5.866   0.405   4.812
 6325TIP3    H218982   5.741   0.449   4.739
 6326TIP3   OH218983   1.116   0.005   4.290
 6326TIP3    H118984   1.065  -0.063   4.248
 6326TIP3    H218985   1.055   0.077   4.303
 6327TIP3   OH218986   0.507   4.367   4.571
 6327TIP3    H118987   0.470   4.279   4.568
 6327TIP3    H218988   0.570   4.369   4.499
 6328TIP3   OH218989   6.212   3.354   1.018
 6328TIP3    H118990   6.155   3.372   0.943
 6328TIP3    H218991   6.170   3.398   1.092
 6329TIP3   OH218992   5.192   2.438   3.578
 6329TIP3    H118993   5.156   2.517   3.619
 6329TIP3    H218994   5.171   2.448   3.485
 6330TIP3   OH218995   1.510   0.746   0.103
 6330TIP3    H118996   1.461   0.800   0.166
 6330TIP3    H218997   1.473   0.768   0.018
 6331TIP3   OH218998   6.029   1.196   4.621
 6331TIP3    H118999   6.055   1.238   4.539
 6331TIP3    H219000   6.057   1.105   4.611
 6332TIP3   OH219001   0.996   0.532   0.823
 6332TIP3    H119002   0.987   0.526   0.727
 6332TIP3    H219003   1.043   0.452   0.847
 6333TIP3   OH219004   2.661   2.019   0.535
 6333TIP3    H119005   2.693   2.108   0.520
 6333TIP3    H219006   2.634   1.988   0.449
 6334TIP3   OH219007   0.370   1.157   1.308
 6334TIP3    H119008   0.301   1.148   1.242
 6334TIP3    H219009   0.440   1.100   1.278
 6335TIP3   OH219010   5.692   2.283   0.406
 6335TIP3    H119011   5.642   2.346   0.459
 6335TIP3    H219012   5.634   2.262   0.333
 6336TIP3   OH219013   5.237   1.994   2.495
 6336TIP3    H119014   5.260   1.965   2.406
 6336TIP3    H219015   5.266   1.923   2.552
 6337TIP3   OH219016   5.917   3.318   3.170
 6337TIP3    H119017   5.939   3.405   3.137
 6337TIP3    H219018   5.964   3.311   3.253
 6338TIP3   OH219019   0.317   1.626   0.592
 6338TIP3    H119020   0.349   1.625   0.502
 6338TIP3    H219021   0.280   1.539   0.605
 6339TIP3   OH219022   5.678   3.194   4.637
 6339TIP3    H119023   5.584   3.175   4.631
 6339TIP3    H219024   5.701   3.170   4.726
 6340TIP3   OH219025   5.247   0.184   3.260
 6340TIP3    H119026   5.225   0.181   3.353
 6340TIP3    H219027   5.196   0.113   3.222
 6341TIP3   OH219028   4.555   4.743   0.584
 6341TIP3    H119029   4.496   4.685   0.537
 6341TIP3    H219030   4.643   4.707   0.570
 6342TIP3   OH219031   4.272   2.451   4.135
 6342TIP3    H119032   4.242   2.518   4.197
 6342TIP3    H219033   4.293   2.376   4.190
 6343TIP3   OH219034   4.766   2.337   3.896
 6343TIP3    H119035   4.817   2.374   3.824
 6343TIP3    H219036   4.688   2.301   3.854
 6344TIP3   OH219037   1.230   2.583   0.844
 6344TIP3    H119038   1.168   2.623   0.905
 6344TIP3    H219039   1.271   2.513   0.895
 6345TIP3   OH219040   2.264   3.840   1.022
 6345TIP3    H119041   2.345   3.793   1.042
 6345TIP3    H219042   2.205   3.773   0.987
 6346TIP3   OH219043   4.353   3.537   1.547
 6346TIP3    H119044   4.424   3.599   1.565
 6346TIP3    H219045   4.275   3.592   1.539
 6347TIP3   OH219046   3.392   1.998   0.508
 6347TIP3    H119047   3.326   2.021   0.574
 6347TIP3    H219048   3.425   1.913   0.535
 6348TIP3   OH219049   2.014   1.624   0.325
 6348TIP3    H119050   2.027   1.544   0.274
 6348TIP3    H219051   2.032   1.598   0.415
 6349TIP3   OH219052   1.064   0.809   4.502
 6349TIP3    H119053   1.131   0.853   4.451
 6349TIP3    H219054   0.984   0.859   4.487
 6350TIP3   OH219055   3.716   5.682   3.164
 6350TIP3    H119056   3.791   5.672   3.106
 6350TIP3    H219057   3.640   5.677   3.106
 6351TIP3   OH219058   1.572   5.347   1.341
 6351TIP3    H119059   1.489   5.342   1.295
 6351TIP3    H219060   1.613   5.261   1.327
 6352TIP3   OH219061   1.098   1.093   1.628
 6352TIP3    H119062   1.187   1.094   1.666
 6352TIP3    H219063   1.104   1.146   1.549
 6353TIP3   OH219064   1.876   4.043   2.292
 6353TIP3    H119065   1.817   4.039   2.218
 6353TIP3    H219066   1.960   4.011   2.258
 6354TIP3   OH219067   4.217   0.320   3.695
 6354TIP3    H119068   4.184   0.266   3.768
 6354TIP3    H219069   4.311   0.328   3.712
 6355TIP3   OH219070   4.842   1.901   0.572
 6355TIP3    H119071   4.774   1.969   0.576
 6355TIP3    H219072   4.888   1.910   0.655
 6356TIP3   OH219073   0.713   1.006   0.698
 6356TIP3    H119074   0.703   0.979   0.606
 6356TIP3    H219075   0.781   1.074   0.695
 6357TIP3   OH219076   3.382   1.620   0.400
 6357TIP3    H119077   3.336   1.700   0.376
 6357TIP3    H219078   3.397   1.628   0.494
 6358TIP3   OH219079   3.197   1.473   0.058
 6358TIP3    H119080   3.147   1.392   0.070
 6358TIP3    H219081   3.266   1.469   0.125
 6359TIP3   OH219082   0.543   3.228   3.034
 6359TIP3    H119083   0.532   3.296   3.100
 6359TIP3    H219084   0.631   3.194   3.049
 6360TIP3   OH219085   4.778   2.631   1.639
 6360TIP3    H119086   4.732   2.555   1.603
 6360TIP3    H219087   4.723   2.662   1.710
 6361TIP3   OH219088   3.433   5.089   0.944
 6361TIP3    H119089   3.362   5.028   0.927
 6361TIP3    H219090   3.390   5.169   0.973
 6362TIP3   OH219091   0.498   1.390   0.214
 6362TIP3    H119092   0.506   1.378   0.119
 6362TIP3    H219093   0.587   1.382   0.247
 6363TIP3   OH219094   4.423   4.576   3.195
 6363TIP3    H119095   4.380   4.491   3.190
 6363TIP3    H219096   4.360   4.636   3.155
 6364TIP3   OH219097   5.035   0.548   4.123
 6364TIP3    H119098   4.998   0.553   4.212
 6364TIP3    H219099   4.966   0.584   4.067
 6365TIP3   OH219100   3.125   4.010   4.745
 6365TIP3    H119101   3.033   3.985   4.741
 6365TIP3    H219102   3.153   4.013   4.653
 6366TIP3   OH219103   1.883   2.389   0.827
 6366TIP3    H119104   1.811   2.330   0.802
 6366TIP3    H219105   1.952   2.370   0.764
 6367TIP3   OH219106   3.906   0.026   2.316
 6367TIP3    H119107   3.861  -0.032   2.376
 6367TIP3    H219108   3.899   0.113   2.356
 6368TIP3   OH219109   5.877   3.778   5.117
 6368TIP3    H119110   5.968   3.789   5.144
 6368TIP3    H219111   5.859   3.684   5.129
 6369TIP3   OH219112   4.449   0.247   3.847
 6369TIP3    H119113   4.410   0.159   3.845
 6369TIP3    H219114   4.434   0.277   3.937
 6370TIP3   OH219115   4.937   0.885   4.045
 6370TIP3    H119116   4.858   0.832   4.034
 6370TIP3    H219117   4.926   0.958   3.984
 6371TIP3   OH219118   3.803   3.403   0.603
 6371TIP3    H119119   3.745   3.327   0.603
 6371TIP3    H219120   3.824   3.417   0.695
 6372TIP3   OH219121   6.335   2.427   1.619
 6372TIP3    H119122   6.337   2.353   1.558
 6372TIP3    H219123   6.302   2.500   1.566
 6373TIP3   OH219124   3.574   1.302   0.570
 6373TIP3    H119125   3.662   1.295   0.533
 6373TIP3    H219126   3.525   1.231   0.530
 6374TIP3   OH219127   1.257   1.017   4.814
 6374TIP3    H119128   1.289   1.077   4.747
 6374TIP3    H219129   1.176   1.058   4.846
 6375TIP3   OH219130   0.418   3.051   4.436
 6375TIP3    H119131   0.458   2.992   4.372
 6375TIP3    H219132   0.447   3.138   4.411
 6376TIP3   OH219133   5.397   3.523   1.171
 6376TIP3    H119134   5.332   3.591   1.187
 6376TIP3    H219135   5.410   3.525   1.076
 6377TIP3   OH219136   6.198   2.675   2.254
 6377TIP3    H119137   6.185   2.731   2.330
 6377TIP3    H219138   6.180   2.731   2.179
 6378TIP3   OH219139   1.309   3.648   4.383
 6378TIP3    H119140   1.276   3.691   4.304
 6378TIP3    H219141   1.264   3.692   4.455
 6379TIP3   OH219142   4.742   0.654   1.017
 6379TIP3    H119143   4.705   0.568   0.998
 6379TIP3    H219144   4.742   0.699   0.933
 6380TIP3   OH219145   2.546   0.634   2.092
 6380TIP3    H119146   2.594   0.581   2.029
 6380TIP3    H219147   2.600   0.713   2.103
 6381TIP3   OH219148   0.914   5.399   1.273
 6381TIP3    H119149   0.823   5.371   1.282
 6381TIP3    H219150   0.959   5.356   1.346
 6382TIP3   OH219151   0.842   1.692   1.029
 6382TIP3    H119152   0.835   1.647   0.944
 6382TIP3    H219153   0.776   1.648   1.084
 6383TIP3   OH219154   1.287   5.017   3.532
 6383TIP3    H119155   1.285   5.104   3.492
 6383TIP3    H219156   1.215   5.017   3.594
 6384TIP3   OH219157   1.161   2.812   2.344
 6384TIP3    H119158   1.093   2.803   2.277
 6384TIP3    H219159   1.184   2.723   2.368
 6385TIP3   OH219160   4.028   1.796   4.286
 6385TIP3    H119161   4.102   1.775   4.230
 6385TIP3    H219162   3.996   1.879   4.253
 6386TIP3   OH219163   5.356   2.791   3.319
 6386TIP3    H119164   5.289   2.857   3.306
 6386TIP3    H219165   5.401   2.817   3.398
 6387TIP3   OH219166   4.393   1.729   0.574
 6387TIP3    H119167   4.318   1.678   0.543
 6387TIP3    H219168   4.465   1.703   0.518
 6388TIP3   OH219169   4.103   0.907   3.921
 6388TIP3    H119170   4.061   0.917   4.006
 6388TIP3    H219171   4.115   0.996   3.889
 6389TIP3   OH219172   5.722   0.351   2.663
 6389TIP3    H119173   5.794   0.301   2.625
 6389TIP3    H219174   5.712   0.426   2.603
 6390TIP3   OH219175   1.456   4.465   2.036
 6390TIP3    H119176   1.420   4.379   2.059
 6390TIP3    H219177   1.525   4.446   1.973
 6391TIP3   OH219178   2.312   2.046   0.568
 6391TIP3    H119179   2.384   1.983   0.564
 6391TIP3    H219180   2.243   2.006   0.515
 6392TIP3   OH219181   3.548   3.006   1.320
 6392TIP3    H119182   3.567   3.062   1.245
 6392TIP3    H219183   3.544   2.917   1.283
 6393TIP3   OH219184   0.351   4.639   4.177
 6393TIP3    H119185   0.354   4.578   4.251
 6393TIP3    H219186   0.371   4.585   4.101
 6394TIP3   OH219187   3.267   0.962   2.268
 6394TIP3    H119188   3.315   0.937   2.348
 6394TIP3    H219189   3.197   0.898   2.260
 6395TIP3   OH219190   3.699   5.484   3.351
 6395TIP3    H119191   3.736   5.552   3.295
 6395TIP3    H219192   3.679   5.528   3.434
 6396TIP3   OH219193   0.176   1.026   2.131
 6396TIP3    H119194   0.177   1.116   2.164
 6396TIP3    H219195   0.268   1.006   2.112
 6397TIP3   OH219196   3.228   1.187   3.992
 6397TIP3    H119197   3.206   1.264   3.940
 6397TIP3    H219198   3.224   1.114   3.930
 6398TIP3   OH219199   1.126   0.372   4.216
 6398TIP3    H119200   1.103   0.465   4.208
 6398TIP3    H219201   1.174   0.352   4.136
 6399TIP3   OH219202   0.424   0.652   0.609
 6399TIP3    H119203   0.423   0.624   0.517
 6399TIP3    H219204   0.517   0.658   0.631
 6400TIP3   OH219205   5.161   2.241   4.992
 6400TIP3    H119206   5.167   2.157   4.945
 6400TIP3    H219207   5.203   2.304   4.934
 6401TIP3   OH219208   6.334   1.607   3.101
 6401TIP3    H119209   6.416   1.571   3.132
 6401TIP3    H219210   6.269   1.540   3.121
 6402TIP3   OH219211   4.610   5.664   3.375
 6402TIP3    H119212   4.617   5.583   3.426
 6402TIP3    H219213   4.517   5.687   3.380
 6403TIP3   OH219214   5.382   0.726   0.411
 6403TIP3    H119215   5.375   0.721   0.506
 6403TIP3    H219216   5.387   0.635   0.382
 6404TIP3   OH219217   2.942   3.582   0.415
 6404TIP3    H119218   2.976   3.631   0.490
 6404TIP3    H219219   2.866   3.632   0.387
 6405TIP3   OH219220   1.559   0.379   0.514
 6405TIP3    H119221   1.491   0.438   0.546
 6405TIP3    H219222   1.577   0.409   0.425
 6406TIP3   OH219223   2.759   2.629   3.102
 6406TIP3    H119224   2.668   2.612   3.075
 6406TIP3    H219225   2.754   2.709   3.154
 6407TIP3   OH219226   0.328   5.387   0.677
 6407TIP3    H119227   0.322   5.441   0.599
 6407TIP3    H219228   0.417   5.351   0.673
 6408TIP3   OH219229   3.484   3.746   0.075
 6408TIP3    H119230   3.451   3.764  -0.013
 6408TIP3    H219231   3.406   3.747   0.131
 6409TIP3   OH219232   0.537   2.643   1.033
 6409TIP3    H119233   0.478   2.568   1.034
 6409TIP3    H219234   0.479   2.719   1.023
 6410TIP3   OH219235   4.320   5.960   4.092
 6410TIP3    H119236   4.355   5.986   4.007
 6410TIP3    H219237   4.231   5.931   4.074
 6411TIP3   OH219238   3.682   1.402   3.983
 6411TIP3    H119239   3.738   1.389   3.906
 6411TIP3    H219240   3.740   1.383   4.058
 6412TIP3   OH219241   4.403   2.207   5.005
 6412TIP3    H119242   4.464   2.272   5.039
 6412TIP3    H219243   4.401   2.223   4.910
 6413TIP3   OH219244   4.330   2.196   1.924
 6413TIP3    H119245   4.302   2.109   1.951
 6413TIP3    H219246   4.279   2.255   1.980
 6414TIP3   OH219247   1.203   1.312   0.687
 6414TIP3    H119248   1.242   1.252   0.751
 6414TIP3    H219249   1.243   1.396   0.705
 6415TIP3   OH219250   1.609   2.549   4.694
 6415TIP3    H119251   1.686   2.560   4.638
 6415TIP3    H219252   1.575   2.463   4.671
 6416TIP3   OH219253   0.448   3.417   2.141
 6416TIP3    H119254   0.453   3.326   2.113
 6416TIP3    H219255   0.412   3.413   2.229
 6417TIP3   OH219256   0.631   0.039   1.861
 6417TIP3    H119257   0.575   0.111   1.891
 6417TIP3    H219258   0.701   0.035   1.927
 6418TIP3   OH219259   3.896   2.645   2.789
 6418TIP3    H119260   3.984   2.612   2.809
 6418TIP3    H219261   3.848   2.637   2.872
 6419TIP3   OH219262   0.828   2.952   4.772
 6419TIP3    H119263   0.865   3.038   4.751
 6419TIP3    H219264   0.764   2.970   4.841
 6420TIP3   OH219265   1.655   5.115   0.634
 6420TIP3    H119266   1.675   5.074   0.718
 6420TIP3    H219267   1.688   5.053   0.569
 6421TIP3   OH219268   1.299   4.003   3.842
 6421TIP3    H119269   1.278   4.067   3.910
 6421TIP3    H219270   1.385   4.031   3.809
 6422TIP3   OH219271   5.244   2.624   4.133
 6422TIP3    H119272   5.284   2.711   4.137
 6422TIP3    H219273   5.293   2.579   4.065
 6423TIP3   OH219274   3.363   3.490   2.970
 6423TIP3    H119275   3.374   3.462   2.879
 6423TIP3    H219276   3.274   3.524   2.974
 6424TIP3   OH219277   5.624   4.861   2.174
 6424TIP3    H119278   5.701   4.905   2.137
 6424TIP3    H219279   5.556   4.929   2.175
 6425TIP3   OH219280   5.721   2.396   3.381
 6425TIP3    H119281   5.742   2.462   3.447
 6425TIP3    H219282   5.678   2.326   3.430
 6426TIP3   OH219283   2.897   3.579   3.294
 6426TIP3    H119284   2.878   3.661   3.340
 6426TIP3    H219285   2.874   3.596   3.203
 6427TIP3   OH219286   1.060   0.431   5.196
 6427TIP3    H119287   1.047   0.342   5.227
 6427TIP3    H219288   1.103   0.421   5.111
 6428TIP3   OH219289   0.553   4.994   3.492
 6428TIP3    H119290   0.509   4.913   3.464
 6428TIP3    H219291   0.496   5.064   3.463
 6429TIP3   OH219292   2.863   0.687   3.172
 6429TIP3    H119293   2.827   0.628   3.239
 6429TIP3    H219294   2.885   0.629   3.099
 6430TIP3   OH219295   4.786   0.128   4.974
 6430TIP3    H119296   4.865   0.165   4.934
 6430TIP3    H219297   4.814   0.042   5.007
 6431TIP3   OH219298   0.599   5.340   0.583
 6431TIP3    H119299   0.621   5.384   0.501
 6431TIP3    H219300   0.682   5.328   0.628
 6432TIP3   OH219301   2.772   4.358   1.517
 6432TIP3    H119302   2.786   4.445   1.554
 6432TIP3    H219303   2.699   4.368   1.457
 6433TIP3   OH219304   5.774   1.837   4.789
 6433TIP3    H119305   5.702   1.883   4.832
 6433TIP3    H219306   5.826   1.801   4.861
 6434TIP3   OH219307   2.177   2.479   4.119
 6434TIP3    H119308   2.152   2.552   4.062
 6434TIP3    H219309   2.247   2.435   4.072
 6435TIP3   OH219310   5.236   2.413   0.583
 6435TIP3    H119311   5.244   2.322   0.610
 6435TIP3    H219312   5.189   2.410   0.500
 6436TIP3   OH219313   0.300   3.547   2.921
 6436TIP3    H119314   0.251   3.490   2.862
 6436TIP3    H219315   0.308   3.496   3.002
 6437TIP3   OH219316   1.362   5.613   2.258
 6437TIP3    H119317   1.406   5.696   2.279
 6437TIP3    H219318   1.326   5.626   2.171
 6438TIP3   OH219319   3.164   1.535   1.393
 6438TIP3    H119320   3.245   1.584   1.408
 6438TIP3    H219321   3.187   1.469   1.328
 6439TIP3   OH219322   5.887   5.223   1.131
 6439TIP3    H119323   5.860   5.191   1.045
 6439TIP3    H219324   5.943   5.153   1.166
 6440TIP3   OH219325   4.343   1.629   3.304
 6440TIP3    H119326   4.376   1.658   3.219
 6440TIP3    H219327   4.325   1.536   3.292
 6441TIP3   OH219328   3.382   4.347   5.064
 6441TIP3    H119329   3.360   4.292   4.989
 6441TIP3    H219330   3.456   4.302   5.105
 6442TIP3   OH219331   0.560   3.412   4.958
 6442TIP3    H119332   0.637   3.450   4.916
 6442TIP3    H219333   0.595   3.352   5.023
 6443TIP3   OH219334   2.835   2.731   1.178
 6443TIP3    H119335   2.810   2.820   1.203
 6443TIP3    H219336   2.914   2.743   1.124
 6444TIP3   OH219337   2.851   5.161   2.213
 6444TIP3    H119338   2.825   5.230   2.275
 6444TIP3    H219339   2.790   5.170   2.140
 6445TIP3   OH219340   5.164   0.589   4.929
 6445TIP3    H119341   5.121   0.556   4.850
 6445TIP3    H219342   5.217   0.662   4.898
 6446TIP3   OH219343   3.013   4.116   3.562
 6446TIP3    H119344   2.922   4.100   3.535
 6446TIP3    H219345   3.036   4.199   3.520
 6447TIP3   OH219346   1.335   5.297   1.199
 6447TIP3    H119347   1.313   5.209   1.228
 6447TIP3    H219348   1.296   5.304   1.111
 6448TIP3   OH219349   5.746   0.925   4.542
 6448TIP3    H119350   5.754   0.851   4.603
 6448TIP3    H219351   5.673   0.901   4.485
 6449TIP3   OH219352   5.841   3.475   2.800
 6449TIP3    H119353   5.783   3.497   2.873
 6449TIP3    H219354   5.928   3.470   2.839
 6450TIP3   OH219355   3.615   1.897   0.847
 6450TIP3    H119356   3.608   1.986   0.883
 6450TIP3    H219357   3.692   1.901   0.790
 6451TIP3   OH219358   1.408   3.660   3.690
 6451TIP3    H119359   1.461   3.706   3.625
 6451TIP3    H219360   1.389   3.575   3.651
 6452TIP3   OH219361   2.138   1.755   3.691
 6452TIP3    H119362   2.213   1.808   3.661
 6452TIP3    H219363   2.061   1.804   3.661
 6453TIP3   OH219364   4.681   5.417   0.085
 6453TIP3    H119365   4.637   5.391   0.004
 6453TIP3    H219366   4.688   5.336   0.136
 6454TIP3   OH219367   1.322   0.675   1.711
 6454TIP3    H119368   1.235   0.704   1.685
 6454TIP3    H219369   1.365   0.652   1.628
 6455TIP3   OH219370   6.196   3.301   1.304
 6455TIP3    H119371   6.253   3.379   1.307
 6455TIP3    H219372   6.224   3.248   1.378
 6456TIP3   OH219373   5.386   1.557   4.505
 6456TIP3    H119374   5.305   1.565   4.455
 6456TIP3    H219375   5.362   1.504   4.581
 6457TIP3   OH219376   5.397   3.256   3.019
 6457TIP3    H119377   5.375   3.349   3.012
 6457TIP3    H219378   5.492   3.254   3.021
 6458TIP3   OH219379   2.718   1.000   0.408
 6458TIP3    H119380   2.734   0.910   0.379
 6458TIP3    H219381   2.624   1.014   0.396
 6459TIP3   OH219382   4.039   5.417   0.020
 6459TIP3    H119383   3.950   5.446   0.042
 6459TIP3    H219384   4.044   5.424  -0.075
 6460TIP3   OH219385   4.554   1.155   4.140
 6460TIP3    H119386   4.466   1.190   4.122
 6460TIP3    H219387   4.575   1.103   4.063
 6461TIP3   OH219388   2.071   4.534   1.921
 6461TIP3    H119389   2.119   4.456   1.949
 6461TIP3    H219390   2.098   4.602   1.983
 6462TIP3   OH219391   4.201   5.441   4.673
 6462TIP3    H119392   4.236   5.388   4.745
 6462TIP3    H219393   4.222   5.531   4.697
 6463TIP3   OH219394   5.703   4.868   2.512
 6463TIP3    H119395   5.732   4.828   2.594
 6463TIP3    H219396   5.726   4.804   2.445
 6464TIP3   OH219397   0.238   5.954   2.534
 6464TIP3    H119398   0.320   5.979   2.493
 6464TIP3    H219399   0.257   5.873   2.580
 6465TIP3   OH219400   2.549   0.993   3.189
 6465TIP3    H119401   2.466   0.953   3.161
 6465TIP3    H219402   2.614   0.957   3.128
 6466TIP3   OH219403   1.024   4.090   2.120
 6466TIP3    H119404   1.013   4.165   2.062
 6466TIP3    H219405   0.973   4.020   2.078
 6467TIP3   OH219406   0.475   4.793   0.280
 6467TIP3    H119407   0.528   4.859   0.235
 6467TIP3    H219408   0.392   4.838   0.298
 6468TIP3   OH219409   3.756   1.856   2.285
 6468TIP3    H119410   3.813   1.912   2.337
 6468TIP3    H219411   3.724   1.913   2.215
 6469TIP3   OH219412   2.827   1.902   0.947
 6469TIP3    H119413   2.856   1.951   1.024
 6469TIP3    H219414   2.813   1.969   0.880
 6470TIP3   OH219415   1.711   5.169   4.950
 6470TIP3    H119416   1.637   5.123   4.910
 6470TIP3    H219417   1.671   5.240   5.001
 6471TIP3   OH219418   2.953   4.364   0.566
 6471TIP3    H119419   2.866   4.404   0.574
 6471TIP3    H219420   3.011   4.423   0.614
 6472TIP3   OH219421   2.918   0.381   0.408
 6472TIP3    H119422   3.011   0.386   0.429
 6472TIP3    H219423   2.877   0.355   0.490
 6473TIP3   OH219424   3.142   1.280   1.738
 6473TIP3    H119425   3.119   1.251   1.650
 6473TIP3    H219426   3.229   1.319   1.728
 6474TIP3   OH219427   0.634   0.401   2.965
 6474TIP3    H119428   0.726   0.375   2.973
 6474TIP3    H219429   0.586   0.332   3.011
 6475TIP3   OH219430   2.412   0.752   3.285
 6475TIP3    H119431   2.482   0.794   3.336
 6475TIP3    H219432   2.333   0.801   3.309
 6476TIP3   OH219433   0.576   1.926   3.105
 6476TIP3    H119434   0.661   1.955   3.071
 6476TIP3    H219435   0.592   1.911   3.198
 6477TIP3   OH219436   5.944   2.371   2.419
 6477TIP3    H119437   5.977   2.332   2.338
 6477TIP3    H219438   5.943   2.298   2.481
 6478TIP3   OH219439   2.397   3.720   2.202
 6478TIP3    H119440   2.405   3.814   2.185
 6478TIP3    H219441   2.304   3.707   2.221
 6479TIP3   OH219442   1.035   4.120   1.094
 6479TIP3    H119443   1.010   4.121   1.002
 6479TIP3    H219444   1.002   4.203   1.129
 6480TIP3   OH219445   4.127   3.597   2.687
 6480TIP3    H119446   4.209   3.619   2.730
 6480TIP3    H219447   4.099   3.515   2.727
 6481TIP3   OH219448   3.224   4.920   3.031
 6481TIP3    H119449   3.238   4.915   2.936
 6481TIP3    H219450   3.305   4.886   3.069
 6482TIP3   OH219451   1.548   3.620   2.763
 6482TIP3    H119452   1.612   3.651   2.699
 6482TIP3    H219453   1.599   3.569   2.826
 6483TIP3   OH219454   4.665   1.733   4.792
 6483TIP3    H119455   4.683   1.818   4.832
 6483TIP3    H219456   4.573   1.738   4.765
 6484TIP3   OH219457   6.263   3.081   4.742
 6484TIP3    H119458   6.313   3.081   4.660
 6484TIP3    H219459   6.244   2.988   4.758
 6485TIP3   OH219460   0.805   0.461   3.877
 6485TIP3    H119461   0.890   0.488   3.843
 6485TIP3    H219462   0.756   0.435   3.799
 6486TIP3   OH219463   1.425   5.479   5.060
 6486TIP3    H119464   1.434   5.538   5.134
 6486TIP3    H219465   1.514   5.447   5.044
 6487TIP3   OH219466   4.363   3.097   2.672
 6487TIP3    H119467   4.405   3.172   2.630
 6487TIP3    H219468   4.380   3.023   2.614
 6488TIP3   OH219469   4.122   2.998   1.073
 6488TIP3    H119470   4.108   2.926   1.134
 6488TIP3    H219471   4.191   3.050   1.114
 6489TIP3   OH219472   3.885   1.704   1.067
 6489TIP3    H119473   3.949   1.682   1.000
 6489TIP3    H219474   3.927   1.680   1.149
 6490TIP3   OH219475   0.576   3.811   1.855
 6490TIP3    H119476   0.579   3.801   1.760
 6490TIP3    H219477   0.667   3.827   1.881
 6491TIP3   OH219478   4.777   1.401   4.186
 6491TIP3    H119479   4.691   1.361   4.173
 6491TIP3    H219480   4.797   1.384   4.278
 6492TIP3   OH219481   0.835   1.544   0.801
 6492TIP3    H119482   0.847   1.539   0.706
 6492TIP3    H219483   0.756   1.493   0.817
 6493TIP3   OH219484   5.347   0.117   0.763
 6493TIP3    H119485   5.370   0.062   0.838
 6493TIP3    H219486   5.390   0.075   0.688
 6494TIP3   OH219487   4.131   4.482   2.615
 6494TIP3    H119488   4.085   4.536   2.550
 6494TIP3    H219489   4.142   4.397   2.572
 6495TIP3   OH219490   0.030   5.347   5.126
 6495TIP3    H119491   0.090   5.421   5.120
 6495TIP3    H219492  -0.049   5.383   5.166
 6496TIP3   OH219493   0.727   1.114   4.063
 6496TIP3    H119494   0.770   1.181   4.009
 6496TIP3    H219495   0.796   1.049   4.079
 6497TIP3   OH219496   5.531   2.113   2.920
 6497TIP3    H119497   5.526   2.121   2.825
 6497TIP3    H219498   5.621   2.139   2.941
 6498TIP3   OH219499   4.105   4.944   2.726
 6498TIP3    H119500   4.180   4.919   2.779
 6498TIP3    H219501   4.138   5.012   2.667
 6499TIP3   OH219502   2.625   1.145   1.843
 6499TIP3    H119503   2.642   1.205   1.915
 6499TIP3    H219504   2.711   1.115   1.815
 6500TIP3   OH219505   5.922   1.731   2.604
 6500TIP3    H119506   5.957   1.790   2.671
 6500TIP3    H219507   5.980   1.656   2.605
 6501TIP3   OH219508   2.743   4.420   3.206
 6501TIP3    H119509   2.707   4.338   3.173
 6501TIP3    H219510   2.687   4.443   3.280
 6502TIP3   OH219511   1.193   4.556   5.005
 6502TIP3    H119512   1.283   4.526   5.017
 6502TIP3    H219513   1.165   4.584   5.092
 6503TIP3   OH219514   1.786   1.479   2.278
 6503TIP3    H119515   1.771   1.395   2.234
 6503TIP3    H219516   1.763   1.463   2.369
 6504TIP3   OH219517   3.466   0.267   2.101
 6504TIP3    H119518   3.550   0.240   2.138
 6504TIP3    H219519   3.489   0.332   2.034
 6505TIP3   OH219520   5.899   2.919   2.825
 6505TIP3    H119521   5.939   2.912   2.738
 6505TIP3    H219522   5.878   3.011   2.835
 6506TIP3   OH219523   3.084   5.866   2.791
 6506TIP3    H119524   3.142   5.826   2.726
 6506TIP3    H219525   3.109   5.958   2.792
 6507TIP3   OH219526   5.716   5.952   3.298
 6507TIP3    H119527   5.774   6.024   3.274
 6507TIP3    H219528   5.683   5.919   3.215
 6508TIP3   OH219529   4.167   0.906   3.433
 6508TIP3    H119530   4.215   0.941   3.508
 6508TIP3    H219531   4.075   0.906   3.460
 6509TIP3   OH219532   0.261   2.692   2.352
 6509TIP3    H119533   0.199   2.639   2.402
 6509TIP3    H219534   0.346   2.652   2.368
 6510TIP3   OH219535   3.233   5.929   1.028
 6510TIP3    H119536   3.267   5.915   1.116
 6510TIP3    H219537   3.183   5.849   1.008
 6511TIP3   OH219538   2.347   3.905   3.620
 6511TIP3    H119539   2.426   3.954   3.642
 6511TIP3    H219540   2.275   3.962   3.649
 6512TIP3   OH219541   1.526   3.742   0.976
 6512TIP3    H119542   1.535   3.837   0.983
 6512TIP3    H219543   1.447   3.721   1.026
 6513TIP3   OH219544   3.148   5.261   1.549
 6513TIP3    H119545   3.067   5.238   1.595
 6513TIP3    H219546   3.193   5.177   1.537
 6514TIP3   OH219547   1.883   5.892   0.543
 6514TIP3    H119548   1.909   5.803   0.565
 6514TIP3    H219549   1.888   5.896   0.448
 6515TIP3   OH219550   3.369   3.831   2.326
 6515TIP3    H119551   3.425   3.905   2.301
 6515TIP3    H219552   3.418   3.753   2.299
 6516TIP3   OH219553   2.561   5.857   4.075
 6516TIP3    H119554   2.523   5.813   3.998
 6516TIP3    H219555   2.486   5.890   4.123
 6517TIP3   OH219556   4.495   0.133   2.769
 6517TIP3    H119557   4.480   0.040   2.755
 6517TIP3    H219558   4.589   0.141   2.782
 6518TIP3   OH219559   1.038   1.148   4.941
 6518TIP3    H119560   0.963   1.130   4.999
 6518TIP3    H219561   1.096   1.203   4.994
 6519TIP3   OH219562   2.833   1.418   4.782
 6519TIP3    H119563   2.880   1.496   4.810
 6519TIP3    H219564   2.901   1.353   4.766
 6520TIP3   OH219565   2.244   1.706   4.521
 6520TIP3    H119566   2.251   1.743   4.433
 6520TIP3    H219567   2.280   1.618   4.513
 6521TIP3   OH219568   2.584   2.546   4.078
 6521TIP3    H119569   2.668   2.556   4.033
 6521TIP3    H219570   2.598   2.585   4.164
 6522TIP3   OH219571   0.114   4.604   3.784
 6522TIP3    H119572   0.133   4.622   3.692
 6522TIP3    H219573   0.147   4.515   3.798
 6523TIP3   OH219574   6.300   1.196   3.392
 6523TIP3    H119575   6.352   1.203   3.472
 6523TIP3    H219576   6.230   1.134   3.414
 6524TIP3   OH219577   3.700   0.814   2.531
 6524TIP3    H119578   3.690   0.902   2.566
 6524TIP3    H219579   3.794   0.800   2.524
 6525TIP3   OH219580   0.923   5.103   1.817
 6525TIP3    H119581   0.889   5.025   1.861
 6525TIP3    H219582   0.846   5.157   1.800
 6526TIP3   OH219583   5.512   1.031   2.334
 6526TIP3    H119584   5.550   1.093   2.271
 6526TIP3    H219585   5.524   1.073   2.419
 6527TIP3   OH219586   0.489   1.040   0.063
 6527TIP3    H119587   0.408   1.018   0.109
 6527TIP3    H219588   0.545   1.078   0.131
 6528TIP3   OH219589   5.553   1.437   4.715
 6528TIP3    H119590   5.641   1.433   4.754
 6528TIP3    H219591   5.558   1.510   4.654
 6529TIP3   OH219592   5.468   2.423   1.759
 6529TIP3    H119593   5.509   2.497   1.803
 6529TIP3    H219594   5.382   2.455   1.732
 6530TIP3   OH219595   1.748   3.521   3.214
 6530TIP3    H119596   1.831   3.496   3.255
 6530TIP3    H219597   1.683   3.513   3.284
 6531TIP3   OH219598   0.028   4.705   0.005
 6531TIP3    H119599   0.069   4.641   0.063
 6531TIP3    H219600   0.101   4.754  -0.033
 6532TIP3   OH219601   1.523   3.625   0.062
 6532TIP3    H119602   1.577   3.549   0.038
 6532TIP3    H219603   1.445   3.616   0.008
 6533TIP3   OH219604   5.123   5.229   2.106
 6533TIP3    H119605   5.092   5.139   2.100
 6533TIP3    H219606   5.132   5.258   2.016
 6534TIP3   OH219607   1.869   4.983   5.089
 6534TIP3    H119608   1.829   5.062   5.052
 6534TIP3    H219609   1.962   4.991   5.066
 6535TIP3   OH219610   1.213   5.313   3.710
 6535TIP3    H119611   1.289   5.268   3.747
 6535TIP3    H219612   1.210   5.285   3.619
 6536TIP3   OH219613   3.423   0.113   4.776
 6536TIP3    H119614   3.482   0.127   4.702
 6536TIP3    H219615   3.424   0.018   4.790
 6537TIP3   OH219616   0.252   2.043   2.139
 6537TIP3    H119617   0.274   1.951   2.121
 6537TIP3    H219618   0.281   2.057   2.230
 6538TIP3   OH219619   0.595   3.091   0.975
 6538TIP3    H119620   0.540   3.166   0.952
 6538TIP3    H219621   0.679   3.109   0.933
 6539TIP3   OH219622   2.641   2.508   2.370
 6539TIP3    H119623   2.701   2.548   2.432
 6539TIP3    H219624   2.556   2.547   2.390
 6540TIP3   OH219625   5.136   0.952   1.552
 6540TIP3    H119626   5.071   1.010   1.590
 6540TIP3    H219627   5.099   0.865   1.560
 6541TIP3   OH219628   4.851   4.518   4.145
 6541TIP3    H119629   4.808   4.582   4.202
 6541TIP3    H219630   4.841   4.554   4.057
 6542TIP3   OH219631   5.662   2.798   2.909
 6542TIP3    H119632   5.739   2.853   2.897
 6542TIP3    H219633   5.588   2.856   2.890
 6543TIP3   OH219634   4.480   2.912   1.126
 6543TIP3    H119635   4.552   2.899   1.187
 6543TIP3    H219636   4.415   2.962   1.175
 6544TIP3   OH219637   0.598   1.725   2.635
 6544TIP3    H119638   0.657   1.736   2.710
 6544TIP3    H219639   0.652   1.682   2.569
 6545TIP3   OH219640   3.613   5.021   1.785
 6545TIP3    H119641   3.662   5.068   1.718
 6545TIP3    H219642   3.649   4.933   1.784
 6546TIP3   OH219643   4.584   4.028   4.700
 6546TIP3    H119644   4.590   4.075   4.616
 6546TIP3    H219645   4.675   4.006   4.721
 6547TIP3   OH219646   1.113   2.731   1.244
 6547TIP3    H119647   1.045   2.690   1.192
 6547TIP3    H219648   1.093   2.825   1.241
 6548TIP3   OH219649   1.640   1.522   0.102
 6548TIP3    H119650   1.699   1.559   0.036
 6548TIP3    H219651   1.632   1.430   0.078
 6549TIP3   OH219652   4.501   5.090   1.913
 6549TIP3    H119653   4.463   5.178   1.918
 6549TIP3    H219654   4.515   5.076   1.819
 6550TIP3   OH219655   3.234   3.584   3.428
 6550TIP3    H119656   3.283   3.503   3.446
 6550TIP3    H219657   3.181   3.563   3.351
 6551TIP3   OH219658   0.369   4.027   1.234
 6551TIP3    H119659   0.299   3.962   1.232
 6551TIP3    H219660   0.426   3.999   1.305
 6552TIP3   OH219661   1.198   3.033   4.070
 6552TIP3    H119662   1.142   3.004   3.998
 6552TIP3    H219663   1.281   2.987   4.056
 6553TIP3   OH219664   0.072   1.450   1.133
 6553TIP3    H119665   0.062   1.412   1.221
 6553TIP3    H219666   0.014   1.398   1.078
 6554TIP3   OH219667   4.026   4.114   3.511
 6554TIP3    H119668   4.096   4.138   3.450
 6554TIP3    H219669   3.986   4.198   3.535
 6555TIP3   OH219670   2.230   4.853   3.587
 6555TIP3    H119671   2.197   4.809   3.509
 6555TIP3    H219672   2.325   4.854   3.577
 6556TIP3   OH219673   3.147   2.368   1.670
 6556TIP3    H119674   3.149   2.463   1.662
 6556TIP3    H219675   3.123   2.352   1.761
 6557TIP3   OH219676   0.556   1.251   2.601
 6557TIP3    H119677   0.467   1.216   2.596
 6557TIP3    H219678   0.586   1.255   2.510
 6558TIP3   OH219679   4.002   5.463   2.179
 6558TIP3    H119680   4.043   5.435   2.098
 6558TIP3    H219681   4.072   5.506   2.228
 6559TIP3   OH219682   5.439   0.896   2.743
 6559TIP3    H119683   5.429   0.829   2.676
 6559TIP3    H219684   5.401   0.858   2.822
 6560TIP3   OH219685   5.637   0.756   4.145
 6560TIP3    H119686   5.634   0.834   4.091
 6560TIP3    H219687   5.621   0.787   4.234
 6561TIP3   OH219688   5.129   4.102   1.573
 6561TIP3    H119689   5.092   4.189   1.589
 6561TIP3    H219690   5.223   4.112   1.588
 6562TIP3   OH219691   2.660   1.020   1.414
 6562TIP3    H119692   2.659   1.033   1.509
 6562TIP3    H219693   2.753   1.023   1.391
 6563TIP3   OH219694   4.307   3.641   3.806
 6563TIP3    H119695   4.337   3.551   3.820
 6563TIP3    H219696   4.372   3.679   3.747
 6564TIP3   OH219697   6.298   5.624   3.320
 6564TIP3    H119698   6.239   5.592   3.252
 6564TIP3    H219699   6.364   5.555   3.329
 6565TIP3   OH219700   5.027   3.193   3.487
 6565TIP3    H119701   4.942   3.235   3.494
 6565TIP3    H219702   5.047   3.163   3.575
 6566TIP3   OH219703   2.719   0.375   4.101
 6566TIP3    H119704   2.637   0.337   4.133
 6566TIP3    H219705   2.741   0.322   4.024
 6567TIP3   OH219706   4.078   0.559   3.125
 6567TIP3    H119707   3.985   0.558   3.102
 6567TIP3    H219708   4.104   0.651   3.120
 6568TIP3   OH219709   5.085   5.369   2.899
 6568TIP3    H119710   5.024   5.433   2.861
 6568TIP3    H219711   5.084   5.387   2.993
 6569TIP3   OH219712   2.393   4.146   4.548
 6569TIP3    H119713   2.391   4.167   4.455
 6569TIP3    H219714   2.305   4.166   4.579
 6570TIP3   OH219715   3.132   1.579   2.157
 6570TIP3    H119716   3.197   1.509   2.161
 6570TIP3    H219717   3.110   1.587   2.065
 6571TIP3   OH219718   2.778   5.112   0.389
 6571TIP3    H119719   2.793   5.050   0.317
 6571TIP3    H219720   2.721   5.064   0.449
 6572TIP3   OH219721   2.174   1.285   2.337
 6572TIP3    H119722   2.165   1.292   2.242
 6572TIP3    H219723   2.126   1.360   2.372
 6573TIP3   OH219724   4.974   0.795   2.836
 6573TIP3    H119725   4.901   0.850   2.865
 6573TIP3    H219726   4.996   0.743   2.914
 6574TIP3   OH219727   1.893   3.036   2.449
 6574TIP3    H119728   1.941   2.990   2.380
 6574TIP3    H219729   1.830   3.090   2.402
 6575TIP3   OH219730   3.096   2.824   2.845
 6575TIP3    H119731   3.169   2.849   2.789
 6575TIP3    H219732   3.063   2.743   2.807
 6576TIP3   OH219733   4.887   0.913   0.897
 6576TIP3    H119734   4.930   0.970   0.833
 6576TIP3    H219735   4.930   0.828   0.885
 6577TIP3   OH219736   1.306   3.616   2.152
 6577TIP3    H119737   1.232   3.661   2.112
 6577TIP3    H219738   1.310   3.531   2.107
 6578TIP3   OH219739   6.248   4.621   0.580
 6578TIP3    H119740   6.267   4.692   0.641
 6578TIP3    H219741   6.299   4.547   0.613
 6579TIP3   OH219742   2.749   5.957   0.380
 6579TIP3    H119743   2.655   5.966   0.363
 6579TIP3    H219744   2.755   5.949   0.475
 6580TIP3   OH219745   2.333   5.323   1.539
 6580TIP3    H119746   2.406   5.327   1.477
 6580TIP3    H219747   2.272   5.391   1.511
 6581TIP3   OH219748   5.054   5.161   0.043
 6581TIP3    H119749   5.076   5.192  -0.045
 6581TIP3    H219750   5.072   5.067   0.040
 6582TIP3   OH219751   0.414   4.516   1.987
 6582TIP3    H119752   0.379   4.457   2.053
 6582TIP3    H219753   0.470   4.461   1.932
 6583TIP3   OH219754   2.576   1.600   3.669
 6583TIP3    H119755   2.537   1.687   3.657
 6583TIP3    H219756   2.547   1.550   3.592
 6584TIP3   OH219757   0.791   4.283   3.059
 6584TIP3    H119758   0.743   4.365   3.071
 6584TIP3    H219759   0.813   4.281   2.966
 6585TIP3   OH219760   3.662   5.215   3.302
 6585TIP3    H119761   3.567   5.222   3.296
 6585TIP3    H219762   3.690   5.301   3.335
 6586TIP3   OH219763   3.462   4.365   3.710
 6586TIP3    H119764   3.437   4.327   3.626
 6586TIP3    H219765   3.538   4.314   3.737
 6587TIP3   OH219766   1.229   5.757   0.017
 6587TIP3    H119767   1.252   5.830  -0.041
 6587TIP3    H219768   1.309   5.741   0.068
 6588TIP3   OH219769   5.620   1.909   0.416
 6588TIP3    H119770   5.627   1.851   0.341
 6588TIP3    H219771   5.542   1.878   0.463
 6589TIP3   OH219772   0.712   2.280   3.437
 6589TIP3    H119773   0.638   2.321   3.482
 6589TIP3    H219774   0.693   2.293   3.344
 6590TIP3   OH219775   3.703   3.829   2.544
 6590TIP3    H119776   3.680   3.749   2.496
 6590TIP3    H219777   3.768   3.800   2.608
 6591TIP3   OH219778   4.046   5.970   0.179
 6591TIP3    H119779   3.987   5.974   0.254
 6591TIP3    H219780   3.994   5.931   0.109
 6592TIP3   OH219781   2.910   5.842   4.734
 6592TIP3    H119782   2.897   5.820   4.642
 6592TIP3    H219783   2.917   5.937   4.735
 6593TIP3   OH219784   4.066   0.517   2.602
 6593TIP3    H119785   4.011   0.441   2.622
 6593TIP3    H219786   4.155   0.489   2.624
 6594TIP3   OH219787   2.841   5.737   3.212
 6594TIP3    H119788   2.860   5.712   3.122
 6594TIP3    H219789   2.826   5.654   3.258
 6595TIP3   OH219790   1.063   3.185   3.620
 6595TIP3    H119791   1.087   3.093   3.612
 6595TIP3    H219792   1.055   3.216   3.530
 6596TIP3   OH219793   4.059   5.249   3.013
 6596TIP3    H119794   4.100   5.286   2.935
 6596TIP3    H219795   4.034   5.160   2.987
 6597TIP3   OH219796   2.495   4.907   4.173
 6597TIP3    H119797   2.476   4.907   4.080
 6597TIP3    H219798   2.578   4.955   4.181
 6598TIP3   OH219799   3.688   4.286   0.502
 6598TIP3    H119800   3.729   4.202   0.522
 6598TIP3    H219801   3.760   4.341   0.469
 6599TIP3   OH219802   2.646   3.155   4.362
 6599TIP3    H119803   2.655   3.242   4.401
 6599TIP3    H219804   2.737   3.125   4.350
 6600TIP3   OH219805   0.113   4.303   3.538
 6600TIP3    H119806   0.127   4.232   3.476
 6600TIP3    H219807   0.037   4.275   3.589
 6601TIP3   OH219808   3.907   4.232   4.432
 6601TIP3    H119809   3.889   4.305   4.372
 6601TIP3    H219810   3.949   4.166   4.377
 6602TIP3   OH219811   0.280   3.683   2.071
 6602TIP3    H119812   0.323   3.597   2.067
 6602TIP3    H219813   0.191   3.667   2.039
 6603TIP3   OH219814   2.607   1.924   4.037
 6603TIP3    H119815   2.670   1.872   3.986
 6603TIP3    H219816   2.656   1.950   4.116
 6604TIP3   OH219817   4.639   0.378   2.219
 6604TIP3    H119818   4.552   0.404   2.251
 6604TIP3    H219819   4.673   0.456   2.176
 6605TIP3   OH219820   1.810   0.913   3.050
 6605TIP3    H119821   1.830   0.888   2.960
 6605TIP3    H219822   1.717   0.936   3.048
 6606TIP3   OH219823   2.714   2.127   4.940
 6606TIP3    H119824   2.720   2.087   5.027
 6606TIP3    H219825   2.626   2.163   4.936
 6607TIP3   OH219826   1.667   1.318   0.737
 6607TIP3    H119827   1.723   1.390   0.709
 6607TIP3    H219828   1.588   1.360   0.770
 6608TIP3   OH219829   5.157   3.369   1.826
 6608TIP3    H119830   5.189   3.282   1.851
 6608TIP3    H219831   5.101   3.396   1.899
 6609TIP3   OH219832   1.744   0.907   4.707
 6609TIP3    H119833   1.683   0.978   4.724
 6609TIP3    H219834   1.694   0.827   4.724
 6610TIP3   OH219835   4.772   3.843   3.308
 6610TIP3    H119836   4.779   3.938   3.316
 6610TIP3    H219837   4.816   3.823   3.225
 6611TIP3   OH219838   3.283   1.750   2.311
 6611TIP3    H119839   3.367   1.725   2.273
 6611TIP3    H219840   3.219   1.692   2.268
 6612TIP3   OH219841   4.287   1.436   1.637
 6612TIP3    H119842   4.300   1.354   1.684
 6612TIP3    H219843   4.335   1.424   1.555
 6613TIP3   OH219844   2.824   1.286   4.190
 6613TIP3    H119845   2.755   1.296   4.124
 6613TIP3    H219846   2.849   1.375   4.212
 6614TIP3   OH219847   0.338   0.963   4.674
 6614TIP3    H119848   0.434   0.964   4.681
 6614TIP3    H219849   0.319   1.008   4.591
 6615TIP3   OH219850   0.231   5.357   2.805
 6615TIP3    H119851   0.220   5.283   2.866
 6615TIP3    H219852   0.197   5.325   2.722
 6616TIP3   OH219853   3.690   0.839   1.381
 6616TIP3    H119854   3.750   0.818   1.452
 6616TIP3    H219855   3.708   0.930   1.360
 6617TIP3   OH219856   1.533   0.226   0.907
 6617TIP3    H119857   1.594   0.258   0.841
 6617TIP3    H219858   1.589   0.188   0.975
 6618TIP3   OH219859   4.877   1.065   3.057
 6618TIP3    H119860   4.877   0.995   3.123
 6618TIP3    H219861   4.846   1.022   2.977
 6619TIP3   OH219862   4.895   0.064   2.614
 6619TIP3    H119863   4.815   0.114   2.631
 6619TIP3    H219864   4.963   0.129   2.600
 6620TIP3   OH219865   2.073   0.336   4.021
 6620TIP3    H119866   2.131   0.383   3.960
 6620TIP3    H219867   2.131   0.303   4.089
 6621TIP3   OH219868   5.867   0.218   3.371
 6621TIP3    H119869   5.840   0.132   3.337
 6621TIP3    H219870   5.962   0.217   3.363
 6622TIP3   OH219871   4.505   5.450   4.779
 6622TIP3    H119872   4.477   5.389   4.848
 6622TIP3    H219873   4.531   5.529   4.827
 6623TIP3   OH219874   0.365   4.021   0.099
 6623TIP3    H119875   0.420   4.099   0.089
 6623TIP3    H219876   0.376   3.974   0.017
 6624TIP3   OH219877   5.686   3.466   0.696
 6624TIP3    H119878   5.592   3.448   0.696
 6624TIP3    H219879   5.724   3.393   0.745
 6625TIP3   OH219880   1.685   2.246   0.719
 6625TIP3    H119881   1.649   2.168   0.677
 6625TIP3    H219882   1.616   2.312   0.709
 6626TIP3   OH219883   2.036   3.334   2.811
 6626TIP3    H119884   1.955   3.338   2.861
 6626TIP3    H219885   2.093   3.399   2.851
 6627TIP3   OH219886   6.114   5.016   4.357
 6627TIP3    H119887   6.188   5.053   4.310
 6627TIP3    H219888   6.152   4.952   4.417
 6628TIP3   OH219889   2.839   1.833   4.457
 6628TIP3    H119890   2.791   1.752   4.440
 6628TIP3    H219891   2.812   1.858   4.546
 6629TIP3   OH219892   0.966   2.045   0.061
 6629TIP3    H119893   0.948   2.114  -0.003
 6629TIP3    H219894   0.901   2.058   0.129
 6630TIP3   OH219895   0.096   0.604   1.734
 6630TIP3    H119896   0.108   0.679   1.792
 6630TIP3    H219897   0.049   0.540   1.788
 6631TIP3   OH219898   3.259   2.338   4.979
 6631TIP3    H119899   3.296   2.373   4.898
 6631TIP3    H219900   3.170   2.313   4.955
 6632TIP3   OH219901   2.891   5.284   4.809
 6632TIP3    H119902   2.894   5.262   4.902
 6632TIP3    H219903   2.869   5.377   4.807
 6633TIP3   OH219904   3.353   0.501   0.348
 6633TIP3    H119905   3.396   0.444   0.286
 6633TIP3    H219906   3.295   0.443   0.398
 6634TIP3   OH219907   0.178   4.734   3.499
 6634TIP3    H119908   0.270   4.755   3.485
 6634TIP3    H219909   0.167   4.646   3.462
 6635TIP3   OH219910   5.865   5.764   4.013
 6635TIP3    H119911   5.920   5.754   3.935
 6635TIP3    H219912   5.789   5.813   3.982
 6636TIP3   OH219913   1.347   4.737   3.911
 6636TIP3    H119914   1.413   4.708   3.848
 6636TIP3    H219915   1.365   4.685   3.990
 6637TIP3   OH219916   3.155   4.348   1.567
 6637TIP3    H119917   3.223   4.284   1.545
 6637TIP3    H219918   3.157   4.411   1.494
 6638TIP3   OH219919   1.954   5.230   3.857
 6638TIP3    H119920   1.990   5.224   3.945
 6638TIP3    H219921   1.980   5.149   3.814
 6639TIP3   OH219922   4.322   0.108   0.996
 6639TIP3    H119923   4.362   0.099   1.082
 6639TIP3    H219924   4.258   0.179   1.006
 6640TIP3   OH219925   5.171   3.982   1.332
 6640TIP3    H119926   5.090   4.017   1.292
 6640TIP3    H219927   5.170   4.016   1.421
 6641TIP3   OH219928   0.339   4.997   2.641
 6641TIP3    H119929   0.417   5.023   2.593
 6641TIP3    H219930   0.273   5.063   2.618
 6642TIP3   OH219931   2.856   1.596   1.755
 6642TIP3    H119932   2.770   1.555   1.753
 6642TIP3    H219933   2.878   1.610   1.663
 6643TIP3   OH219934   3.914   3.446   5.159
 6643TIP3    H119935   3.943   3.534   5.182
 6643TIP3    H219936   3.831   3.460   5.113
 6644TIP3   OH219937   5.608   5.324   0.230
 6644TIP3    H119938   5.545   5.338   0.158
 6644TIP3    H219939   5.692   5.349   0.193
 6645TIP3   OH219940   2.800   0.505   0.689
 6645TIP3    H119941   2.710   0.539   0.694
 6645TIP3    H219942   2.790   0.410   0.685
   6.34413   5.98130   5.17996   0.00000   0.00000  -2.11472   0.00000  -2.11472  -2.99065
