Title
19942
    1ASP      N    1   3.059   5.048   3.363 -0.0263  0.1381 -0.4752
    1ASP    HT1    2   3.039   5.131   3.422 -0.6160  0.1016 -0.6210
    1ASP    HT2    3   3.079   4.967   3.426  0.2044  0.7983  0.3242
    1ASP    HT3    4   2.985   5.030   3.293  0.2656 -0.5839 -0.6133
    1ASP     CA    5   3.182   5.079   3.289  0.5875 -0.2172 -0.6497
    1ASP     HA    6   3.166   5.146   3.207 -0.1225  0.3894 -0.0281
    1ASP     CB    7   3.275   5.143   3.392  0.2919 -0.1823  0.0266
    1ASP    HB1    8   3.303   5.074   3.474  2.0289  1.3340  0.7750
    1ASP    HB2    9   3.231   5.237   3.431 -0.1574  0.4665 -1.9112
    1ASP     CG   10   3.403   5.185   3.331  0.3101 -0.0418  0.9187
    1ASP    OD1   11   3.400   5.208   3.205 -0.2306 -0.1640  0.8956
    1ASP    OD2   12   3.496   5.223   3.399  0.0699 -0.6926  0.3846
    1ASP      C   13   3.232   4.952   3.220  0.3035  0.0807  0.0745
    1ASP      O   14   3.178   4.920   3.116  0.1556 -0.0433 -0.1714
    2ALA      N   15   3.329   4.880   3.277 -0.6504  0.5187  0.1241
    2ALA     HN   16   3.371   4.915   3.360 -0.2961  0.7234 -0.1392
    2ALA     CA   17   3.368   4.753   3.235 -0.2569  0.6318  0.3941
    2ALA     HA   18   3.390   4.761   3.129 -1.1735 -0.9359  0.0552
    2ALA     CB   19   3.495   4.724   3.312 -0.6268  0.4044 -0.1906
    2ALA    HB1   20   3.474   4.725   3.421  1.9791 -0.6294  0.4066
    2ALA    HB2   21   3.574   4.801   3.296  0.8161 -1.0620 -0.4486
    2ALA    HB3   22   3.546   4.625   3.303  0.6731  0.9367  0.9440
    2ALA      C   23   3.268   4.641   3.250  0.3260 -0.3885 -0.2945
    2ALA      O   24   3.183   4.650   3.342  0.1545 -0.3659 -0.0595
    3ASP      N   25   3.269   4.542   3.163  0.1567 -0.0502 -0.0980
    3ASP     HN   26   3.344   4.545   3.097  1.7535 -0.7470  1.6096
    3ASP     CA   27   3.158   4.447   3.140 -1.0419  0.6714 -0.5901
    3ASP     HA   28   3.063   4.500   3.137 -2.6633 -1.8623  1.3969
    3ASP     CB   29   3.167   4.364   3.015 -0.1730  0.2623  0.5853
    3ASP    HB1   30   3.081   4.295   2.999  1.7261 -2.0860  0.0237
    3ASP    HB2   31   3.258   4.302   3.021 -0.3144 -0.3782 -2.4242
    3ASP     CG   32   3.184   4.439   2.884 -0.6600  1.0116 -0.1556
    3ASP    OD1   33   3.159   4.559   2.864 -0.1025 -0.0360 -0.0585
    3ASP    OD2   34   3.221   4.367   2.787 -0.0111  0.1925  0.1053
    3ASP      C   35   3.138   4.361   3.267 -0.1491  0.2845 -0.2746
    3ASP      O   36   3.231   4.313   3.328 -0.0922 -0.2614  0.5250
    4GLY      N   37   3.006   4.329   3.291  0.2388  0.2135 -0.5062
    4GLY     HN   38   2.937   4.364   3.227  1.3472  0.4798 -1.5974
    4GLY     CA   39   2.966   4.242   3.400 -0.0424 -0.3818  0.9359
    4GLY    HA1   40   2.861   4.263   3.417 -1.0516 -3.3011 -0.9350
    4GLY    HA2   41   3.038   4.251   3.480  0.2026 -1.3865  0.8420
    4GLY      C   42   2.970   4.093   3.353  0.4105  0.2892  0.2870
    4GLY      O   43   3.031   4.068   3.245  0.4980 -0.4155 -0.1543
    5PRO      N   44   2.935   4.002   3.442 -0.0857  0.0997  0.7177
    5PRO     CD   45   2.873   4.035   3.571  0.5639  0.9491 -0.5369
    5PRO    HD1   46   2.773   4.081   3.556  0.8175  1.0682 -1.9260
    5PRO    HD2   47   2.933   4.108   3.630  1.9550  1.2976 -2.3020
    5PRO     CA   48   2.950   3.855   3.422 -0.0933 -0.3181  0.0307
    5PRO     HA   49   3.045   3.825   3.464  0.3102  0.9931  0.1103
    5PRO     CB   50   2.845   3.803   3.522 -0.1597  0.1132 -0.1339
    5PRO    HB1   51   2.880   3.701   3.550  0.6340  0.4305  0.0628
    5PRO    HB2   52   2.754   3.800   3.459 -0.5736 -0.5253  0.4683
    5PRO     CG   53   2.837   3.906   3.639  0.4265 -0.2305 -0.2725
    5PRO    HG1   54   2.746   3.902   3.702  1.7494  0.6402  1.7890
    5PRO    HG2   55   2.919   3.895   3.714  1.0040  3.4986 -0.1519
    5PRO      C   56   2.946   3.787   3.289  0.6559  0.1960 -0.0754
    5PRO      O   57   2.853   3.807   3.207  0.5872 -0.4157  0.2983
    6GLY      N   58   3.038   3.696   3.256 -0.6560 -0.6307  0.0983
    6GLY     HN   59   3.110   3.676   3.323  0.0558  1.8782  0.2149
    6GLY     CA   60   3.034   3.630   3.125 -0.3337  0.0991 -0.6472
    6GLY    HA1   61   3.114   3.558   3.130  1.5878  2.2202  0.9889
    6GLY    HA2   62   3.047   3.701   3.045  1.5651 -0.5987 -0.9869
    6GLY      C   63   2.913   3.546   3.092  0.0258  0.4525  0.0064
    6GLY      O   64   2.826   3.515   3.170  0.0784 -0.2702  0.5984
    7ASP      N   65   2.897   3.499   2.964  0.0997  0.3891  0.4197
    7ASP     HN   66   2.963   3.521   2.893 -0.0785  1.4963  0.5676
    7ASP     CA   67   2.784   3.408   2.934 -0.1117 -1.1676  0.2291
    7ASP     HA   68   2.690   3.449   2.968 -1.0865 -1.7990 -1.5916
    7ASP     CB   69   2.767   3.386   2.780  0.0552  0.4643  0.5013
    7ASP    HB1   70   2.693   3.304   2.762  0.7844 -0.1501  0.2226
    7ASP    HB2   71   2.859   3.346   2.733 -1.6968 -3.6618  0.0871
    7ASP     CG   72   2.722   3.501   2.703  0.5151 -0.1091 -0.1982
    7ASP    OD1   73   2.668   3.592   2.770 -0.3442 -0.0232  0.8802
    7ASP    OD2   74   2.734   3.491   2.571  0.2656  0.0886 -0.0882
    7ASP      C   75   2.787   3.274   3.007  0.5417 -0.2361  0.6127
    7ASP      O   76   2.890   3.209   3.016  0.6061 -0.2672  0.2053
    8PRO      N   77   2.682   3.218   3.067  0.6296 -0.4504 -0.1171
    8PRO     CD   78   2.558   3.291   3.094  0.2120 -0.5608 -0.9893
    8PRO    HD1   79   2.493   3.301   3.004 -2.6270 -2.5002  0.6372
    8PRO    HD2   80   2.575   3.385   3.150  0.5692 -1.9027  1.2852
    8PRO     CA   81   2.675   3.082   3.126 -0.0544  0.1111  0.3344
    8PRO     HA   82   2.739   3.089   3.213 -0.7198  1.2422  0.7554
    8PRO     CB   83   2.524   3.061   3.152 -0.8521  0.9402 -0.4633
    8PRO    HB1   84   2.507   2.991   3.236 -1.4372 -0.3394 -1.5920
    8PRO    HB2   85   2.481   3.018   3.059 -0.3537 -1.2977  0.2833
    8PRO     CG   86   2.474   3.204   3.185  0.2803  0.1455 -0.1745
    8PRO    HG1   87   2.365   3.222   3.191  0.4299  0.7179  2.1893
    8PRO    HG2   88   2.511   3.220   3.289 -1.7055  0.1269  0.5606
    8PRO      C   89   2.732   2.970   3.031  0.0389 -0.2219  0.3997
    8PRO      O   90   2.724   2.979   2.908 -0.5587 -0.1271  0.0674
    9ASP      N   91   2.796   2.868   3.098  0.3526 -0.2274  0.1701
    9ASP     HN   92   2.811   2.870   3.197  0.2725 -2.1509  0.2618
    9ASP     CA   93   2.874   2.757   3.035  0.5991 -0.4246 -0.8563
    9ASP     HA   94   2.944   2.805   2.968  0.0287  1.8011  0.0502
    9ASP     CB   95   2.944   2.686   3.154  0.3390  0.3086  0.1651
    9ASP    HB1   96   3.015   2.610   3.115  1.1817  2.0330 -1.8593
    9ASP    HB2   97   2.864   2.635   3.211  1.7735 -0.5415  1.4949
    9ASP     CG   98   3.039   2.765   3.247  0.1974 -0.9938  0.2102
    9ASP    OD1   99   3.089   2.706   3.344  0.0892  0.0957  0.5279
    9ASP    OD2  100   3.059   2.885   3.221  0.4862  0.2548 -0.4134
    9ASP      C  101   2.791   2.659   2.958  0.0536 -0.1482  0.3036
    9ASP      O  102   2.680   2.620   2.998 -0.2774 -0.1238  0.3001
   10ALA      N  103   2.842   2.615   2.840  0.4507  0.1490 -0.0532
   10ALA     HN  104   2.932   2.636   2.802  0.1840 -1.8604 -1.9869
   10ALA     CA  105   2.767   2.526   2.748  0.6556 -0.0479  0.0928
   10ALA     HA  106   2.706   2.457   2.805 -0.8925  1.9805  1.0294
   10ALA     CB  107   2.668   2.606   2.656 -0.3152 -0.1644  0.2010
   10ALA    HB1  108   2.589   2.659   2.713 -0.1252  1.8179 -1.2742
   10ALA    HB2  109   2.610   2.538   2.589  0.2500 -0.1811 -0.2772
   10ALA    HB3  110   2.726   2.684   2.603 -1.3139  0.4251 -0.0617
   10ALA      C  111   2.866   2.452   2.665 -0.3468  0.4034 -0.8591
   10ALA      O  112   2.975   2.503   2.636  0.3480 -0.6700 -1.0723
   11GLY      N  113   2.830   2.327   2.626 -0.1151 -0.0523 -0.1862
   11GLY     HN  114   2.747   2.281   2.658 -0.3083 -0.0832 -0.7167
   11GLY     CA  115   2.900   2.243   2.527 -0.3362 -0.0910  0.1409
   11GLY    HA1  116   2.927   2.306   2.444  1.0674  0.3296  0.8891
   11GLY    HA2  117   2.834   2.165   2.494 -0.7800  1.4314 -2.8835
   11GLY      C  118   3.043   2.187   2.560 -0.0640  0.2412  0.2307
   11GLY    OT1  119   3.047   2.078   2.627 -0.2799 -0.2105  0.2744
   11GLY    OT2  120   3.144   2.244   2.512  0.0915 -0.4149 -0.2201
   12LIT    LIT  121   0.369   4.823   3.079 -1.0163 -0.1289  0.3093
   13LIT    LIT  122   2.464   5.263   4.217 -0.5893 -0.9512  0.0833
   14LIT    LIT  123   5.408   5.578   0.570 -0.2923 -0.0877  0.4620
   15LIT    LIT  124   3.822   5.879   4.091  1.3305 -0.3871 -0.0048
   16LIT    LIT  125   3.152   4.510   2.677  0.5754 -0.4432 -0.0006
   17LIT    LIT  126   1.129   4.796   1.510  0.6903 -0.1273 -1.3263
   18LIT    LIT  127   5.657   1.120   4.661 -0.5719 -0.1343 -0.3314
   19LIT    LIT  128   3.076   2.182   3.034 -0.2410  0.3713  0.0878
   20LIT    LIT  129   0.546   1.461   0.697 -0.0021  0.0019  0.4806
   21LIT    LIT  130   5.264   3.104   4.430 -0.0271  0.0861 -0.1237
   22LIT    LIT  131   5.978   5.845   1.027 -1.6015  0.8435 -1.0580
   23LIT    LIT  132   4.889   3.009   0.971  0.3979  1.2496 -0.4148
   24LIT    LIT  133   1.795   2.936   4.084 -0.9691  0.9789 -0.6186
   25LIT    LIT  134   5.211   3.898   3.704 -0.3880  0.1867 -0.1225
   26LIT    LIT  135   2.306   0.514   0.100 -0.8708 -0.3892  0.2630
   27LIT    LIT  136   1.106   2.730   1.930  0.3383  1.8134  0.0553
   28LIT    LIT  137   1.653   0.064   4.050 -0.5936 -0.8116  0.8771
   29LIT    LIT  138   4.035   4.372   2.979  0.4797 -0.7511 -0.2220
   30LIT    LIT  139   3.363   1.596   2.327  0.2780  0.2926 -0.5413
   31LIT    LIT  140   3.094   0.646   1.729 -0.0393 -0.2905  0.7558
   32LIT    LIT  141   3.342   5.174   2.034  0.9672  0.5390  1.1701
   33LIT    LIT  142   3.070   3.349   3.802 -0.3922 -1.2924 -0.2620
   34CLA    CLA  143   2.321   5.478   3.810 -0.3661  0.4789  0.1901
   35CLA    CLA  144   2.588   5.334   4.673  0.5666 -0.1379  0.2025
   36CLA    CLA  145   3.638   0.648   0.806 -0.3755  0.1088  0.0442
   37CLA    CLA  146   0.902   5.430   3.262  0.3450  0.3595  0.1505
   38CLA    CLA  147   2.276   4.116   5.000  0.3210 -0.3634 -0.1141
   39CLA    CLA  148   0.029   0.411   0.590 -0.3378 -0.2110  0.0832
   40CLA    CLA  149   3.107   3.431   5.028 -0.2167  0.1547 -0.3684
   41CLA    CLA  150   4.175   3.687   0.878  0.0814  0.3070  0.1243
   42CLA    CLA  151   3.110   0.618   3.656 -0.4216  0.1440  0.2909
   43CLA    CLA  152   5.028   3.167   4.372 -0.5051 -0.3040 -0.3414
   44CLA    CLA  153   3.366   1.624   0.557 -0.0623 -0.0314 -0.0570
   45CLA    CLA  154   5.609   5.583   0.434  0.2340 -0.4576  0.0105
   46CLA    CLA  155   1.229   2.869   4.386 -0.0565  0.0901 -0.1582
   47CLA    CLA  156   0.078   3.556   5.105  0.2185  0.3071 -0.2773
   48CLA    CLA  157   3.984   1.230   1.929  0.0020 -0.1319  0.3324
   49CLA    CLA  158   0.450   2.977   3.189  0.3639  0.1277  0.3273
   50CLA    CLA  159   4.500   5.052   1.847  0.4307  0.5684 -0.1749
   51CLA    CLA  160   5.318   1.462   2.531  0.2947 -0.3895  0.1278
   52TIP3   OH2  161   1.045   2.203   3.019 -0.2549 -0.1541 -0.2136
   52TIP3    H1  162   1.135   2.226   2.994  0.4215  0.6345  2.6340
   52TIP3    H2  163   1.000   2.288   3.026 -0.5977 -0.3944  0.5110
   53TIP3   OH2  164   4.560   0.555   4.603 -0.4779 -0.2295  0.1192
   53TIP3    H1  165   4.541   0.619   4.671 -0.2436  0.4937 -0.4852
   53TIP3    H2  166   4.495   0.572   4.534 -0.6753 -0.9113  0.1271
   54TIP3   OH2  167   3.771   3.710   0.694  0.2288 -0.0771 -0.7085
   54TIP3    H1  168   3.751   3.752   0.778  0.9281  0.4553 -0.7906
   54TIP3    H2  169   3.690   3.666   0.668  0.0332 -0.3391  0.2962
   55TIP3   OH2  170   3.175   2.989   4.976  0.1988 -0.7912 -0.0992
   55TIP3    H1  171   3.213   2.912   4.933 -1.4406 -0.9583 -1.3811
   55TIP3    H2  172   3.191   2.975   5.069 -0.1644 -2.7877 -0.2928
   56TIP3   OH2  173   5.584   3.238   0.267 -0.4351 -0.0513  0.5165
   56TIP3    H1  174   5.541   3.161   0.231 -1.1159  1.1690 -1.4189
   56TIP3    H2  175   5.651   3.202   0.326 -1.4511 -2.0687  0.5364
   57TIP3   OH2  176   3.858   2.955   3.084  0.0058  0.1202 -0.9003
   57TIP3    H1  177   3.846   2.861   3.071 -0.6503  0.0160  0.2948
   57TIP3    H2  178   3.874   2.965   3.178  0.1500  1.1972 -1.0215
   58TIP3   OH2  179   1.703   5.912   1.478 -0.2816  0.4141 -0.1875
   58TIP3    H1  180   1.738   6.001   1.472  0.0286  0.4106  1.2921
   58TIP3    H2  181   1.680   5.901   1.570 -2.5061 -0.2370 -0.7492
   59TIP3   OH2  182   5.669   5.080   1.316  0.0395  0.0513  0.0884
   59TIP3    H1  183   5.758   5.050   1.335  1.3395  2.2830 -1.8536
   59TIP3    H2  184   5.670   5.099   1.222 -1.6228  2.7129  0.5074
   60TIP3   OH2  185   2.065   0.270   0.609 -0.0458  0.4341 -0.0913
   60TIP3    H1  186   2.127   0.333   0.571  0.7146 -0.1886  0.0866
   60TIP3    H2  187   2.111   0.186   0.604 -0.9334 -0.0583 -0.0627
   61TIP3   OH2  188   4.257   0.857   4.677 -0.0646  0.4757  0.4890
   61TIP3    H1  189   4.270   0.769   4.712  0.6441  1.5379  3.1046
   61TIP3    H2  190   4.162   0.863   4.662 -0.2842 -0.3413  1.4397
   62TIP3   OH2  191   3.635   1.987   3.065  0.4905  0.6384  0.4353
   62TIP3    H1  192   3.711   1.966   3.118  0.3408  1.3779  0.9444
   62TIP3    H2  193   3.615   2.078   3.085  0.1028  0.7695 -0.4794
   63TIP3   OH2  194   1.740   2.337   4.476  0.1942 -0.2429  0.5748
   63TIP3    H1  195   1.787   2.388   4.410  1.4191 -1.6936  0.2825
   63TIP3    H2  196   1.742   2.391   4.554  0.5395  0.6044 -0.0072
   64TIP3   OH2  197   3.550   3.137   4.873 -0.1203  0.1705  0.2116
   64TIP3    H1  198   3.467   3.181   4.853  0.5068  0.6192 -1.6068
   64TIP3    H2  199   3.586   3.185   4.947 -2.5143 -1.4746  2.6847
   65TIP3   OH2  200   3.726   3.270   3.842  0.3955  0.2634  0.0978
   65TIP3    H1  201   3.632   3.263   3.854  0.3193  0.7246 -0.2168
   65TIP3    H2  202   3.760   3.183   3.862 -0.0992  0.0893  0.1748
   66TIP3   OH2  203   2.847   5.245   3.810  0.0861  0.6263  0.0149
   66TIP3    H1  204   2.822   5.226   3.900  0.0420  0.8189  0.0446
   66TIP3    H2  205   2.768   5.279   3.770 -0.0904 -0.1528 -0.3028
   67TIP3   OH2  206   0.859   5.580   1.364  0.2299 -0.4622  0.2597
   67TIP3    H1  207   0.869   5.607   1.273  1.3232 -1.1378  0.1623
   67TIP3    H2  208   0.822   5.492   1.360 -0.9872  0.0275  0.5116
   68TIP3   OH2  209   2.190   0.387   4.300 -0.0967  0.1411  0.4647
   68TIP3    H1  210   2.206   0.348   4.214 -0.2446  0.4719  0.2834
   68TIP3    H2  211   2.100   0.420   4.295 -0.5267 -0.8778  1.1536
   69TIP3   OH2  212   0.442   3.158   0.895 -0.0599 -0.3395  0.3068
   69TIP3    H1  213   0.388   3.109   0.956 -2.4504  1.3873 -0.2570
   69TIP3    H2  214   0.474   3.233   0.945 -0.6260  0.1794 -0.0894
   70TIP3   OH2  215   3.282   0.768   2.433  0.0999  0.0919 -0.1556
   70TIP3    H1  216   3.299   0.847   2.484 -1.0864 -0.6587  1.4579
   70TIP3    H2  217   3.260   0.801   2.346 -1.6177  1.6460  0.8086
   71TIP3   OH2  218   5.069   4.811   2.437  0.1185 -0.5678 -0.3412
   71TIP3    H1  219   5.054   4.721   2.465 -0.6558  0.2977  2.2599
   71TIP3    H2  220   5.006   4.863   2.486  1.1604  1.5212 -1.0704
   72TIP3   OH2  221   0.802   2.203   2.302 -0.0922 -0.2691 -0.3058
   72TIP3    H1  222   0.710   2.181   2.288 -0.0227 -0.4382 -0.4983
   72TIP3    H2  223   0.813   2.202   2.397 -0.9937  2.5774 -0.0753
   73TIP3   OH2  224   4.270   3.727   4.577 -0.0744  0.3255  0.6225
   73TIP3    H1  225   4.248   3.792   4.510  0.6184 -0.6417 -0.5940
   73TIP3    H2  226   4.232   3.645   4.544 -2.5062  0.3884  2.9935
   74TIP3   OH2  227   2.133   5.241   4.759  0.8341  0.1192  0.2824
   74TIP3    H1  228   2.167   5.293   4.686  0.3505  0.9846  0.6616
   74TIP3    H2  229   2.121   5.304   4.830  3.0063 -0.9902  1.7329
   75TIP3   OH2  230   3.833   4.821   3.518  0.3382 -0.3816 -0.2451
   75TIP3    H1  231   3.808   4.776   3.437  0.7970 -1.9852  0.4646
   75TIP3    H2  232   3.890   4.893   3.489  0.6146 -1.0133 -1.3266
   76TIP3   OH2  233   5.695   1.709   1.221 -0.5648 -0.1053  0.7747
   76TIP3    H1  234   5.634   1.638   1.200 -1.6454  1.2351 -0.7946
   76TIP3    H2  235   5.645   1.789   1.208  0.7822  0.9933  2.0343
   77TIP3   OH2  236   2.289   2.480   4.598 -0.0792  0.0585 -0.1874
   77TIP3    H1  237   2.228   2.434   4.540 -0.3048  1.4919 -1.1438
   77TIP3    H2  238   2.349   2.412   4.628  0.9043 -0.5535 -3.2289
   78TIP3   OH2  239   5.322   5.262   4.718  0.1939  0.0343  0.8780
   78TIP3    H1  240   5.370   5.238   4.797  0.3453  1.4761  1.2411
   78TIP3    H2  241   5.242   5.305   4.750 -0.0343  0.0893  0.2527
   79TIP3   OH2  242   3.966   3.478   0.755 -0.1181  0.4983 -0.1869
   79TIP3    H1  243   3.888   3.530   0.738  0.0601  0.7547 -0.2234
   79TIP3    H2  244   4.038   3.541   0.757  0.0583  0.2946  0.0774
   80TIP3   OH2  245   3.962   3.662   0.126  0.2790  0.1029 -0.5107
   80TIP3    H1  246   3.981   3.571   0.106  1.4692 -0.0510  1.1067
   80TIP3    H2  247   3.901   3.658   0.199 -1.0746  0.6314 -1.5754
   81TIP3   OH2  248   5.196   3.058   5.049  0.2289 -0.2699  0.4852
   81TIP3    H1  249   5.224   3.108   5.126 -1.8705 -1.0225  1.8240
   81TIP3    H2  250   5.233   2.970   5.063  0.9355 -0.0610 -0.0449
   82TIP3   OH2  251   3.725   4.142   0.317 -0.1106  0.1745 -0.2316
   82TIP3    H1  252   3.815   4.142   0.350 -0.0358  1.3672 -0.3845
   82TIP3    H2  253   3.730   4.092   0.235  0.4118  0.2608 -0.2543
   83TIP3   OH2  254   4.426   1.857   3.987 -0.2472  0.5331 -0.1482
   83TIP3    H1  255   4.417   1.798   3.912 -0.6797  0.4856 -0.0620
   83TIP3    H2  256   4.381   1.937   3.960 -0.3552  0.5365  0.0372
   84TIP3   OH2  257   1.327   2.410   2.209 -0.3630 -0.2536 -0.3935
   84TIP3    H1  258   1.282   2.334   2.171 -0.5400 -0.3867  0.0737
   84TIP3    H2  259   1.294   2.415   2.299  0.8084 -0.5677  0.0755
   85TIP3   OH2  260   2.184   5.615   0.186  0.4425  0.8263 -0.7601
   85TIP3    H1  261   2.109   5.644   0.135 -1.4873  0.0085  1.4137
   85TIP3    H2  262   2.229   5.551   0.131 -0.3564  1.4446 -2.1600
   86TIP3   OH2  263   0.610   1.928   4.054  0.4844 -0.3538  0.0227
   86TIP3    H1  264   0.694   1.917   4.009  0.4445  1.4794 -0.6023
   86TIP3    H2  265   0.547   1.880   3.999  0.9033 -0.5105 -0.3245
   87TIP3   OH2  266   1.826   3.631   2.694  0.4396 -0.3977 -0.0622
   87TIP3    H1  267   1.835   3.540   2.721 -2.4874 -0.5239  0.7291
   87TIP3    H2  268   1.883   3.680   2.754  1.2597 -1.5583  0.1409
   88TIP3   OH2  269   2.547   4.497   3.677  0.3121 -0.6084 -0.6495
   88TIP3    H1  270   2.551   4.443   3.756  1.9616  1.2044  0.6163
   88TIP3    H2  271   2.471   4.464   3.628  0.0261 -2.6368  1.0448
   89TIP3   OH2  272   1.524   4.083   4.929  0.0798 -0.1682  0.1634
   89TIP3    H1  273   1.528   3.989   4.908 -0.1568 -0.3076  0.7103
   89TIP3    H2  274   1.538   4.127   4.845  0.2849 -0.6930 -0.0833
   90TIP3   OH2  275   6.008   2.719   0.282  0.1576 -0.6298 -0.1438
   90TIP3    H1  276   5.914   2.706   0.271 -0.0111  0.7478 -0.5154
   90TIP3    H2  277   6.045   2.630   0.283 -1.1656 -1.1999  0.3084
   91TIP3   OH2  278   3.905   5.039   4.800  1.0690  0.1325 -0.1524
   91TIP3    H1  279   3.839   5.093   4.844  3.3279  2.1331  0.9985
   91TIP3    H2  280   3.862   4.954   4.787 -1.8291  1.4513  0.1445
   92TIP3   OH2  281   3.434   2.131   0.675  0.1970 -0.3857 -0.2683
   92TIP3    H1  282   3.382   2.161   0.601 -2.5104 -0.2038  1.5437
   92TIP3    H2  283   3.431   2.204   0.737  0.0138 -1.5143  1.1125
   93TIP3   OH2  284   3.357   3.470   3.967  0.5560 -0.5171 -0.5023
   93TIP3    H1  285   3.291   3.492   4.033 -0.5406 -2.7336 -0.7340
   93TIP3    H2  286   3.372   3.551   3.919  0.6930  0.9291  1.8430
   94TIP3   OH2  287   0.616   0.225   0.987 -0.4111 -0.4505  0.3413
   94TIP3    H1  288   0.582   0.295   1.042  2.0052  0.9961  0.0956
   94TIP3    H2  289   0.541   0.199   0.933 -1.6502  1.1646  1.1935
   95TIP3   OH2  290   1.765   2.685   2.302  0.0611  0.2987  0.5707
   95TIP3    H1  291   1.793   2.738   2.228  1.3664 -2.2374 -0.8804
   95TIP3    H2  292   1.842   2.680   2.359  0.2975 -0.7710  0.1904
   96TIP3   OH2  293   6.147   0.197   0.568  0.2172 -0.4709  0.4528
   96TIP3    H1  294   6.173   0.112   0.534  0.4796  0.0404 -0.6790
   96TIP3    H2  295   6.227   0.249   0.565 -0.2598  0.2457 -0.2663
   97TIP3   OH2  296   5.222   4.348   1.588 -0.4323  0.1929  0.2699
   97TIP3    H1  297   5.288   4.300   1.638  1.3710  0.8180 -1.3827
   97TIP3    H2  298   5.156   4.283   1.566  0.6188 -0.9317  0.3327
   98TIP3   OH2  299   3.549   5.708   0.363  0.2285  0.3260  0.0762
   98TIP3    H1  300   3.517   5.797   0.374  1.9798  1.2074 -1.4620
   98TIP3    H2  301   3.482   5.664   0.310 -0.1505  1.0182 -0.0230
   99TIP3   OH2  302   5.488   0.037   0.702 -0.0862  0.0816  0.0513
   99TIP3    H1  303   5.473   0.013   0.793 -2.0303  0.0160 -0.2400
   99TIP3    H2  304   5.549   0.111   0.706  0.2253 -0.2230  1.3642
  100TIP3   OH2  305   4.606   2.892   2.054 -0.3518 -0.0390 -0.2897
  100TIP3    H1  306   4.622   2.958   1.987  0.8097 -1.2338 -1.2572
  100TIP3    H2  307   4.592   2.942   2.134  1.3216  1.3809 -0.8128
  101TIP3   OH2  308   3.122   0.877   1.444 -0.2266 -0.0453 -0.8006
  101TIP3    H1  309   3.112   0.800   1.500 -0.6755  0.4620 -0.1717
  101TIP3    H2  310   3.197   0.924   1.480 -0.7436  0.4764 -0.3693
  102TIP3   OH2  311   2.070   5.997   4.447 -0.1431 -0.7542  0.1651
  102TIP3    H1  312   2.037   5.936   4.514 -2.7645 -0.0258 -0.3665
  102TIP3    H2  313   2.053   5.952   4.364 -0.0306 -0.2376 -0.1387
  103TIP3   OH2  314   1.735   2.683   4.997 -0.4596  0.1233  0.0345
  103TIP3    H1  315   1.708   2.591   5.003 -4.2396  0.9890 -0.7774
  103TIP3    H2  316   1.749   2.709   5.088 -0.3933 -0.9938  0.3619
  104TIP3   OH2  317   4.604   3.864   1.670  0.5169  0.3575  0.1058
  104TIP3    H1  318   4.509   3.872   1.673  0.5785  2.5837 -1.5273
  104TIP3    H2  319   4.620   3.770   1.661 -1.4705 -0.1115  0.9167
  105TIP3   OH2  320   4.553   5.586   1.440  0.3108  0.0628  0.0472
  105TIP3    H1  321   4.643   5.619   1.442  2.1967 -4.1762 -1.8112
  105TIP3    H2  322   4.529   5.585   1.347 -2.4092  2.5038  0.5914
  106TIP3   OH2  323   1.999   1.120   3.875 -0.2910 -0.0307 -0.0131
  106TIP3    H1  324   1.957   1.105   3.791 -0.3114 -0.6621  0.1047
  106TIP3    H2  325   2.014   1.215   3.878 -2.1039  0.2824  0.1443
  107TIP3   OH2  326   5.045   3.668   2.140  0.4052 -0.0553  0.7026
  107TIP3    H1  327   5.004   3.597   2.090  0.5248 -0.6911  1.4752
  107TIP3    H2  328   5.101   3.713   2.077  1.1925 -1.3479  0.4367
  108TIP3   OH2  329   4.131   4.388   1.892 -0.2992  0.0095  0.0960
  108TIP3    H1  330   4.169   4.476   1.891 -0.1315 -0.0703 -0.5806
  108TIP3    H2  331   4.181   4.342   1.959  0.9855 -0.1731 -0.9714
  109TIP3   OH2  332   6.182   3.459   0.232  0.1163  0.3480  0.3315
  109TIP3    H1  333   6.133   3.401   0.291 -0.2324 -0.1046 -0.3825
  109TIP3    H2  334   6.266   3.415   0.220  0.8643  1.2965  1.8306
  110TIP3   OH2  335   6.280   5.505   1.022  0.2982 -0.0454 -0.7150
  110TIP3    H1  336   6.300   5.424   1.069 -0.7577 -1.2200 -2.1955
  110TIP3    H2  337   6.211   5.481   0.960  0.2351  1.9019 -1.4780
  111TIP3   OH2  338   3.160   2.148   0.044  0.2173  0.0341  0.3599
  111TIP3    H1  339   3.142   2.144   0.138 -0.1485  2.7517  0.4767
  111TIP3    H2  340   3.100   2.084   0.006 -1.7353  0.9171  1.7637
  112TIP3   OH2  341   3.599   1.196   4.973 -0.3553 -0.4051  0.1085
  112TIP3    H1  342   3.693   1.203   4.957 -0.3755 -1.2500 -0.4311
  112TIP3    H2  343   3.568   1.286   4.972  0.0723 -0.2352 -2.0846
  113TIP3   OH2  344   4.813   2.791   5.092 -0.3802  0.3662 -0.5024
  113TIP3    H1  345   4.846   2.867   5.140 -1.9166  0.8819 -0.1896
  113TIP3    H2  346   4.886   2.730   5.089  0.1070  0.7784  1.5486
  114TIP3   OH2  347   1.401   5.630   2.429 -0.0780  0.9555  0.2729
  114TIP3    H1  348   1.415   5.713   2.382  2.0341  0.7084  0.3626
  114TIP3    H2  349   1.490   5.600   2.451 -0.8600 -0.7343  1.2973
  115TIP3   OH2  350   4.658   3.681   2.545 -0.2501 -0.5118 -0.9301
  115TIP3    H1  351   4.705   3.692   2.462 -0.4680 -0.1746 -1.0116
  115TIP3    H2  352   4.698   3.604   2.586  2.0820  1.1456  0.1472
  116TIP3   OH2  353   4.001   2.598   1.371 -0.1396 -0.4636  0.0929
  116TIP3    H1  354   4.008   2.510   1.410  1.1845 -0.8795 -0.9771
  116TIP3    H2  355   4.030   2.657   1.441 -1.7584 -0.7773  1.0743
  117TIP3   OH2  356   1.213   0.502   4.163  0.2626  0.0787 -0.1322
  117TIP3    H1  357   1.305   0.523   4.148  0.5137 -0.9668 -0.1184
  117TIP3    H2  358   1.166   0.582   4.137  1.1058  0.3288 -0.9473
  118TIP3   OH2  359   2.452   3.979   1.339 -0.5430 -0.0446 -0.3559
  118TIP3    H1  360   2.382   4.004   1.400 -0.0111  0.2929  0.1282
  118TIP3    H2  361   2.432   3.888   1.316 -0.7917 -0.1596  0.2802
  119TIP3   OH2  362   1.685   1.241   3.798 -0.3066  0.2739 -0.1928
  119TIP3    H1  363   1.725   1.327   3.784 -1.0576  0.3159 -2.4446
  119TIP3    H2  364   1.602   1.245   3.751 -0.8009 -1.3661  0.4777
  120TIP3   OH2  365   2.557   3.683   1.058 -0.5109  0.1867  0.5189
  120TIP3    H1  366   2.638   3.720   1.092 -0.6020  1.4486 -0.5875
  120TIP3    H2  367   2.569   3.680   0.963 -1.2516 -0.8850  0.4314
  121TIP3   OH2  368   5.932   0.956   2.948 -0.2556  0.4855  0.1579
  121TIP3    H1  369   5.925   0.862   2.932  2.7623  0.1129  0.4192
  121TIP3    H2  370   6.010   0.966   3.003  0.5414  3.2415 -1.2260
  122TIP3   OH2  371   2.238   0.303   4.056 -0.1188  0.0949  0.4803
  122TIP3    H1  372   2.193   0.230   4.014 -3.3422  1.7630  0.7740
  122TIP3    H2  373   2.249   0.368   3.987  0.3075  0.3957  0.8218
  123TIP3   OH2  374   3.807   3.806   2.171  0.4281  0.3862  0.3131
  123TIP3    H1  375   3.779   3.741   2.236  1.3241 -0.8151 -0.4707
  123TIP3    H2  376   3.789   3.890   2.213 -0.0039 -0.3578  1.6871
  124TIP3   OH2  377   5.238   0.440   1.435  0.2507  0.1583 -0.5045
  124TIP3    H1  378   5.169   0.422   1.371  1.3038  1.6644 -2.1612
  124TIP3    H2  379   5.209   0.395   1.515 -0.5022 -2.8756 -2.3411
  125TIP3   OH2  380   0.918   3.542   5.064  0.3287  0.4170  0.1136
  125TIP3    H1  381   0.976   3.507   4.996  0.8625  0.3502  0.6000
  125TIP3    H2  382   0.970   3.610   5.108  0.1295  0.1924  0.7085
  126TIP3   OH2  383   5.531   0.570   0.880 -0.6057  0.2141 -0.0239
  126TIP3    H1  384   5.560   0.612   0.799  0.6440 -0.4463  0.0609
  126TIP3    H2  385   5.598   0.592   0.944  0.4115 -2.3176 -0.1059
  127TIP3   OH2  386   4.943   0.757   1.621 -0.1262  0.0099  0.1925
  127TIP3    H1  387   4.912   0.791   1.705  0.5060  0.7669  0.1408
  127TIP3    H2  388   5.038   0.750   1.631  0.0379  0.7307 -0.6517
  128TIP3   OH2  389   2.622   5.275   2.442  0.5612 -0.1982  0.2151
  128TIP3    H1  390   2.627   5.349   2.502 -0.2896  0.1433 -0.1207
  128TIP3    H2  391   2.613   5.198   2.498 -1.1883  0.1958  0.5487
  129TIP3   OH2  392   2.767   4.308   0.546  0.3222  0.6217 -0.4180
  129TIP3    H1  393   2.696   4.316   0.610  0.2792 -0.0310 -0.3783
  129TIP3    H2  394   2.840   4.272   0.596  0.7358  1.4267 -0.4264
  130TIP3   OH2  395   3.402   3.063   1.255 -0.4612 -0.6743 -0.1588
  130TIP3    H1  396   3.374   3.149   1.225  3.2909  1.4002  1.5954
  130TIP3    H2  397   3.342   3.042   1.326  0.0262  1.7588  1.0749
  131TIP3   OH2  398   1.043   0.927   5.106 -0.1067  0.2648 -0.1926
  131TIP3    H1  399   1.130   0.889   5.100  0.7537  1.8577  1.4566
  131TIP3    H2  400   1.043   0.977   5.188 -3.0653 -0.9272  0.6942
  132TIP3   OH2  401   5.350   4.113   1.682 -0.2061 -0.0759  0.6609
  132TIP3    H1  402   5.351   4.148   1.771 -2.2363  1.1974  0.2589
  132TIP3    H2  403   5.403   4.034   1.687  0.4767  0.4451  2.7861
  133TIP3   OH2  404   0.218   4.882   0.472  0.6237  0.1466  0.2800
  133TIP3    H1  405   0.198   4.962   0.422  2.9442  0.1071 -0.8450
  133TIP3    H2  406   0.143   4.871   0.530 -0.6052  2.1316 -0.8111
  134TIP3   OH2  407   1.386   5.568   0.486  0.6036 -0.1185  0.2071
  134TIP3    H1  408   1.481   5.567   0.481  0.6164 -0.6178  0.4376
  134TIP3    H2  409   1.362   5.476   0.499  0.1645  0.1410  1.3555
  135TIP3   OH2  410   3.893   0.047   4.343  0.5356 -0.6144 -0.4500
  135TIP3    H1  411   3.954   0.119   4.326  0.3428 -0.2176  0.4782
  135TIP3    H2  412   3.897   0.034   4.437 -2.4606  0.9303  0.0040
  136TIP3   OH2  413   3.510   1.387   0.431 -0.1524  0.2382 -0.2204
  136TIP3    H1  414   3.461   1.451   0.482 -1.3449  1.0425 -2.2785
  136TIP3    H2  415   3.467   1.303   0.449 -1.6601  0.7744 -1.1821
  137TIP3   OH2  416   1.396   2.682   2.500 -0.3688 -0.1811 -0.1009
  137TIP3    H1  417   1.337   2.730   2.558 -1.6502 -2.3300  0.4694
  137TIP3    H2  418   1.369   2.708   2.412 -1.1502  0.0192  0.1909
  138TIP3   OH2  419   5.309   0.045   3.748  0.5790  0.2999  0.1689
  138TIP3    H1  420   5.277  -0.035   3.790 -0.1842 -0.4192 -1.7096
  138TIP3    H2  421   5.315   0.108   3.820  0.9240 -1.3403  1.6356
  139TIP3   OH2  422   4.888   4.146   2.572  0.7009  0.2056 -0.0160
  139TIP3    H1  423   4.882   4.242   2.578 -1.4240  0.0683  0.9877
  139TIP3    H2  424   4.919   4.119   2.659  1.1320 -0.0252 -0.2419
  140TIP3   OH2  425   5.184   3.161   4.079  0.0766  0.1771 -0.0372
  140TIP3    H1  426   5.163   3.084   4.026  0.0909  0.3693 -0.3249
  140TIP3    H2  427   5.115   3.164   4.146  1.0289 -1.0716  1.0547
  141TIP3   OH2  428   0.876   5.245   3.593  0.1230 -0.2628 -0.1728
  141TIP3    H1  429   0.883   5.324   3.538  0.7752  1.1297  1.7900
  141TIP3    H2  430   0.836   5.276   3.674  0.4879 -1.9489  0.6933
  142TIP3   OH2  431   5.926   3.064   1.930  0.4844 -0.0695  0.3046
  142TIP3    H1  432   5.859   3.012   1.885  1.4301  0.8251 -2.3021
  142TIP3    H2  433   5.997   3.002   1.946  0.3496 -0.2738  0.1151
  143TIP3   OH2  434   3.883   0.738   3.862  0.3746  0.6803 -0.2137
  143TIP3    H1  435   3.942   0.697   3.799  0.4803  0.1796  0.2051
  143TIP3    H2  436   3.910   0.830   3.864  1.3742  0.3988  0.2151
  144TIP3   OH2  437   6.183   4.439   5.034 -0.0540  0.1899  0.1236
  144TIP3    H1  438   6.103   4.386   5.041  1.1075 -1.7479 -0.6633
  144TIP3    H2  439   6.180   4.496   5.110 -1.9006 -0.2324  0.4233
  145TIP3   OH2  440   4.727   4.493   3.777 -0.8495 -0.1668 -0.1353
  145TIP3    H1  441   4.798   4.448   3.732 -0.8981 -2.1461  1.6497
  145TIP3    H2  442   4.670   4.423   3.809 -0.9930  1.1060  2.6904
  146TIP3   OH2  443   4.941   1.606   0.599 -0.5732  0.3672 -0.4978
  146TIP3    H1  444   4.913   1.650   0.519 -1.6775 -1.3986 -1.1608
  146TIP3    H2  445   4.901   1.519   0.594  1.0639 -0.5564  0.9637
  147TIP3   OH2  446   5.655   2.442   4.171  0.7753 -0.0565  0.4666
  147TIP3    H1  447   5.560   2.441   4.160  0.8998 -1.4828 -1.0017
  147TIP3    H2  448   5.672   2.518   4.227 -1.1358  0.8093 -0.0215
  148TIP3   OH2  449   3.878   3.314   4.146 -0.0536  0.3543 -0.0777
  148TIP3    H1  450   3.951   3.313   4.084 -0.0353  0.7445 -0.0621
  148TIP3    H2  451   3.849   3.223   4.150  0.6477  0.1340  0.1665
  149TIP3   OH2  452   5.537   1.247   1.940  0.3377  0.0529 -0.6498
  149TIP3    H1  453   5.535   1.152   1.947  1.2381 -0.0121 -1.1999
  149TIP3    H2  454   5.587   1.276   2.016 -0.4616  0.1364 -0.1436
  150TIP3   OH2  455   5.615   0.713   0.650 -0.3012 -0.1084 -0.2411
  150TIP3    H1  456   5.645   0.728   0.560 -0.2046  2.9000  0.2053
  150TIP3    H2  457   5.548   0.779   0.665 -0.3744 -0.5860  1.9013
  151TIP3   OH2  458   4.704   5.031   2.677 -0.3256 -0.2142  0.2710
  151TIP3    H1  459   4.643   5.077   2.619  1.3127  0.9774 -0.6098
  151TIP3    H2  460   4.732   4.954   2.628  2.4379  1.7053 -1.4975
  152TIP3   OH2  461   4.335   1.507   3.380  0.0985 -0.7613 -0.5201
  152TIP3    H1  462   4.240   1.503   3.378 -0.0331  0.1457  1.6205
  152TIP3    H2  463   4.362   1.427   3.425  0.5206 -1.9474 -2.7373
  153TIP3   OH2  464   0.059   5.384   0.295  0.5438 -0.1490 -0.1363
  153TIP3    H1  465   0.150   5.388   0.326  1.0715  0.5546 -1.6536
  153TIP3    H2  466   0.033   5.476   0.288 -0.5715 -0.3542  1.0135
  154TIP3   OH2  467   5.314   3.273   1.503 -0.1783  0.3506  0.2618
  154TIP3    H1  468   5.295   3.266   1.596 -0.5403 -2.0182  0.0777
  154TIP3    H2  469   5.259   3.346   1.473 -1.0137  0.3388  1.6676
  155TIP3   OH2  470   2.241   2.907   4.033 -0.0272  0.1364  0.1428
  155TIP3    H1  471   2.304   2.979   4.027  0.1475 -0.0229  0.0198
  155TIP3    H2  472   2.205   2.899   3.945  0.5174 -0.4198 -0.0434
  156TIP3   OH2  473   0.013   1.003   0.250  0.3262 -0.2782 -0.3060
  156TIP3    H1  474   0.075   0.971   0.185  0.6234 -0.9269  0.2822
  156TIP3    H2  475   0.058   0.992   0.334 -0.2741 -0.0073  0.0592
  157TIP3   OH2  476   1.605   3.352   4.287  0.1332  0.0818 -0.1217
  157TIP3    H1  477   1.655   3.424   4.250 -0.0039  0.6442  0.7675
  157TIP3    H2  478   1.589   3.293   4.213 -0.1308  1.1670 -0.9449
  158TIP3   OH2  479   5.459   5.851   1.763  0.2181  0.6012 -0.0036
  158TIP3    H1  480   5.443   5.929   1.709  0.2886  1.0818  0.6640
  158TIP3    H2  481   5.554   5.850   1.775  0.2483  0.2338 -0.2763
  159TIP3   OH2  482   2.657   4.739   0.615 -0.1248  0.1464  0.0127
  159TIP3    H1  483   2.573   4.711   0.649  0.4695  0.4068  1.8466
  159TIP3    H2  484   2.720   4.678   0.653  0.6193  0.6268 -0.4145
  160TIP3   OH2  485   1.102   1.719   1.919 -0.6604  0.9157  0.5712
  160TIP3    H1  486   1.148   1.796   1.883 -0.1786 -0.6457 -2.4774
  160TIP3    H2  487   1.029   1.704   1.858 -0.4487 -1.2898  0.7769
  161TIP3   OH2  488   5.559   1.849   3.093 -0.4323 -0.1216  0.1495
  161TIP3    H1  489   5.653   1.846   3.111 -0.5575  0.9926  1.0674
  161TIP3    H2  490   5.549   1.921   3.031 -0.7726  0.3913  0.7821
  162TIP3   OH2  491   3.052   3.992   2.987  0.0583 -0.6012  0.5559
  162TIP3    H1  492   3.142   3.981   3.020 -0.0407 -0.6753  0.8064
  162TIP3    H2  493   2.999   3.997   3.066 -0.0881  0.0894  0.4259
  163TIP3   OH2  494   0.786   3.767   4.150 -0.1484  0.2392  0.2653
  163TIP3    H1  495   0.729   3.717   4.092 -1.4052  1.2525  0.5982
  163TIP3    H2  496   0.728   3.825   4.198  1.1350  1.1656  0.7723
  164TIP3   OH2  497   3.620   2.171   0.039 -0.0359  0.3879 -0.7054
  164TIP3    H1  498   3.647   2.165   0.131 -1.3352 -0.4107 -0.3686
  164TIP3    H2  499   3.606   2.265   0.025 -0.8965  0.4078  0.2260
  165TIP3   OH2  500   3.567   2.174   1.675  0.0898  0.7492  0.0547
  165TIP3    H1  501   3.663   2.172   1.674  0.1140 -0.9702  1.2027
  165TIP3    H2  502   3.544   2.153   1.766 -1.3709  0.0638 -0.4511
  166TIP3   OH2  503   2.451   3.945   2.242 -0.8043 -0.5103 -0.1703
  166TIP3    H1  504   2.395   3.959   2.318 -1.3692  1.4452 -0.8995
  166TIP3    H2  505   2.457   3.849   2.235 -0.2078 -0.7670  2.6569
  167TIP3   OH2  506   0.589   2.726   4.617 -0.1386  0.5214  0.2446
  167TIP3    H1  507   0.527   2.753   4.685 -1.1557 -0.3477 -0.2962
  167TIP3    H2  508   0.568   2.783   4.543 -1.0234 -0.4355 -0.2765
  168TIP3   OH2  509   1.448   0.713   1.280 -0.6369 -0.4181  0.5633
  168TIP3    H1  510   1.420   0.783   1.221 -1.2687 -0.0218  1.3165
  168TIP3    H2  511   1.408   0.633   1.244  0.6209 -0.5207 -0.6710
  169TIP3   OH2  512   1.468   2.512   2.743  0.0132  0.1366  0.1175
  169TIP3    H1  513   1.414   2.543   2.815  2.2032  2.3928  0.9397
  169TIP3    H2  514   1.475   2.587   2.684  0.6772 -0.7058 -0.9202
  170TIP3   OH2  515   5.860   4.086   1.109 -0.0151 -0.5914  0.1393
  170TIP3    H1  516   5.809   4.103   1.189  1.0362  1.8298  0.3881
  170TIP3    H2  517   5.836   4.157   1.050  1.3659 -0.7201 -0.6077
  171TIP3   OH2  518   3.243   4.679   0.366 -0.0998  0.1946 -0.1947
  171TIP3    H1  519   3.270   4.732   0.291 -1.0357  1.3873  0.2714
  171TIP3    H2  520   3.323   4.632   0.392  0.6673  1.0766 -0.8764
  172TIP3   OH2  521   5.924   1.469   1.921  0.3716  0.0815  0.1967
  172TIP3    H1  522   5.935   1.405   1.851 -2.5761 -0.0050 -0.3303
  172TIP3    H2  523   5.840   1.447   1.961  0.3558  2.2038  1.5003
  173TIP3   OH2  524   0.185   1.246   3.655 -0.8304 -0.0834 -0.1419
  173TIP3    H1  525   0.251   1.296   3.609 -0.5014  0.1383  0.5588
  173TIP3    H2  526   0.209   1.254   3.748 -1.2631 -0.8192  0.0416
  174TIP3   OH2  527   3.596   0.869   4.382  0.0438 -0.6849  0.1254
  174TIP3    H1  528   3.577   0.884   4.474  1.0855 -0.0187  0.2464
  174TIP3    H2  529   3.556   0.784   4.362 -3.5906  0.8164  0.1742
  175TIP3   OH2  530   4.614   2.828   3.478  0.2512 -0.4307  1.0892
  175TIP3    H1  531   4.663   2.907   3.453 -0.6243  0.1385  1.1464
  175TIP3    H2  532   4.597   2.784   3.394  0.3936 -0.3642  1.0235
  176TIP3   OH2  533   3.838   3.130   0.915 -0.3939 -0.4201 -0.1417
  176TIP3    H1  534   3.793   3.094   0.991 -2.0670 -1.5061 -1.5696
  176TIP3    H2  535   3.791   3.212   0.896 -0.3974 -0.4757 -0.3766
  177TIP3   OH2  536   3.417   0.866   0.239  0.6058  0.6904  0.3671
  177TIP3    H1  537   3.500   0.822   0.218 -0.2500 -0.2487 -1.3220
  177TIP3    H2  538   3.380   0.814   0.311  0.6892  0.0385 -0.0492
  178TIP3   OH2  539   3.874   4.438   3.389  0.4158  0.5233 -0.2097
  178TIP3    H1  540   3.969   4.423   3.390  0.3832  0.3268  1.1315
  178TIP3    H2  541   3.865   4.526   3.352  0.9704 -0.2245 -2.2661
  179TIP3   OH2  542   5.849   1.125   4.691 -0.0769  0.3709 -0.1968
  179TIP3    H1  543   5.887   1.202   4.733 -1.4609  0.6019  0.6913
  179TIP3    H2  544   5.913   1.056   4.705  0.1216  0.7966  1.0627
  180TIP3   OH2  545   6.009   5.120   1.866  0.2283  0.3892 -0.0920
  180TIP3    H1  546   5.924   5.122   1.823  0.6707  2.1944 -0.9729
  180TIP3    H2  547   6.062   5.062   1.812  0.5745  2.0940 -1.7010
  181TIP3   OH2  548   4.931   5.174   3.098 -0.1137 -0.3324  0.4753
  181TIP3    H1  549   4.955   5.266   3.083 -1.1698 -0.2434 -0.8968
  181TIP3    H2  550   4.839   5.178   3.122 -0.7294 -1.1274 -1.5239
  182TIP3   OH2  551   5.994   5.198   2.801  0.3963 -0.0885  0.2746
  182TIP3    H1  552   5.959   5.225   2.716 -0.8058  2.3847  1.4379
  182TIP3    H2  553   5.945   5.119   2.823 -1.5360  0.9284 -0.0598
  183TIP3   OH2  554   1.690   3.859   2.600 -0.0621 -0.2433 -0.2118
  183TIP3    H1  555   1.642   3.862   2.683 -0.9614  0.8316 -0.7423
  183TIP3    H2  556   1.746   3.782   2.607 -0.4257 -0.3986  1.2268
  184TIP3   OH2  557   0.772   4.715   4.946 -0.2522 -0.6034  0.4954
  184TIP3    H1  558   0.808   4.670   4.869  0.3322 -1.4395  1.2420
  184TIP3    H2  559   0.682   4.684   4.952 -0.2122 -0.7558  0.3143
  185TIP3   OH2  560   0.966   0.653   4.013  0.3507 -0.2463  0.8767
  185TIP3    H1  561   1.018   0.614   3.943  1.4239 -0.0142  1.4995
  185TIP3    H2  562   0.979   0.747   4.002  0.2060 -0.1952  1.1393
  186TIP3   OH2  563   5.443   3.870   1.661 -0.5673 -0.3073 -0.1891
  186TIP3    H1  564   5.474   3.836   1.577 -1.8247 -1.2224 -0.3068
  186TIP3    H2  565   5.406   3.794   1.706 -0.7152  0.3464  0.8272
  187TIP3   OH2  566   2.585   3.308   1.924 -0.1058  0.0470 -0.3082
  187TIP3    H1  567   2.499   3.347   1.942  0.5375  1.2054  0.3423
  187TIP3    H2  568   2.565   3.225   1.881 -1.5527  0.3090 -0.1817
  188TIP3   OH2  569   6.377   5.420   3.175 -0.2354  0.0338  0.2736
  188TIP3    H1  570   6.285   5.395   3.188 -0.6030  1.4028  0.3977
  188TIP3    H2  571   6.375   5.485   3.106  0.8366 -1.0614 -0.8277
  189TIP3   OH2  572   0.605   3.192   4.782  0.5552  0.0281  0.4389
  189TIP3    H1  573   0.645   3.106   4.787 -0.9613 -0.6952  0.7892
  189TIP3    H2  574   0.638   3.239   4.859 -1.8374 -1.7409  2.7013
  190TIP3   OH2  575   4.330   0.498   4.253 -0.4207  0.1555  0.1995
  190TIP3    H1  576   4.351   0.583   4.292 -1.0202  0.9531 -1.1219
  190TIP3    H2  577   4.270   0.457   4.315 -1.2711  1.3425  0.2062
  191TIP3   OH2  578   0.153   1.577   1.851  0.4190  0.2540 -0.3736
  191TIP3    H1  579   0.174   1.670   1.851 -2.7400  1.0838 -0.4709
  191TIP3    H2  580   0.179   1.546   1.764  0.7942  1.2217 -0.6093
  192TIP3   OH2  581   2.436   2.705   3.759  0.6118  0.0960 -0.5301
  192TIP3    H1  582   2.369   2.774   3.760  1.8553  1.3476  0.6205
  192TIP3    H2  583   2.395   2.631   3.804 -0.1274  0.7252 -0.1440
  193TIP3   OH2  584   4.794   0.997   2.514  0.2895 -0.4898 -0.4358
  193TIP3    H1  585   4.751   1.025   2.434  0.2285  2.6302  0.5451
  193TIP3    H2  586   4.869   1.056   2.523  0.7967 -1.3260  1.3702
  194TIP3   OH2  587   1.002   1.122   1.345  0.4254 -0.6677 -0.8311
  194TIP3    H1  588   1.082   1.105   1.296  1.3203  0.7271  0.0770
  194TIP3    H2  589   1.032   1.161   1.427 -1.1354 -1.1008 -0.0130
  195TIP3   OH2  590   4.400   2.902   4.064 -0.4598  0.8598 -0.3120
  195TIP3    H1  591   4.489   2.901   4.100 -1.0654  1.5460  1.2963
  195TIP3    H2  592   4.380   2.810   4.047  0.9744  0.7801 -1.8828
  196TIP3   OH2  593   4.578   3.321   1.499 -0.0562 -0.6754  0.1177
  196TIP3    H1  594   4.503   3.365   1.459  0.3033  1.5863  1.7426
  196TIP3    H2  595   4.554   3.228   1.499 -1.5165 -0.3777 -2.0897
  197TIP3   OH2  596   4.704   4.002   4.024 -0.3446  0.2601 -0.0146
  197TIP3    H1  597   4.786   4.050   4.024  1.8229 -3.0732 -1.0433
  197TIP3    H2  598   4.675   4.005   3.932 -1.8546  2.0006  0.4631
  198TIP3   OH2  599   1.581   5.835   2.034  0.0887 -0.4436 -0.3644
  198TIP3    H1  600   1.636   5.912   2.044 -0.4650  0.1793 -1.8435
  198TIP3    H2  601   1.492   5.870   2.024 -0.2014 -1.2795 -0.8236
  199TIP3   OH2  602   5.961   3.640   2.980  0.1804  0.2851  0.1940
  199TIP3    H1  603   6.029   3.638   2.913 -0.6268  0.7983 -0.6700
  199TIP3    H2  604   5.939   3.548   2.995  0.6500  0.1473  0.0507
  200TIP3   OH2  605   1.070   1.847   2.226 -0.5109  0.9055 -0.1634
  200TIP3    H1  606   0.999   1.841   2.162 -0.8510  1.7161  0.1337
  200TIP3    H2  607   1.048   1.923   2.279 -0.4146  0.0490  1.1396
  201TIP3   OH2  608   2.371   4.110   3.207 -0.0800  0.8815 -0.3269
  201TIP3    H1  609   2.355   4.039   3.269 -1.3930  1.5437  0.1389
  201TIP3    H2  610   2.397   4.066   3.126  0.1932 -0.0713  0.2622
  202TIP3   OH2  611   4.765   1.778   0.102  0.0991  0.3406 -0.5505
  202TIP3    H1  612   4.759   1.736   0.188 -0.3504 -1.7811 -1.5484
  202TIP3    H2  613   4.857   1.768   0.078  0.5606  2.2265  0.2329
  203TIP3   OH2  614   4.870   0.185   3.959  0.1002  0.4565 -0.4080
  203TIP3    H1  615   4.783   0.156   3.933  0.2780 -0.7294  0.2617
  203TIP3    H2  616   4.911   0.107   3.997  0.4314  1.7053  1.9277
  204TIP3   OH2  617   3.780   3.020   3.865 -0.3654  0.1122 -0.2377
  204TIP3    H1  618   3.783   2.971   3.947 -1.3988 -1.3165 -1.0047
  204TIP3    H2  619   3.844   2.976   3.808 -2.0771 -1.1497 -1.3002
  205TIP3   OH2  620   4.642   3.681   3.177  0.6773 -0.4991  0.3229
  205TIP3    H1  621   4.631   3.614   3.110 -0.8226 -0.0329  0.0709
  205TIP3    H2  622   4.588   3.650   3.250 -0.4285  0.6484  0.0195
  206TIP3   OH2  623   2.032   1.523   5.122  0.1226  0.0498 -0.4422
  206TIP3    H1  624   2.080   1.562   5.195  1.2913  0.2226 -1.2550
  206TIP3    H2  625   2.025   1.430   5.145  0.5753  0.0831 -0.1507
  207TIP3   OH2  626   4.906   5.557   0.719  0.5006  0.0926  0.4208
  207TIP3    H1  627   4.817   5.587   0.740 -0.7105 -0.7961 -2.8187
  207TIP3    H2  628   4.945   5.632   0.674  0.4355 -0.3467 -0.3903
  208TIP3   OH2  629   3.609   1.140   2.023  0.0645  0.2358 -0.3820
  208TIP3    H1  630   3.663   1.171   2.096 -0.6731 -0.5780  0.5403
  208TIP3    H2  631   3.608   1.045   2.032 -1.0058  0.1963 -0.7414
  209TIP3   OH2  632   1.662   3.441   3.209 -0.1549 -0.4305  0.3259
  209TIP3    H1  633   1.741   3.395   3.183  0.1211 -0.4004  1.0946
  209TIP3    H2  634   1.689   3.532   3.220 -0.3667 -0.3591  0.2705
  210TIP3   OH2  635   4.480   5.946   0.425 -0.0156  0.2125 -0.0137
  210TIP3    H1  636   4.454   5.997   0.349 -1.5811 -0.1038  0.2759
  210TIP3    H2  637   4.457   6.001   0.500  0.5814  0.1034  0.2575
  211TIP3   OH2  638   6.322   0.891   2.094 -0.1390 -0.0211 -0.0965
  211TIP3    H1  639   6.259   0.892   2.021  0.9838 -1.3422 -1.1546
  211TIP3    H2  640   6.395   0.944   2.063 -0.6654  1.4998  1.1252
  212TIP3   OH2  641   0.532   0.098   1.606  0.0133  0.1508  0.6152
  212TIP3    H1  642   0.487   0.021   1.641 -1.7176  0.9649  0.2725
  212TIP3    H2  643   0.462   0.152   1.570  1.4009  0.9016 -1.1002
  213TIP3   OH2  644   4.871   2.346   1.869  0.6602  0.1263  0.2162
  213TIP3    H1  645   4.815   2.376   1.797 -1.0420  0.2450  1.5396
  213TIP3    H2  646   4.956   2.386   1.851  0.2864  0.1882 -1.6915
  214TIP3   OH2  647   0.226   1.920   2.955  0.0289 -0.2843 -0.3031
  214TIP3    H1  648   0.209   1.977   2.879 -0.1196 -0.8544 -0.7042
  214TIP3    H2  649   0.153   1.939   3.015  0.1748  0.2081 -0.2745
  215TIP3   OH2  650   3.327   2.606   4.429 -0.0198 -0.0292 -0.3026
  215TIP3    H1  651   3.386   2.681   4.443 -0.5518  0.4900 -0.7767
  215TIP3    H2  652   3.247   2.629   4.476 -0.5575  0.1765 -1.2928
  216TIP3   OH2  653   0.813   3.150   3.390  0.3083  0.7378  0.1717
  216TIP3    H1  654   0.901   3.111   3.391  0.1303  0.3368  0.5182
  216TIP3    H2  655   0.813   3.207   3.313  1.1426  1.3596  0.5996
  217TIP3   OH2  656   1.866   4.360   5.154  0.4518  0.0774 -0.1504
  217TIP3    H1  657   1.883   4.372   5.248  0.6244  1.1939 -0.3026
  217TIP3    H2  658   1.907   4.276   5.133  1.8318  0.5570  0.4566
  218TIP3   OH2  659   2.034   2.206   4.703  0.2089  0.1612 -0.1953
  218TIP3    H1  660   1.988   2.130   4.739 -0.8652  0.7769 -0.2106
  218TIP3    H2  661   2.118   2.207   4.748 -0.3972 -0.1215  0.9797
  219TIP3   OH2  662   2.770   4.881   0.083 -0.3555  0.3214 -0.1517
  219TIP3    H1  663   2.804   4.792   0.081  1.5015  1.0123 -1.4675
  219TIP3    H2  664   2.835   4.931   0.132 -0.2088  1.3745 -1.3614
  220TIP3   OH2  665   6.343   4.831   0.617 -0.2924  0.0202 -0.7594
  220TIP3    H1  666   6.393   4.780   0.680  0.8692 -0.3091 -1.9073
  220TIP3    H2  667   6.262   4.855   0.663 -0.4875 -2.1274  0.0849
  221TIP3   OH2  668   2.653   1.973   2.032  0.3716  0.1391 -0.3743
  221TIP3    H1  669   2.634   2.047   2.090  1.9872  0.0414  0.3372
  221TIP3    H2  670   2.598   1.988   1.955 -0.6407  1.1264  0.5095
  222TIP3   OH2  671   4.040   3.387   3.172 -0.1642 -0.1375  0.3115
  222TIP3    H1  672   4.002   3.419   3.090  0.0337  0.6812  0.5276
  222TIP3    H2  673   4.123   3.433   3.179 -0.5643  0.4741  1.3947
  223TIP3   OH2  674   0.749   3.321   3.172 -0.0936 -0.2701 -0.1390
  223TIP3    H1  675   0.771   3.410   3.198 -1.6678  0.1761 -0.2065
  223TIP3    H2  676   0.654   3.315   3.185 -0.1822 -1.5982 -1.1424
  224TIP3   OH2  677   5.722   5.510   1.934 -0.3396 -0.0106 -0.4214
  224TIP3    H1  678   5.770   5.489   1.854 -0.0605 -0.5495 -0.1205
  224TIP3    H2  679   5.636   5.471   1.922 -0.1804 -0.3981 -0.3167
  225TIP3   OH2  680   1.058   2.476   4.723  0.3352  0.5191 -0.1599
  225TIP3    H1  681   0.975   2.523   4.724  1.6087  2.8995 -0.3179
  225TIP3    H2  682   1.046   2.407   4.657 -1.8139  0.1196  0.5740
  226TIP3   OH2  683   2.204   1.032   3.726 -0.0112 -0.3695 -0.0834
  226TIP3    H1  684   2.211   1.112   3.672  0.3040 -1.3757 -1.6017
  226TIP3    H2  685   2.135   1.052   3.789  0.2595  1.2043 -0.2437
  227TIP3   OH2  686   4.126   0.134   2.565  0.6662  0.5762  0.1242
  227TIP3    H1  687   4.162   0.149   2.478  1.0029  1.9077  0.4702
  227TIP3    H2  688   4.075   0.054   2.556 -1.4746  2.0430 -1.9799
  228TIP3   OH2  689   1.652   3.400   3.948  0.0252  0.3559  0.0954
  228TIP3    H1  690   1.566   3.395   3.991  0.3546  1.5345  0.9395
  228TIP3    H2  691   1.644   3.473   3.887  0.7327  1.1733  0.9503
  229TIP3   OH2  692   5.237   2.201   1.408 -0.1079 -0.0691  0.0197
  229TIP3    H1  693   5.224   2.178   1.316  0.6129  0.3520 -0.1929
  229TIP3    H2  694   5.244   2.116   1.453 -2.1106 -0.3216 -0.0360
  230TIP3   OH2  695   4.871   3.400   4.945 -0.6281  0.3592 -0.6156
  230TIP3    H1  696   4.893   3.315   4.983 -2.9704  0.2475  0.6806
  230TIP3    H2  697   4.848   3.381   4.854 -1.1701 -0.4135 -0.3220
  231TIP3   OH2  698   3.766   2.737   1.075  0.0415  1.0428 -0.4724
  231TIP3    H1  699   3.741   2.807   1.015 -0.1035  0.1268 -1.4992
  231TIP3    H2  700   3.796   2.783   1.154 -0.2870  2.2493 -1.0276
  232TIP3   OH2  701   1.884   4.406   0.238 -0.2433 -0.3502  0.7745
  232TIP3    H1  702   1.923   4.485   0.200  0.6949 -1.3144 -0.3386
  232TIP3    H2  703   1.790   4.416   0.222 -0.1762  0.6724  0.9339
  233TIP3   OH2  704   2.516   5.308   0.855 -0.0422 -0.2320  0.3902
  233TIP3    H1  705   2.472   5.228   0.826 -1.9907  0.2066  1.9157
  233TIP3    H2  706   2.445   5.370   0.871  1.2966  1.2032  1.0189
  234TIP3   OH2  707   1.997   5.867   3.788  0.2172 -0.3180  0.0525
  234TIP3    H1  708   1.979   5.783   3.745  0.4481 -0.2205 -0.2347
  234TIP3    H2  709   1.967   5.933   3.726  0.7503 -0.1715 -0.0593
  235TIP3   OH2  710   5.913   1.614   4.061  0.0247  0.2674 -0.2958
  235TIP3    H1  711   5.993   1.562   4.067 -0.7351 -0.7843  1.8338
  235TIP3    H2  712   5.939   1.693   4.015  2.5541  0.3745  1.1427
  236TIP3   OH2  713   5.492   3.672   0.142 -0.1709 -0.2903 -0.6503
  236TIP3    H1  714   5.430   3.604   0.170 -0.8751  1.1175  1.4459
  236TIP3    H2  715   5.577   3.640   0.171 -0.5379 -0.1757  0.6158
  237TIP3   OH2  716   6.259   1.860   2.855 -0.0971  0.4626 -0.1962
  237TIP3    H1  717   6.225   1.942   2.819  0.7513  1.4050  1.0809
  237TIP3    H2  718   6.188   1.826   2.908 -0.1321  0.8678  0.0247
  238TIP3   OH2  719   3.033   0.096   1.356 -0.0798  0.5627  0.5142
  238TIP3    H1  720   3.112   0.067   1.312  1.7756  3.3431  1.7364
  238TIP3    H2  721   2.978   0.130   1.285  0.3156 -0.2917 -0.2262
  239TIP3   OH2  722   1.028   1.767   4.530  0.6040  0.3038 -0.2321
  239TIP3    H1  723   1.095   1.819   4.485  1.8130 -0.8556  0.1750
  239TIP3    H2  724   1.073   1.731   4.606 -0.9711  0.9350  1.0662
  240TIP3   OH2  725   3.813   3.780   3.633  0.8131  0.3971 -0.1337
  240TIP3    H1  726   3.906   3.784   3.656  1.0268 -0.5211 -0.7750
  240TIP3    H2  727   3.777   3.711   3.688  0.1590  1.7366  1.1809
  241TIP3   OH2  728   5.600   4.190   2.736  0.0962 -0.2246 -0.0240
  241TIP3    H1  729   5.628   4.202   2.827  1.5374 -1.8340 -0.2040
  241TIP3    H2  730   5.639   4.265   2.690 -0.2406  0.3360  0.5717
  242TIP3   OH2  731   2.453   1.586   0.217 -0.4568  0.2466  1.4552
  242TIP3    H1  732   2.473   1.674   0.184  0.3563 -0.9718 -1.6569
  242TIP3    H2  733   2.524   1.566   0.277  0.3513  1.0812  0.8140
  243TIP3   OH2  734   6.117   0.873   3.290  0.0546  0.7156 -0.1599
  243TIP3    H1  735   6.154   0.877   3.202  0.5577 -0.2312 -0.0071
  243TIP3    H2  736   6.035   0.826   3.279  0.7881 -0.6551  0.0675
  244TIP3   OH2  737   0.963   4.150   3.650  0.1527  0.0084 -0.1472
  244TIP3    H1  738   0.902   4.193   3.710 -1.6212 -0.9399 -1.1869
  244TIP3    H2  739   0.957   4.057   3.673  2.0067 -0.0094  0.3959
  245TIP3   OH2  740   1.091   2.065   3.848 -0.3447  0.0752 -0.1756
  245TIP3    H1  741   1.028   2.133   3.823  1.1724  0.8311 -2.2210
  245TIP3    H2  742   1.165   2.113   3.884 -0.2990 -0.6975  0.7870
  246TIP3   OH2  743   4.935  -0.019   3.019  0.4591  0.4773 -0.1484
  246TIP3    H1  744   4.903   0.050   3.077  1.2664 -0.1807  1.1368
  246TIP3    H2  745   4.873  -0.020   2.946 -0.8297  1.0676  0.8983
  247TIP3   OH2  746   1.951   0.862   1.754 -0.2814 -0.9386 -0.2531
  247TIP3    H1  747   1.993   0.793   1.804 -0.5332 -0.0806  1.2250
  247TIP3    H2  748   1.863   0.870   1.792 -0.6736 -0.5868 -1.1758
  248TIP3   OH2  749   3.639   1.578   3.718  1.0014 -0.1341  0.1165
  248TIP3    H1  750   3.681   1.575   3.632 -0.3408  0.1199 -0.5782
  248TIP3    H2  751   3.566   1.517   3.711 -0.3026  1.3259  0.4002
  249TIP3   OH2  752   6.058   2.596   1.599  0.2016  0.4279  0.6430
  249TIP3    H1  753   6.103   2.515   1.622  1.0300  0.7965  0.3658
  249TIP3    H2  754   6.018   2.626   1.680 -0.2721 -0.3548  0.7019
  250TIP3   OH2  755   6.317   3.990   4.609 -0.2710  0.5142  0.2662
  250TIP3    H1  756   6.233   4.000   4.565 -1.5130 -0.3646  2.2726
  250TIP3    H2  757   6.322   3.898   4.633  2.0648  0.1652 -1.1665
  251TIP3   OH2  758   0.101   2.290   5.022  0.4310  0.4870  0.0207
  251TIP3    H1  759   0.069   2.292   4.932  1.3697 -1.4031 -0.4057
  251TIP3    H2  760   0.027   2.257   5.073  0.2722  0.4420 -0.2351
  252TIP3   OH2  761   5.495   2.660   3.987 -0.0327  0.0897 -0.0909
  252TIP3    H1  762   5.493   2.587   3.925  0.2318  0.1241 -0.1398
  252TIP3    H2  763   5.587   2.685   3.991  0.6991 -2.3715  3.1496
  253TIP3   OH2  764   1.735   3.270   2.968 -0.0357  0.5693  0.0942
  253TIP3    H1  765   1.716   3.364   2.976 -1.7196  0.1942  0.9720
  253TIP3    H2  766   1.649   3.228   2.974  0.5375 -0.9760 -1.5855
  254TIP3   OH2  767   0.115   1.935   1.140 -0.8432 -1.2810 -0.0275
  254TIP3    H1  768   0.181   1.999   1.165  1.5444 -2.6124 -2.3957
  254TIP3    H2  769   0.054   1.983   1.084 -0.6318 -0.5072  0.3965
  255TIP3   OH2  770   4.005   4.918   0.314  0.0402 -0.6692  0.7764
  255TIP3    H1  771   3.949   4.963   0.377  0.6893 -0.3961  1.1659
  255TIP3    H2  772   3.944   4.880   0.251 -0.5624  0.0429  0.9160
  256TIP3   OH2  773   5.318   1.040   1.696  0.4597 -0.7031 -0.1357
  256TIP3    H1  774   5.348   0.996   1.617  0.6186 -0.5607 -0.1542
  256TIP3    H2  775   5.222   1.036   1.690  0.4539  0.1610 -0.8196
  257TIP3   OH2  776   2.347   3.285   2.779 -0.0390  0.0610  0.6638
  257TIP3    H1  777   2.398   3.205   2.768  0.7152  0.7394 -1.0006
  257TIP3    H2  778   2.411   3.356   2.768 -1.0378  0.9119  0.1970
  258TIP3   OH2  779   2.081   1.822   1.574 -0.8020 -0.1042  0.5264
  258TIP3    H1  780   2.040   1.770   1.643 -1.0130 -0.6347  0.0179
  258TIP3    H2  781   2.146   1.876   1.619 -0.9570 -0.4166  1.1377
  259TIP3   OH2  782   1.352   3.417   4.986  0.1975 -0.5806 -0.4148
  259TIP3    H1  783   1.287   3.368   4.935  0.2112 -1.2430  0.1859
  259TIP3    H2  784   1.413   3.451   4.920  0.4788 -1.8094 -0.8187
  260TIP3   OH2  785   3.892   2.688   3.694 -0.5742 -0.1408  0.4962
  260TIP3    H1  786   3.949   2.612   3.684  1.6939  1.4123  0.6056
  260TIP3    H2  787   3.886   2.725   3.606 -2.1871 -0.7420  0.3227
  261TIP3   OH2  788   2.127   1.061   0.679 -0.5000 -0.3232 -0.0121
  261TIP3    H1  789   2.039   1.096   0.662  0.4445  1.8244 -0.7578
  261TIP3    H2  790   2.149   1.095   0.766 -0.5268 -1.2091  0.3585
  262TIP3   OH2  791   4.334   5.068   5.045  0.0840  0.5649  0.2493
  262TIP3    H1  792   4.367   5.156   5.028 -0.0731  0.6884  0.5755
  262TIP3    H2  793   4.273   5.051   4.973  0.7895  0.3634 -0.3144
  263TIP3   OH2  794   0.588   1.978   0.266  0.2917 -0.1498 -0.1785
  263TIP3    H1  795   0.627   1.992   0.180 -0.9414 -0.0562 -0.7308
  263TIP3    H2  796   0.494   1.975   0.250 -0.0895  1.6170  1.3691
  264TIP3   OH2  797   2.154   0.502   5.106 -0.1742 -0.9779 -0.0027
  264TIP3    H1  798   2.150   0.407   5.094  2.5648 -1.4990  2.3322
  264TIP3    H2  799   2.241   0.527   5.075 -0.4785  0.6127  0.3275
  265TIP3   OH2  800   0.775   1.609   4.499 -0.6518  0.0702  0.2493
  265TIP3    H1  801   0.808   1.682   4.550 -2.5380  1.3130 -0.1987
  265TIP3    H2  802   0.794   1.532   4.552  0.2675  0.9979  1.3114
  266TIP3   OH2  803   1.418   5.910   3.792 -0.0882 -0.4644 -0.1935
  266TIP3    H1  804   1.446   5.819   3.805 -0.4013 -0.5735 -0.2748
  266TIP3    H2  805   1.340   5.919   3.846 -0.2386 -0.3365 -0.4306
  267TIP3   OH2  806   2.128   3.322   4.721 -0.2485  0.0564  0.0934
  267TIP3    H1  807   2.128   3.258   4.792  0.9041  0.8769  0.8767
  267TIP3    H2  808   2.216   3.317   4.684 -0.2667  0.9083 -0.0844
  268TIP3   OH2  809   1.255   4.682   0.979 -0.3524  0.6909 -0.0308
  268TIP3    H1  810   1.196   4.640   0.916 -0.5822  0.4551  0.3343
  268TIP3    H2  811   1.256   4.622   1.054  1.2194  0.1515 -0.4651
  269TIP3   OH2  812   5.829   2.898   2.815  0.9392 -0.2667 -0.5855
  269TIP3    H1  813   5.868   2.814   2.838  0.3458 -0.4974 -0.3974
  269TIP3    H2  814   5.740   2.876   2.787 -1.1556  0.6376  4.2077
  270TIP3   OH2  815   4.156   5.264   2.966  0.0677  0.4985 -0.2204
  270TIP3    H1  816   4.235   5.269   2.912 -0.4260 -0.3676 -1.0661
  270TIP3    H2  817   4.161   5.340   3.024  1.7835  0.1535  0.1284
  271TIP3   OH2  818   4.306   4.624   1.578  0.1688  0.2058 -0.4446
  271TIP3    H1  819   4.338   4.536   1.559  0.1105 -0.3961  1.8482
  271TIP3    H2  820   4.380   4.681   1.558  0.0694 -0.2735 -2.3672
  272TIP3   OH2  821   2.267   5.736   1.003  0.1904  0.4470  0.6695
  272TIP3    H1  822   2.278   5.733   0.908  0.4635  0.8658  0.6841
  272TIP3    H2  823   2.195   5.799   1.016  1.0936  1.4767  0.7997
  273TIP3   OH2  824   1.792   1.318   2.106 -0.3576  0.1527 -0.3090
  273TIP3    H1  825   1.716   1.357   2.062 -0.9381 -1.9710 -1.3154
  273TIP3    H2  826   1.760   1.298   2.194 -0.4919  0.6714 -0.2390
  274TIP3   OH2  827   4.285   5.503   5.017 -0.1265  0.1596  0.2328
  274TIP3    H1  828   4.359   5.562   5.003  0.5715 -0.1918  2.0178
  274TIP3    H2  829   4.225   5.552   5.073  0.3131 -0.6611  1.4678
  275TIP3   OH2  830   1.878   2.489   4.302  0.1634 -0.3357 -0.4340
  275TIP3    H1  831   1.939   2.511   4.372 -0.1850 -1.9301  0.4138
  275TIP3    H2  832   1.796   2.530   4.328 -1.0064 -3.8437  2.1100
  276TIP3   OH2  833   2.206   1.902   1.127  0.0472 -0.2762  0.0213
  276TIP3    H1  834   2.235   1.814   1.105 -0.0064 -0.4678  0.6857
  276TIP3    H2  835   2.148   1.890   1.203  0.4745  0.3766  0.4650
  277TIP3   OH2  836   4.610   4.983   5.087 -0.2688  0.6293 -0.5143
  277TIP3    H1  837   4.622   5.065   5.038 -0.9364  0.9063 -0.2182
  277TIP3    H2  838   4.522   4.989   5.123 -0.0506  0.1045  0.1267
  278TIP3   OH2  839   0.056  -0.014   4.121  0.2713  0.1142  0.1167
  278TIP3    H1  840   0.032  -0.049   4.207  3.3260 -1.2771  0.5182
  278TIP3    H2  841   0.056   0.081   4.134 -2.9182  0.1728  0.5172
  279TIP3   OH2  842   3.618   3.445   4.150 -0.3868 -0.3406 -0.3532
  279TIP3    H1  843   3.695   3.429   4.096 -1.6064  0.1618 -2.3435
  279TIP3    H2  844   3.546   3.457   4.087 -1.8816  0.3257  1.3813
  280TIP3   OH2  845   4.263   3.634   0.184  0.5636  0.5606 -0.5187
  280TIP3    H1  846   4.180   3.660   0.144  0.9765  1.1384 -1.0021
  280TIP3    H2  847   4.329   3.656   0.119  1.3038  1.9834  0.6565
  281TIP3   OH2  848   2.642   4.809   4.238 -0.5028 -0.7893  0.1242
  281TIP3    H1  849   2.721   4.767   4.203  0.1410 -1.8063  2.5747
  281TIP3    H2  850   2.571   4.751   4.211 -0.2329 -0.7208 -0.7637
  282TIP3   OH2  851   0.290   5.519   1.934  0.2684 -0.0133  1.0843
  282TIP3    H1  852   0.327   5.520   1.846 -0.2239 -0.9249  0.8583
  282TIP3    H2  853   0.197   5.538   1.922 -0.0797 -1.4532  1.2432
  283TIP3   OH2  854   1.481   0.057   3.122 -0.4671  0.0778  0.7611
  283TIP3    H1  855   1.392   0.052   3.158 -0.2675  1.5575  1.5299
  283TIP3    H2  856   1.488   0.146   3.088  1.7326  1.1165  3.5426
  284TIP3   OH2  857   1.176   5.730   2.984 -0.7011  0.7408 -0.4980
  284TIP3    H1  858   1.220   5.781   3.052 -0.8456 -1.0649  1.0643
  284TIP3    H2  859   1.085   5.724   3.015 -0.5583 -0.8949 -0.3061
  285TIP3   OH2  860   2.269   0.275   1.816  0.1748  0.4244 -0.2570
  285TIP3    H1  861   2.283   0.326   1.737  0.9785 -0.5280 -0.7594
  285TIP3    H2  862   2.334   0.309   1.878 -0.2562  0.9677 -0.0907
  286TIP3   OH2  863   6.289   2.939   2.438 -0.4370  0.0810  0.3518
  286TIP3    H1  864   6.357   2.877   2.465  0.6093  0.5290 -1.1057
  286TIP3    H2  865   6.290   2.934   2.342 -1.9600  0.6551  0.2838
  287TIP3   OH2  866   1.489   0.120   0.782  0.3075  0.0575 -0.5746
  287TIP3    H1  867   1.422   0.054   0.799 -1.1034  1.1659 -1.6280
  287TIP3    H2  868   1.476   0.144   0.690  0.6706  1.9157 -0.1804
  288TIP3   OH2  869   0.726   3.319   0.724 -0.0331  0.4705  0.4290
  288TIP3    H1  870   0.694   3.382   0.659  2.2273  1.6062  0.3195
  288TIP3    H2  871   0.755   3.373   0.798  1.3740 -0.4670  0.6051
  289TIP3   OH2  872   2.181   4.871   1.723 -0.2984 -0.4032  0.0751
  289TIP3    H1  873   2.245   4.811   1.762 -0.2017  0.1325  0.7445
  289TIP3    H2  874   2.230   4.950   1.704 -0.4636 -0.4730 -0.6716
  290TIP3   OH2  875   3.614   1.315   3.549  0.4039 -0.5019  0.2083
  290TIP3    H1  876   3.525   1.301   3.519  0.4848 -1.6672  0.4831
  290TIP3    H2  877   3.667   1.314   3.469  0.1770  0.3013  0.0348
  291TIP3   OH2  878   3.770   3.465   4.823  0.3216 -0.7261  0.7330
  291TIP3    H1  879   3.814   3.548   4.807 -2.1638  1.3620  3.5227
  291TIP3    H2  880   3.687   3.473   4.777 -0.4081 -1.1357  1.9241
  292TIP3   OH2  881   1.834   0.202   3.271 -0.3077 -0.4978 -0.2340
  292TIP3    H1  882   1.801   0.290   3.252 -2.0753 -1.1371 -0.2889
  292TIP3    H2  883   1.841   0.161   3.185 -0.4535 -0.7327 -0.1332
  293TIP3   OH2  884   0.235   3.536   0.119  0.6329 -0.3877 -0.8548
  293TIP3    H1  885   0.225   3.440   0.120  3.7326 -0.8396 -1.1671
  293TIP3    H2  886   0.177   3.567   0.188 -0.0188 -2.5593 -0.3372
  294TIP3   OH2  887   4.909   2.027   4.467 -0.2831  0.6444  0.4160
  294TIP3    H1  888   4.976   1.960   4.484  0.3602  0.7895 -1.3429
  294TIP3    H2  889   4.958   2.108   4.457 -0.9344  1.1371  1.1324
  295TIP3   OH2  890   3.168   0.547   1.875 -0.5984  0.3931  0.5256
  295TIP3    H1  891   3.219   0.466   1.871  1.7015  1.7691 -0.1983
  295TIP3    H2  892   3.163   0.568   1.968  0.2392  0.2674  0.6033
  296TIP3   OH2  893   2.492   5.776   2.082  0.1671 -0.5637  0.1406
  296TIP3    H1  894   2.544   5.831   2.141  0.8387  0.0038 -0.9580
  296TIP3    H2  895   2.537   5.692   2.082 -0.0182 -0.6670  0.6771
  297TIP3   OH2  896   3.066   4.864   1.945 -0.0048 -0.2911  0.4545
  297TIP3    H1  897   2.998   4.844   2.010  0.5832  0.6919  1.3941
  297TIP3    H2  898   3.022   4.921   1.881 -0.3651 -0.6025  0.4182
  298TIP3   OH2  899   2.648   5.052   3.389  0.1960  0.2562 -0.2326
  298TIP3    H1  900   2.595   4.973   3.378 -0.1778  0.1489  1.8204
  298TIP3    H2  901   2.711   5.028   3.458  0.3029  1.6281  0.1745
  299TIP3   OH2  902   2.141   3.768   3.069 -0.4249 -0.4313 -0.0255
  299TIP3    H1  903   2.073   3.709   3.035 -0.0822 -1.0142  0.2865
  299TIP3    H2  904   2.206   3.772   3.000 -0.1424 -0.9339  0.2037
  300TIP3   OH2  905   3.421   5.793   2.203 -0.1422  0.4296  0.1896
  300TIP3    H1  906   3.464   5.724   2.253  0.9285  0.3899 -0.7713
  300TIP3    H2  907   3.434   5.872   2.256  0.2231  0.2297  0.4041
  301TIP3   OH2  908   4.682   3.591   3.620  0.0827  0.1471 -0.4387
  301TIP3    H1  909   4.620   3.591   3.693 -0.1788 -0.1682 -0.6585
  301TIP3    H2  910   4.729   3.508   3.627 -0.4033 -0.1869 -1.0075
  302TIP3   OH2  911   2.100   0.319   2.395 -0.3793  0.9044 -0.1493
  302TIP3    H1  912   2.113   0.341   2.487 -0.5435  1.0517 -0.1607
  302TIP3    H2  913   2.068   0.229   2.396 -0.8067  1.0554 -0.0350
  303TIP3   OH2  914   4.582   2.170   0.103  0.2199  0.0590 -0.0862
  303TIP3    H1  915   4.537   2.111   0.043  1.6145 -1.9848  0.7602
  303TIP3    H2  916   4.516   2.196   0.166 -0.0027 -2.4774  0.8439
  304TIP3   OH2  917   2.126   4.541   2.436 -0.2612  0.0408  0.0751
  304TIP3    H1  918   2.203   4.530   2.492 -0.3458 -1.0829 -0.0052
  304TIP3    H2  919   2.093   4.628   2.457  0.3262  0.0535  0.9938
  305TIP3   OH2  920   5.050   4.252   2.140 -0.2121 -0.3728  0.0522
  305TIP3    H1  921   4.977   4.226   2.196 -0.5618  0.2111 -0.1273
  305TIP3    H2  922   5.127   4.249   2.198 -0.4140 -0.7288  0.3081
  306TIP3   OH2  923   4.794   0.247   4.253  0.3122  0.4234 -0.0179
  306TIP3    H1  924   4.803   0.225   4.161 -0.4206  0.8717 -0.2082
  306TIP3    H2  925   4.838   0.176   4.300  0.0701 -0.1819 -0.6896
  307TIP3   OH2  926   3.119   1.038   0.502  0.0706  0.0139  0.0778
  307TIP3    H1  927   3.116   1.129   0.533 -0.1054  0.0151  0.0579
  307TIP3    H2  928   3.110   0.986   0.581 -0.8297  0.0184 -0.0130
  308TIP3   OH2  929   3.266   2.328   3.846  0.1546  0.0631  0.0335
  308TIP3    H1  930   3.186   2.304   3.893 -0.8919  0.7383 -1.3165
  308TIP3    H2  931   3.336   2.321   3.911 -1.0022 -0.5481  1.2496
  309TIP3   OH2  932   0.597   1.477   0.899  0.8236 -0.7309 -0.1905
  309TIP3    H1  933   0.547   1.408   0.943 -2.9037  1.5297 -0.3613
  309TIP3    H2  934   0.612   1.542   0.968  1.2917 -0.2783 -0.7190
  310TIP3   OH2  935   3.350   1.425   1.041  0.1555  0.3505 -0.0556
  310TIP3    H1  936   3.442   1.406   1.022 -0.2382 -2.7817  0.6125
  310TIP3    H2  937   3.304   1.402   0.960 -0.3331 -1.7110  0.7399
  311TIP3   OH2  938   2.203   0.043   1.705  0.1255 -0.3528 -0.5351
  311TIP3    H1  939   2.221   0.116   1.764 -0.8897 -0.6685  0.2080
  311TIP3    H2  940   2.283   0.032   1.654  1.3891 -0.6625  1.4338
  312TIP3   OH2  941   0.626   2.990   2.421  0.5646  0.1613  0.3049
  312TIP3    H1  942   0.562   3.017   2.486  1.4466  0.8314  0.9213
  312TIP3    H2  943   0.650   2.901   2.445 -0.5662 -0.3230 -0.2944
  313TIP3   OH2  944   1.812   0.564   0.789 -0.2316 -0.1484 -0.7181
  313TIP3    H1  945   1.848   0.481   0.821  1.7466  0.3681 -1.4025
  313TIP3    H2  946   1.846   0.630   0.849 -0.9033  0.2814 -0.8027
  314TIP3   OH2  947   4.939   1.210   2.212  0.0326  0.6215 -0.5368
  314TIP3    H1  948   4.895   1.280   2.261  0.2160  0.8281 -0.6606
  314TIP3    H2  949   5.027   1.245   2.195  0.5495 -0.1535  0.4869
  315TIP3   OH2  950   2.057   5.903   0.959  0.3759 -0.3345 -0.1946
  315TIP3    H1  951   2.102   5.983   0.931  0.8923 -0.5529  0.0031
  315TIP3    H2  952   1.987   5.934   1.016  0.2046  0.0141 -0.5806
  316TIP3   OH2  953   5.180   4.506   0.929  0.5453 -0.5725 -0.3869
  316TIP3    H1  954   5.114   4.560   0.973  2.0067  2.3835 -1.5273
  316TIP3    H2  955   5.144   4.491   0.842  1.6810  2.0669 -1.4349
  317TIP3   OH2  956   3.222   5.070   4.618 -0.3272  0.7101 -0.4304
  317TIP3    H1  957   3.241   5.002   4.682 -2.3586  0.0759 -0.4214
  317TIP3    H2  958   3.248   5.032   4.534  1.0811  1.0232 -0.1656
  318TIP3   OH2  959   5.203   5.301   1.978  0.5090 -0.5745 -0.3868
  318TIP3    H1  960   5.175   5.339   1.894 -0.5188 -1.7982 -0.6209
  318TIP3    H2  961   5.167   5.360   2.044 -2.9871 -2.1699 -0.6532
  319TIP3   OH2  962   0.485   1.924   2.940  0.4334 -0.6731  0.6261
  319TIP3    H1  963   0.391   1.908   2.952  0.7144 -2.7075  0.3515
  319TIP3    H2  964   0.489   1.982   2.864 -0.5819 -0.9562  0.3323
  320TIP3   OH2  965   1.076   0.654   2.982  0.1217  0.2784  0.0713
  320TIP3    H1  966   0.995   0.618   3.017  0.5295 -0.7442  0.0229
  320TIP3    H2  967   1.054   0.680   2.893  0.0495 -0.8744 -0.2716
  321TIP3   OH2  968   5.551   3.505   3.028 -0.1808 -0.2390  0.1507
  321TIP3    H1  969   5.474   3.455   3.057 -0.3317  0.6418  1.3523
  321TIP3    H2  970   5.596   3.528   3.109 -0.0570  1.4701 -0.3568
  322TIP3   OH2  971   0.447   2.579   1.202  0.0859  0.0022  0.1658
  322TIP3    H1  972   0.515   2.515   1.224  0.7067  0.2537 -0.9606
  322TIP3    H2  973   0.489   2.637   1.138 -1.1937  0.1619 -0.5450
  323TIP3   OH2  974   5.479   1.602   3.012  0.4905 -0.0283 -0.0123
  323TIP3    H1  975   5.513   1.682   3.052 -1.1635  1.1061 -0.7714
  323TIP3    H2  976   5.524   1.532   3.059 -0.2413  1.2380  2.8578
  324TIP3   OH2  977   3.123   1.301   0.219 -0.2160 -0.2598  0.4905
  324TIP3    H1  978   3.088   1.262   0.139 -1.7236  0.4456  0.7820
  324TIP3    H2  979   3.186   1.236   0.251 -1.0008 -1.4247 -0.2507
  325TIP3   OH2  980   3.101   0.635   1.224  0.5502 -0.1079  0.3725
  325TIP3    H1  981   3.062   0.561   1.271 -0.8650  1.1273  1.2537
  325TIP3    H2  982   3.048   0.644   1.145  0.9748 -0.2890  0.0680
  326TIP3   OH2  983   4.976   0.136   0.659  0.1927 -0.2667  0.5290
  326TIP3    H1  984   5.028   0.083   0.720  0.4609 -0.1232  0.4259
  326TIP3    H2  985   5.041   0.179   0.603 -0.0981 -2.5027 -1.6673
  327TIP3   OH2  986   3.978   5.838   0.716  0.5250 -0.3517 -0.3988
  327TIP3    H1  987   3.921   5.853   0.641  0.0891 -1.1456 -0.2396
  327TIP3    H2  988   3.931   5.876   0.791  0.7246 -0.0126 -0.4443
  328TIP3   OH2  989   2.772   4.214   2.286  0.1733  0.1446 -0.1056
  328TIP3    H1  990   2.697   4.192   2.342  0.3862 -2.2829 -0.6644
  328TIP3    H2  991   2.840   4.242   2.347  0.1863 -1.8312  0.8419
  329TIP3   OH2  992   5.334   0.953   4.998 -0.0852  0.0553 -0.9177
  329TIP3    H1  993   5.384   1.035   5.005  0.5245 -0.4308  1.0562
  329TIP3    H2  994   5.248   0.981   4.967  0.4737  1.2927 -1.4445
  330TIP3   OH2  995   5.329   2.929   2.471 -0.1530  0.2691 -0.3666
  330TIP3    H1  996   5.403   2.986   2.449  0.0106  0.1632 -0.0955
  330TIP3    H2  997   5.264   2.988   2.510 -0.3175  0.4048 -0.8461
  331TIP3   OH2  998   6.085   0.862   0.874  0.1117 -0.1453 -0.2702
  331TIP3    H1  999   6.064   0.915   0.797 -0.1217  0.4089  0.1725
  331TIP3    H2 1000   6.170   0.823   0.853 -0.4374 -0.8709 -1.2647
  332TIP3   OH2 1001   2.247   0.299   3.020 -0.4281 -1.0376 -0.2804
  332TIP3    H1 1002   2.340   0.319   3.010 -0.9236  0.9102 -1.5809
  332TIP3    H2 1003   2.231   0.227   2.959 -0.3717  0.8811 -2.7103
  333TIP3   OH2 1004   2.809   2.354   1.102 -0.0735  0.1906 -0.2473
  333TIP3    H1 1005   2.812   2.449   1.096 -1.5500  0.2459 -0.5854
  333TIP3    H2 1006   2.726   2.335   1.145  0.8797 -0.9216  1.1656
  334TIP3   OH2 1007   0.172   2.063   3.548  0.2931  0.1493 -0.1355
  334TIP3    H1 1008   0.109   1.996   3.520  0.4753  0.2256 -0.7469
  334TIP3    H2 1009   0.248   2.013   3.578  0.2757  0.0693 -0.2218
  335TIP3   OH2 1010   0.229   2.299   0.811  0.3192  0.0216 -1.3687
  335TIP3    H1 1011   0.176   2.332   0.738 -0.2557 -0.3590 -1.1376
  335TIP3    H2 1012   0.183   2.329   0.889  0.5794 -0.1090 -1.1653
  336TIP3   OH2 1013   3.575   1.914   4.281 -0.3851  0.1473  0.0551
  336TIP3    H1 1014   3.587   1.949   4.192 -1.4208  0.0026 -0.1535
  336TIP3    H2 1015   3.482   1.892   4.285 -0.6316  1.3099  1.5918
  337TIP3   OH2 1016   6.090   2.188   2.339  0.1786 -0.2562 -0.1582
  337TIP3    H1 1017   6.051   2.101   2.329 -1.7944  0.6083 -0.3986
  337TIP3    H2 1018   6.062   2.216   2.426  0.1690  0.4233 -0.3764
  338TIP3   OH2 1019   3.696   0.143   0.880 -0.4098 -0.2216  0.2219
  338TIP3    H1 1020   3.724   0.132   0.789 -0.9598  0.6716 -0.0777
  338TIP3    H2 1021   3.629   0.077   0.893 -2.2106  1.2715 -0.8821
  339TIP3   OH2 1022   0.877   2.880   4.591  0.2335  0.0486 -0.3107
  339TIP3    H1 1023   0.882   2.841   4.504 -1.0510 -0.0287 -0.3712
  339TIP3    H2 1024   0.900   2.972   4.577 -0.6339  0.1942 -0.8661
  340TIP3   OH2 1025   2.420   0.929   4.035 -0.1201  0.0545 -0.1933
  340TIP3    H1 1026   2.402   1.022   4.047  1.0584  0.1265  1.2788
  340TIP3    H2 1027   2.482   0.926   3.962 -1.2432  0.2794 -1.1910
  341TIP3   OH2 1028   6.084   4.912   3.193 -0.3768 -0.3559 -0.5798
  341TIP3    H1 1029   6.105   4.892   3.284 -0.2484  1.7088 -0.0957
  341TIP3    H2 1030   6.034   4.837   3.162  1.3397 -2.0483  0.5351
  342TIP3   OH2 1031   5.362   0.944   1.436 -0.5371 -0.1003  0.7725
  342TIP3    H1 1032   5.358   0.938   1.341 -0.4092  1.5429  0.6431
  342TIP3    H2 1033   5.302   0.875   1.467 -1.6683  0.2682 -0.5167
  343TIP3   OH2 1034   5.187   0.585   2.044  0.5136  0.1757  0.0158
  343TIP3    H1 1035   5.105   0.589   1.994 -0.0438  0.2038  0.8965
  343TIP3    H2 1036   5.158   0.589   2.136  1.4111 -1.2952  0.3905
  344TIP3   OH2 1037   3.292   0.096   2.984 -0.5926  0.0306 -0.0709
  344TIP3    H1 1038   3.315   0.170   3.039  2.7182 -0.2198 -0.9405
  344TIP3    H2 1039   3.324   0.020   3.031 -1.1200 -0.5554 -0.6371
  345TIP3   OH2 1040   2.682   3.136   4.958  0.0939  0.1207 -0.4503
  345TIP3    H1 1041   2.772   3.106   4.943 -0.3089 -0.9318 -0.8603
  345TIP3    H2 1042   2.656   3.094   5.040  0.4697  1.6472  0.5056
  346TIP3   OH2 1043   3.004   0.131   4.545 -0.1934 -0.0256  0.7166
  346TIP3    H1 1044   3.084   0.115   4.495 -0.5285  0.1212  0.1208
  346TIP3    H2 1045   3.023   0.098   4.632  0.6122  0.2550  0.6554
  347TIP3   OH2 1046   4.879   0.775   3.181 -0.2049  0.1375 -0.4285
  347TIP3    H1 1047   4.805   0.729   3.140 -0.7219  1.6143 -1.2416
  347TIP3    H2 1048   4.837   0.840   3.238  0.4720  0.6379 -0.4957
  348TIP3   OH2 1049   0.727   2.953   1.892 -0.1199 -0.0461 -0.0052
  348TIP3    H1 1050   0.776   2.934   1.971 -1.1669 -0.0006  0.6788
  348TIP3    H2 1051   0.719   3.049   1.891  2.6255  0.2863 -1.8955
  349TIP3   OH2 1052   6.365   3.137   2.863  0.7556  0.2074 -0.0616
  349TIP3    H1 1053   6.333   3.054   2.826  1.2827  0.4050 -0.9774
  349TIP3    H2 1054   6.308   3.152   2.939  0.3314 -0.7390 -0.1738
  350TIP3   OH2 1055   4.057   4.529   2.875  0.1498  0.1700  0.2410
  350TIP3    H1 1056   4.004   4.609   2.867  1.8520  1.3236 -0.1143
  350TIP3    H2 1057   4.127   4.540   2.810  1.5398 -0.6651  1.5193
  351TIP3   OH2 1058   2.315   2.726   5.041  0.2733 -0.1815  0.0123
  351TIP3    H1 1059   2.230   2.702   5.078 -0.1983  2.1493  0.5699
  351TIP3    H2 1060   2.359   2.642   5.028 -2.6867 -1.6163 -1.8424
  352TIP3   OH2 1061   1.019   4.013   1.524  0.6103 -0.2061  0.0336
  352TIP3    H1 1062   0.964   4.090   1.509 -1.1820 -1.4470 -0.1864
  352TIP3    H2 1063   1.108   4.043   1.510  0.0399  1.9984  0.6963
  353TIP3   OH2 1064   3.599   0.033   0.188 -0.0106  0.0653 -0.5134
  353TIP3    H1 1065   3.651   0.019   0.109 -0.5544 -0.2939 -0.8159
  353TIP3    H2 1066   3.661   0.068   0.252  0.3483  0.7655 -1.2237
  354TIP3   OH2 1067   4.401   3.071   1.569  0.4163 -0.2410  0.4376
  354TIP3    H1 1068   4.340   3.103   1.636  0.5753  0.5850  0.1945
  354TIP3    H2 1069   4.361   2.990   1.537 -0.7193  0.4345  0.0808
  355TIP3   OH2 1070   1.435   3.830   4.842 -0.0477 -0.3839  0.6595
  355TIP3    H1 1071   1.478   3.744   4.837  1.3287  0.2780  0.6441
  355TIP3    H2 1072   1.404   3.846   4.753 -0.3291 -0.8795  0.6684
  356TIP3   OH2 1073   5.727   0.132   3.465  0.0277  0.9867  0.4138
  356TIP3    H1 1074   5.638   0.145   3.498 -0.7111 -1.6165 -0.2860
  356TIP3    H2 1075   5.722   0.050   3.416  2.7494  0.9467  0.0632
  357TIP3   OH2 1076   4.720   0.223   1.977 -0.1910 -0.0688  0.3053
  357TIP3    H1 1077   4.678   0.309   1.972  0.6893  0.4062  0.8791
  357TIP3    H2 1078   4.683   0.183   2.056  0.2057  0.2341  0.6503
  358TIP3   OH2 1079   3.838   4.323   3.038 -0.3239 -0.1322 -0.5195
  358TIP3    H1 1080   3.773   4.351   2.974 -0.1558 -0.0118 -0.6383
  358TIP3    H2 1081   3.790   4.265   3.097 -0.0659 -1.8089 -1.8851
  359TIP3   OH2 1082   5.593   3.389   1.411 -0.4182 -0.1579 -0.2451
  359TIP3    H1 1083   5.654   3.417   1.342  0.6500  0.5523  0.9414
  359TIP3    H2 1084   5.574   3.298   1.390  0.6611 -0.2509 -0.9301
  360TIP3   OH2 1085   3.111   5.654   2.650  0.0563 -0.6625  0.1931
  360TIP3    H1 1086   3.058   5.581   2.617  0.9098 -1.5210  0.6779
  360TIP3    H2 1087   3.067   5.732   2.616 -2.7745 -1.1935  2.2267
  361TIP3   OH2 1088   5.263   1.832   4.945  0.2784 -0.1517 -0.0883
  361TIP3    H1 1089   5.214   1.837   4.863 -0.9047 -1.1765  0.5232
  361TIP3    H2 1090   5.265   1.922   4.977 -1.4819 -0.1023 -0.0074
  362TIP3   OH2 1091   4.694   1.977   2.337 -0.2178  0.1243  0.1224
  362TIP3    H1 1092   4.676   2.070   2.352 -1.4831 -0.1661  0.4500
  362TIP3    H2 1093   4.653   1.958   2.253 -2.1610 -0.7129  1.2065
  363TIP3   OH2 1094   0.372   1.137   0.481 -0.2138 -0.1280  0.1598
  363TIP3    H1 1095   0.302   1.071   0.479  0.3735 -0.7911  0.9113
  363TIP3    H2 1096   0.449   1.090   0.451 -0.2145  0.7756 -1.2891
  364TIP3   OH2 1097   4.297   1.978   4.383  1.0939 -0.0619  0.1349
  364TIP3    H1 1098   4.369   2.037   4.365  0.4639  0.8084  0.3933
  364TIP3    H2 1099   4.247   1.975   4.302  0.5970  0.5352  0.4049
  365TIP3   OH2 1100   3.902   4.280   4.183  0.1107 -0.1816 -0.6319
  365TIP3    H1 1101   3.925   4.275   4.276 -0.0500 -1.3385 -0.6399
  365TIP3    H2 1102   3.884   4.189   4.158 -0.5541  0.2047 -1.6167
  366TIP3   OH2 1103   3.099   2.783   2.172 -0.0523 -0.3937 -0.5091
  366TIP3    H1 1104   3.015   2.774   2.217 -2.2014  0.8030 -3.8989
  366TIP3    H2 1105   3.122   2.875   2.182 -1.6454  0.4185 -3.3396
  367TIP3   OH2 1106   1.897   5.098   2.576 -0.0089  0.2320 -0.2123
  367TIP3    H1 1107   1.876   5.165   2.640 -0.0846 -0.7588  0.8242
  367TIP3    H2 1108   1.991   5.106   2.561 -0.5748  3.4411 -3.4507
  368TIP3   OH2 1109   2.561   1.309   3.654  0.5027  0.5508 -0.3872
  368TIP3    H1 1110   2.565   1.283   3.562  0.5800  0.4431 -0.3539
  368TIP3    H2 1111   2.640   1.272   3.693  1.6494  2.4645 -0.7402
  369TIP3   OH2 1112   0.553   4.063   3.688  0.0602 -0.0712  0.0632
  369TIP3    H1 1113   0.576   4.156   3.682 -0.8439  0.0789 -2.2594
  369TIP3    H2 1114   0.608   4.021   3.623 -0.1580 -1.0309  0.4868
  370TIP3   OH2 1115   5.500   4.729   1.681 -0.2432  0.5311 -0.1574
  370TIP3    H1 1116   5.458   4.705   1.598  2.2201 -0.2227 -1.2571
  370TIP3    H2 1117   5.514   4.823   1.674 -2.2734  0.9372  0.5349
  371TIP3   OH2 1118   4.476   5.422   4.647  0.3914  1.1630 -0.6481
  371TIP3    H1 1119   4.552   5.365   4.653  0.7843  1.7100 -0.2628
  371TIP3    H2 1120   4.453   5.441   4.738  0.7653  2.2555 -0.7701
  372TIP3   OH2 1121   1.337   4.261   0.445 -0.0286 -0.1450 -0.2201
  372TIP3    H1 1122   1.422   4.215   0.444  1.0286  1.7011 -1.4313
  372TIP3    H2 1123   1.342   4.322   0.372 -2.1992  0.4506  0.0632
  373TIP3   OH2 1124   1.010   1.289   5.190  0.8965 -0.3205  0.3468
  373TIP3    H1 1125   1.006   1.204   5.234  0.9573 -0.7080 -0.3873
  373TIP3    H2 1126   0.974   1.273   5.103  3.2698 -0.2036 -0.7398
  374TIP3   OH2 1127   4.782   4.040   1.551 -0.0129  0.3396 -0.3683
  374TIP3    H1 1128   4.768   4.026   1.457  0.6738  0.2601 -0.4628
  374TIP3    H2 1129   4.710   3.993   1.593  0.9159 -1.5823 -0.7677
  375TIP3   OH2 1130   0.952   0.219   3.366 -0.1403 -0.3629  0.1114
  375TIP3    H1 1131   0.970   0.229   3.460  1.7681  2.3583 -0.4368
  375TIP3    H2 1132   0.912   0.301   3.340 -0.6820 -1.0964 -1.4928
  376TIP3   OH2 1133   5.083   3.068   4.804  0.1359  0.6505  0.2162
  376TIP3    H1 1134   5.039   3.146   4.768 -2.6659  0.5838  3.0728
  376TIP3    H2 1135   5.108   3.094   4.892 -1.3289 -1.7379  1.4227
  377TIP3   OH2 1136   0.026   4.883   4.616 -0.5283 -0.6699 -0.1896
  377TIP3    H1 1137   0.055   4.848   4.532 -0.7975 -0.3472 -0.4210
  377TIP3    H2 1138   0.051   4.816   4.680  0.1090 -0.7057 -0.4615
  378TIP3   OH2 1139   1.137   2.725   1.521  0.0414  0.2286  0.0666
  378TIP3    H1 1140   1.150   2.753   1.430  1.2854 -0.6379 -0.0440
  378TIP3    H2 1141   1.192   2.648   1.530 -0.2796  0.1518  1.4936
  379TIP3   OH2 1142   3.917   3.387   1.270 -0.1114 -0.2456 -0.0728
  379TIP3    H1 1143   3.977   3.321   1.235  0.7208  0.2044  0.4809
  379TIP3    H2 1144   3.885   3.434   1.193  0.4740 -0.2911 -0.3498
  380TIP3   OH2 1145   5.470   5.515   3.336  0.1199  0.1317 -0.2586
  380TIP3    H1 1146   5.516   5.592   3.303  0.0773  0.2344 -0.0809
  380TIP3    H2 1147   5.536   5.445   3.333  0.2815  0.2709 -0.0364
  381TIP3   OH2 1148   3.536   1.333   2.791  0.7482  0.8693  0.2948
  381TIP3    H1 1149   3.531   1.424   2.763  0.2236  0.9833  0.7278
  381TIP3    H2 1150   3.453   1.318   2.837  0.8401  0.1815  0.2450
  382TIP3   OH2 1151   5.622   2.586   4.459  0.0182 -0.6267  0.2018
  382TIP3    H1 1152   5.695   2.614   4.515 -1.2765  0.2962  1.5147
  382TIP3    H2 1153   5.637   2.492   4.446  0.9324 -0.6511  1.2260
  383TIP3   OH2 1154   5.242   2.548   1.172 -0.9295 -0.5083  0.0320
  383TIP3    H1 1155   5.239   2.591   1.087  1.8909  1.3963  0.7525
  383TIP3    H2 1156   5.321   2.494   1.169 -0.8886 -0.5612  1.3410
  384TIP3   OH2 1157   4.981   3.190   0.556  0.2290 -0.2096  0.0318
  384TIP3    H1 1158   4.993   3.285   0.560 -0.1789 -0.1165 -0.6788
  384TIP3    H2 1159   4.888   3.177   0.572  0.5853 -0.6478  1.9675
  385TIP3   OH2 1160   2.568   2.017   3.345 -0.7422 -0.1193  0.4414
  385TIP3    H1 1161   2.543   1.999   3.254 -0.8638  3.1472 -0.2735
  385TIP3    H2 1162   2.661   2.041   3.340 -0.2979 -1.4933  1.4766
  386TIP3   OH2 1163   1.011   2.817   3.964  0.6244 -0.4036  0.3988
  386TIP3    H1 1164   1.071   2.857   4.027  0.0668 -1.6222  1.7644
  386TIP3    H2 1165   1.018   2.872   3.886  2.2874  0.4144  1.0771
  387TIP3   OH2 1166   0.070   3.752   0.668  0.2133  0.0847 -0.9918
  387TIP3    H1 1167   0.145   3.795   0.709  0.7626 -0.5597 -1.3038
  387TIP3    H2 1168  -0.002   3.813   0.681  0.8245  0.7901 -0.8342
  388TIP3   OH2 1169   0.493   5.701   2.578 -0.0375 -0.4980 -0.3123
  388TIP3    H1 1170   0.536   5.642   2.640  0.4025  0.9768  0.8339
  388TIP3    H2 1171   0.400   5.689   2.593  0.0639 -0.0375  0.7858
  389TIP3   OH2 1172   0.670   5.655   3.651 -0.2646  0.4224 -0.4757
  389TIP3    H1 1173   0.613   5.593   3.697 -0.3281  0.4855 -0.4707
  389TIP3    H2 1174   0.616   5.732   3.637 -1.0912 -0.5044 -2.9368
  390TIP3   OH2 1175   1.812   1.258   2.963 -0.0573 -0.1971 -0.1063
  390TIP3    H1 1176   1.867   1.224   3.033  0.3906 -1.4024 -1.0183
  390TIP3    H2 1177   1.789   1.347   2.992  0.1409 -0.6431  1.5320
  391TIP3   OH2 1178   0.574   5.487   3.309 -0.0749  0.2207 -0.3474
  391TIP3    H1 1179   0.669   5.484   3.322 -0.3229  0.4076  1.8846
  391TIP3    H2 1180   0.547   5.395   3.312 -0.0291  0.2052 -0.4098
  392TIP3   OH2 1181   1.625   3.047   2.649 -0.2232  0.0098 -0.0129
  392TIP3    H1 1182   1.701   3.045   2.707  0.1289 -0.4470 -0.4755
  392TIP3    H2 1183   1.638   2.972   2.591 -0.3852  0.6722 -0.9177
  393TIP3   OH2 1184   0.700   1.228   1.360  0.1567 -0.4395  0.0965
  393TIP3    H1 1185   0.732   1.286   1.429  0.5694 -0.6474  0.0824
  393TIP3    H2 1186   0.776   1.173   1.338  1.5640  2.5615 -3.6825
  394TIP3   OH2 1187   6.225   3.820   3.473 -0.1005  0.0186  0.0994
  394TIP3    H1 1188   6.263   3.816   3.385 -0.3145 -1.6149  0.0562
  394TIP3    H2 1189   6.289   3.871   3.524  0.1217  0.8146 -0.9282
  395TIP3   OH2 1190   1.006   3.065   2.679  0.4851  0.8548  0.0842
  395TIP3    H1 1191   0.961   3.149   2.683 -0.6161  0.2631  0.4103
  395TIP3    H2 1192   0.968   3.021   2.603 -0.8066 -0.3785  1.4130
  396TIP3   OH2 1193   5.452   2.655   0.587  0.7180 -0.1945  0.1325
  396TIP3    H1 1194   5.404   2.695   0.514 -1.1585 -1.3754  0.6341
  396TIP3    H2 1195   5.444   2.718   0.659 -0.3477 -0.4523  0.2697
  397TIP3   OH2 1196   1.504   4.109   3.211 -0.2574  0.3163  0.1748
  397TIP3    H1 1197   1.554   4.068   3.140 -0.1384  1.7808 -0.6341
  397TIP3    H2 1198   1.570   4.151   3.266 -0.3527 -0.7973  1.1774
  398TIP3   OH2 1199   3.277   1.740   3.348 -0.2355  0.0708  0.0448
  398TIP3    H1 1200   3.324   1.807   3.298  2.2921 -1.1047  0.6549
  398TIP3    H2 1201   3.293   1.763   3.440 -2.0103  0.3567  0.3023
  399TIP3   OH2 1202   3.512   1.031   3.486 -0.3359 -0.1501 -0.7437
  399TIP3    H1 1203   3.573   0.976   3.536 -0.3014 -0.4121 -1.0704
  399TIP3    H2 1204   3.479   1.094   3.550  0.1188 -0.1395 -0.5130
  400TIP3   OH2 1205   3.558   5.786   0.960 -0.1811 -0.4684  0.1438
  400TIP3    H1 1206   3.580   5.785   0.866  2.0432 -0.3089  0.6195
  400TIP3    H2 1207   3.573   5.696   0.989 -0.9066 -0.5263  0.3691
  401TIP3   OH2 1208   4.467   0.809   3.434 -0.1117 -0.3342 -0.0620
  401TIP3    H1 1209   4.515   0.836   3.356  1.0651  0.8136  1.0168
  401TIP3    H2 1210   4.420   0.730   3.407  0.5473 -0.1683 -1.8160
  402TIP3   OH2 1211   5.872   1.502   1.178  0.0014  0.0124  0.3008
  402TIP3    H1 1212   5.845   1.594   1.179 -1.0947 -0.2821 -0.5314
  402TIP3    H2 1213   5.962   1.504   1.210  0.4177  1.5172 -0.8269
  403TIP3   OH2 1214   6.049   5.230   4.144  0.4240  0.2987 -0.1144
  403TIP3    H1 1215   6.080   5.141   4.128 -0.1392 -0.3567  2.0293
  403TIP3    H2 1216   6.058   5.275   4.060  0.7272 -1.7705 -1.2434
  404TIP3   OH2 1217   1.088   2.024   5.047  0.5103  0.5981  0.5934
  404TIP3    H1 1218   1.168   2.075   5.056  0.2808  1.5753 -2.0557
  404TIP3    H2 1219   1.018   2.083   5.076  0.3725  1.3571 -1.2098
  405TIP3   OH2 1220   2.143   3.478   2.614  0.1952 -0.3726  1.3243
  405TIP3    H1 1221   2.126   3.565   2.651  1.5862  0.4493  0.0997
  405TIP3    H2 1222   2.237   3.466   2.621  0.3696 -0.6646 -0.8862
  406TIP3   OH2 1223   2.121   3.375   2.216  0.8420  0.1034 -0.2119
  406TIP3    H1 1224   2.068   3.352   2.292 -0.0243 -2.0948 -1.4047
  406TIP3    H2 1225   2.205   3.330   2.232  1.5757  1.6827  0.5739
  407TIP3   OH2 1226   1.184   2.601   0.685  0.0948  0.0653  0.1223
  407TIP3    H1 1227   1.246   2.551   0.632  0.2261 -1.2186  1.4477
  407TIP3    H2 1228   1.228   2.685   0.698  0.5360  0.0061 -0.8530
  408TIP3   OH2 1229   4.048   2.750   1.598 -0.1190  0.2737 -1.0624
  408TIP3    H1 1230   3.982   2.820   1.598 -2.1221 -1.5014 -1.4963
  408TIP3    H2 1231   4.050   2.719   1.688 -0.8040 -0.4471 -1.2796
  409TIP3   OH2 1232   3.870   5.231   2.164 -0.6796  0.1616  0.5641
  409TIP3    H1 1233   3.815   5.309   2.157 -2.6093 -1.1809 -0.3434
  409TIP3    H2 1234   3.885   5.204   2.073 -0.3295 -0.6990  0.8635
  410TIP3   OH2 1235   2.060   4.474   1.719  0.3517  0.3311 -0.1387
  410TIP3    H1 1236   1.978   4.513   1.749 -1.0016 -2.8113  0.6324
  410TIP3    H2 1237   2.121   4.486   1.792 -0.0990  0.7914  0.1637
  411TIP3   OH2 1238   5.869   1.255   0.702  0.2228 -0.0895 -0.3129
  411TIP3    H1 1239   5.828   1.255   0.616 -1.4544 -1.5387  0.4239
  411TIP3    H2 1240   5.871   1.347   0.728 -1.2501  0.1571 -0.9850
  412TIP3   OH2 1241   5.897   1.021   3.603 -0.2077 -0.5486  0.1907
  412TIP3    H1 1242   5.812   1.042   3.564 -0.1897 -1.8631 -0.6404
  412TIP3    H2 1243   5.900   1.070   3.685 -1.8566 -0.6498  0.3314
  413TIP3   OH2 1244   0.735   1.159   2.920 -0.0169 -0.0521 -0.6966
  413TIP3    H1 1245   0.801   1.228   2.929  0.1334  0.0646 -2.3140
  413TIP3    H2 1246   0.655   1.198   2.956  0.1800  0.8116 -1.1602
  414TIP3   OH2 1247   3.054   0.941   1.178 -0.0537 -0.3854  0.5278
  414TIP3    H1 1248   3.079   0.886   1.252 -1.2947 -1.6227  0.0781
  414TIP3    H2 1249   2.966   0.972   1.201  0.4381  1.0588  0.5537
  415TIP3   OH2 1250   4.692   0.722   2.018 -0.2992  0.5160  0.2274
  415TIP3    H1 1251   4.759   0.761   1.962 -1.6832  1.6209 -0.7612
  415TIP3    H2 1252   4.631   0.795   2.036 -1.6749 -0.6271  0.3819
  416TIP3   OH2 1253   5.844   5.021   2.213  0.0955 -0.3583  0.0361
  416TIP3    H1 1254   5.758   5.042   2.176 -0.1519  0.1439  0.8643
  416TIP3    H2 1255   5.831   4.937   2.257  0.5945 -1.3621 -1.6453
  417TIP3   OH2 1256   4.822   1.853   1.913  0.5117 -0.7254 -0.0283
  417TIP3    H1 1257   4.791   1.859   1.823 -0.6057 -1.2957  0.3091
  417TIP3    H2 1258   4.848   1.761   1.924  0.5025 -0.6926  0.2801
  418TIP3   OH2 1259   1.364   3.406   4.614  0.1307  0.2304  0.1015
  418TIP3    H1 1260   1.301   3.337   4.592  0.1786 -0.3391  1.6433
  418TIP3    H2 1261   1.369   3.460   4.535 -0.9505 -0.7346 -0.6569
  419TIP3   OH2 1262   2.996   3.149   4.629 -0.5377 -0.8598 -0.0684
  419TIP3    H1 1263   2.912   3.112   4.602 -0.1094 -1.7546 -0.2170
  419TIP3    H2 1264   2.998   3.137   4.724 -0.5244 -0.9681 -0.0816
  420TIP3   OH2 1265   1.347   4.201   4.045 -0.5058  0.2243 -0.1601
  420TIP3    H1 1266   1.354   4.224   3.953 -2.7891  1.6609 -0.0648
  420TIP3    H2 1267   1.254   4.214   4.066 -0.6921 -2.9985  1.6130
  421TIP3   OH2 1268   5.194   2.238   3.934 -0.2969 -0.2965 -0.2255
  421TIP3    H1 1269   5.184   2.288   3.853 -0.2190  0.0898  0.0028
  421TIP3    H2 1270   5.123   2.173   3.930 -0.5563 -0.0084 -0.4030
  422TIP3   OH2 1271   3.098   3.703   1.420  0.0062  0.1167 -0.2366
  422TIP3    H1 1272   3.119   3.726   1.510  1.8313 -1.2730 -0.2448
  422TIP3    H2 1273   3.103   3.785   1.372 -0.5541  0.7997  0.8346
  423TIP3   OH2 1274   4.341   4.035   1.900  0.2017 -0.2665 -0.4342
  423TIP3    H1 1275   4.423   4.028   1.948  0.4034  2.3312 -0.2779
  423TIP3    H2 1276   4.274   4.012   1.964  0.5681  1.7645  0.7569
  424TIP3   OH2 1277   5.325   5.641   1.920  0.0699 -0.1792  0.1811
  424TIP3    H1 1278   5.375   5.709   1.875  0.6842 -0.4247  0.4906
  424TIP3    H2 1279   5.345   5.653   2.013 -0.1063 -0.5508  0.2710
  425TIP3   OH2 1280   2.475   2.723   3.263  0.1372 -0.0036 -0.1945
  425TIP3    H1 1281   2.529   2.774   3.324 -1.7258  0.4513  1.1827
  425TIP3    H2 1282   2.478   2.772   3.181  0.9681  0.5624  0.1594
  426TIP3   OH2 1283   3.457   1.967   1.545 -0.2827 -0.7996  0.5816
  426TIP3    H1 1284   3.479   2.034   1.610 -1.6231  1.7035 -1.3686
  426TIP3    H2 1285   3.541   1.932   1.518  0.6954  1.7175  0.1077
  427TIP3   OH2 1286   3.546   4.057   0.889 -0.0419 -0.0045 -0.4398
  427TIP3    H1 1287   3.586   4.119   0.827 -0.9519 -0.0398 -1.1002
  427TIP3    H2 1288   3.548   4.103   0.973 -0.4291  0.8197 -0.8599
  428TIP3   OH2 1289   4.628   1.622   2.105 -0.0510 -0.0152 -0.4984
  428TIP3    H1 1290   4.723   1.612   2.097 -0.2176 -1.9108 -0.5404
  428TIP3    H2 1291   4.615   1.716   2.120  2.0875 -0.1444  3.1810
  429TIP3   OH2 1292   5.769   2.189   2.694 -0.1817 -0.4576  0.3075
  429TIP3    H1 1293   5.811   2.110   2.660 -1.7236 -0.9862 -0.4112
  429TIP3    H2 1294   5.682   2.190   2.655 -0.2321  1.5659  0.3734
  430TIP3   OH2 1295   1.747   0.239   3.973  0.4358  0.2554 -0.1698
  430TIP3    H1 1296   1.756   0.295   4.049 -1.8008  1.2181 -0.5419
  430TIP3    H2 1297   1.820   0.263   3.916 -0.1443  2.4294 -0.0643
  431TIP3   OH2 1298   6.269   2.727   3.498 -0.0813 -0.1098 -0.1968
  431TIP3    H1 1299   6.312   2.788   3.557 -1.6009  1.4099 -0.5747
  431TIP3    H2 1300   6.176   2.732   3.521 -0.5220 -0.5584 -1.7388
  432TIP3   OH2 1301   4.782   0.864   4.566 -0.3917  0.0392  0.2270
  432TIP3    H1 1302   4.716   0.832   4.627 -0.7756  1.3920  0.5596
  432TIP3    H2 1303   4.846   0.794   4.561 -1.4817 -1.0109  0.4556
  433TIP3   OH2 1304   3.868   1.918   3.695 -0.0954 -0.1260  0.1079
  433TIP3    H1 1305   3.800   1.900   3.630 -0.5225 -0.1899  0.5668
  433TIP3    H2 1306   3.831   1.989   3.748  0.6944  0.6666 -0.3835
  434TIP3   OH2 1307   4.912   4.131   2.876 -0.9022  0.0945  0.4338
  434TIP3    H1 1308   4.831   4.097   2.839 -1.2039 -0.3820  1.5042
  434TIP3    H2 1309   4.888   4.164   2.962 -0.4363  2.2591 -0.2073
  435TIP3   OH2 1310   3.698   1.792   1.729  0.0871 -0.7372  0.2420
  435TIP3    H1 1311   3.645   1.830   1.799  0.1256 -1.0753  0.4555
  435TIP3    H2 1312   3.788   1.812   1.753  0.0642 -0.2217 -0.0863
  436TIP3   OH2 1313   4.146   0.554   1.250  0.0567  0.1996 -0.0349
  436TIP3    H1 1314   4.063   0.544   1.296  0.5173  1.5934  1.1949
  436TIP3    H2 1315   4.209   0.574   1.320  1.0149  1.1976 -1.1530
  437TIP3   OH2 1316   5.491   5.384   3.906  0.6558 -0.3145  0.2361
  437TIP3    H1 1317   5.468   5.293   3.922  2.9436 -1.0110 -0.0598
  437TIP3    H2 1318   5.430   5.434   3.961  0.4700 -2.0875  1.7606
  438TIP3   OH2 1319   5.676   0.676   1.097  0.3073  0.0331 -0.3550
  438TIP3    H1 1320   5.711   0.588   1.111 -2.0161 -1.1839 -1.6651
  438TIP3    H2 1321   5.753   0.733   1.104  1.7982 -1.9909  1.1167
  439TIP3   OH2 1322   3.039   4.183   0.392 -0.6842  0.0978 -0.5205
  439TIP3    H1 1323   3.035   4.187   0.488 -0.4333 -0.3548 -0.4876
  439TIP3    H2 1324   3.033   4.275   0.364  1.4775  0.4714  0.0285
  440TIP3   OH2 1325   5.906   2.311   4.105 -0.2219  0.2313 -0.3076
  440TIP3    H1 1326   5.828   2.355   4.137 -0.0514  1.5500 -1.5570
  440TIP3    H2 1327   5.978   2.351   4.153 -0.0427  1.5819 -1.6368
  441TIP3   OH2 1328   0.332  -0.003   2.732  0.0926 -0.1568 -0.0530
  441TIP3    H1 1329   0.263   0.055   2.763  0.1365  0.3003 -0.7869
  441TIP3    H2 1330   0.395   0.056   2.690 -0.1610 -0.7877 -1.3456
  442TIP3   OH2 1331   1.803   0.264   1.435 -0.2992  0.1229 -0.2766
  442TIP3    H1 1332   1.759   0.327   1.491 -0.4308  0.4878 -0.7826
  442TIP3    H2 1333   1.896   0.275   1.455 -0.3981 -0.4565  0.5909
  443TIP3   OH2 1334   3.660   5.893   1.910  0.5753  0.1811 -0.5159
  443TIP3    H1 1335   3.730   5.940   1.865  0.0650  0.9000 -0.5712
  443TIP3    H2 1336   3.640   5.948   1.986  0.7726 -0.5414  0.0729
  444TIP3   OH2 1337   5.862   3.556   3.911  0.4278 -0.5706 -0.4664
  444TIP3    H1 1338   5.893   3.623   3.850  0.8417  0.0294  0.3905
  444TIP3    H2 1339   5.798   3.505   3.860 -0.2777  0.7786 -0.9658
  445TIP3   OH2 1340   3.673   2.993   2.551  0.3765  0.2614 -0.5355
  445TIP3    H1 1341   3.712   2.975   2.465  3.5272  0.2558  0.7702
  445TIP3    H2 1342   3.746   2.986   2.612 -1.8436 -0.1494  2.2442
  446TIP3   OH2 1343   0.738   2.939   4.084 -0.5285  0.0232  0.0247
  446TIP3    H1 1344   0.722   2.856   4.129 -1.0288  0.0831 -0.0337
  446TIP3    H2 1345   0.797   2.918   4.013 -0.4677 -0.2404  0.1528
  447TIP3   OH2 1346   5.411   5.465   2.593  0.2248 -0.6294  0.0587
  447TIP3    H1 1347   5.392   5.474   2.500 -1.6672 -0.1418  0.4380
  447TIP3    H2 1348   5.426   5.371   2.605 -0.7259 -0.8714 -0.5495
  448TIP3   OH2 1349   3.499   2.363   5.098  0.3717 -0.2804  0.2891
  448TIP3    H1 1350   3.499   2.453   5.129  1.1549  0.1496 -0.8944
  448TIP3    H2 1351   3.571   2.359   5.034 -1.3311 -1.0083 -1.7145
  449TIP3   OH2 1352   5.721   3.886   1.536  0.1907  0.3772 -0.0995
  449TIP3    H1 1353   5.689   3.826   1.469  1.9119  0.3858 -0.9803
  449TIP3    H2 1354   5.711   3.973   1.496  0.5459  0.4356 -0.0634
  450TIP3   OH2 1355   1.360   1.333   3.057 -0.0444 -0.5692 -0.8788
  450TIP3    H1 1356   1.439   1.317   3.006 -0.1445 -0.7515 -0.9761
  450TIP3    H2 1357   1.366   1.425   3.082  0.8231 -0.8929  0.1727
  451TIP3   OH2 1358   1.775   0.277   2.450  0.0567 -0.1129  0.1240
  451TIP3    H1 1359   1.694   0.235   2.423 -0.7107 -0.4393  2.6137
  451TIP3    H2 1360   1.749   0.364   2.479  1.0735  0.8150 -1.6031
  452TIP3   OH2 1361   0.685   3.041   0.839  0.2839  0.1042  0.2822
  452TIP3    H1 1362   0.596   3.071   0.859 -0.0582 -0.7707  0.1260
  452TIP3    H2 1363   0.676   2.992   0.757  0.4411 -2.0695  1.4995
  453TIP3   OH2 1364   4.382   3.627   1.589  0.2925 -0.2041  0.1366
  453TIP3    H1 1365   4.311   3.691   1.578  1.4530  1.1104  0.0590
  453TIP3    H2 1366   4.394   3.591   1.501  0.4427  0.3721 -0.0855
  454TIP3   OH2 1367   4.236   4.589   0.758  0.2199  0.1219 -0.4494
  454TIP3    H1 1368   4.225   4.633   0.673 -6.0689 -0.6741 -0.4986
  454TIP3    H2 1369   4.251   4.661   0.820 -0.8775  1.4076 -1.6071
  455TIP3   OH2 1370   1.578   5.769   3.106  0.0010 -0.7097  0.4751
  455TIP3    H1 1371   1.600   5.849   3.155  1.4149 -2.0899  2.2341
  455TIP3    H2 1372   1.523   5.719   3.166 -3.1136 -0.0247 -1.5781
  456TIP3   OH2 1373   0.070   1.354   0.046 -0.2955 -0.1687 -0.5199
  456TIP3    H1 1374   0.073   1.284  -0.018  1.1651 -1.3926  0.8146
  456TIP3    H2 1375   0.092   1.312   0.129 -0.2343  1.7156  0.4759
  457TIP3   OH2 1376   4.838   5.032   4.067  0.2016 -0.4287  0.5228
  457TIP3    H1 1377   4.867   5.088   4.139 -0.8902 -1.8049  2.1264
  457TIP3    H2 1378   4.760   4.988   4.102  0.8264 -2.6755 -0.7587
  458TIP3   OH2 1379   2.810   0.175   4.331 -0.5440 -0.1835  0.1356
  458TIP3    H1 1380   2.785   0.216   4.414 -1.9030  0.5597 -0.5854
  458TIP3    H2 1381   2.905   0.176   4.331 -0.5002 -0.6179  1.8713
  459TIP3   OH2 1382   1.155   4.509   3.651 -0.1486  0.1082  0.4765
  459TIP3    H1 1383   1.235   4.493   3.602 -1.4147  0.6216 -1.9044
  459TIP3    H2 1384   1.156   4.445   3.722  0.7926 -2.1050 -1.4326
  460TIP3   OH2 1385   5.334   4.122   3.996 -0.0505  0.3570 -0.0122
  460TIP3    H1 1386   5.270   4.184   4.030  1.4001  1.3412  1.0644
  460TIP3    H2 1387   5.416   4.171   3.994  0.8533 -1.1076 -0.5299
  461TIP3   OH2 1388   1.509   5.039   0.489 -0.2671  0.2079  0.1907
  461TIP3    H1 1389   1.604   5.039   0.504 -0.1071 -0.8252 -0.6834
  461TIP3    H2 1390   1.499   5.064   0.397 -0.6914 -1.6093 -0.3015
  462TIP3   OH2 1391   5.690   4.779   4.885  0.1826 -0.5623  0.2360
  462TIP3    H1 1392   5.680   4.873   4.899 -2.0808 -0.8384  0.9047
  462TIP3    H2 1393   5.764   4.754   4.941  0.1155  0.6494  0.9041
  463TIP3   OH2 1394   0.949   5.038   0.894 -0.8233  0.6265  0.4005
  463TIP3    H1 1395   0.949   5.130   0.866 -1.7034  0.3511 -0.5617
  463TIP3    H2 1396   1.041   5.016   0.905 -0.4950  1.0726 -1.2498
  464TIP3   OH2 1397   4.736   4.361   0.991  0.2674 -0.2398 -0.1597
  464TIP3    H1 1398   4.654   4.403   0.963  0.8858  1.4915  0.5166
  464TIP3    H2 1399   4.707   4.283   1.039 -1.0526  1.0457  1.2266
  465TIP3   OH2 1400   3.255   2.020   0.880  0.0394  0.9304 -0.1874
  465TIP3    H1 1401   3.326   2.063   0.832  1.0163 -0.3296  0.0943
  465TIP3    H2 1402   3.284   1.930   0.893 -0.6502  0.9322  1.8280
  466TIP3   OH2 1403   6.189   3.345   4.554  0.2659 -0.4899  0.5314
  466TIP3    H1 1404   6.265   3.394   4.587  0.3369 -0.4737  0.3396
  466TIP3    H2 1405   6.226   3.267   4.513  0.1067 -1.1548  1.6109
  467TIP3   OH2 1406   2.366   2.695   1.573  0.0919 -0.2184  0.0463
  467TIP3    H1 1407   2.383   2.603   1.553  1.7106  0.0434  0.0544
  467TIP3    H2 1408   2.271   2.701   1.580 -0.3025 -1.2344 -3.0664
  468TIP3   OH2 1409   5.838   5.752   1.960  0.0887  0.1438  0.3670
  468TIP3    H1 1410   5.816   5.659   1.969 -0.5282  0.2476 -0.0053
  468TIP3    H2 1411   5.767   5.797   2.005 -0.5904  0.4985 -1.0263
  469TIP3   OH2 1412   0.100   5.307   3.882 -0.6643 -0.0166  0.3537
  469TIP3    H1 1413   0.091   5.214   3.862  0.8182 -0.1066  0.0256
  469TIP3    H2 1414   0.060   5.352   3.807 -0.6702 -0.3795  0.1377
  470TIP3   OH2 1415   3.785   4.035   2.507  0.5727 -0.5697 -0.0437
  470TIP3    H1 1416   3.815   3.945   2.518  1.4002 -0.4371 -1.1003
  470TIP3    H2 1417   3.785   4.049   2.413  0.6089  0.5960  0.1178
  471TIP3   OH2 1418   1.854   3.480   1.498 -0.5711  0.3874 -0.5126
  471TIP3    H1 1419   1.901   3.496   1.580 -1.7130  2.7686 -0.2231
  471TIP3    H2 1420   1.923   3.465   1.433  0.6266  2.9054  0.0556
  472TIP3   OH2 1421   1.714   3.831   0.401 -0.4850 -0.1643  0.5483
  472TIP3    H1 1422   1.760   3.895   0.455 -1.2214  2.6957 -1.9418
  472TIP3    H2 1423   1.776   3.759   0.390  1.9534  1.8268  0.4140
  473TIP3   OH2 1424   6.015   0.176   4.431  0.4759 -0.4424  0.9669
  473TIP3    H1 1425   6.106   0.195   4.406 -0.0958  3.3627  1.1267
  473TIP3    H2 1426   6.018   0.169   4.527  0.4372  1.6393  1.1723
  474TIP3   OH2 1427   5.363   0.775   3.875  0.3298 -0.1369  0.6646
  474TIP3    H1 1428   5.376   0.868   3.853  0.2218 -0.3557 -0.3849
  474TIP3    H2 1429   5.305   0.743   3.806  2.1708 -1.5311 -0.3236
  475TIP3   OH2 1430   1.839   5.969   2.868  0.0373 -0.4456  0.6787
  475TIP3    H1 1431   1.754   5.926   2.857 -0.3928  0.4274  0.5625
  475TIP3    H2 1432   1.828   6.056   2.830  1.4603 -0.8720 -0.8442
  476TIP3   OH2 1433   4.377   5.219   1.022  0.4081 -0.6130 -0.2774
  476TIP3    H1 1434   4.451   5.179   0.975  0.7122  0.0301 -0.3621
  476TIP3    H2 1435   4.307   5.225   0.957  1.3034  1.6587 -1.1502
  477TIP3   OH2 1436   1.052   4.757   3.701 -0.4895  0.3712  0.7009
  477TIP3    H1 1437   1.100   4.681   3.669 -1.8905 -0.5705  0.7335
  477TIP3    H2 1438   1.102   4.832   3.669  1.2233 -0.5387  1.1258
  478TIP3   OH2 1439   6.361   5.520   1.589 -0.2487 -0.0298 -0.3276
  478TIP3    H1 1440   6.369   5.601   1.640  1.6266 -0.0935 -0.4651
  478TIP3    H2 1441   6.295   5.469   1.636  0.2587  0.5912  1.1301
  479TIP3   OH2 1442   1.861   2.269   0.518 -0.0390 -0.1262  0.2941
  479TIP3    H1 1443   1.873   2.312   0.602  1.0756 -0.8832  0.5541
  479TIP3    H2 1444   1.861   2.175   0.539 -0.5947 -0.3052 -0.4537
  480TIP3   OH2 1445   3.114   4.896   4.150  0.4731 -0.1044 -0.1159
  480TIP3    H1 1446   3.198   4.891   4.105 -0.4141 -0.1650 -1.8487
  480TIP3    H2 1447   3.102   4.809   4.188  0.9931 -0.2235 -0.2130
  481TIP3   OH2 1448   1.317   0.494   1.186  0.3632 -0.6100 -0.0721
  481TIP3    H1 1449   1.222   0.502   1.200  0.6029  0.1216  1.3397
  481TIP3    H2 1450   1.326   0.468   1.095 -1.1253  1.4373 -0.8804
  482TIP3   OH2 1451   6.079   2.078   1.936  0.2384 -0.3906 -0.7020
  482TIP3    H1 1452   6.020   2.111   1.868 -0.2310 -0.7469 -0.4715
  482TIP3    H2 1453   6.140   2.022   1.888  1.1251  0.8861 -1.1147
  483TIP3   OH2 1454   0.075   0.727   0.524  0.2317 -0.1674 -0.0553
  483TIP3    H1 1455   0.062   0.639   0.560  1.0217 -0.1853  0.2002
  483TIP3    H2 1456   0.091   0.713   0.431  0.3763 -0.2972 -0.0110
  484TIP3   OH2 1457   6.306   0.868   3.752 -0.8329 -0.1174 -0.3781
  484TIP3    H1 1458   6.266   0.890   3.668 -0.3985  0.0584 -0.5381
  484TIP3    H2 1459   6.320   0.773   3.749 -0.8041 -0.1086 -0.5090
  485TIP3   OH2 1460   1.324   3.830   0.993 -0.3684  0.1494  0.1311
  485TIP3    H1 1461   1.279   3.855   0.913 -0.9517  0.8751  0.6741
  485TIP3    H2 1462   1.395   3.773   0.964 -1.9935 -1.5680 -0.6972
  486TIP3   OH2 1463   6.128   4.399   1.835  0.7435  0.2575 -0.2915
  486TIP3    H1 1464   6.044   4.366   1.866  0.6476  0.8092  0.0583
  486TIP3    H2 1465   6.108   4.485   1.799  0.9875 -0.0548 -1.1901
  487TIP3   OH2 1466   5.110   0.160   2.617 -0.3622 -0.3579  0.4963
  487TIP3    H1 1467   5.071   0.239   2.579  0.9759  0.2917  0.4277
  487TIP3    H2 1468   5.137   0.108   2.542  0.6935  0.1222  0.5243
  488TIP3   OH2 1469   5.407   4.117   3.347  0.0450  0.0815 -0.1870
  488TIP3    H1 1470   5.396   4.078   3.260 -0.2746  1.6072 -0.8631
  488TIP3    H2 1471   5.328   4.169   3.361  1.0356  1.6158  0.0395
  489TIP3   OH2 1472   4.373   0.816   1.084 -0.3910  0.3166  0.4474
  489TIP3    H1 1473   4.362   0.790   1.176  0.6352  1.0508  0.7968
  489TIP3    H2 1474   4.411   0.904   1.088 -3.9624  2.0773 -0.7034
  490TIP3   OH2 1475   3.756   1.105   3.985  0.7356  0.3101  0.1917
  490TIP3    H1 1476   3.803   1.050   3.922  2.3327 -0.3669  1.8796
  490TIP3    H2 1477   3.666   1.106   3.953  1.2344 -1.0381 -1.4020
  491TIP3   OH2 1478   2.887   4.323   4.458  0.4617  0.1697  0.0326
  491TIP3    H1 1479   2.845   4.363   4.382 -0.6586 -1.3356 -0.1871
  491TIP3    H2 1480   2.841   4.361   4.533 -0.7512 -0.7969 -0.1814
  492TIP3   OH2 1481   1.954   1.861   0.778  0.0016  0.2821  0.1084
  492TIP3    H1 1482   2.033   1.816   0.750 -0.0565  0.5882 -0.5712
  492TIP3    H2 1483   1.903   1.795   0.824  0.6660  0.0905  0.5827
  493TIP3   OH2 1484   4.400   2.571   2.875  0.1510  0.5896 -0.2140
  493TIP3    H1 1485   4.349   2.639   2.919  0.8846  2.2529 -1.7961
  493TIP3    H2 1486   4.338   2.530   2.816  0.0435  0.8861 -0.3111
  494TIP3   OH2 1487   4.099   5.675   0.431  0.7682 -0.1948  0.2374
  494TIP3    H1 1488   4.008   5.704   0.431  0.3060 -1.4983 -1.1267
  494TIP3    H2 1489   4.093   5.580   0.442  2.0133 -0.2324  0.7194
  495TIP3   OH2 1490   4.245   1.307   2.745  0.3744  0.5593 -0.4062
  495TIP3    H1 1491   4.229   1.226   2.793 -1.8323 -0.3563 -2.4276
  495TIP3    H2 1492   4.337   1.303   2.719  0.7693 -0.3798  1.0688
  496TIP3   OH2 1493   2.741   1.024   0.580  0.3954 -0.1374  0.2697
  496TIP3    H1 1494   2.678   1.080   0.625 -1.2924 -1.8550  0.1680
  496TIP3    H2 1495   2.763   1.072   0.500  0.5482  1.2617  1.1297
  497TIP3   OH2 1496   4.577   1.115   4.223  0.3425 -0.1009 -0.0370
  497TIP3    H1 1497   4.501   1.078   4.269  1.3048 -2.9314 -0.5078
  497TIP3    H2 1498   4.540   1.170   4.155 -1.2924 -1.2111 -0.0872
  498TIP3   OH2 1499   4.511   4.627   0.735 -0.2148 -0.1817  0.0044
  498TIP3    H1 1500   4.556   4.638   0.819  2.3531 -2.8574 -0.8781
  498TIP3    H2 1501   4.426   4.589   0.758 -0.3231  0.8415  1.4536
  499TIP3   OH2 1502   0.458   0.594   3.782  0.0079 -0.5458 -0.2974
  499TIP3    H1 1503   0.533   0.642   3.818  0.3566 -1.0686 -0.3253
  499TIP3    H2 1504   0.480   0.502   3.793 -0.9877 -0.7178  0.4366
  500TIP3   OH2 1505   4.180   4.019   4.886 -0.1537  0.3143  0.0967
  500TIP3    H1 1506   4.120   4.085   4.852 -0.8068 -0.7324 -0.8769
  500TIP3    H2 1507   4.237   3.999   4.812 -0.1898 -0.4505  0.2683
  501TIP3   OH2 1508   6.054   5.465   0.041  0.0411  0.0606 -0.2394
  501TIP3    H1 1509   5.979   5.479   0.100 -0.3196 -0.0441 -0.6703
  501TIP3    H2 1510   6.104   5.395   0.083  0.5550  0.9447  0.6716
  502TIP3   OH2 1511   0.556   3.181   1.843 -0.3935 -0.0489 -1.0305
  502TIP3    H1 1512   0.492   3.188   1.913  1.4403  0.1446  0.7202
  502TIP3    H2 1513   0.578   3.272   1.821 -0.4921 -0.1160 -1.4207
  503TIP3   OH2 1514   2.259   5.062   3.189 -0.7212 -0.3204  0.2693
  503TIP3    H1 1515   2.333   5.084   3.132  0.4067 -0.3592  1.6657
  503TIP3    H2 1516   2.187   5.117   3.157 -0.5768 -1.3443 -2.0645
  504TIP3   OH2 1517   1.945   0.804   0.858 -0.3055  0.1999  0.0034
  504TIP3    H1 1518   2.004   0.771   0.790 -2.1150 -3.2668 -0.1268
  504TIP3    H2 1519   1.894   0.872   0.814  0.6797  0.2348 -1.1426
  505TIP3   OH2 1520   1.715   0.514   2.552  0.3392  0.0288 -0.1248
  505TIP3    H1 1521   1.726   0.572   2.476 -0.4988 -1.6906 -1.6354
  505TIP3    H2 1522   1.640   0.551   2.599  1.8194  2.0217  0.8234
  506TIP3   OH2 1523   0.872   3.617   2.031  0.2096  0.2204 -0.0338
  506TIP3    H1 1524   0.939   3.672   2.073 -0.7506  1.1947  0.2881
  506TIP3    H2 1525   0.885   3.530   2.069 -0.8354  1.1160  2.6405
  507TIP3   OH2 1526   1.864   0.128   3.001 -0.7288  0.1920  0.7382
  507TIP3    H1 1527   1.939   0.148   2.945 -0.2798 -0.2015  1.1895
  507TIP3    H2 1528   1.788   0.155   2.950 -0.3086  0.1256  0.0679
  508TIP3   OH2 1529   1.167   3.757   0.719  0.0969  0.3456 -0.0353
  508TIP3    H1 1530   1.194   3.813   0.646 -1.8729 -0.0701 -1.1448
  508TIP3    H2 1531   1.161   3.669   0.682 -1.6148  0.2385  0.3964
  509TIP3   OH2 1532   1.304   3.875   0.477 -0.6572 -0.2080  0.2149
  509TIP3    H1 1533   1.326   3.783   0.466 -0.7675  0.0082 -2.3194
  509TIP3    H2 1534   1.385   3.916   0.508 -0.4002 -1.0186  0.6349
  510TIP3   OH2 1535   3.404   2.894   2.522 -0.0964 -0.1827  0.3301
  510TIP3    H1 1536   3.478   2.949   2.496 -0.3822  0.4991  0.9143
  510TIP3    H2 1537   3.354   2.949   2.583 -1.2844 -0.4888 -0.3378
  511TIP3   OH2 1538   5.655   3.225   3.411 -0.3741 -0.0673 -0.0087
  511TIP3    H1 1539   5.735   3.207   3.362 -0.2893  0.2123  0.0286
  511TIP3    H2 1540   5.621   3.138   3.434 -0.0610 -0.1833  0.0117
  512TIP3   OH2 1541   5.819   3.219   0.421  0.6052  0.0732  0.1975
  512TIP3    H1 1542   5.845   3.311   0.420  1.7111 -0.2225 -0.0825
  512TIP3    H2 1543   5.792   3.203   0.511 -1.5359  1.1645 -0.1927
  513TIP3   OH2 1544   0.325   4.425   0.570  1.3473 -0.0152 -0.2509
  513TIP3    H1 1545   0.255   4.463   0.518  1.1117 -1.8868 -1.4004
  513TIP3    H2 1546   0.313   4.461   0.658 -1.3134 -0.6076 -0.3128
  514TIP3   OH2 1547   3.195   3.492   3.718 -0.8193  0.4958  0.0650
  514TIP3    H1 1548   3.238   3.566   3.761 -0.3271 -0.2478  0.8720
  514TIP3    H2 1549   3.249   3.475   3.641 -0.2893  0.2649  0.4847
  515TIP3   OH2 1550   1.749   2.367   5.074 -0.0782 -0.1076  0.0991
  515TIP3    H1 1551   1.796   2.343   5.154 -0.1284  1.1593  0.5209
  515TIP3    H2 1552   1.813   2.356   5.004  0.8602  1.5324  0.6586
  516TIP3   OH2 1553   5.941   0.156   4.692 -0.3241  0.2861 -0.8105
  516TIP3    H1 1554   6.027   0.130   4.724  0.4326  0.7173 -2.4133
  516TIP3    H2 1555   5.904   0.208   4.764  0.6759 -0.0267 -0.0468
  517TIP3   OH2 1556  -0.009   3.477   2.953  0.5819 -0.4709 -0.7818
  517TIP3    H1 1557   0.046   3.457   2.877  1.8178 -0.1823  0.0068
  517TIP3    H2 1558  -0.013   3.395   3.002 -0.5352 -0.7636 -1.3323
  518TIP3   OH2 1559   0.543   1.776   2.279  0.0103 -0.3690 -0.4456
  518TIP3    H1 1560   0.580   1.773   2.367  0.0795  1.2026 -0.3982
  518TIP3    H2 1561   0.561   1.689   2.242  1.0488 -0.6357  0.6447
  519TIP3   OH2 1562   5.584   1.534   3.363 -0.3020  0.1466  0.0474
  519TIP3    H1 1563   5.630   1.545   3.446  1.2816  1.0835 -0.9141
  519TIP3    H2 1564   5.612   1.448   3.331  1.1965  0.8856 -0.7333
  520TIP3   OH2 1565   5.809   4.576   0.049 -0.3350 -0.2292  0.3211
  520TIP3    H1 1566   5.739   4.563   0.113  0.0363  0.4031  0.8793
  520TIP3    H2 1567   5.860   4.495   0.051 -1.7301 -1.1938 -0.9899
  521TIP3   OH2 1568   6.028   3.334   4.764 -0.6015 -0.2352 -0.2430
  521TIP3    H1 1569   6.090   3.289   4.820 -1.0743  1.2608  1.5993
  521TIP3    H2 1570   6.058   3.317   4.675  1.3736 -1.0078  0.5280
  522TIP3   OH2 1571   2.197   0.175   4.588  0.0640  0.1162 -0.1673
  522TIP3    H1 1572   2.254   0.161   4.513 -2.1918  0.7118 -2.1072
  522TIP3    H2 1573   2.204   0.268   4.607  0.8766 -0.0922  0.6008
  523TIP3   OH2 1574   5.308   1.908   4.617  0.4845 -0.0978 -0.1621
  523TIP3    H1 1575   5.313   1.979   4.553  0.2203 -0.7478 -0.9175
  523TIP3    H2 1576   5.232   1.929   4.671  1.0450  0.7568  0.3324
  524TIP3   OH2 1577   5.244   1.529   2.848  0.3564 -0.2992  0.7921
  524TIP3    H1 1578   5.321   1.568   2.889 -0.3238  0.8090  1.0453
  524TIP3    H2 1579   5.273   1.507   2.759  0.8501  0.4561  0.7611
  525TIP3   OH2 1580   3.614   5.084   3.105  0.5583 -0.1404  0.1974
  525TIP3    H1 1581   3.531   5.120   3.135  0.1225 -0.5961 -0.4328
  525TIP3    H2 1582   3.663   5.160   3.073  0.7625  0.2586  1.3924
  526TIP3   OH2 1583   0.409   4.001   4.624  0.1021  0.3873 -0.1782
  526TIP3    H1 1584   0.386   3.908   4.623  2.2458 -0.2621  1.5279
  526TIP3    H2 1585   0.330   4.045   4.654 -0.7960 -0.9341 -0.4977
  527TIP3   OH2 1586   2.523   4.233   2.400 -0.1191 -0.2960  0.4109
  527TIP3    H1 1587   2.491   4.312   2.443 -1.3255 -0.2951 -0.4288
  527TIP3    H2 1588   2.444   4.180   2.385  0.7866 -2.2992  2.1405
  528TIP3   OH2 1589   3.970   3.295   3.661  0.1426 -0.5010  0.1401
  528TIP3    H1 1590   4.063   3.287   3.639 -0.2599 -0.0880 -1.9120
  528TIP3    H2 1591   3.970   3.317   3.754  2.1186 -0.1308  0.1107
  529TIP3   OH2 1592   6.030   1.633   2.312  0.1419 -0.0965 -0.6608
  529TIP3    H1 1593   6.027   1.694   2.238 -0.8770 -1.2519 -1.6412
  529TIP3    H2 1594   6.071   1.554   2.276 -0.7171 -0.8144 -0.1339
  530TIP3   OH2 1595   3.746   1.719   4.985  0.5463  0.1183  0.5009
  530TIP3    H1 1596   3.803   1.648   4.957  1.4373 -0.2989  3.0650
  530TIP3    H2 1597   3.764   1.729   5.079 -2.6544  0.8559  1.1747
  531TIP3   OH2 1598   3.444   2.653   3.997  0.9311 -0.2081 -0.1094
  531TIP3    H1 1599   3.412   2.615   4.078  1.6316  0.9869  0.7529
  531TIP3    H2 1600   3.538   2.666   4.012  0.6926  2.1428 -0.1969
  532TIP3   OH2 1601   5.717   2.599   0.559  0.1748 -0.0397 -0.0101
  532TIP3    H1 1602   5.729   2.629   0.469 -0.5902 -0.4824 -0.2763
  532TIP3    H2 1603   5.623   2.610   0.575 -0.2367 -2.5514 -0.2474
  533TIP3   OH2 1604   2.102   4.818   2.527 -0.4536  0.9186  0.0862
  533TIP3    H1 1605   2.063   4.816   2.614 -0.0212 -1.0210  0.2862
  533TIP3    H2 1606   2.188   4.858   2.540  0.3990 -1.0452  0.9717
  534TIP3   OH2 1607   2.942   4.647   0.095  0.0719 -0.4390 -0.0254
  534TIP3    H1 1608   2.937   4.551   0.092  0.3561 -0.5090  1.0328
  534TIP3    H2 1609   2.956   4.666   0.188 -0.2773  0.6473 -0.1867
  535TIP3   OH2 1610   6.253   1.776   1.880 -0.2503 -0.6759  0.1424
  535TIP3    H1 1611   6.243   1.774   1.975 -0.5375 -0.0895  0.1346
  535TIP3    H2 1612   6.345   1.756   1.864 -0.1163 -0.4215  0.5687
  536TIP3   OH2 1613   5.449   4.283   4.240 -0.2213  0.3506 -0.0560
  536TIP3    H1 1614   5.472   4.195   4.211 -0.5598  0.1982  0.1420
  536TIP3    H2 1615   5.534   4.325   4.256 -0.0263 -1.0830  3.3368
  537TIP3   OH2 1616   0.600   0.554   1.088 -0.1905  0.0272  0.0386
  537TIP3    H1 1617   0.508   0.538   1.067 -0.5861  1.7033  0.3885
  537TIP3    H2 1618   0.604   0.546   1.183 -0.3387  1.5769  0.1952
  538TIP3   OH2 1619   0.608   2.062   1.845 -0.4160  0.3804  0.5750
  538TIP3    H1 1620   0.703   2.051   1.847 -0.4010 -0.0552  3.6206
  538TIP3    H2 1621   0.579   2.027   1.930 -3.2658  0.7444 -0.1571
  539TIP3   OH2 1622   0.533   2.765   4.207 -0.2135  0.0033  0.4452
  539TIP3    H1 1623   0.520   2.807   4.292  0.2965  1.4523 -0.1701
  539TIP3    H2 1624   0.454   2.788   4.156  0.2605  0.5956 -0.0352
  540TIP3   OH2 1625   0.758   3.720   0.534  0.5034  0.0891 -0.0994
  540TIP3    H1 1626   0.776   3.714   0.628  0.0192 -2.2100 -0.0913
  540TIP3    H2 1627   0.696   3.650   0.517  0.0533  0.8840 -2.0532
  541TIP3   OH2 1628   3.466   2.864   2.204 -0.1467  0.0310  0.6312
  541TIP3    H1 1629   3.492   2.922   2.133  0.7852  0.0385  0.9694
  541TIP3    H2 1630   3.473   2.918   2.283  0.6945 -0.5267  0.9423
  542TIP3   OH2 1631   5.559   1.360   3.126  0.4788 -0.0022 -0.0657
  542TIP3    H1 1632   5.505   1.289   3.090  1.6182  0.0298 -1.9132
  542TIP3    H2 1633   5.605   1.319   3.200 -1.0849 -0.3541  0.7696
  543TIP3   OH2 1634   0.040   1.806   2.305  0.5631 -0.2903  0.1353
  543TIP3    H1 1635   0.045   1.739   2.237 -0.4039 -1.0774  0.8107
  543TIP3    H2 1636  -0.002   1.762   2.379 -0.4125  1.1469  0.4833
  544TIP3   OH2 1637   1.422   2.073   1.111  0.0707 -0.8114  0.5195
  544TIP3    H1 1638   1.463   2.119   1.038  1.2697 -3.0415 -0.2819
  544TIP3    H2 1639   1.482   2.086   1.185 -0.4144  0.2156  0.7552
  545TIP3   OH2 1640   6.126   5.181   5.200  0.5330 -0.3769 -0.4777
  545TIP3    H1 1641   6.109   5.224   5.116  0.8179  0.6473 -0.0213
  545TIP3    H2 1642   6.089   5.093   5.189  1.0762 -0.4617 -1.8803
  546TIP3   OH2 1643   3.446   2.229   2.464 -0.0650 -0.4805 -0.1499
  546TIP3    H1 1644   3.352   2.234   2.483 -0.1188  0.3882 -0.5890
  546TIP3    H2 1645   3.485   2.300   2.514  0.0733  0.4507 -1.5069
  547TIP3   OH2 1646   3.165   3.402   3.310 -0.0784  0.4789  0.5844
  547TIP3    H1 1647   3.169   3.347   3.231  0.2472  0.0227  0.9127
  547TIP3    H2 1648   3.071   3.410   3.328 -0.2053  1.4029 -0.4037
  548TIP3   OH2 1649   3.637   3.707   3.451  0.1509  0.1603 -0.4242
  548TIP3    H1 1650   3.707   3.741   3.506 -0.1864 -0.7852  0.6454
  548TIP3    H2 1651   3.634   3.613   3.472  0.1842 -0.2928 -2.2753
  549TIP3   OH2 1652   4.583   1.192   3.329  0.0265  0.1171 -0.2115
  549TIP3    H1 1653   4.514   1.192   3.263  0.6982  0.6762 -0.9255
  549TIP3    H2 1654   4.625   1.278   3.322  1.3044 -0.4876 -0.3329
  550TIP3   OH2 1655   4.371   4.190   3.544 -0.4786  0.6251  0.3796
  550TIP3    H1 1656   4.336   4.130   3.610 -0.5564 -1.2341 -1.2763
  550TIP3    H2 1657   4.357   4.145   3.461  2.5872  1.3771 -0.6750
  551TIP3   OH2 1658   1.460   0.568   2.662  0.2226  0.7635  0.0906
  551TIP3    H1 1659   1.366   0.552   2.666  0.3158  0.1156 -0.2214
  551TIP3    H2 1660   1.479   0.619   2.741 -0.2949  0.4324  0.4331
  552TIP3   OH2 1661   1.490   3.548   4.807  0.8342 -0.0122  0.7859
  552TIP3    H1 1662   1.446   3.508   4.732 -0.2178 -0.9831  1.8686
  552TIP3    H2 1663   1.576   3.573   4.774  1.1990 -2.3434 -0.2102
  553TIP3   OH2 1664   5.942   5.208   2.388 -0.7851 -0.0499 -0.6606
  553TIP3    H1 1665   5.872   5.225   2.451 -1.3305 -1.5490 -0.8104
  553TIP3    H2 1666   5.905   5.142   2.329  1.1548 -1.8748  0.0215
  554TIP3   OH2 1667   3.797   5.930   0.962 -0.4690 -0.1056  0.2345
  554TIP3    H1 1668   3.853   5.883   1.023 -0.7856 -1.1320 -0.2482
  554TIP3    H2 1669   3.715   5.881   0.962 -0.9322  0.6532 -0.0140
  555TIP3   OH2 1670   0.160   0.245   4.210 -0.2069 -0.3271 -0.2779
  555TIP3    H1 1671   0.192   0.206   4.291 -1.8538  1.7399  1.4607
  555TIP3    H2 1672   0.228   0.307   4.185  0.0064 -0.5041 -0.1445
  556TIP3   OH2 1673   0.968   0.870   4.280 -0.8598 -0.0722 -0.4283
  556TIP3    H1 1674   0.960   0.775   4.287 -0.3232 -0.0201  1.2326
  556TIP3    H2 1675   1.001   0.898   4.365 -0.9188  1.6038 -0.9200
  557TIP3   OH2 1676   1.030   5.760   3.680  0.2708 -0.6728 -0.2169
  557TIP3    H1 1677   0.978   5.835   3.651 -0.8155 -1.3861 -0.1260
  557TIP3    H2 1678   1.041   5.706   3.602 -0.2423 -1.1761  0.0544
  558TIP3   OH2 1679   5.214   0.730   1.483  0.4422  0.2372  0.3830
  558TIP3    H1 1680   5.230   0.640   1.455 -1.0955 -0.1371  0.6189
  558TIP3    H2 1681   5.142   0.760   1.428 -1.2697  0.1768  2.4437
  559TIP3   OH2 1682   5.518   2.133   0.301 -0.1993 -0.0492 -0.4144
  559TIP3    H1 1683   5.500   2.125   0.207  0.9041  0.4737 -0.6778
  559TIP3    H2 1684   5.578   2.206   0.309  0.0376 -0.3377  0.6711
  560TIP3   OH2 1685   2.109   0.169   3.282  0.5247  0.0596  0.3102
  560TIP3    H1 1686   2.109   0.108   3.207  1.9946 -0.8162  0.9648
  560TIP3    H2 1687   2.017   0.182   3.303  0.1123 -0.2249 -1.2184
  561TIP3   OH2 1688   2.261   4.932   4.194  0.2843 -0.1585 -0.0809
  561TIP3    H1 1689   2.173   4.894   4.186  0.8556 -1.3055 -1.6588
  561TIP3    H2 1690   2.303   4.882   4.263 -0.0378 -0.1735  0.1049
  562TIP3   OH2 1691   6.324   2.634   4.043 -0.0473  0.5817  0.6803
  562TIP3    H1 1692   6.336   2.543   4.070  1.8691  0.3723 -0.6392
  562TIP3    H2 1693   6.324   2.684   4.125  0.0249 -0.5013  1.3585
  563TIP3   OH2 1694   1.969   2.253   2.868  0.3597 -0.0345 -0.3092
  563TIP3    H1 1695   2.009   2.289   2.947  0.5751 -1.1561  0.1208
  563TIP3    H2 1696   1.901   2.194   2.900 -0.0747  0.0863 -0.9810
  564TIP3   OH2 1697   5.976   0.693   2.879 -0.2251 -0.0104 -0.3801
  564TIP3    H1 1698   6.012   0.621   2.827  1.4598 -0.2161  0.9854
  564TIP3    H2 1699   5.900   0.656   2.923 -0.3255 -0.4779 -0.9391
  565TIP3   OH2 1700   4.187   5.012   1.727  0.3478  0.1433 -0.1995
  565TIP3    H1 1701   4.209   5.102   1.707 -1.0661  0.3305 -1.0618
  565TIP3    H2 1702   4.265   4.976   1.769  1.3412  1.4164 -0.9128
  566TIP3   OH2 1703   0.696   3.096   2.964  0.2587  0.4396 -0.1493
  566TIP3    H1 1704   0.632   3.069   3.030  2.9032 -1.1767  1.9488
  566TIP3    H2 1705   0.717   3.186   2.988  0.6479  0.1135  0.8023
  567TIP3   OH2 1706   3.797   5.470   2.254 -0.2598  0.3432 -0.1347
  567TIP3    H1 1707   3.831   5.544   2.204  0.2366 -0.5614 -1.1801
  567TIP3    H2 1708   3.828   5.485   2.343  0.0183  1.2655 -0.3758
  568TIP3   OH2 1709   4.115   2.834   0.325  0.4329  0.0471  0.0544
  568TIP3    H1 1710   4.139   2.755   0.277  0.5126  0.4167 -0.5254
  568TIP3    H2 1711   4.196   2.860   0.369  0.8134  0.6131 -0.9296
  569TIP3   OH2 1712   0.880   4.742   3.492  0.0639 -0.3152  0.4747
  569TIP3    H1 1713   0.927   4.740   3.575  0.7767 -0.9399  0.0671
  569TIP3    H2 1714   0.837   4.827   3.491 -2.1907 -1.3010  2.6903
  570TIP3   OH2 1715   0.286   2.960   4.314 -0.1103  0.1962  0.2491
  570TIP3    H1 1716   0.264   2.961   4.221 -0.2742 -0.5323  0.2813
  570TIP3    H2 1717   0.210   3.000   4.357 -0.2751  0.0167  0.1243
  571TIP3   OH2 1718   6.225   1.509   1.667  0.3465 -0.8143  0.0933
  571TIP3    H1 1719   6.133   1.510   1.642  0.2912  2.7191 -0.0735
  571TIP3    H2 1720   6.224   1.491   1.761 -0.6184  0.0045  0.2577
  572TIP3   OH2 1721   3.172   4.263   4.436  0.0244  0.4077  0.2867
  572TIP3    H1 1722   3.169   4.282   4.530 -1.0372  1.1628  0.1194
  572TIP3    H2 1723   3.080   4.265   4.408  0.2765 -0.4477 -0.6491
  573TIP3   OH2 1724   2.667   5.781   4.824 -0.2234  0.0207 -0.3479
  573TIP3    H1 1725   2.603   5.769   4.895 -1.7881 -0.0478 -1.7041
  573TIP3    H2 1726   2.613   5.789   4.745  1.5147 -1.1393 -1.7117
  574TIP3   OH2 1727   4.878   3.146   2.626  0.1308 -0.0587  0.1287
  574TIP3    H1 1728   4.810   3.087   2.659 -0.8918  1.1454  0.2440
  574TIP3    H2 1729   4.949   3.138   2.691 -0.6603  0.0657  1.0348
  575TIP3   OH2 1730   1.695   4.600   4.725 -0.0446  0.7047 -0.9150
  575TIP3    H1 1731   1.614   4.628   4.767  0.1402  0.7570 -0.5923
  575TIP3    H2 1732   1.674   4.515   4.686 -0.0728  0.4270 -0.2946
  576TIP3   OH2 1733   6.187   0.056   4.714  0.6858  0.4200  0.5863
  576TIP3    H1 1734   6.213  -0.036   4.716  0.4071  0.2735 -1.3224
  576TIP3    H2 1735   6.266   0.103   4.687  0.2863  0.4871 -0.5203
  577TIP3   OH2 1736   2.838   1.764   0.181 -0.4121  0.3119  0.1495
  577TIP3    H1 1737   2.845   1.814   0.262  1.7852 -1.6125  1.3002
  577TIP3    H2 1738   2.917   1.787   0.132  0.0771 -1.1576  0.2099
  578TIP3   OH2 1739   2.827   3.080   3.607  0.1438 -1.0273 -0.0677
  578TIP3    H1 1740   2.818   2.999   3.657  0.0075 -1.8030 -1.3006
  578TIP3    H2 1741   2.871   3.054   3.526  0.5105  0.2203 -0.2955
  579TIP3   OH2 1742   6.167   3.599   2.771 -0.4318 -0.0191  0.0854
  579TIP3    H1 1743   6.181   3.692   2.757  2.0266 -0.2590  0.4823
  579TIP3    H2 1744   6.233   3.574   2.835 -1.2766 -1.9780  0.2822
  580TIP3   OH2 1745   5.098   4.920   3.745  0.0674 -0.2156  0.0921
  580TIP3    H1 1746   5.029   4.982   3.724 -2.1071 -2.4227  0.2049
  580TIP3    H2 1747   5.077   4.842   3.694  2.5143 -0.9896  0.1366
  581TIP3   OH2 1748   4.860   5.783   3.160  0.0367  0.1953 -0.2916
  581TIP3    H1 1749   4.809   5.723   3.106  0.8622 -0.2263 -0.6179
  581TIP3    H2 1750   4.897   5.728   3.228 -1.1001  0.7434  0.8201
  582TIP3   OH2 1751   0.573   5.895   3.893 -0.8952  0.5944  0.0463
  582TIP3    H1 1752   0.657   5.936   3.916 -0.7104  0.5080 -0.4697
  582TIP3    H2 1753   0.574   5.890   3.798 -1.3591  0.3142  0.0535
  583TIP3   OH2 1754   4.773   1.890   0.438  0.1829  0.2695 -0.7057
  583TIP3    H1 1755   4.725   1.811   0.411 -1.1686  0.6435  0.4902
  583TIP3    H2 1756   4.774   1.945   0.360 -0.2240 -0.2836 -1.1144
  584TIP3   OH2 1757   3.095   0.416   3.236  0.3770 -0.0915 -0.0705
  584TIP3    H1 1758   3.027   0.354   3.209  0.5197 -0.8178  1.1807
  584TIP3    H2 1759   3.159   0.363   3.283  1.0124  0.8467  0.1540
  585TIP3   OH2 1760   1.250   3.308   1.630  0.1543  0.2416 -0.7587
  585TIP3    H1 1761   1.284   3.395   1.608 -0.5741  1.0832  1.2119
  585TIP3    H2 1762   1.314   3.272   1.691 -0.2282 -0.0208 -0.5053
  586TIP3   OH2 1763   4.845   5.217   3.577 -0.3057  0.5576  0.3629
  586TIP3    H1 1764   4.867   5.141   3.522 -1.2581  1.2148 -0.9984
  586TIP3    H2 1765   4.815   5.179   3.659 -3.0392 -0.7282 -1.0887
  587TIP3   OH2 1766   1.631   1.906   3.788 -0.0711 -0.0639 -0.2442
  587TIP3    H1 1767   1.574   1.896   3.864 -0.5729  3.2031 -0.0314
  587TIP3    H2 1768   1.719   1.911   3.824 -0.0917 -0.6146 -0.1102
  588TIP3   OH2 1769   1.991   5.140   4.135  0.5112 -0.0505 -0.0457
  588TIP3    H1 1770   2.029   5.150   4.048 -0.8919 -1.3183 -0.8440
  588TIP3    H2 1771   1.952   5.052   4.134 -1.2649  0.6803  1.1602
  589TIP3   OH2 1772   0.638   3.707   1.258  0.1437  0.1247  0.0386
  589TIP3    H1 1773   0.628   3.638   1.324 -0.6260  0.0852 -0.1107
  589TIP3    H2 1774   0.681   3.779   1.304 -1.3021  0.4908  0.8712
  590TIP3   OH2 1775   1.765   1.042   3.973 -0.2994  0.5051 -0.3348
  590TIP3    H1 1776   1.717   1.087   3.903 -0.6592  0.9268  0.1758
  590TIP3    H2 1777   1.857   1.063   3.957 -0.4143  0.9263 -0.4558
  591TIP3   OH2 1778   3.849   2.895   1.294  0.3060 -0.3092  0.9547
  591TIP3    H1 1779   3.843   2.907   1.389  1.5489 -1.8893  1.2720
  591TIP3    H2 1780   3.938   2.922   1.272 -0.5493  1.9162 -0.1315
  592TIP3   OH2 1781   4.715   5.429   0.504 -0.2147 -0.2537  0.0056
  592TIP3    H1 1782   4.802   5.416   0.543 -0.6232  1.2860  1.5448
  592TIP3    H2 1783   4.730   5.491   0.433  0.3030 -1.9613 -1.4531
  593TIP3   OH2 1784   3.587   4.012   1.671 -0.0650 -0.3191  0.3371
  593TIP3    H1 1785   3.629   4.098   1.682  0.8283 -0.8691  1.4358
  593TIP3    H2 1786   3.659   3.954   1.645 -1.0778 -0.2856 -3.0754
  594TIP3   OH2 1787   4.001   0.537   0.387  0.3809  0.2866 -0.2867
  594TIP3    H1 1788   4.043   0.601   0.444  0.9683 -1.0096  0.7797
  594TIP3    H2 1789   3.921   0.512   0.434  0.8713 -0.7955 -0.0044
  595TIP3   OH2 1790   3.134   4.821   3.529  0.1584  0.2400 -0.4445
  595TIP3    H1 1791   3.186   4.817   3.609  1.5689  0.6308 -1.2965
  595TIP3    H2 1792   3.167   4.749   3.475  0.1378  0.7557 -1.1715
  596TIP3   OH2 1793   4.937   5.927   1.474 -0.1847 -0.4764  0.3431
  596TIP3    H1 1794   4.893   5.856   1.427  1.2940  0.2140 -2.2377
  596TIP3    H2 1795   4.867   5.972   1.522 -1.6351 -1.7075 -0.5441
  597TIP3   OH2 1796   5.065   3.543   4.380  0.1266 -0.1285  0.0027
  597TIP3    H1 1797   5.148   3.573   4.417  0.2718 -0.9585  0.3714
  597TIP3    H2 1798   5.073   3.448   4.378 -2.3598 -0.6613  3.9269
  598TIP3   OH2 1799   5.274   4.705   3.439  0.1235  0.4137  0.2948
  598TIP3    H1 1800   5.299   4.703   3.347  0.1536  0.3999  0.3032
  598TIP3    H2 1801   5.352   4.675   3.486 -0.2146 -0.5232  0.2651
  599TIP3   OH2 1802   2.796   5.389   1.430 -0.3823 -0.0112  0.3239
  599TIP3    H1 1803   2.777   5.456   1.365 -2.3541 -1.0096 -0.2116
  599TIP3    H2 1804   2.713   5.342   1.441  0.5355 -1.3861  1.8006
  600TIP3   OH2 1805   2.751   2.835   1.572 -0.2875 -0.0591 -0.2664
  600TIP3    H1 1806   2.744   2.751   1.616  0.0373  0.3732  0.6332
  600TIP3    H2 1807   2.688   2.829   1.499 -0.1148 -1.1399 -0.3407
  601TIP3   OH2 1808   1.986   4.099   5.149  0.3619 -0.3284 -0.1144
  601TIP3    H1 1809   2.068   4.084   5.103  0.8194  1.2107  0.1349
  601TIP3    H2 1810   2.011   4.107   5.241 -0.0793  0.0290 -0.0229
  602TIP3   OH2 1811   4.357   2.936   0.446 -0.3407  0.2896  0.1335
  602TIP3    H1 1812   4.385   2.862   0.499 -0.2255 -0.4186 -0.8752
  602TIP3    H2 1813   4.427   2.946   0.380  0.2655  2.0925  0.9931
  603TIP3   OH2 1814   3.323   1.395   2.980  0.4996  0.3743  0.2323
  603TIP3    H1 1815   3.267   1.457   2.934 -1.9648 -0.2017  2.2514
  603TIP3    H2 1816   3.353   1.442   3.058  1.5760  0.1502 -0.0229
  604TIP3   OH2 1817   4.157   3.421   4.849  0.2183 -0.1960  0.0147
  604TIP3    H1 1818   4.077   3.399   4.801  0.4625 -0.8573 -0.1033
  604TIP3    H2 1819   4.195   3.336   4.873  0.3118  0.1127  1.0275
  605TIP3   OH2 1820   1.134   1.697   1.251 -0.4021  0.2245  0.4653
  605TIP3    H1 1821   1.159   1.754   1.324 -0.1202 -0.3282  0.7984
  605TIP3    H2 1822   1.214   1.691   1.198 -0.8233  1.2820 -0.3428
  606TIP3   OH2 1823   5.238   2.666   2.794  0.0751 -0.0678 -0.3640
  606TIP3    H1 1824   5.251   2.654   2.700  0.9829  0.4990 -0.3277
  606TIP3    H2 1825   5.308   2.726   2.821 -0.2507 -0.1082  0.6496
  607TIP3   OH2 1826   0.679   0.705   3.955  0.0635  0.0125 -0.4534
  607TIP3    H1 1827   0.639   0.785   3.989  0.5524  0.7034 -1.4087
  607TIP3    H2 1828   0.756   0.691   4.010  0.3786  0.6362 -0.7148
  608TIP3   OH2 1829   5.661   5.376   4.250  0.2448  0.2638  0.3512
  608TIP3    H1 1830   5.622   5.291   4.269  0.0370  0.0747 -0.8864
  608TIP3    H2 1831   5.754   5.364   4.269  0.2795 -0.3496 -0.1891
  609TIP3   OH2 1832   6.297   4.481   2.050  0.5115  0.0138  0.6868
  609TIP3    H1 1833   6.317   4.388   2.063 -0.3376 -0.2068  0.4574
  609TIP3    H2 1834   6.235   4.482   1.978 -0.9854  0.5963  1.9372
  610TIP3   OH2 1835   0.228   0.660   1.612 -0.2640 -0.2715 -0.0296
  610TIP3    H1 1836   0.158   0.605   1.648  0.0152 -0.4544  0.2392
  610TIP3    H2 1837   0.231   0.735   1.671 -0.8434  0.1862 -0.5639
  611TIP3   OH2 1838   5.606   3.292   1.103 -0.3567  0.3913 -0.0425
  611TIP3    H1 1839   5.698   3.268   1.113 -0.2012  0.6188 -0.8253
  611TIP3    H2 1840   5.561   3.246   1.174  0.3705  0.3530  0.4061
  612TIP3   OH2 1841   4.728   2.266   2.759  0.1014  0.7227  0.1607
  612TIP3    H1 1842   4.747   2.296   2.670 -1.5978  0.7009 -0.2319
  612TIP3    H2 1843   4.646   2.218   2.751  1.5244 -2.1217  1.1528
  613TIP3   OH2 1844   6.205   5.258   0.172  0.9537 -0.0410  0.4735
  613TIP3    H1 1845   6.152   5.219   0.241  0.7942 -0.4738  0.1177
  613TIP3    H2 1846   6.276   5.303   0.218  2.4214 -2.5899  0.8999
  614TIP3   OH2 1847   4.272   2.768   2.577  0.6371  0.1113  0.1479
  614TIP3    H1 1848   4.226   2.684   2.577 -2.6489  1.7566  1.3283
  614TIP3    H2 1849   4.260   2.802   2.489  1.2986 -0.2601 -0.0977
  615TIP3   OH2 1850   4.874   4.881   1.081 -0.1974 -0.6183 -0.4108
  615TIP3    H1 1851   4.781   4.879   1.058 -0.4405 -1.9628  0.5602
  615TIP3    H2 1852   4.919   4.848   1.003 -0.6694 -1.3115 -0.3980
  616TIP3   OH2 1853   4.722   3.017   3.146 -0.1248  0.1891  0.3777
  616TIP3    H1 1854   4.668   3.086   3.184 -0.0482 -1.2777  3.4428
  616TIP3    H2 1855   4.659   2.958   3.104 -0.5337  0.3848  0.7039
  617TIP3   OH2 1856   5.014   0.347   0.999 -0.0455  0.0864 -0.5071
  617TIP3    H1 1857   5.091   0.360   0.943  0.1947 -1.0779 -0.4597
  617TIP3    H2 1858   4.999   0.253   0.999 -0.4643  0.1317  0.8415
  618TIP3   OH2 1859   3.343   4.853   4.006  0.4073  0.0123  0.2944
  618TIP3    H1 1860   3.430   4.858   4.047  0.1006  0.4756  0.8948
  618TIP3    H2 1861   3.361   4.858   3.912  1.1221 -1.0696  0.3467
  619TIP3   OH2 1862   0.476   4.202   0.955  0.1026 -0.2783 -0.3654
  619TIP3    H1 1863   0.474   4.291   0.990  4.2550  0.4957 -1.5596
  619TIP3    H2 1864   0.482   4.146   1.032  0.1616  0.6779  0.3511
  620TIP3   OH2 1865   4.317   4.527   2.731  0.2260  0.0398  0.0471
  620TIP3    H1 1866   4.304   4.608   2.683 -1.5539 -0.6294 -0.6711
  620TIP3    H2 1867   4.361   4.554   2.812  1.5288  1.4167 -1.0594
  621TIP3   OH2 1868   0.362   5.728   4.741 -0.2567 -0.3091 -0.7212
  621TIP3    H1 1869   0.350   5.638   4.769  1.5222  0.0172  1.3961
  621TIP3    H2 1870   0.446   5.728   4.694 -0.1095  0.2826 -0.4670
  622TIP3   OH2 1871   4.521   1.856   2.764  0.0392  0.1571 -0.1878
  622TIP3    H1 1872   4.606   1.855   2.809 -0.8786  0.3698  1.6468
  622TIP3    H2 1873   4.511   1.767   2.731  1.6694  0.5434 -1.8736
  623TIP3   OH2 1874   3.700   3.828   5.138 -0.0401  0.0594  0.1127
  623TIP3    H1 1875   3.780   3.878   5.122  0.3741 -0.4398  0.6079
  623TIP3    H2 1876   3.714   3.786   5.223 -1.0655  0.4339  0.4847
  624TIP3   OH2 1877   1.692   5.444   4.123  0.6220  0.1596  0.1315
  624TIP3    H1 1878   1.774   5.490   4.135  1.3061 -0.9714 -0.0588
  624TIP3    H2 1879   1.703   5.362   4.171  0.2053 -0.6929 -1.1661
  625TIP3   OH2 1880   5.276   4.411   3.393  0.2905 -0.4582  0.0555
  625TIP3    H1 1881   5.337   4.408   3.319 -0.6747 -1.0029 -0.7425
  625TIP3    H2 1882   5.253   4.503   3.401 -0.6621 -0.5434 -1.2574
  626TIP3   OH2 1883   0.807   5.841   4.274 -0.1858  0.1803  0.0543
  626TIP3    H1 1884   0.711   5.842   4.275 -0.1973  0.4008 -0.6490
  626TIP3    H2 1885   0.832   5.874   4.361 -0.7226 -1.7050  0.9917
  627TIP3   OH2 1886   4.059   5.412   4.224  0.4161 -0.2061  0.2464
  627TIP3    H1 1887   4.054   5.380   4.134  0.7839  0.9967 -0.2102
  627TIP3    H2 1888   3.969   5.409   4.256 -0.2337  2.1367 -1.1679
  628TIP3   OH2 1889   3.567   0.689   3.970  0.4509 -0.5771 -0.0907
  628TIP3    H1 1890   3.631   0.698   4.040  1.0892  0.0083 -0.7291
  628TIP3    H2 1891   3.543   0.597   3.971  1.6851 -0.9206 -0.1655
  629TIP3   OH2 1892   2.777   5.308   4.952 -0.1101  0.4944  0.0077
  629TIP3    H1 1893   2.717   5.299   4.878  2.6207 -0.9545 -2.2291
  629TIP3    H2 1894   2.791   5.403   4.960 -0.1820  0.6787 -1.6372
  630TIP3   OH2 1895   2.580   1.748   2.661  0.9217 -0.1022 -0.2316
  630TIP3    H1 1896   2.521   1.771   2.589 -0.2372 -0.9340  0.4056
  630TIP3    H2 1897   2.630   1.673   2.628  1.0108  0.0670 -0.4805
  631TIP3   OH2 1898   4.502   4.311   0.883 -0.5339 -0.0422  0.9113
  631TIP3    H1 1899   4.407   4.317   0.868 -0.7921 -1.7551  1.6037
  631TIP3    H2 1900   4.539   4.290   0.798 -0.9677 -0.9263  0.9330
  632TIP3   OH2 1901   1.677   1.369   5.067 -0.0049 -0.6950 -0.5215
  632TIP3    H1 1902   1.742   1.299   5.063  1.4693  0.5387  0.7495
  632TIP3    H2 1903   1.711   1.430   5.132 -1.7291  0.7300 -0.8813
  633TIP3   OH2 1904   4.524   4.545   4.336 -0.0429 -0.2128 -0.2158
  633TIP3    H1 1905   4.541   4.452   4.321  0.4145  0.1337 -2.1907
  633TIP3    H2 1906   4.471   4.547   4.415 -1.4782 -2.2802 -1.0225
  634TIP3   OH2 1907   0.769   0.506   2.808  0.3415  0.1695  0.1472
  634TIP3    H1 1908   0.686   0.527   2.764  1.1687  0.4224 -1.3832
  634TIP3    H2 1909   0.768   0.410   2.815 -0.0559  0.1656  0.0843
  635TIP3   OH2 1910   6.258   4.941   1.499  0.4113  0.1134  0.0112
  635TIP3    H1 1911   6.254   5.002   1.426 -0.3849 -0.3414 -0.3386
  635TIP3    H2 1912   6.315   4.871   1.470  0.7162  0.3124  0.1249
  636TIP3   OH2 1913   5.674   2.348   0.364 -0.0569  0.5949  0.6826
  636TIP3    H1 1914   5.740   2.385   0.422  0.2524  1.0197  0.0568
  636TIP3    H2 1915   5.591   2.381   0.399  0.1695  1.3345  0.5253
  637TIP3   OH2 1916   0.963   1.149   1.955 -0.3816  0.2261 -0.2896
  637TIP3    H1 1917   0.924   1.136   1.869 -0.2288  0.5619 -0.4104
  637TIP3    H2 1918   1.045   1.099   1.953 -0.7188 -0.3464 -0.0916
  638TIP3   OH2 1919   4.401   1.071   4.507 -0.2593  0.4736 -0.7816
  638TIP3    H1 1920   4.466   1.006   4.481  1.0523  1.2454  0.3792
  638TIP3    H2 1921   4.337   1.023   4.560 -0.7800 -0.3352 -2.1064
  639TIP3   OH2 1922   4.349   4.032   2.858 -0.7042  0.3695 -0.4295
  639TIP3    H1 1923   4.380   3.993   2.776  2.2206  0.4609  0.5162
  639TIP3    H2 1924   4.351   3.960   2.921 -2.3393  0.4435 -0.2517
  640TIP3   OH2 1925   2.119   3.771   5.141  0.7271  0.7248 -0.1706
  640TIP3    H1 1926   2.122   3.748   5.048  0.3698 -2.4896  0.4868
  640TIP3    H2 1927   2.211   3.778   5.166  0.8414  0.6611 -0.5544
  641TIP3   OH2 1928   3.522   2.624   2.581  0.7417 -0.1852  0.3375
  641TIP3    H1 1929   3.523   2.615   2.486  3.2476 -1.5292  0.3995
  641TIP3    H2 1930   3.518   2.718   2.597  1.8380  0.1435 -1.1530
  642TIP3   OH2 1931   5.409   0.618   1.195  0.2595  0.2474  0.0367
  642TIP3    H1 1932   5.488   0.642   1.147  1.1121 -0.3213  1.1059
  642TIP3    H2 1933   5.361   0.700   1.206 -0.8334  0.1859 -3.1976
  643TIP3   OH2 1934   2.453   1.343   4.485 -0.2896  0.2023  0.8663
  643TIP3    H1 1935   2.393   1.404   4.442 -0.8233 -0.4464  0.6632
  643TIP3    H2 1936   2.400   1.264   4.500  0.2480 -0.0441  1.5547
  644TIP3   OH2 1937   4.165   3.346   0.163 -0.0489 -0.1044  0.0490
  644TIP3    H1 1938   4.226   3.277   0.138  0.9014  0.0978  1.6605
  644TIP3    H2 1939   4.207   3.427   0.134 -1.2369 -0.1489 -1.9867
  645TIP3   OH2 1940   2.112   0.133   3.875  0.2314 -0.2484  0.1902
  645TIP3    H1 1941   2.092   0.225   3.854  0.2099 -0.0946  0.8536
  645TIP3    H2 1942   2.171   0.105   3.806 -1.0886 -0.2559 -0.9848
  646TIP3   OH2 1943   5.112   3.589   3.887  0.3376  0.4324  0.8054
  646TIP3    H1 1944   5.020   3.602   3.912 -0.0012  1.3939 -0.7504
  646TIP3    H2 1945   5.162   3.621   3.962 -0.6121  2.0293  0.8086
  647TIP3   OH2 1946   2.234   4.727   5.064  0.1626 -0.1030 -0.3613
  647TIP3    H1 1947   2.236   4.822   5.054 -0.4761  0.1132  1.3169
  647TIP3    H2 1948   2.243   4.693   4.974 -1.3005  1.5530 -1.1899
  648TIP3   OH2 1949   2.147   5.911   1.697 -0.1521  0.3481  0.0760
  648TIP3    H1 1950   2.136   5.868   1.612 -0.6019  0.4966  0.0558
  648TIP3    H2 1951   2.225   5.871   1.735 -1.8410 -2.2130  1.0931
  649TIP3   OH2 1952   3.582   3.675   1.089 -0.5101 -0.4847 -0.1015
  649TIP3    H1 1953   3.494   3.641   1.073 -0.4407 -0.7937  0.1640
  649TIP3    H2 1954   3.579   3.707   1.179 -0.5472  0.1298 -0.3185
  650TIP3   OH2 1955   2.728   4.008   0.384  0.4335 -0.1502  0.6880
  650TIP3    H1 1956   2.750   4.087   0.434  4.4765 -2.0895  2.3702
  650TIP3    H2 1957   2.757   4.027   0.295  0.1372  0.6912  0.7585
  651TIP3   OH2 1958   0.467   5.016   0.839  0.3802  0.1900 -0.2643
  651TIP3    H1 1959   0.511   4.947   0.789  1.5144  1.1584 -0.6633
  651TIP3    H2 1960   0.453   4.978   0.925  2.6441  0.0438  0.1030
  652TIP3   OH2 1961   0.624   5.719   2.133 -0.0996  0.0685 -0.0908
  652TIP3    H1 1962   0.611   5.748   2.043 -0.8622 -2.1215 -0.7495
  652TIP3    H2 1963   0.692   5.651   2.127  0.6442  0.6697  1.1555
  653TIP3   OH2 1964   3.227   5.794   4.467  0.2507  0.4190 -0.3410
  653TIP3    H1 1965   3.269   5.851   4.531  0.3243  0.0034 -0.0131
  653TIP3    H2 1966   3.238   5.839   4.383 -0.3156  1.2223  0.0105
  654TIP3   OH2 1967   2.496   4.841   3.069 -0.1243  0.4511  0.1492
  654TIP3    H1 1968   2.539   4.870   3.149  1.2288  1.0891 -0.7775
  654TIP3    H2 1969   2.547   4.766   3.039 -1.0201 -0.2073  0.2143
  655TIP3   OH2 1970   0.991   2.656   3.283 -0.1773  0.1973 -0.2019
  655TIP3    H1 1971   0.983   2.706   3.365 -0.4628  2.7584 -1.6783
  655TIP3    H2 1972   0.911   2.604   3.279  0.4137 -0.9770  1.6909
  656TIP3   OH2 1973   0.508   4.661   0.858  0.1121 -0.1996  0.6698
  656TIP3    H1 1974   0.528   4.722   0.787  0.5124 -0.4098  0.5982
  656TIP3    H2 1975   0.428   4.617   0.830  0.0391  0.0117  0.5421
  657TIP3   OH2 1976   2.616   2.146   0.656  0.0776  0.6332  0.0238
  657TIP3    H1 1977   2.602   2.232   0.695 -1.3031 -0.9074  3.2622
  657TIP3    H2 1978   2.556   2.144   0.581  0.4857  2.5842 -0.4252
  658TIP3   OH2 1979   1.330   4.273   3.728  0.8333 -0.0105 -0.0184
  658TIP3    H1 1980   1.285   4.195   3.695 -0.7939  1.0548 -0.4497
  658TIP3    H2 1981   1.383   4.304   3.654 -0.1139  0.4216 -0.5349
  659TIP3   OH2 1982   1.531   4.903   0.149 -0.7621 -0.2534  0.0525
  659TIP3    H1 1983   1.588   4.836   0.185  0.5103 -0.5993 -2.4268
  659TIP3    H2 1984   1.443   4.864   0.150 -0.6606 -0.5221  1.9188
  660TIP3   OH2 1985   1.647   5.366   4.824 -0.7962 -0.0515  0.4548
  660TIP3    H1 1986   1.648   5.298   4.891 -1.1615  0.3205  0.8515
  660TIP3    H2 1987   1.668   5.321   4.742  2.4726 -0.1050  1.1627
  661TIP3   OH2 1988   1.528   5.344   1.415  0.1975  0.1165 -0.3227
  661TIP3    H1 1989   1.565   5.299   1.491 -0.7540 -0.6055 -0.2572
  661TIP3    H2 1990   1.433   5.334   1.426  0.0236  0.7709 -1.1487
  662TIP3   OH2 1991   3.726   2.743   4.800  0.0473  0.4892 -0.8013
  662TIP3    H1 1992   3.768   2.692   4.731 -0.1612 -1.2283  0.2707
  662TIP3    H2 1993   3.772   2.717   4.880 -1.2470  0.6250  0.0165
  663TIP3   OH2 1994   2.467   1.114   1.185 -0.9950 -0.1535 -0.0291
  663TIP3    H1 1995   2.426   1.184   1.235 -0.8760 -0.8354  1.0419
  663TIP3    H2 1996   2.399   1.085   1.123 -1.3731  0.2280  0.2078
  664TIP3   OH2 1997   3.339   0.717   1.338  0.0763  0.6754  0.5273
  664TIP3    H1 1998   3.250   0.694   1.312  0.0403  1.5043 -0.1311
  664TIP3    H2 1999   3.391   0.703   1.259  0.8358 -1.2527  1.2992
  665TIP3   OH2 2000   5.429   5.384   1.059  0.0522  0.2689 -0.1207
  665TIP3    H1 2001   5.361   5.450   1.075  0.4014  0.5666  0.1344
  665TIP3    H2 2002   5.469   5.370   1.145  0.8870  0.7225 -0.4240
  666TIP3   OH2 2003   0.522   3.490   1.381 -0.1479  0.4073  0.5047
  666TIP3    H1 2004   0.564   3.520   1.462  1.3844 -0.5229  0.1032
  666TIP3    H2 2005   0.475   3.411   1.406  0.9370 -0.2991  0.3677
  667TIP3   OH2 2006   1.235   5.222   3.633  0.1192 -0.2266  0.6770
  667TIP3    H1 2007   1.227   5.238   3.539  0.1143  0.3457  0.7754
  667TIP3    H2 2008   1.155   5.175   3.656  0.3950 -0.9022  0.2864
  668TIP3   OH2 2009   3.263   0.303   1.003  0.1316 -0.1129 -0.4851
  668TIP3    H1 2010   3.208   0.336   0.931  1.3101  1.1680 -0.8401
  668TIP3    H2 2011   3.352   0.325   0.977  0.7222 -1.1440  0.6070
  669TIP3   OH2 2012  -0.018   0.120   3.730  0.1008 -0.0247 -0.0708
  669TIP3    H1 2013  -0.007   0.193   3.790 -1.4983 -0.0044  0.2384
  669TIP3    H2 2014   0.063   0.118   3.679  0.1831  1.9168 -0.0609
  670TIP3   OH2 2015   3.986   5.402   2.719  0.4530  0.7134 -0.2401
  670TIP3    H1 2016   4.060   5.455   2.749  0.6301  0.9116 -0.9992
  670TIP3    H2 2017   3.909   5.443   2.759  0.6531  1.1499 -0.2964
  671TIP3   OH2 2018   5.164   0.589   2.377 -0.2661 -0.5361 -0.1637
  671TIP3    H1 2019   5.254   0.620   2.390 -0.5192  1.0136 -1.6822
  671TIP3    H2 2020   5.109   0.656   2.418 -0.7917  0.5378 -2.4435
  672TIP3   OH2 2021   4.952   1.617   1.192  0.0718 -0.5361  0.3484
  672TIP3    H1 2022   4.897   1.693   1.173 -0.4408 -1.0755 -0.3878
  672TIP3    H2 2023   4.911   1.577   1.269 -0.4536 -0.8196 -0.0717
  673TIP3   OH2 2024   4.147   1.718   2.152  0.5884  0.3584 -0.3169
  673TIP3    H1 2025   4.093   1.640   2.163  1.2433 -0.3179 -1.7374
  673TIP3    H2 2026   4.209   1.695   2.083  0.6493  2.2096 -0.9237
  674TIP3   OH2 2027   5.305   4.870   2.548 -0.2444 -0.4351 -0.1470
  674TIP3    H1 2028   5.217   4.882   2.513 -0.2885  1.1543  0.4264
  674TIP3    H2 2029   5.307   4.924   2.627  0.7327 -1.7487  0.7663
  675TIP3   OH2 2030   1.073   2.437   1.421 -0.2442 -0.0878 -0.5638
  675TIP3    H1 2031   0.985   2.472   1.432  0.1250  0.8492 -0.4460
  675TIP3    H2 2032   1.119   2.502   1.368  0.3752 -0.5591 -0.6259
  676TIP3   OH2 2033   3.201   2.009   0.447 -0.3790 -0.2339 -0.1826
  676TIP3    H1 2034   3.199   2.103   0.465 -1.7060 -0.5216  1.3765
  676TIP3    H2 2035   3.139   1.971   0.509 -0.0895 -2.1209 -0.9780
  677TIP3   OH2 2036   3.593   5.648   3.056  0.1180 -0.2524 -0.0193
  677TIP3    H1 2037   3.598   5.691   2.971 -0.2003  0.5205  0.3414
  677TIP3    H2 2038   3.602   5.555   3.037 -0.9668 -0.1751 -1.0075
  678TIP3   OH2 2039   1.722   4.691   2.024 -0.3846  0.4546  0.2582
  678TIP3    H1 2040   1.733   4.618   2.085 -1.0964 -0.4094 -0.6196
  678TIP3    H2 2041   1.652   4.744   2.062 -0.5361  0.1545  0.3934
  679TIP3   OH2 2042   5.279   2.080   3.262 -0.2252 -0.6697  0.7448
  679TIP3    H1 2043   5.276   2.011   3.195 -0.1424  0.6976 -0.7157
  679TIP3    H2 2044   5.363   2.124   3.247 -0.5205  0.0936  1.2982
  680TIP3   OH2 2045   4.495   5.881   0.875  0.3228  0.0308  0.3327
  680TIP3    H1 2046   4.528   5.950   0.818  0.9736  1.0525  1.8806
  680TIP3    H2 2047   4.400   5.881   0.861  0.4490  0.4505 -0.5409
  681TIP3   OH2 2048   3.899   2.313   0.830  0.1045 -0.1603  0.0656
  681TIP3    H1 2049   3.976   2.262   0.853  1.5926  2.0199  0.2037
  681TIP3    H2 2050   3.921   2.353   0.745 -0.6501  0.8693  0.3281
  682TIP3   OH2 2051   4.398   0.778   0.114  0.3010  0.5283  0.0562
  682TIP3    H1 2052   4.349   0.763   0.195  0.2208 -0.8199 -0.2253
  682TIP3    H2 2053   4.369   0.708   0.055  2.0200  0.1367 -0.3639
  683TIP3   OH2 2054   2.688   3.748   0.094 -0.1179  0.0209  0.8552
  683TIP3    H1 2055   2.666   3.722   0.184  0.8923 -1.3791  0.7274
  683TIP3    H2 2056   2.635   3.691   0.039  1.6468 -1.4126  0.5682
  684TIP3   OH2 2057   4.283   1.436   3.087 -0.2265  0.4065  0.8245
  684TIP3    H1 2058   4.253   1.378   3.158 -0.0828  0.3724  0.8574
  684TIP3    H2 2059   4.378   1.425   3.086 -0.1325  1.1134  1.2396
  685TIP3   OH2 2060   0.440   2.031   1.053  0.1871 -0.0960  0.1608
  685TIP3    H1 2061   0.473   2.097   0.992 -1.4460 -0.5857 -1.3550
  685TIP3    H2 2062   0.381   2.079   1.111 -0.0863 -0.0251 -0.1770
  686TIP3   OH2 2063   2.833   2.728   2.132  0.1602  0.4017  0.4409
  686TIP3    H1 2064   2.888   2.749   2.057 -0.9194  0.7082 -0.2771
  686TIP3    H2 2065   2.814   2.812   2.173 -1.3043  0.5085 -0.4122
  687TIP3   OH2 2066   4.824   0.595   4.052 -0.4475  0.4571  0.0055
  687TIP3    H1 2067   4.787   0.524   4.000  0.9813 -0.3344  0.0287
  687TIP3    H2 2068   4.753   0.659   4.060 -1.8090 -1.0343  0.1355
  688TIP3   OH2 2069   0.150   5.108   0.320  0.5864  0.7832 -0.6540
  688TIP3    H1 2070   0.150   5.202   0.303  2.8946  1.0813  0.5580
  688TIP3    H2 2071   0.200   5.070   0.248  0.3049  0.5720 -0.7401
  689TIP3   OH2 2072   5.133   4.162   2.386 -0.0709 -0.0814  0.0776
  689TIP3    H1 2073   5.052   4.168   2.439 -0.0996  1.9588 -0.1139
  689TIP3    H2 2074   5.201   4.199   2.442  1.5702 -4.5697  1.5176
  690TIP3   OH2 2075   1.381   2.868   4.769 -0.3175 -0.4746  0.1661
  690TIP3    H1 2076   1.476   2.875   4.763 -0.1238 -1.9977  0.9688
  690TIP3    H2 2077   1.358   2.794   4.713 -1.0900  0.1244 -0.3387
  691TIP3   OH2 2078   5.237   0.855   0.238 -0.3774 -0.1656 -0.5653
  691TIP3    H1 2079   5.284   0.829   0.317 -2.1396  0.2286  0.6512
  691TIP3    H2 2080   5.246   0.780   0.179  1.4712 -0.2288 -0.2768
  692TIP3   OH2 2081   5.524   0.783   1.716  0.2463  0.0194 -0.0600
  692TIP3    H1 2082   5.604   0.818   1.675 -0.1490 -0.0925 -0.9489
  692TIP3    H2 2083   5.512   0.698   1.676  0.2212 -0.3969  0.8130
  693TIP3   OH2 2084   3.609   1.085   3.242  0.2847  0.7484 -0.3168
  693TIP3    H1 2085   3.590   1.049   3.328 -1.6732 -0.1237 -1.0450
  693TIP3    H2 2086   3.558   1.030   3.182  1.5799  1.3457 -2.0308
  694TIP3   OH2 2087   4.910   2.141   4.136 -0.5644  0.0575 -0.2407
  694TIP3    H1 2088   4.848   2.158   4.064 -0.7919  0.0935 -0.0377
  694TIP3    H2 2089   4.863   2.081   4.194 -0.3453 -0.0445 -0.1669
  695TIP3   OH2 2090   1.839   4.372   2.473 -0.5595 -0.1133  0.3723
  695TIP3    H1 2091   1.859   4.279   2.473  0.3074 -0.0060 -2.0270
  695TIP3    H2 2092   1.924   4.415   2.481 -0.9444  0.4897  1.3667
  696TIP3   OH2 2093   3.555   3.866   2.998  0.0671  0.2793 -0.2164
  696TIP3    H1 2094   3.568   3.787   2.945  4.1660 -0.4524  1.5250
  696TIP3    H2 2095   3.592   3.937   2.946 -0.9762  0.5890 -0.5642
  697TIP3   OH2 2096   0.760   0.263   1.581  0.2786 -0.1692 -0.0379
  697TIP3    H1 2097   0.707   0.212   1.642  2.4806 -1.5004  0.8698
  697TIP3    H2 2098   0.796   0.334   1.634  1.8299 -1.0655  0.1512
  698TIP3   OH2 2099   3.356   0.711   0.486  0.0402  0.0305 -0.2535
  698TIP3    H1 2100   3.364   0.628   0.440  0.8515 -0.4483  0.7309
  698TIP3    H2 2101   3.301   0.692   0.562  0.6195  0.2796  0.2316
  699TIP3   OH2 2102   4.059   4.271   1.623 -0.1247 -0.3156  0.4013
  699TIP3    H1 2103   4.059   4.348   1.567 -0.5456 -0.4304  0.2383
  699TIP3    H2 2104   4.113   4.295   1.698  1.8460 -0.7207 -0.8082
  700TIP3   OH2 2105   3.682   3.264   0.509  0.1437 -0.2152 -0.4853
  700TIP3    H1 2106   3.689   3.222   0.423  1.1362 -1.1062  0.0175
  700TIP3    H2 2107   3.759   3.235   0.557 -0.9919 -0.6908  1.1404
  701TIP3   OH2 2108   5.655   2.969   0.976  0.3518  0.1656  1.0172
  701TIP3    H1 2109   5.652   3.022   0.896  1.0521  0.0021  0.8696
  701TIP3    H2 2110   5.651   3.033   1.047  0.6173  0.3798  0.8418
  702TIP3   OH2 2111   4.551   2.690   1.328  0.1871  0.4526 -0.5877
  702TIP3    H1 2112   4.595   2.614   1.364  0.2427 -0.2597 -2.0598
  702TIP3    H2 2113   4.621   2.748   1.299  0.1518  0.4957 -0.5880
  703TIP3   OH2 2114   4.749   1.269   0.877  0.5294 -0.4734 -0.7599
  703TIP3    H1 2115   4.732   1.248   0.968 -1.8475 -0.5341 -1.1500
  703TIP3    H2 2116   4.756   1.184   0.833  1.3129 -0.4420 -0.7139
  704TIP3   OH2 2117   4.720   1.210   1.182 -0.7427 -0.2045 -0.3776
  704TIP3    H1 2118   4.672   1.290   1.201  0.0939  0.2963 -0.3360
  704TIP3    H2 2119   4.723   1.163   1.265 -1.2692 -0.3045 -0.4110
  705TIP3   OH2 2120   3.965   3.535   2.360  0.0446 -0.4061 -0.5832
  705TIP3    H1 2121   3.919   3.457   2.330 -0.8696  1.0098 -3.1218
  705TIP3    H2 2122   3.895   3.598   2.382  0.7575  0.3761 -0.4900
  706TIP3   OH2 2123   3.934   1.178   1.629  0.2435 -0.2454  0.1635
  706TIP3    H1 2124   3.860   1.119   1.642 -0.0235  0.0384 -0.0248
  706TIP3    H2 2125   3.956   1.209   1.716  1.9049 -2.3887  0.5919
  707TIP3   OH2 2126   0.681   5.888   4.913 -0.4225  0.1095  0.2129
  707TIP3    H1 2127   0.684   5.936   4.995 -0.7999  0.5219 -0.0117
  707TIP3    H2 2128   0.680   5.955   4.845  0.3232 -0.2347 -0.1489
  708TIP3   OH2 2129   6.102   4.337   4.365 -0.1266 -0.3423 -0.3007
  708TIP3    H1 2130   6.186   4.301   4.339 -0.5434 -1.2321 -0.4480
  708TIP3    H2 2131   6.122   4.425   4.398  0.6488  0.0986 -1.8417
  709TIP3   OH2 2132   2.701   2.375   0.033  0.0712  0.2583  0.3032
  709TIP3    H1 2133   2.638   2.435   0.073  0.1259  0.2699  0.3722
  709TIP3    H2 2134   2.781   2.387   0.085  0.8262  1.8824 -1.1419
  710TIP3   OH2 2135   5.616   5.235   3.090 -0.5004  0.5056  0.1404
  710TIP3    H1 2136   5.553   5.254   3.022  0.3139 -0.6132 -0.9825
  710TIP3    H2 2137   5.701   5.254   3.050  0.1503 -2.2477 -0.0085
  711TIP3   OH2 2138   1.690   5.700   3.651 -0.1504  0.0958 -0.1689
  711TIP3    H1 2139   1.661   5.730   3.737 -0.3982  1.0186 -0.5551
  711TIP3    H2 2140   1.757   5.635   3.669 -0.4969 -0.0219  0.7216
  712TIP3   OH2 2141   0.185   4.149   4.691 -0.2488  0.0921  0.0259
  712TIP3    H1 2142   0.149   4.132   4.778 -0.3196 -1.6919 -0.3163
  712TIP3    H2 2143   0.118   4.117   4.631  0.3615  0.0943 -0.6615
  713TIP3   OH2 2144   5.414   5.186   2.497  0.1018 -0.1388 -0.0495
  713TIP3    H1 2145   5.320   5.196   2.483  0.2066 -0.5389 -1.1371
  713TIP3    H2 2146   5.452   5.187   2.409  1.0974 -0.1850  0.3621
  714TIP3   OH2 2147   2.163   0.781   0.687  0.2009  0.4597  0.4190
  714TIP3    H1 2148   2.243   0.737   0.657  0.0037  0.7478 -0.5830
  714TIP3    H2 2149   2.180   0.874   0.672  0.1678  0.6310  1.4277
  715TIP3   OH2 2150   4.144   4.373   3.148  0.2055 -0.1117  0.4405
  715TIP3    H1 2151   4.119   4.359   3.239  1.5935 -0.1816  0.8465
  715TIP3    H2 2152   4.224   4.321   3.138 -0.3480 -0.7145 -1.0447
  716TIP3   OH2 2153   4.684   5.501   2.473  0.0279  0.0940  0.0706
  716TIP3    H1 2154   4.770   5.529   2.504  0.5681  1.2627 -2.2455
  716TIP3    H2 2155   4.625   5.519   2.546  1.2379  2.4148  0.5648
  717TIP3   OH2 2156   5.757   0.780   4.771  0.8783 -0.0683 -0.2460
  717TIP3    H1 2157   5.672   0.749   4.803  0.1234  1.3901 -0.7804
  717TIP3    H2 2158   5.757   0.756   4.679  0.9965  0.0585 -0.2776
  718TIP3   OH2 2159   2.958   4.875   0.777 -0.1349 -0.5763 -0.8140
  718TIP3    H1 2160   2.975   4.917   0.692 -1.3634 -0.4128 -0.9955
  718TIP3    H2 2161   2.948   4.782   0.757 -0.3685 -0.5452 -0.8434
  719TIP3   OH2 2162   3.321   1.402   4.411  0.1937 -0.5315  0.3187
  719TIP3    H1 2163   3.238   1.364   4.439 -0.2787 -0.5334 -1.0349
  719TIP3    H2 2164   3.387   1.352   4.458 -0.4689 -2.2536 -0.5207
  720TIP3   OH2 2165   4.002   5.178   3.832 -0.7775 -0.1113 -0.0464
  720TIP3    H1 2166   4.089   5.193   3.870 -0.7671  1.6657 -0.6723
  720TIP3    H2 2167   3.989   5.083   3.839  0.3882 -0.1983  1.8193
  721TIP3   OH2 2168   5.113   1.935   1.953  0.2244 -0.1533  0.3652
  721TIP3    H1 2169   5.031   1.886   1.955  1.1642 -1.8307  0.1512
  721TIP3    H2 2170   5.163   1.895   1.882  1.7501 -0.0922  1.3475
  722TIP3   OH2 2171   2.854   1.001   1.377 -0.2525  0.1809  0.3512
  722TIP3    H1 2172   2.771   0.953   1.378 -0.8837  1.2411  0.5243
  722TIP3    H2 2173   2.897   0.977   1.459  0.6407 -2.0503 -0.6777
  723TIP3   OH2 2174   0.570   2.494   4.193  0.0150  0.1617 -0.5963
  723TIP3    H1 2175   0.500   2.465   4.135 -0.2658 -0.2314 -0.0659
  723TIP3    H2 2176   0.562   2.589   4.195 -1.2517  0.0610  0.3747
  724TIP3   OH2 2177   1.905   2.133   3.948 -0.0670  0.1983  0.1239
  724TIP3    H1 2178   1.919   2.137   4.043  0.6887  1.2506 -0.0072
  724TIP3    H2 2179   1.833   2.194   3.932 -0.2355 -0.0264  0.0347
  725TIP3   OH2 2180   1.957   2.611   1.477 -0.1929  0.5280 -0.2322
  725TIP3    H1 2181   1.876   2.660   1.494 -0.4613 -0.0166  0.0738
  725TIP3    H2 2182   1.927   2.528   1.440  0.2765  0.7402 -1.1358
  726TIP3   OH2 2183   5.873   0.507   0.094  0.0623  0.3325 -0.0022
  726TIP3    H1 2184   5.887   0.502   0.189 -1.3399  0.2181  0.2256
  726TIP3    H2 2185   5.873   0.416   0.065 -0.8641  0.2858  0.1205
  727TIP3   OH2 2186   1.390   2.821   5.066 -0.0832 -0.6061  0.3618
  727TIP3    H1 2187   1.412   2.731   5.087  2.3504  0.2426  1.8041
  727TIP3    H2 2188   1.364   2.819   4.973 -2.7501 -3.1331  1.0221
  728TIP3   OH2 2189   3.955   5.809   1.174 -0.1417 -0.4843 -0.2020
  728TIP3    H1 2190   3.978   5.822   1.266  1.8037 -1.4373 -0.5119
  728TIP3    H2 2191   3.937   5.715   1.167  0.1216 -0.4900 -0.8716
  729TIP3   OH2 2192   4.551   0.983   2.018 -0.8945  0.0677 -0.0216
  729TIP3    H1 2193   4.623   1.028   2.062 -1.4427 -0.2411  1.2492
  729TIP3    H2 2194   4.474   1.035   2.038 -1.1780 -0.1489 -0.5238
  730TIP3   OH2 2195   3.672   5.061   0.677 -0.0287 -0.0983 -0.1334
  730TIP3    H1 2196   3.607   4.993   0.687  0.9962 -1.1042 -0.1243
  730TIP3    H2 2197   3.634   5.122   0.613 -2.0663  0.7462  1.7512
  731TIP3   OH2 2198   0.841   1.241   2.433 -0.8580 -0.0118  0.3642
  731TIP3    H1 2199   0.781   1.247   2.359 -1.1256  1.9683  0.6987
  731TIP3    H2 2200   0.784   1.232   2.510 -0.7392  1.4293  0.6401
  732TIP3   OH2 2201   1.724   0.027   1.551  0.3670  0.3128  0.0414
  732TIP3    H1 2202   1.777   0.038   1.630 -0.7327  0.7685  0.7352
  732TIP3    H2 2203   1.750   0.099   1.494  0.5314  0.5078  0.3592
  733TIP3   OH2 2204   6.374   5.553   1.929 -0.1268  0.3531 -0.3305
  733TIP3    H1 2205   6.332   5.467   1.924 -1.1036  0.7825  0.1628
  733TIP3    H2 2206   6.313   5.612   1.884  1.7160  0.4046 -2.9962
  734TIP3   OH2 2207   0.953   3.875   3.703 -0.2649 -0.4984  0.2751
  734TIP3    H1 2208   1.026   3.813   3.705  2.5573  2.4526 -1.5511
  734TIP3    H2 2209   0.946   3.907   3.792  1.3095 -0.1852  0.3015
  735TIP3   OH2 2210   5.576   0.407   4.637 -0.1258  0.2765 -0.0318
  735TIP3    H1 2211   5.533   0.382   4.719 -1.9053 -1.4243 -1.3949
  735TIP3    H2 2212   5.575   0.328   4.584  0.7675  1.3941 -1.8037
  736TIP3   OH2 2213   2.501   0.563   0.355 -0.1554 -0.5896  0.0554
  736TIP3    H1 2214   2.465   0.510   0.284 -1.2053 -0.1395  0.2380
  736TIP3    H2 2215   2.543   0.637   0.311  1.2386 -1.4772 -0.1961
  737TIP3   OH2 2216   0.057   1.080   0.859 -0.3142  0.6289 -0.0739
  737TIP3    H1 2217   0.028   1.073   0.950  2.5049  1.1615  0.9542
  737TIP3    H2 2218   0.059   1.174   0.841  2.7173  0.8144  0.6913
  738TIP3   OH2 2219   0.734   4.632   4.340  0.0502 -0.0402 -0.4153
  738TIP3    H1 2220   0.774   4.559   4.387  0.2867  0.0417 -0.4886
  738TIP3    H2 2221   0.799   4.658   4.275  0.2072  0.6159 -0.0060
  739TIP3   OH2 2222   3.599   4.993   1.346  0.2371  0.4489  0.1824
  739TIP3    H1 2223   3.642   4.916   1.382  1.5200 -0.3685 -2.7440
  739TIP3    H2 2224   3.649   5.067   1.379  1.6789 -0.2846 -0.2698
  740TIP3   OH2 2225   4.142   2.476   3.955  0.6159 -0.4813  0.1093
  740TIP3    H1 2226   4.102   2.416   3.892  2.5227 -1.4704 -0.2183
  740TIP3    H2 2227   4.110   2.447   4.040 -1.5748  0.5482 -0.2874
  741TIP3   OH2 2228   3.457   2.823   4.567 -0.9565  0.1409 -0.1267
  741TIP3    H1 2229   3.371   2.859   4.591 -1.5618 -2.3664  1.8164
  741TIP3    H2 2230   3.520   2.887   4.601 -2.0156  0.7428  0.7539
  742TIP3   OH2 2231   0.722   4.655   1.459  0.1230  0.3260 -0.0099
  742TIP3    H1 2232   0.627   4.661   1.444  0.3942  1.8932 -1.4555
  742TIP3    H2 2233   0.743   4.563   1.441 -0.7042  0.5972 -3.0094
  743TIP3   OH2 2234   1.812   2.049   5.145 -0.1736 -0.9358 -0.7410
  743TIP3    H1 2235   1.874   1.984   5.111  0.7660 -0.8804  0.7614
  743TIP3    H2 2236   1.867   2.125   5.166 -1.1410  0.0544 -1.7193
  744TIP3   OH2 2237   5.075   4.879   5.129 -0.2632  0.3431 -1.3227
  744TIP3    H1 2238   5.166   4.849   5.126  0.2758  1.9327 -3.0810
  744TIP3    H2 2239   5.023   4.801   5.110  0.5930 -0.8663  0.9457
  745TIP3   OH2 2240   1.710   1.262   2.346 -0.2690  0.0656  0.8435
  745TIP3    H1 2241   1.654   1.185   2.340 -0.0889 -0.0121 -0.0404
  745TIP3    H2 2242   1.649   1.336   2.339 -0.2859 -0.0189 -0.1433
  746TIP3   OH2 2243   3.937   3.833   0.505  0.5591 -0.1847 -0.7575
  746TIP3    H1 2244   3.886   3.782   0.569  2.8878 -0.3321  1.1222
  746TIP3    H2 2245   3.954   3.772   0.434 -2.0988 -0.0195 -1.6491
  747TIP3   OH2 2246   4.063   4.828   2.895 -0.7484  0.0259  0.2377
  747TIP3    H1 2247   4.149   4.829   2.936 -0.8632  0.6410  0.4723
  747TIP3    H2 2248   4.004   4.865   2.961 -1.3111 -0.9771  0.3261
  748TIP3   OH2 2249   5.779   5.766   4.269 -0.3902  0.2062 -0.2055
  748TIP3    H1 2250   5.721   5.827   4.313  0.2977 -1.0434  2.6851
  748TIP3    H2 2251   5.732   5.741   4.189 -2.3417  1.6081  0.4296
  749TIP3   OH2 2252   5.787   3.760   1.819 -0.1780 -0.2358 -0.0354
  749TIP3    H1 2253   5.880   3.766   1.837 -0.5327  0.9687  1.5966
  749TIP3    H2 2254   5.778   3.792   1.729  0.8851  0.3792  0.0679
  750TIP3   OH2 2255   5.946   0.771   1.109 -0.8510 -0.0598 -0.5245
  750TIP3    H1 2256   5.955   0.808   1.021 -1.2630  2.1152  0.2671
  750TIP3    H2 2257   5.983   0.683   1.102 -0.8691  0.0491 -2.8545
  751TIP3   OH2 2258   3.858   0.516   2.206 -0.2075  0.0557  0.4059
  751TIP3    H1 2259   3.888   0.578   2.141  1.4834  1.6503  2.5674
  751TIP3    H2 2260   3.804   0.454   2.157 -1.6181  2.9041 -1.9669
  752TIP3   OH2 2261   2.678   2.858   3.826 -0.2810  0.3838  0.4775
  752TIP3    H1 2262   2.729   2.777   3.823 -0.7988  0.0576  0.3483
  752TIP3    H2 2263   2.589   2.831   3.804 -0.3776  1.0549  0.0154
  753TIP3   OH2 2264   3.228   4.580   0.675 -0.2783  1.1270 -0.1624
  753TIP3    H1 2265   3.282   4.614   0.604  2.9779  0.2827  1.6792
  753TIP3    H2 2266   3.138   4.596   0.647  0.7528  0.3846 -4.6489
  754TIP3   OH2 2267   1.368   2.663   4.176 -0.0170  0.0907 -0.4102
  754TIP3    H1 2268   1.340   2.739   4.226  1.2135  0.3039 -0.0090
  754TIP3    H2 2269   1.303   2.596   4.195 -0.7073  0.8111 -0.1853
  755TIP3   OH2 2270   3.498   4.480   3.023  0.1196  0.1586 -0.3249
  755TIP3    H1 2271   3.475   4.573   3.018 -0.4986 -0.0050 -0.6940
  755TIP3    H2 2272   3.531   4.459   2.935  0.6686  0.1303 -0.1147
  756TIP3   OH2 2273   4.701   5.542   1.056 -0.1497 -0.1919  0.2703
  756TIP3    H1 2274   4.795   5.523   1.054 -0.2863 -1.2425 -3.5529
  756TIP3    H2 2275   4.692   5.625   1.010 -1.0341  0.7894  2.1005
  757TIP3   OH2 2276   3.435   4.476   3.955  0.1814  0.0321 -0.1468
  757TIP3    H1 2277   3.491   4.434   3.890 -0.1847 -0.3918 -0.1941
  757TIP3    H2 2278   3.494   4.497   4.028  1.1289  2.8001 -1.5865
  758TIP3   OH2 2279   5.472   4.603   3.878 -0.2744 -0.4193 -0.0254
  758TIP3    H1 2280   5.423   4.570   3.954  1.1582 -0.1601  1.0586
  758TIP3    H2 2281   5.481   4.697   3.894  1.9744 -0.6968  0.7003
  759TIP3   OH2 2282   4.194   1.185   0.067  0.3098  0.0276  0.2653
  759TIP3    H1 2283   4.244   1.155  -0.008 -1.1780  0.6212 -1.0013
  759TIP3    H2 2284   4.112   1.137   0.063 -0.1824  0.7810  0.9345
  760TIP3   OH2 2285   3.655   0.690   3.476  0.1554  0.3072 -0.0127
  760TIP3    H1 2286   3.658   0.760   3.541  2.1749 -0.4366  0.7472
  760TIP3    H2 2287   3.652   0.609   3.526 -1.8486 -0.2452 -0.8887
  761TIP3   OH2 2288   4.181   4.806   3.318  0.4401 -0.1860 -0.5005
  761TIP3    H1 2289   4.254   4.745   3.320 -0.3892 -1.1912  0.8439
  761TIP3    H2 2290   4.206   4.875   3.380  0.6271 -0.0648 -0.7099
  762TIP3   OH2 2291   0.331   0.618   4.125 -0.3197 -0.5687  0.1093
  762TIP3    H1 2292   0.386   0.644   4.199  0.8667  1.0624 -1.2416
  762TIP3    H2 2293   0.333   0.522   4.126  0.3314 -0.5710  1.6913
  763TIP3   OH2 2294   1.131   5.965   3.857  0.0006  0.2102 -0.3494
  763TIP3    H1 2295   1.093   5.935   3.940 -1.2274  1.8683 -0.2422
  763TIP3    H2 2296   1.095   5.906   3.792 -0.9146  0.2963  0.0520
  764TIP3   OH2 2297   3.253   5.497   0.473 -0.6130  0.5461  0.2863
  764TIP3    H1 2298   3.255   5.434   0.544  0.4401 -1.0295 -1.0608
  764TIP3    H2 2299   3.334   5.481   0.424 -1.6077  1.0801 -1.6468
  765TIP3   OH2 2300   3.046   5.496   0.298  0.2546  0.1137 -0.2637
  765TIP3    H1 2301   2.965   5.467   0.340  0.1951  1.3982  0.5526
  765TIP3    H2 2302   3.116   5.467   0.356  0.1955  1.5014  0.5516
  766TIP3   OH2 2303   0.957   1.515   3.886 -0.4539 -0.5271  0.2078
  766TIP3    H1 2304   0.934   1.422   3.895 -0.6819 -0.3698  1.4201
  766TIP3    H2 2305   0.948   1.550   3.974 -0.1650  0.6109 -0.2039
  767TIP3   OH2 2306   3.567   1.595   1.911  0.3870 -0.4744  0.2330
  767TIP3    H1 2307   3.505   1.662   1.879 -0.5157 -1.3786  0.0059
  767TIP3    H2 2308   3.653   1.627   1.885  0.1464  1.4443  1.6756
  768TIP3   OH2 2309   0.179   0.189   1.932  0.2810  0.6361 -0.0370
  768TIP3    H1 2310   0.215   0.101   1.921  0.6850  0.9510 -1.5297
  768TIP3    H2 2311   0.123   0.201   1.855 -1.0768  1.0917  0.9802
  769TIP3   OH2 2312   2.081   1.923   2.015 -0.7328 -0.1254  0.0967
  769TIP3    H1 2313   2.021   1.973   2.070 -1.2405 -0.4472 -0.1535
  769TIP3    H2 2314   2.155   1.904   2.071 -0.5910  0.7974  0.2329
  770TIP3   OH2 2315   4.307   3.839   2.163  0.4771 -0.0882 -0.4545
  770TIP3    H1 2316   4.214   3.832   2.140  0.4708  0.7455 -0.7048
  770TIP3    H2 2317   4.341   3.750   2.150 -0.6321 -0.8218  1.2805
  771TIP3   OH2 2318   4.365   4.303   4.292 -0.7516 -0.3065  0.2025
  771TIP3    H1 2319   4.329   4.391   4.303 -0.7803 -0.3137  0.1641
  771TIP3    H2 2320   4.297   4.254   4.247  0.1075  0.2564 -1.8444
  772TIP3   OH2 2321   3.145   1.437   4.941 -0.0521  0.1079  0.1460
  772TIP3    H1 2322   3.053   1.455   4.924  0.0675  1.0669  0.4601
  772TIP3    H2 2323   3.191   1.475   4.866  0.1142 -0.0884  0.1472
  773TIP3   OH2 2324   5.491   0.472   0.327  0.9893  0.0570 -0.3615
  773TIP3    H1 2325   5.467   0.380   0.343 -1.1384  0.6411  0.0503
  773TIP3    H2 2326   5.484   0.481   0.232 -0.4597  0.2048 -0.2514
  774TIP3   OH2 2327   1.141   5.887   3.408  0.8270 -0.2476  0.0389
  774TIP3    H1 2328   1.089   5.942   3.466  1.6378  1.3769 -0.6996
  774TIP3    H2 2329   1.131   5.798   3.443 -2.5540 -0.0745 -0.1681
  775TIP3   OH2 2330   5.912   1.101   1.924 -0.0580  0.6785  0.3065
  775TIP3    H1 2331   5.826   1.098   1.882  0.6616 -0.6582 -1.1421
  775TIP3    H2 2332   5.904   1.044   2.000  0.0729 -1.1273 -0.9648
  776TIP3   OH2 2333   5.790   1.272   0.438  0.2281  0.4501  0.5500
  776TIP3    H1 2334   5.835   1.259   0.355  2.3504  0.3467  1.6620
  776TIP3    H2 2335   5.714   1.326   0.416  1.8932  2.2341 -1.1544
  777TIP3   OH2 2336   2.720   4.965   3.849  0.1022  0.6294  0.1258
  777TIP3    H1 2337   2.797   4.983   3.902  0.3379  1.6862 -0.5562
  777TIP3    H2 2338   2.701   4.872   3.865  1.8805  0.1846 -0.1737
  778TIP3   OH2 2339   5.927   2.444   4.557 -0.3786 -0.2338  0.6199
  778TIP3    H1 2340   5.938   2.374   4.493 -2.0397 -1.8236  1.9377
  778TIP3    H2 2341   6.016   2.473   4.577  0.1957 -0.0012 -1.9979
  779TIP3   OH2 2342   3.359   4.043   0.648  0.4355  0.5459  0.4685
  779TIP3    H1 2343   3.411   4.081   0.719  0.4582 -0.3199  0.9372
  779TIP3    H2 2344   3.346   4.114   0.586  1.2995  1.0470  0.8481
  780TIP3   OH2 2345   3.066   1.411   3.261 -0.5476  0.2835  0.1443
  780TIP3    H1 2346   3.157   1.441   3.257 -0.1661 -0.9226 -0.7546
  780TIP3    H2 2347   3.053   1.387   3.353  0.9771 -2.1553 -0.1755
  781TIP3   OH2 2348   2.534   5.395   0.313 -0.4199  0.3129 -0.7241
  781TIP3    H1 2349   2.493   5.419   0.396 -1.1767  1.0610 -1.2997
  781TIP3    H2 2350   2.468   5.344   0.267 -0.2909  0.5534 -1.1845
  782TIP3   OH2 2351   3.452   3.117   2.995 -0.0969 -0.1499  0.4041
  782TIP3    H1 2352   3.485   3.077   3.075 -3.0221  1.4774  2.6264
  782TIP3    H2 2353   3.363   3.082   2.986 -0.7866  1.7199 -0.5893
  783TIP3   OH2 2354   0.944   0.631   1.598 -0.9025 -0.6376 -0.0499
  783TIP3    H1 2355   1.023   0.683   1.588 -0.3294 -1.4484  0.1780
  783TIP3    H2 2356   0.886   0.685   1.651  0.0895 -0.6569  1.0921
  784TIP3   OH2 2357   5.017   5.764   2.206 -0.2989 -0.3322 -0.3989
  784TIP3    H1 2358   5.003   5.856   2.180 -0.5232 -0.2476  0.0194
  784TIP3    H2 2359   5.000   5.763   2.300  2.2314 -0.2613  0.1395
  785TIP3   OH2 2360   3.115   4.142   2.721 -0.4503 -0.4063  0.4580
  785TIP3    H1 2361   3.154   4.222   2.757 -1.2449 -0.0322  0.5040
  785TIP3    H2 2362   3.067   4.104   2.795  1.4190 -1.9412  0.9753
  786TIP3   OH2 2363   1.807   4.503   3.140  0.0055  0.0434  0.0682
  786TIP3    H1 2364   1.805   4.570   3.071 -0.2905  0.9291  0.9117
  786TIP3    H2 2365   1.868   4.437   3.108 -0.8559 -0.0521 -1.4769
  787TIP3   OH2 2366   0.345   1.039   2.483 -0.5618 -0.0936  0.0631
  787TIP3    H1 2367   0.257   1.020   2.449 -0.3993  0.8005 -0.8925
  787TIP3    H2 2368   0.330   1.102   2.553 -0.6948 -0.1323  0.0709
  788TIP3   OH2 2369   4.880   2.539   2.177  0.2655  0.1989  0.4016
  788TIP3    H1 2370   4.800   2.500   2.141 -0.8757  1.4988  1.4163
  788TIP3    H2 2371   4.949   2.512   2.116 -0.8564 -1.2960 -0.2796
  789TIP3   OH2 2372   1.053   3.642   0.968  0.4456 -0.1734 -0.5982
  789TIP3    H1 2373   1.096   3.696   0.901  0.9952  0.7344  0.4394
  789TIP3    H2 2374   1.115   3.641   1.041  0.1460 -1.6846 -0.3276
  790TIP3   OH2 2375   1.781   0.032   4.197 -0.0944 -0.6001  0.5876
  790TIP3    H1 2376   1.797   0.073   4.282 -2.2524  0.3023  0.6190
  790TIP3    H2 2377   1.786  -0.062   4.214  1.8943 -0.4471  1.1600
  791TIP3   OH2 2378   1.128   1.114   3.866  0.2408  0.0720 -0.0135
  791TIP3    H1 2379   1.079   1.043   3.824  0.4418 -0.0584 -0.0292
  791TIP3    H2 2380   1.220   1.088   3.857  0.2552 -0.2894  1.1108
  792TIP3   OH2 2381   3.508   5.912   3.312  0.1515  0.6718 -0.8209
  792TIP3    H1 2382   3.433   5.955   3.354  0.3652  1.8087 -1.5436
  792TIP3    H2 2383   3.472   5.830   3.278 -0.4647  0.6165 -0.0742
  793TIP3   OH2 2384   3.723   4.434   1.337 -0.5173  0.3437 -0.2460
  793TIP3    H1 2385   3.651   4.491   1.363 -1.0310 -0.8717  1.1242
  793TIP3    H2 2386   3.707   4.416   1.244 -2.4996 -0.5866  0.2224
  794TIP3   OH2 2387   3.505   2.821   5.039 -0.3421 -0.1963  0.6250
  794TIP3    H1 2388   3.546   2.905   5.060 -1.2293 -0.1113  2.2228
  794TIP3    H2 2389   3.576   2.757   5.043 -0.0634  0.1617  1.8033
  795TIP3   OH2 2390   3.958   1.858   2.908 -0.4881  0.1635  0.4484
  795TIP3    H1 2391   3.875   1.812   2.902  0.4367 -1.5063 -0.1014
  795TIP3    H2 2392   3.988   1.866   2.818 -0.2850  1.2343  0.5932
  796TIP3   OH2 2393   4.286   2.976   4.658 -0.0313 -0.2517  0.1946
  796TIP3    H1 2394   4.245   2.914   4.718  1.6966 -0.3326  1.3891
  796TIP3    H2 2395   4.313   3.049   4.714  2.4912 -0.7580 -0.2197
  797TIP3   OH2 2396   1.232   5.844   0.212 -0.0921 -0.2014  0.0621
  797TIP3    H1 2397   1.312   5.896   0.219  0.3589 -0.7230 -0.9785
  797TIP3    H2 2398   1.175   5.877   0.282  0.4148  1.2538 -0.1818
  798TIP3   OH2 2399   2.829   1.061   0.887 -0.4014  0.0344 -0.3935
  798TIP3    H1 2400   2.772   1.112   0.831 -0.0458 -0.6189 -1.3718
  798TIP3    H2 2401   2.770   1.016   0.947 -0.7763  0.8108 -0.1724
  799TIP3   OH2 2402   5.340   2.942   4.355  0.0938  0.2032  0.1178
  799TIP3    H1 2403   5.304   2.873   4.299 -1.1645  0.2772  0.7899
  799TIP3    H2 2404   5.427   2.911   4.380  0.1219 -0.4543 -0.7611
  800TIP3   OH2 2405   3.925   5.775   3.122 -0.2328 -0.0378  0.1988
  800TIP3    H1 2406   3.844   5.825   3.121  0.5434  1.3027  0.8572
  800TIP3    H2 2407   3.959   5.785   3.211  0.1603 -1.4108  0.2174
  801TIP3   OH2 2408   4.467   5.353   4.255 -0.0696 -0.1799  0.0057
  801TIP3    H1 2409   4.453   5.436   4.209  1.1373  0.5151  0.7969
  801TIP3    H2 2410   4.559   5.358   4.284 -0.4466 -1.0852  1.4398
  802TIP3   OH2 2411   0.667   4.381   5.067 -0.1565  0.1234 -0.1178
  802TIP3    H1 2412   0.630   4.297   5.039 -0.0881 -0.0526  0.3187
  802TIP3    H2 2413   0.713   4.361   5.149  2.4765 -0.0520 -1.5230
  803TIP3   OH2 2414   1.936   1.204   3.211  0.1720  0.1591  0.3128
  803TIP3    H1 2415   1.845   1.182   3.232  0.1343 -1.7567 -1.4619
  803TIP3    H2 2416   1.986   1.129   3.243  0.6719 -0.4094 -1.6628
  804TIP3   OH2 2417   3.036   3.770   1.715  0.2201  0.2089  0.3351
  804TIP3    H1 2418   3.086   3.828   1.773 -1.2651 -0.0249  1.9327
  804TIP3    H2 2419   2.954   3.817   1.700  0.4241  0.0923 -1.3394
  805TIP3   OH2 2420   6.160   4.488   2.514 -0.0857  0.5242  0.4044
  805TIP3    H1 2421   6.142   4.565   2.568 -0.3888  0.9248 -0.2411
  805TIP3    H2 2422   6.164   4.523   2.425 -0.2263 -0.2120  0.1026
  806TIP3   OH2 2423   4.393   3.544   2.782 -0.3724 -0.4517  0.2370
  806TIP3    H1 2424   4.436   3.469   2.742  0.3521 -1.9759  3.5280
  806TIP3    H2 2425   4.459   3.613   2.783  0.1230 -0.9250  0.2418
  807TIP3   OH2 2426   3.683   1.855   2.827  0.3733 -0.3175  0.1261
  807TIP3    H1 2427   3.649   1.879   2.913 -1.2242 -0.3316 -0.4809
  807TIP3    H2 2428   3.670   1.933   2.773  2.4506  0.1074  0.1620
  808TIP3   OH2 2429   5.716   3.335   5.143 -0.2582 -0.0626 -0.2154
  808TIP3    H1 2430   5.767   3.301   5.217  0.4406 -0.9044 -1.0668
  808TIP3    H2 2431   5.757   3.418   5.122 -0.5355  0.2391  0.4142
  809TIP3   OH2 2432   3.365   5.121   1.392  0.3965 -0.0226  0.5853
  809TIP3    H1 2433   3.448   5.073   1.394  0.5367  0.2296  1.7578
  809TIP3    H2 2434   3.298   5.053   1.385  0.7184 -0.1700 -1.6476
  810TIP3   OH2 2435   2.467   2.506   5.039 -0.6115 -0.2041  0.1705
  810TIP3    H1 2436   2.519   2.516   4.959 -2.4667 -1.0817 -1.2317
  810TIP3    H2 2437   2.524   2.538   5.109  0.7296  1.5761 -1.6066
  811TIP3   OH2 2438   5.513   1.346   0.639  0.4956  0.4899  0.5401
  811TIP3    H1 2439   5.543   1.408   0.573  1.7880  1.1538  1.7042
  811TIP3    H2 2440   5.518   1.260   0.596 -2.3912  1.1797 -1.4678
  812TIP3   OH2 2441   4.762   3.292   0.219  0.1821  0.2508 -0.5520
  812TIP3    H1 2442   4.812   3.211   0.205  1.3950  0.1533  3.1214
  812TIP3    H2 2443   4.688   3.266   0.274 -0.3808  1.3813 -0.7341
  813TIP3   OH2 2444   6.122   2.643   2.995 -0.6103 -0.6681  0.2395
  813TIP3    H1 2445   6.104   2.737   3.003  0.7578 -0.4239  0.7274
  813TIP3    H2 2446   6.215   2.635   3.016 -0.8238 -2.2010  0.7075
  814TIP3   OH2 2447   4.646   1.689   3.097  0.2562 -0.7060 -0.4689
  814TIP3    H1 2448   4.560   1.711   3.132 -0.3149 -2.5935 -0.5895
  814TIP3    H2 2449   4.669   1.605   3.138  0.7062 -1.7020 -2.6003
  815TIP3   OH2 2450   0.742   2.728   3.409 -0.1963 -0.3450  0.0237
  815TIP3    H1 2451   0.706   2.800   3.461  1.8944  2.3952 -2.0240
  815TIP3    H2 2452   0.807   2.688   3.466 -1.2367 -0.5003  1.1303
  816TIP3   OH2 2453   2.827   4.955   3.565 -0.3118 -0.4361  0.0320
  816TIP3    H1 2454   2.838   4.862   3.545  0.4706 -0.4139  0.3430
  816TIP3    H2 2455   2.837   4.961   3.660  2.2327  0.2880 -0.2183
  817TIP3   OH2 2456   1.219   4.105   2.946 -0.1405 -0.3904  0.5544
  817TIP3    H1 2457   1.279   4.140   2.879 -0.9564 -1.8367 -1.0002
  817TIP3    H2 2458   1.219   4.010   2.931 -1.7972 -0.5551  1.3738
  818TIP3   OH2 2459   3.838   4.566   1.805 -0.2689  0.1656  0.3481
  818TIP3    H1 2460   3.861   4.474   1.820 -0.6216 -0.1959 -1.1558
  818TIP3    H2 2461   3.867   4.584   1.715 -1.4955  1.0979  0.1093
  819TIP3   OH2 2462   5.107   4.840   0.895  0.0471 -0.2454 -0.4496
  819TIP3    H1 2463   5.166   4.899   0.944 -0.7843  0.4716 -0.2779
  819TIP3    H2 2464   5.156   4.759   0.886  0.0524 -0.6110  2.0922
  820TIP3   OH2 2465   2.805   1.597   3.183  0.6281  0.1519 -0.3176
  820TIP3    H1 2466   2.785   1.569   3.093  1.1557 -0.8885 -0.1224
  820TIP3    H2 2467   2.897   1.577   3.195  0.5940  0.3979  0.4242
  821TIP3   OH2 2468   5.365   3.010   3.198  0.2024 -0.1324  0.0032
  821TIP3    H1 2469   5.444   2.958   3.183 -1.3843 -1.9367 -2.7953
  821TIP3    H2 2470   5.334   2.982   3.284  0.2459 -2.7619 -0.7643
  822TIP3   OH2 2471   2.356   1.381   0.057 -0.4699 -0.2694  0.5880
  822TIP3    H1 2472   2.393   1.430   0.130  2.2651 -1.2606 -0.0049
  822TIP3    H2 2473   2.422   1.314   0.037 -1.3886 -0.4400 -2.3743
  823TIP3   OH2 2474   6.189   5.931   2.621 -0.0001 -0.1876 -0.0067
  823TIP3    H1 2475   6.215   5.877   2.547  0.1531 -0.3345  0.1526
  823TIP3    H2 2476   6.199   5.874   2.697  1.0185  0.3213  0.2650
  824TIP3   OH2 2477   5.322   0.678   5.061 -0.1492 -0.3524  0.0536
  824TIP3    H1 2478   5.229   0.658   5.067 -0.2122  0.1467  0.8816
  824TIP3    H2 2479   5.326   0.773   5.061  0.3817 -0.3666  0.5985
  825TIP3   OH2 2480   4.292   4.611   1.880 -0.1717  0.2559 -0.0538
  825TIP3    H1 2481   4.288   4.628   1.785  0.6212 -0.6203 -0.2604
  825TIP3    H2 2482   4.385   4.597   1.898 -0.4969 -1.3863  0.5160
  826TIP3   OH2 2483   2.817   5.550   3.718  0.4302 -0.0255 -0.4720
  826TIP3    H1 2484   2.827   5.460   3.750  1.1601 -0.5136 -2.0092
  826TIP3    H2 2485   2.769   5.541   3.636  2.0115  0.7992 -1.5252
  827TIP3   OH2 2486   3.033   3.807   2.651  0.1400 -0.3699 -0.4808
  827TIP3    H1 2487   3.033   3.743   2.722  1.6073 -1.1874 -1.1797
  827TIP3    H2 2488   3.119   3.848   2.657  0.4917 -0.8325 -2.1164
  828TIP3   OH2 2489   2.024   1.915   1.315  0.0918  0.1700  0.3063
  828TIP3    H1 2490   1.937   1.879   1.302 -0.6934  2.0213  0.1500
  828TIP3    H2 2491   2.041   1.906   1.409 -0.7097  0.7220  0.5099
  829TIP3   OH2 2492   0.866   0.517   1.028  0.1409 -0.4583  0.6712
  829TIP3    H1 2493   0.772   0.537   1.028 -0.1321 -1.6431  0.0384
  829TIP3    H2 2494   0.873   0.436   0.978  1.8390  1.1851 -1.9928
  830TIP3   OH2 2495   6.037   4.021   2.165 -0.0689  0.0758 -0.2107
  830TIP3    H1 2496   5.961   4.080   2.167 -0.5850 -0.5915  0.2512
  830TIP3    H2 2497   6.099   4.061   2.225  0.2409  1.0030 -1.1247
  831TIP3   OH2 2498   3.460   2.306   3.353 -0.6486 -0.5791  0.2954
  831TIP3    H1 2499   3.446   2.382   3.297 -0.8977  0.8555  2.2015
  831TIP3    H2 2500   3.556   2.300   3.362 -0.6637  0.4096  1.2675
  832TIP3   OH2 2501   0.083   4.538   4.110  0.2073 -0.2356  0.0918
  832TIP3    H1 2502   0.153   4.554   4.174  0.6364 -3.0576  0.4476
  832TIP3    H2 2503   0.012   4.595   4.138  1.7656  1.5256  0.6915
  833TIP3   OH2 2504   4.630   0.965   3.693  0.1793 -0.1227 -0.3045
  833TIP3    H1 2505   4.641   1.009   3.778 -1.9644 -1.9760  1.0667
  833TIP3    H2 2506   4.543   0.991   3.664  0.8435  0.3988 -1.9451
  834TIP3   OH2 2507   2.197   1.049   4.837 -0.1765  0.4552  0.2155
  834TIP3    H1 2508   2.158   1.135   4.823 -0.7180  0.7670  2.9884
  834TIP3    H2 2509   2.288   1.068   4.860 -0.2750  0.3134  0.7437
  835TIP3   OH2 2510   5.576   4.630   1.106 -0.0893  0.1575 -0.3450
  835TIP3    H1 2511   5.644   4.691   1.077 -0.8116  1.2386  0.1622
  835TIP3    H2 2512   5.624   4.555   1.140  0.8329  0.5338 -0.7792
  836TIP3   OH2 2513   4.497   1.275   1.733 -0.5848  0.2086 -0.0628
  836TIP3    H1 2514   4.484   1.286   1.639  0.7763  2.0241 -0.1171
  836TIP3    H2 2515   4.427   1.326   1.773 -0.8513 -0.1196 -0.1169
  837TIP3   OH2 2516   0.922   4.121   4.660 -0.7078 -0.3741  0.7638
  837TIP3    H1 2517   0.828   4.128   4.675 -0.6710 -0.1615  0.9066
  837TIP3    H2 2518   0.951   4.056   4.724 -0.5636  0.4794  1.5940
  838TIP3   OH2 2519   0.246   2.088   3.274  0.6216  0.0857 -0.5627
  838TIP3    H1 2520   0.186   2.090   3.348  1.7282  1.7140  0.3561
  838TIP3    H2 2521   0.294   2.005   3.284 -0.8201 -0.8179 -0.8365
  839TIP3   OH2 2522   1.501   0.769   2.478  0.0922  0.3436  0.1033
  839TIP3    H1 2523   1.483   0.844   2.534 -3.1493  0.3701 -0.8115
  839TIP3    H2 2524   1.473   0.693   2.531 -0.3033  0.1318 -0.4042
  840TIP3   OH2 2525   3.001   1.405   2.120 -0.1116 -0.3218  0.6906
  840TIP3    H1 2526   2.972   1.349   2.049  0.1937 -0.6980  0.8572
  840TIP3    H2 2527   3.035   1.344   2.186  1.7531  0.1126  0.1928
  841TIP3   OH2 2528   5.827   3.514   0.869 -0.0402  0.4784  0.0687
  841TIP3    H1 2529   5.887   3.459   0.919 -0.4837 -2.7793 -2.6063
  841TIP3    H2 2530   5.882   3.552   0.800 -0.4408  0.0482 -0.4980
  842TIP3   OH2 2531   2.244   5.471   4.933  0.7396  0.0749  0.3290
  842TIP3    H1 2532   2.300   5.450   5.007 -0.8817 -0.8437  1.3377
  842TIP3    H2 2533   2.216   5.561   4.949  2.4962  0.8396 -0.6050
  843TIP3   OH2 2534   5.534   2.623   2.530 -0.3773  0.4901 -0.0778
  843TIP3    H1 2535   5.483   2.680   2.473 -2.0162 -0.0672  0.7730
  843TIP3    H2 2536   5.495   2.536   2.519  1.0191 -0.1721 -0.1072
  844TIP3   OH2 2537   2.385   4.595   1.499  0.7878 -0.6066  0.6267
  844TIP3    H1 2538   2.352   4.685   1.499  1.1052 -0.4834  0.1987
  844TIP3    H2 2539   2.401   4.575   1.591  1.1158 -0.0669  0.6918
  845TIP3   OH2 2540   1.318   2.235   0.113 -0.1419 -0.1218 -0.2836
  845TIP3    H1 2541   1.286   2.322   0.092  0.2874 -0.3318 -1.9583
  845TIP3    H2 2542   1.243   2.178   0.101  0.3263 -0.3680 -2.3506
  846TIP3   OH2 2543   2.180   5.863   1.411 -0.2172 -0.3307  0.5678
  846TIP3    H1 2544   2.108   5.914   1.375  1.9427  2.0089 -0.8169
  846TIP3    H2 2545   2.197   5.796   1.345  1.1916  1.4915 -1.0506
  847TIP3   OH2 2546   3.779   3.615   2.781 -0.3587  0.6082  0.2718
  847TIP3    H1 2547   3.684   3.613   2.791 -0.4638 -1.2795 -0.7047
  847TIP3    H2 2548   3.811   3.557   2.850 -0.0264  0.0715 -0.3254
  848TIP3   OH2 2549   2.806   0.589   3.276  0.3827  0.0004 -0.3165
  848TIP3    H1 2550   2.855   0.669   3.292 -2.8776  1.9651  0.7748
  848TIP3    H2 2551   2.850   0.523   3.329  2.5345  1.2891 -0.4123
  849TIP3   OH2 2552   2.613   5.361   3.742  0.2481 -0.1607  0.2325
  849TIP3    H1 2553   2.560   5.288   3.774  1.1514  0.1941  2.7759
  849TIP3    H2 2554   2.551   5.431   3.725 -0.4380 -0.9189 -0.4528
  850TIP3   OH2 2555   3.601   4.399   0.238  0.0855  0.0595 -0.5168
  850TIP3    H1 2556   3.512   4.385   0.205  0.3567  0.7784 -1.5929
  850TIP3    H2 2557   3.638   4.310   0.245 -0.7292 -0.2528  0.0457
  851TIP3   OH2 2558   1.297   2.236   4.994 -0.3209 -0.0003  0.3553
  851TIP3    H1 2559   1.303   2.331   4.983  0.2073 -0.1705 -1.0603
  851TIP3    H2 2560   1.387   2.208   5.010 -0.1543 -0.4495 -1.2003
  852TIP3   OH2 2561   4.637   1.259   4.978  0.4887 -0.0676  0.1516
  852TIP3    H1 2562   4.663   1.340   5.023 -1.2712  0.1384  0.8991
  852TIP3    H2 2563   4.715   1.232   4.931  1.8282  0.8068  1.7429
  853TIP3   OH2 2564   4.210   1.967   3.308 -0.3084 -0.2691  0.3753
  853TIP3    H1 2565   4.222   2.057   3.279  0.1993 -1.0164 -1.9040
  853TIP3    H2 2566   4.251   1.965   3.395 -0.0419  1.5933  0.3387
  854TIP3   OH2 2567   4.827   2.861   4.822  0.3170  0.5196 -0.1002
  854TIP3    H1 2568   4.817   2.814   4.905  1.5684 -1.7388 -1.1479
  854TIP3    H2 2569   4.921   2.858   4.804  0.3847  2.9696 -0.5439
  855TIP3   OH2 2570   2.368   2.735   4.538 -0.0469  0.2790  0.1815
  855TIP3    H1 2571   2.338   2.650   4.569 -0.7823  1.0808  1.7762
  855TIP3    H2 2572   2.383   2.722   4.444 -1.2225 -1.2969  0.1638
  856TIP3   OH2 2573   0.927   0.964   0.967 -0.0023  0.3303 -0.0746
  856TIP3    H1 2574   0.939   0.878   0.925 -2.1595 -0.1766  0.2343
  856TIP3    H2 2575   0.901   1.022   0.896 -1.0661  0.0994  0.1158
  857TIP3   OH2 2576  -0.002   3.494   0.572 -0.2167  0.2760  0.0053
  857TIP3    H1 2577   0.012   3.570   0.629  2.1284 -0.4037  0.4249
  857TIP3    H2 2578   0.054   3.425   0.609 -1.6066 -1.4163 -0.8730
  858TIP3   OH2 2579   4.847   0.617   2.773 -0.3618 -0.1178 -0.6671
  858TIP3    H1 2580   4.832   0.540   2.828  0.4001 -0.3657 -0.7933
  858TIP3    H2 2581   4.942   0.617   2.757 -0.3582  0.8183 -0.7123
  859TIP3   OH2 2582   4.718   1.994   4.705 -0.4669  0.1060  0.0402
  859TIP3    H1 2583   4.766   1.995   4.622 -1.8471 -0.1108 -0.8053
  859TIP3    H2 2584   4.764   1.929   4.758  1.2333  1.2080 -0.0324
  860TIP3   OH2 2585   4.464   1.489   4.457 -0.2176 -0.4351  0.0083
  860TIP3    H1 2586   4.537   1.537   4.416 -0.4154 -0.2078 -0.0806
  860TIP3    H2 2587   4.449   1.534   4.540 -1.4116  0.6405 -0.7491
  861TIP3   OH2 2588   4.960   4.349   0.748 -0.3419 -0.4803 -0.7573
  861TIP3    H1 2589   4.895   4.386   0.808  2.4844  1.2833  1.4984
  861TIP3    H2 2590   4.928   4.261   0.728 -2.0430 -0.7239  2.4625
  862TIP3   OH2 2591   2.999   0.873   0.911 -0.0672 -0.0472 -0.2769
  862TIP3    H1 2592   3.040   0.907   0.990  1.0611 -1.1466 -0.3562
  862TIP3    H2 2593   2.950   0.947   0.875  3.0012  1.8173 -0.9529
  863TIP3   OH2 2594   1.373   0.255   2.823  1.0243 -0.1796  0.7904
  863TIP3    H1 2595   1.425   0.333   2.841 -2.6440  2.6123  0.2545
  863TIP3    H2 2596   1.402   0.226   2.737  2.2008  0.7536  0.8419
  864TIP3   OH2 2597   0.283   2.304   3.827 -0.4241 -0.2962 -0.5664
  864TIP3    H1 2598   0.362   2.253   3.813  1.0629  2.0463 -1.1623
  864TIP3    H2 2599   0.261   2.340   3.742 -0.8595  0.8321 -0.0015
  865TIP3   OH2 2600   3.446   0.623   2.125  0.5527 -0.2383 -0.1837
  865TIP3    H1 2601   3.468   0.536   2.093 -1.9454 -1.1331  0.2588
  865TIP3    H2 2602   3.470   0.622   2.217 -0.3788 -0.8506  0.0652
  866TIP3   OH2 2603   1.310   1.915   2.719  0.3319 -0.2916  0.1075
  866TIP3    H1 2604   1.256   1.850   2.674  0.5957 -1.4019  1.3278
  866TIP3    H2 2605   1.338   1.872   2.799 -0.5378  1.7641  1.6168
  867TIP3   OH2 2606   4.731   5.160   0.174  0.1393  0.0821  0.4961
  867TIP3    H1 2607   4.726   5.247   0.214  0.6964  0.2829  0.1379
  867TIP3    H2 2608   4.713   5.175   0.082 -0.2007 -0.2495  0.5062
  868TIP3   OH2 2609   0.588   2.000   1.316 -0.0329  0.3049  0.2663
  868TIP3    H1 2610   0.542   1.991   1.233 -0.6438 -0.7260  0.6906
  868TIP3    H2 2611   0.577   1.914   1.358  2.6367 -0.1429  0.2157
  869TIP3   OH2 2612   3.677   4.688   0.644 -0.4917  0.2899 -0.6553
  869TIP3    H1 2613   3.638   4.771   0.670  0.9468  0.4212  1.2858
  869TIP3    H2 2614   3.766   4.710   0.617 -0.1945 -0.5866 -0.4274
  870TIP3   OH2 2615   6.101   5.049   2.125 -0.0460  0.6434  0.4259
  870TIP3    H1 2616   6.012   5.028   2.154  0.0827 -2.1265 -0.8249
  870TIP3    H2 2617   6.089   5.097   2.044 -0.4296  0.0449  0.1200
  871TIP3   OH2 2618  -0.015   4.250   3.642 -0.4697  0.1021 -0.0420
  871TIP3    H1 2619   0.069   4.248   3.596 -0.7480  1.3724 -0.6435
  871TIP3    H2 2620  -0.034   4.159   3.662  1.6097 -0.1301  1.1243
  872TIP3   OH2 2621   3.655   2.981   4.682  0.3344  0.1301  0.1281
  872TIP3    H1 2622   3.701   2.907   4.721  0.9989  0.0192 -0.8449
  872TIP3    H2 2623   3.622   3.030   4.757 -0.3936 -1.3102  0.7955
  873TIP3   OH2 2624   2.498   5.361   1.155 -0.2244  0.9035  0.0150
  873TIP3    H1 2625   2.543   5.444   1.172  0.1149  0.5961  0.6308
  873TIP3    H2 2626   2.525   5.337   1.066  1.3893  0.3796  0.6227
  874TIP3   OH2 2627   1.078   5.320   1.695 -0.2573  0.0159  0.4140
  874TIP3    H1 2628   1.019   5.245   1.688 -2.4040  1.3142  2.6760
  874TIP3    H2 2629   1.020   5.396   1.685  1.3110  1.3696  1.1600
  875TIP3   OH2 2630   3.619   1.283   0.974 -0.9642 -0.6396 -0.6793
  875TIP3    H1 2631   3.674   1.339   1.028  0.1339 -0.9198 -1.4689
  875TIP3    H2 2632   3.583   1.218   1.034  0.1838 -0.9073 -0.2652
  876TIP3   OH2 2633   2.251   3.038   3.383  0.0781  0.2349 -0.5684
  876TIP3    H1 2634   2.186   2.977   3.418 -1.3127  1.5119 -0.8329
  876TIP3    H2 2635   2.245   3.027   3.288 -0.9827  1.5629 -0.6666
  877TIP3   OH2 2636   4.802   3.100   1.388  0.4004  0.7633 -0.0875
  877TIP3    H1 2637   4.717   3.061   1.369  0.2150  0.9861  0.2889
  877TIP3    H2 2638   4.810   3.097   1.483  0.2757  1.8765 -0.0277
  878TIP3   OH2 2639   0.565   1.191   3.319  0.4363 -0.3951 -0.4911
  878TIP3    H1 2640   0.523   1.249   3.382  0.2233 -1.6659  0.5965
  878TIP3    H2 2641   0.659   1.206   3.331  0.3988 -0.6445  0.1687
  879TIP3   OH2 2642   5.595   3.718   4.992  0.6036  0.1752 -0.1423
  879TIP3    H1 2643   5.592   3.803   4.948 -0.1851  0.1040 -0.2410
  879TIP3    H2 2644   5.652   3.664   4.937 -0.1201  0.1829 -0.9103
  880TIP3   OH2 2645   5.955   5.200   3.459  0.2487 -0.2836 -0.0704
  880TIP3    H1 2646   5.870   5.169   3.489 -0.1068  0.8339  0.1289
  880TIP3    H2 2647   5.954   5.185   3.364 -0.4362  0.3008 -0.1646
  881TIP3   OH2 2648   6.095   4.716   2.657 -0.1743  0.0111 -0.2295
  881TIP3    H1 2649   6.011   4.688   2.692  0.6331 -2.2533  0.0166
  881TIP3    H2 2650   6.072   4.785   2.594 -2.0740  0.3205  0.7243
  882TIP3   OH2 2651   2.398   4.698   0.697 -0.4701  0.5675  0.5383
  882TIP3    H1 2652   2.355   4.615   0.678  1.3673 -0.3463  0.1518
  882TIP3    H2 2653   2.366   4.757   0.629  1.4282 -1.0485 -1.9416
  883TIP3   OH2 2654   2.247   0.255   1.240  0.1116  0.1335 -0.2086
  883TIP3    H1 2655   2.274   0.185   1.181  1.7758  0.6409 -0.1224
  883TIP3    H2 2656   2.297   0.331   1.210 -0.6142  0.9240  0.5530
  884TIP3   OH2 2657   0.098   5.419   2.792  1.0573 -0.2748 -0.2462
  884TIP3    H1 2658   0.134   5.336   2.759 -1.5107 -0.6077 -2.6555
  884TIP3    H2 2659   0.012   5.395   2.826 -0.1344  1.4632 -1.8436
  885TIP3   OH2 2660   1.941   1.408   2.700  0.1178 -0.2630  0.2479
  885TIP3    H1 2661   1.915   1.390   2.790 -1.6945  0.5569 -0.0738
  885TIP3    H2 2662   1.996   1.487   2.707  0.5499 -0.5939  0.6843
  886TIP3   OH2 2663   1.956   2.713   2.873 -0.5705 -0.4410  0.1784
  886TIP3    H1 2664   1.941   2.638   2.815  0.7570 -0.6989  0.1365
  886TIP3    H2 2665   2.020   2.681   2.937 -0.4619  0.4669  0.5370
  887TIP3   OH2 2666   3.603   1.798   3.862 -0.3075  0.0213 -0.3539
  887TIP3    H1 2667   3.630   1.743   3.788  0.1025 -1.5842  0.9278
  887TIP3    H2 2668   3.519   1.761   3.890  0.0244 -0.0370  0.6012
  888TIP3   OH2 2669   4.625   0.528   3.238  0.2703  0.0681  0.2894
  888TIP3    H1 2670   4.638   0.553   3.329 -0.1249 -0.5823  0.5327
  888TIP3    H2 2671   4.553   0.465   3.240 -0.7971  1.1904 -0.6374
  889TIP3   OH2 2672   2.955   1.248   1.285  0.1537  0.5250  0.4252
  889TIP3    H1 2673   2.923   1.169   1.329  2.4139 -1.1761 -0.7969
  889TIP3    H2 2674   2.884   1.273   1.226 -0.3188 -1.0582  0.2814
  890TIP3   OH2 2675   0.312   0.557   0.448  0.0414 -0.3061  0.9496
  890TIP3    H1 2676   0.349   0.615   0.514 -0.2327  0.6033  0.3176
  890TIP3    H2 2677   0.233   0.521   0.489  0.4599 -0.6094  1.5109
  891TIP3   OH2 2678   1.181   2.430   0.278  0.0987  0.1978 -0.5565
  891TIP3    H1 2679   1.275   2.439   0.261  0.5313 -1.2245  0.8137
  891TIP3    H2 2680   1.142   2.413   0.192  1.5679 -2.3785 -0.8368
  892TIP3   OH2 2681   3.608   5.941   2.616 -0.9490 -0.0180  0.2069
  892TIP3    H1 2682   3.605   5.986   2.701 -1.0017  0.0155  0.1873
  892TIP3    H2 2683   3.516   5.935   2.589 -0.8450  1.1947 -0.4880
  893TIP3   OH2 2684   1.582   3.379   3.492 -0.0935 -0.3130 -0.1177
  893TIP3    H1 2685   1.620   3.400   3.406 -0.3445  0.0253 -0.1497
  893TIP3    H2 2686   1.489   3.368   3.475 -0.0986 -0.5499  0.0617
  894TIP3   OH2 2687   4.465   5.626   1.181 -0.3034  0.1980 -0.1015
  894TIP3    H1 2688   4.381   5.583   1.166  0.1531 -1.1040  0.9545
  894TIP3    H2 2689   4.523   5.588   1.116 -0.9782  2.6858 -2.3347
  895TIP3   OH2 2690   1.952   1.651   4.251 -0.3760  0.3978 -0.4205
  895TIP3    H1 2691   1.930   1.601   4.330 -0.9333 -1.3621 -1.6356
  895TIP3    H2 2692   2.038   1.689   4.270  1.3557 -3.1616 -0.3474
  896TIP3   OH2 2693   3.175   4.381   1.156 -0.0730 -0.0585  0.1906
  896TIP3    H1 2694   3.173   4.477   1.161 -1.4592 -0.0940  0.6607
  896TIP3    H2 2695   3.083   4.355   1.159  0.3318 -1.4619  0.9990
  897TIP3   OH2 2696   4.239   3.908   0.368 -0.3993  0.9031  0.0707
  897TIP3    H1 2697   4.178   3.835   0.360 -0.1549  0.6148  0.7387
  897TIP3    H2 2698   4.245   3.924   0.462  0.0428  1.3638 -0.0293
  898TIP3   OH2 2699   3.491   0.311   0.562  0.2381  0.5770 -0.0562
  898TIP3    H1 2700   3.455   0.380   0.506  0.5475  0.8552  0.0862
  898TIP3    H2 2701   3.447   0.323   0.646  0.6083  0.8739  0.0975
  899TIP3   OH2 2702   2.930   0.106   0.305 -0.2991  0.1430 -0.5235
  899TIP3    H1 2703   2.965   0.152   0.381 -0.1573 -0.7808 -0.0259
  899TIP3    H2 2704   2.937   0.170   0.234  0.8772  0.5415 -0.0724
  900TIP3   OH2 2705   1.326   5.438   3.300  0.2755  0.0365  0.1848
  900TIP3    H1 2706   1.364   5.402   3.220 -1.2548  1.0092 -1.0451
  900TIP3    H2 2707   1.273   5.367   3.336 -0.1789  0.0248 -0.4807
  901TIP3   OH2 2708   1.528   5.177   2.099 -0.1968  0.7507  0.0640
  901TIP3    H1 2709   1.608   5.197   2.149 -0.2785  0.3464  0.3614
  901TIP3    H2 2710   1.457   5.209   2.155 -0.3818 -0.9919  0.9043
  902TIP3   OH2 2711   4.496   3.560   1.831 -0.7728  0.8508 -0.8923
  902TIP3    H1 2712   4.431   3.500   1.870 -1.1689  1.4968 -0.5385
  902TIP3    H2 2713   4.456   3.589   1.749 -0.7388  0.9163 -0.8854
  903TIP3   OH2 2714   2.746   2.197   2.219 -0.0083 -0.0889  0.9294
  903TIP3    H1 2715   2.833   2.186   2.180  0.2149 -0.1355  1.4216
  903TIP3    H2 2716   2.741   2.291   2.239 -1.1652  0.4538 -1.5641
  904TIP3   OH2 2717   0.802   3.649   2.377 -0.2496  0.0214  0.0063
  904TIP3    H1 2718   0.738   3.718   2.397 -0.3507 -0.1290  0.2109
  904TIP3    H2 2719   0.862   3.690   2.315  1.1388  1.1425  1.9437
  905TIP3   OH2 2720   1.501   0.195   1.562  0.3093  0.4777  0.0711
  905TIP3    H1 2721   1.504   0.241   1.479  0.8394  1.2934  0.5258
  905TIP3    H2 2722   1.564   0.124   1.553  1.5345  1.4911  0.2918
  906TIP3   OH2 2723   4.655   1.024   2.757  0.2719  0.1847  0.1804
  906TIP3    H1 2724   4.704   1.018   2.676  0.3146 -0.0104  0.2221
  906TIP3    H2 2725   4.721   1.014   2.826  0.2184  0.2356  0.2395
  907TIP3   OH2 2726   5.600   3.871   0.784 -0.1715  0.1843 -0.1796
  907TIP3    H1 2727   5.679   3.868   0.839 -0.9571  1.0076  1.0458
  907TIP3    H2 2728   5.631   3.849   0.697  1.2352 -0.5695  0.4735
  908TIP3   OH2 2729   3.273   1.215   2.249  0.2156  0.1545  0.3418
  908TIP3    H1 2730   3.190   1.233   2.292  0.0065 -0.7959  0.3582
  908TIP3    H2 2731   3.336   1.204   2.321  0.0381 -0.5964  0.3961
  909TIP3   OH2 2732   4.295   2.022   0.705 -0.5602  0.8515 -0.4641
  909TIP3    H1 2733   4.349   2.037   0.627  0.1059 -0.9137 -0.3993
  909TIP3    H2 2734   4.250   1.939   0.687  0.4336 -0.1773  1.4267
  910TIP3   OH2 2735   4.351   1.600   1.330 -0.6856  0.6777  0.3962
  910TIP3    H1 2736   4.290   1.532   1.358  0.7586 -0.8188  0.0933
  910TIP3    H2 2737   4.364   1.583   1.236  0.4061  0.7716  0.5196
  911TIP3   OH2 2738   4.533   5.213   3.628  0.5618 -0.2639  0.3489
  911TIP3    H1 2739   4.620   5.190   3.660  1.5018 -1.2812 -2.5937
  911TIP3    H2 2740   4.501   5.133   3.586 -0.7506  0.7747 -0.7485
  912TIP3   OH2 2741   4.569   4.211   2.343  0.0012  0.1356  0.3293
  912TIP3    H1 2742   4.558   4.117   2.357  0.0330  0.2229  0.9691
  912TIP3    H2 2743   4.584   4.247   2.430  0.4458  0.6739  0.0395
  913TIP3   OH2 2744   0.016   1.433   0.381 -0.0835  0.0726  0.7454
  913TIP3    H1 2745   0.015   1.465   0.472  1.8370 -0.4981  1.0119
  913TIP3    H2 2746   0.104   1.396   0.370 -0.0024  0.8500 -1.6091
  914TIP3   OH2 2747   6.288   2.577   4.967 -0.2807  0.2805 -0.0170
  914TIP3    H1 2748   6.211   2.559   4.912  0.4366 -1.1516 -0.5997
  914TIP3    H2 2749   6.294   2.673   4.968 -0.8957  0.3790 -1.6612
  915TIP3   OH2 2750   4.417   3.285   0.576 -0.6935 -0.0748  0.8458
  915TIP3    H1 2751   4.350   3.218   0.590  0.0447 -0.7886  1.0465
  915TIP3    H2 2752   4.370   3.368   0.586 -1.9329 -0.5218 -0.8111
  916TIP3   OH2 2753   4.510   4.972   4.416  0.2826 -0.2313  0.5188
  916TIP3    H1 2754   4.557   5.056   4.421 -0.9965  0.4612  1.7762
  916TIP3    H2 2755   4.478   4.958   4.505 -0.8443 -1.2896 -0.0296
  917TIP3   OH2 2756   2.951   1.299   4.769 -0.7207  0.1358  0.2115
  917TIP3    H1 2757   2.877   1.242   4.747 -0.4585 -0.1148 -0.0228
  917TIP3    H2 2758   3.028   1.242   4.767 -0.6833  0.0789  1.8948
  918TIP3   OH2 2759   5.181   2.615   1.499  0.0955 -0.3282  0.1938
  918TIP3    H1 2760   5.114   2.582   1.439 -0.1744  1.9523 -0.8495
  918TIP3    H2 2761   5.140   2.689   1.543  1.1038 -0.4940  1.4920
  919TIP3   OH2 2762   4.658   4.633   3.504 -0.0058  0.1883  0.5117
  919TIP3    H1 2763   4.672   4.681   3.585 -1.3518 -1.1116  1.5848
  919TIP3    H2 2764   4.598   4.562   3.529 -0.1204 -0.4923 -1.5338
  920TIP3   OH2 2765   3.596   0.335   5.056 -0.0612  0.1219  0.1732
  920TIP3    H1 2766   3.685   0.313   5.029  0.4100 -0.5623  2.0832
  920TIP3    H2 2767   3.603   0.350   5.150 -1.7460  1.3434  0.1442
  921TIP3   OH2 2768   3.080   0.631   0.062 -0.4543 -0.2034  0.1127
  921TIP3    H1 2769   3.014   0.609  -0.004  0.1343 -1.9071  0.0459
  921TIP3    H2 2770   3.143   0.687   0.016 -0.8458 -0.1355 -0.3429
  922TIP3   OH2 2771   2.125   1.572   1.951 -0.3529 -0.0726  0.1045
  922TIP3    H1 2772   2.062   1.556   2.022 -1.7010 -2.1372 -1.4476
  922TIP3    H2 2773   2.079   1.632   1.892 -0.1952 -0.2450 -0.1937
  923TIP3   OH2 2774   3.249   0.647   3.377  0.4195 -0.0919 -0.2380
  923TIP3    H1 2775   3.185   0.586   3.339  0.0189 -0.3362  0.8026
  923TIP3    H2 2776   3.215   0.665   3.464  1.6229  0.0197  0.2186
  924TIP3   OH2 2777   4.662   5.291   1.547 -0.1409 -0.2080  0.2064
  924TIP3    H1 2778   4.711   5.302   1.629  0.3203  1.6797 -0.2696
  924TIP3    H2 2779   4.694   5.361   1.491 -3.4984  1.2389 -0.1013
  925TIP3   OH2 2780   4.056   3.927   0.087 -0.3020  0.2539 -0.0384
  925TIP3    H1 2781   4.004   3.847   0.088 -1.7582  1.1362 -0.7188
  925TIP3    H2 2782   4.099   3.928   0.001 -3.4603  2.0299 -1.7929
  926TIP3   OH2 2783   1.568   2.110   5.029 -0.0497 -0.0412 -0.2995
  926TIP3    H1 2784   1.619   2.131   4.951  2.1123  0.1371  1.0964
  926TIP3    H2 2785   1.633   2.086   5.095 -1.9359 -3.1925  0.6218
  927TIP3   OH2 2786   4.764   0.326   0.790 -0.5962 -0.5657  0.4354
  927TIP3    H1 2787   4.770   0.284   0.705 -0.5835  1.2048 -0.4749
  927TIP3    H2 2788   4.849   0.311   0.831  0.8415  1.7570 -1.4514
  928TIP3   OH2 2789   4.008   1.944   4.712 -0.3659  0.0916  0.1957
  928TIP3    H1 2790   4.092   1.909   4.683 -1.1365 -2.9723  1.3113
  928TIP3    H2 2791   3.956   1.951   4.632  0.1402 -0.3903 -0.1805
  929TIP3   OH2 2792   5.291   4.669   4.450 -0.4979  0.8929  0.0603
  929TIP3    H1 2793   5.297   4.576   4.426 -2.0280  0.1841  2.1219
  929TIP3    H2 2794   5.369   4.684   4.505  0.0717  1.0172 -0.7666
  930TIP3   OH2 2795   5.861   0.833   1.415  0.3966  0.2823  0.3301
  930TIP3    H1 2796   5.808   0.910   1.394 -0.2043 -0.2078 -0.0004
  930TIP3    H2 2797   5.802   0.759   1.400  1.1003 -0.2649  0.2145
  931TIP3   OH2 2798   5.496   5.782   0.225 -0.2522  0.2300 -0.6908
  931TIP3    H1 2799   5.473   5.854   0.284  0.1305  1.5580 -2.0991
  931TIP3    H2 2800   5.512   5.708   0.283 -0.1737  1.3985  0.8467
  932TIP3   OH2 2801   4.905   5.653   5.018  0.3171 -0.1542  0.5282
  932TIP3    H1 2802   4.874   5.714   4.950 -0.4231 -1.7198 -0.6135
  932TIP3    H2 2803   4.840   5.660   5.088  0.7900  1.0757  0.8817
  933TIP3   OH2 2804   4.824   0.753   0.795  0.0138 -0.0701  0.2979
  933TIP3    H1 2805   4.745   0.701   0.808  1.0758 -1.2363  2.9019
  933TIP3    H2 2806   4.824   0.815   0.868  0.1718  1.8066 -1.2218
  934TIP3   OH2 2807   2.013   5.140   2.933 -0.1015 -0.0389  0.1087
  934TIP3    H1 2808   1.984   5.224   2.898  0.3869 -0.0649 -0.3646
  934TIP3    H2 2809   2.033   5.159   3.025 -2.1503 -0.1471  0.6393
  935TIP3   OH2 2810   1.188   0.772   1.540  0.5837  0.1262  0.1293
  935TIP3    H1 2811   1.157   0.789   1.451  1.7801  0.5139 -0.2232
  935TIP3    H2 2812   1.262   0.712   1.529  0.3608 -0.3092  0.9136
  936TIP3   OH2 2813   4.416   4.893   2.397 -0.7369 -0.1973  0.2563
  936TIP3    H1 2814   4.389   4.834   2.468  1.4136 -0.3949  0.9752
  936TIP3    H2 2815   4.380   4.978   2.421 -1.1275 -0.5424  0.9159
  937TIP3   OH2 2816   2.971   2.246   3.476 -0.2602 -0.6466  0.5240
  937TIP3    H1 2817   2.951   2.155   3.499  1.5658 -1.1442  0.2630
  937TIP3    H2 2818   3.065   2.255   3.491  0.1820  0.3232 -2.3196
  938TIP3   OH2 2819   0.302   0.667   4.904  0.2847 -0.0242  0.1592
  938TIP3    H1 2820   0.209   0.672   4.882  0.4064 -0.6562 -0.5711
  938TIP3    H2 2821   0.321   0.750   4.947 -0.7832 -0.1927  1.0142
  939TIP3   OH2 2822   2.128   5.038   3.865  0.0837 -0.2892 -0.3744
  939TIP3    H1 2823   2.074   4.960   3.860 -2.1605  1.0983  0.6868
  939TIP3    H2 2824   2.185   5.032   3.788 -0.8400 -2.3463 -0.9763
  940TIP3   OH2 2825   2.957   0.438   5.173 -0.3320 -0.3065 -0.9900
  940TIP3    H1 2826   2.926   0.394   5.094 -1.9450  2.1242 -1.7910
  940TIP3    H2 2827   3.044   0.471   5.150  0.0904 -1.3952 -1.0040
  941TIP3   OH2 2828   3.157   5.181   2.104  0.1015  0.1215 -0.0147
  941TIP3    H1 2829   3.099   5.127   2.158 -0.2944  1.5581  1.0737
  941TIP3    H2 2830   3.108   5.262   2.090  1.0459  0.5832 -0.7960
  942TIP3   OH2 2831   2.016   5.522   4.742  0.1713  0.9255  0.6627
  942TIP3    H1 2832   1.960   5.493   4.670 -1.1788  1.9298  1.2805
  942TIP3    H2 2833   2.000   5.459   4.812  0.1262  0.9862  0.7065
  943TIP3   OH2 2834   1.249   4.833   0.160 -0.4262  0.1605 -0.3593
  943TIP3    H1 2835   1.159   4.813   0.137 -2.1899  4.9488  1.1881
  943TIP3    H2 2836   1.253   4.823   0.255  1.0543 -0.9337 -0.4979
  944TIP3   OH2 2837   1.361   2.231   3.063  0.7774 -0.2191 -0.3639
  944TIP3    H1 2838   1.380   2.205   3.153 -0.6986  0.2998  0.1352
  944TIP3    H2 2839   1.443   2.217   3.015  0.9067 -2.9079  0.4787
  945TIP3   OH2 2840   3.539   4.343   1.956  0.1477 -0.4594 -0.4433
  945TIP3    H1 2841   3.593   4.380   2.026  0.1651 -2.2712  0.5309
  945TIP3    H2 2842   3.557   4.400   1.881  1.9403  0.1261  0.3718
  946TIP3   OH2 2843   4.134   2.837   4.840 -0.9079  0.1609  0.4910
  946TIP3    H1 2844   4.080   2.760   4.853 -0.8955  0.2498  1.0847
  946TIP3    H2 2845   4.154   2.869   4.928  0.0651  0.1580  0.2893
  947TIP3   OH2 2846   1.294   0.526   3.072  0.3282 -0.0374 -0.2605
  947TIP3    H1 2847   1.278   0.533   3.167  0.6755 -1.6397 -0.0530
  947TIP3    H2 2848   1.219   0.570   3.032 -0.5311 -0.5199  0.7571
  948TIP3   OH2 2849   3.464   4.597   0.485 -0.0071 -0.0002 -0.2743
  948TIP3    H1 2850   3.486   4.509   0.455  0.2491  0.0235 -0.1575
  948TIP3    H2 2851   3.529   4.616   0.553  1.5364  1.2613 -1.9791
  949TIP3   OH2 2852   4.691   3.209   0.630  0.3201 -0.1189  0.0505
  949TIP3    H1 2853   4.704   3.289   0.679  1.9033  0.3293 -1.0400
  949TIP3    H2 2854   4.599   3.212   0.604  0.7310  2.2114 -1.3987
  950TIP3   OH2 2855   0.118   0.242   2.536  0.0535  0.0265  0.3684
  950TIP3    H1 2856   0.087   0.259   2.626  0.9161  0.0496  0.6658
  950TIP3    H2 2857   0.080   0.313   2.484 -1.9947 -0.9993  0.3501
  951TIP3   OH2 2858   2.215   1.364   4.061 -0.0960  0.0814  0.2344
  951TIP3    H1 2859   2.304   1.332   4.074 -0.3461 -0.8097 -0.1579
  951TIP3    H2 2860   2.160   1.302   4.109 -0.6027 -0.1881 -0.6676
  952TIP3   OH2 2861   2.032   4.843   2.794  0.0047 -0.3502  0.2103
  952TIP3    H1 2862   1.979   4.922   2.803  0.4398  0.0340 -0.4903
  952TIP3    H2 2863   2.100   4.852   2.860  1.2519  0.8668 -1.1747
  953TIP3   OH2 2864   2.671   5.921   0.752  0.0038  0.1133 -0.3813
  953TIP3    H1 2865   2.711   5.957   0.673  0.3965  0.8712  0.1593
  953TIP3    H2 2866   2.699   5.829   0.753  0.7807  0.3393 -0.6227
  954TIP3   OH2 2867   3.960   4.197   2.108  0.0245  0.0002 -0.0398
  954TIP3    H1 2868   4.046   4.188   2.149 -0.3215  0.4163  0.7912
  954TIP3    H2 2869   3.975   4.174   2.016  1.7604  3.3462 -0.7512
  955TIP3   OH2 2870   1.721   3.628   4.669  0.7511 -0.1026 -0.3173
  955TIP3    H1 2871   1.791   3.601   4.729  1.0344  1.2357 -0.0113
  955TIP3    H2 2872   1.762   3.631   4.583  1.2405  1.2106 -0.0577
  956TIP3   OH2 2873   1.859   4.391   2.836  0.1962  0.2787  0.1073
  956TIP3    H1 2874   1.854   4.486   2.850  1.8756  0.3844  0.2878
  956TIP3    H2 2875   1.922   4.361   2.902 -1.4256 -1.2184  1.0302
  957TIP3   OH2 2876   1.169   2.216   1.104  0.5967  0.0907  1.0512
  957TIP3    H1 2877   1.261   2.198   1.125  0.7383 -0.9583 -0.3481
  957TIP3    H2 2878   1.172   2.298   1.054  1.2806 -1.7099 -2.1555
  958TIP3   OH2 2879   0.550   1.571   3.459  0.4484  0.0350 -0.3561
  958TIP3    H1 2880   0.593   1.490   3.484  0.4633  0.2786  0.4409
  958TIP3    H2 2881   0.487   1.545   3.392  0.4143 -0.6412 -0.0702
  959TIP3   OH2 2882   4.396   1.149   3.967 -0.0800  0.4202 -0.2883
  959TIP3    H1 2883   4.389   1.054   3.980 -1.2998  0.7231  1.8721
  959TIP3    H2 2884   4.490   1.166   3.962  0.2500 -0.7502  1.1165
  960TIP3   OH2 2885   2.690   4.640   1.517  0.1893  0.1132  0.4207
  960TIP3    H1 2886   2.649   4.554   1.503 -0.0167  0.3134 -0.2387
  960TIP3    H2 2887   2.784   4.623   1.508  0.1725 -0.1115  0.6650
  961TIP3   OH2 2888   1.109   4.397   1.747 -0.0745  0.3344 -0.0635
  961TIP3    H1 2889   1.027   4.351   1.728  0.9366 -1.2414 -0.8701
  961TIP3    H2 2890   1.103   4.419   1.840 -1.5315  0.5476 -0.1800
  962TIP3   OH2 2891   0.925   2.561   3.896  0.2643  0.1074  0.5292
  962TIP3    H1 2892   0.959   2.650   3.900  0.4979  0.0126  0.6563
  962TIP3    H2 2893   0.911   2.536   3.988  0.2085  0.0108  0.4952
  963TIP3   OH2 2894   4.230   0.638   2.032 -0.3010  0.0982  0.0197
  963TIP3    H1 2895   4.282   0.675   2.103 -1.3733  0.3455  0.7021
  963TIP3    H2 2896   4.251   0.692   1.956  0.8412 -0.1558  0.1364
  964TIP3   OH2 2897   1.271   3.114   0.592 -0.0249  0.0011  0.7131
  964TIP3    H1 2898   1.262   3.152   0.679  0.6165  0.6908  0.4853
  964TIP3    H2 2899   1.237   3.180   0.533 -1.8359 -1.0472  0.5158
  965TIP3   OH2 2900   1.830   4.341   4.687  0.1525 -0.2282 -0.3326
  965TIP3    H1 2901   1.878   4.347   4.770  2.7823  0.9031 -1.8198
  965TIP3    H2 2902   1.822   4.248   4.670  3.8610 -0.5793 -0.9982
  966TIP3   OH2 2903   4.419   1.878   3.624  0.5120 -0.0288 -0.2150
  966TIP3    H1 2904   4.369   1.825   3.686 -0.0270  1.8898  1.1091
  966TIP3    H2 2905   4.360   1.951   3.603  1.8537  1.0101 -0.4997
  967TIP3   OH2 2906   5.090   0.232   0.159 -0.5014  0.1867 -0.0466
  967TIP3    H1 2907   5.158   0.266   0.100 -1.3896  0.0786 -1.1712
  967TIP3    H2 2908   5.014   0.287   0.142 -1.3681 -1.0909 -0.4426
  968TIP3   OH2 2909   0.611   3.790   2.743 -0.4551 -0.1537 -0.0452
  968TIP3    H1 2910   0.559   3.808   2.821 -0.9062  1.1623 -0.6127
  968TIP3    H2 2911   0.572   3.711   2.705 -2.8675  1.3989 -1.0684
  969TIP3   OH2 2912   4.114   0.878   2.273  0.1148 -0.2473 -0.1482
  969TIP3    H1 2913   4.083   0.826   2.347  1.3473  1.3549  1.6130
  969TIP3    H2 2914   4.035   0.903   2.225 -0.7428 -1.1045  0.7787
  970TIP3   OH2 2915   5.538   0.849   3.574 -0.3374  0.0527  0.1831
  970TIP3    H1 2916   5.475   0.777   3.579  0.1134 -0.3439  0.3525
  970TIP3    H2 2917   5.614   0.810   3.531  0.6893 -0.1662  2.0663
  971TIP3   OH2 2918   2.061   4.586   0.717 -0.4564  0.5109 -0.1605
  971TIP3    H1 2919   2.143   4.537   0.703 -0.2482  0.1291  1.9730
  971TIP3    H2 2920   2.007   4.565   0.642  1.0735  0.0583 -1.1865
  972TIP3   OH2 2921   4.044   0.800   1.064  0.2085 -0.1496  0.1640
  972TIP3    H1 2922   4.007   0.819   0.977 -0.0935  0.7236  0.4767
  972TIP3    H2 2923   4.001   0.719   1.090 -0.2433 -0.0330 -0.1947
  973TIP3   OH2 2924   4.647   1.794   4.458  0.0039 -0.4257  0.5162
  973TIP3    H1 2925   4.741   1.797   4.437 -0.0298 -0.9485  0.2868
  973TIP3    H2 2926   4.604   1.825   4.379 -0.0624 -1.1516  0.2656
  974TIP3   OH2 2927   3.946   0.999   3.811 -0.3543 -0.3415  0.2013
  974TIP3    H1 2928   3.899   1.051   3.745  1.6198 -0.6677 -1.5904
  974TIP3    H2 2929   4.038   1.023   3.798  0.4814 -3.2102  0.2723
  975TIP3   OH2 2930   2.201   2.440   0.702  0.4202  0.3474  0.0277
  975TIP3    H1 2931   2.148   2.447   0.781  1.5437  2.5771  0.6570
  975TIP3    H2 2932   2.212   2.530   0.672  0.6581 -0.3870 -2.2682
  976TIP3   OH2 2933   1.350   5.875   1.856  0.7176 -0.5826 -0.1847
  976TIP3    H1 2934   1.369   5.784   1.831 -1.6581 -1.8429  2.0450
  976TIP3    H2 2935   1.256   5.884   1.844  0.4581  0.6870  2.0625
  977TIP3   OH2 2936   5.784   1.267   1.039  0.5487 -0.1094  0.8900
  977TIP3    H1 2937   5.805   1.360   1.050  1.2905 -0.3065  1.2090
  977TIP3    H2 2938   5.861   1.230   0.998  0.3556 -0.6361  0.9998
  978TIP3   OH2 2939   4.765   1.497   5.067  0.0810 -0.3318 -0.0118
  978TIP3    H1 2940   4.859   1.504   5.049  0.2875 -2.2401  0.1099
  978TIP3    H2 2941   4.747   1.570   5.127  1.9226 -1.0374  1.5104
  979TIP3   OH2 2942   6.130   3.935   2.503 -0.6199  0.0269  0.2446
  979TIP3    H1 2943   6.061   3.987   2.461 -1.0348 -1.5751 -1.1695
  979TIP3    H2 2944   6.118   3.847   2.468  0.6758 -0.8216  1.8115
  980TIP3   OH2 2945   0.239   1.711   4.811  0.1221 -0.6116 -0.4712
  980TIP3    H1 2946   0.179   1.703   4.736 -0.8755 -0.0661  0.2442
  980TIP3    H2 2947   0.199   1.778   4.867  2.5495  1.5511 -1.0707
  981TIP3   OH2 2948   1.295   3.584   2.158  0.6333 -0.1677 -0.0560
  981TIP3    H1 2949   1.337   3.498   2.169  2.3820  0.6685  0.0947
  981TIP3    H2 2950   1.356   3.646   2.199 -0.1750  1.2522 -0.9326
  982TIP3   OH2 2951   4.899   2.194   0.889  0.4572  0.2675 -0.0307
  982TIP3    H1 2952   4.947   2.112   0.892 -0.2932 -0.4600 -3.5686
  982TIP3    H2 2953   4.965   2.261   0.870  0.7091  0.0610  0.1169
  983TIP3   OH2 2954   2.636   5.871   1.066  0.4140 -0.0644 -0.3863
  983TIP3    H1 2955   2.613   5.817   0.990  0.6458  0.6708 -0.9883
  983TIP3    H2 2956   2.583   5.950   1.056  0.1031 -0.1524  0.4708
  984TIP3   OH2 2957   5.675   2.921   1.326  0.1517  0.2221  0.5897
  984TIP3    H1 2958   5.733   2.963   1.262 -0.7453  0.2795 -0.1965
  984TIP3    H2 2959   5.697   2.828   1.321 -0.4861  0.1123 -0.4158
  985TIP3   OH2 2960   4.929   1.284   2.841 -0.9710 -0.1597 -0.0905
  985TIP3    H1 2961   5.015   1.269   2.802  0.2812  1.8266  1.6805
  985TIP3    H2 2962   4.911   1.204   2.891  1.3376  0.4536  1.9311
  986TIP3   OH2 2963   1.211   2.892   0.742  0.0347  0.2145 -0.1669
  986TIP3    H1 2964   1.249   2.961   0.688 -0.5001  0.8169  0.1974
  986TIP3    H2 2965   1.116   2.903   0.731 -0.0525 -0.6724 -0.3576
  987TIP3   OH2 2966   4.781   5.652   0.015  0.0780  0.5736 -0.5848
  987TIP3    H1 2967   4.852   5.715   0.023 -0.4697  1.1384 -0.1109
  987TIP3    H2 2968   4.701   5.702   0.033 -0.1908 -0.7953  2.9322
  988TIP3   OH2 2969   4.660   2.538   4.681  0.0244 -0.0163  0.1172
  988TIP3    H1 2970   4.661   2.566   4.773  0.8139 -0.5581  0.2834
  988TIP3    H2 2971   4.635   2.617   4.632 -0.1788  0.3347  0.7732
  989TIP3   OH2 2972   5.997   3.533   4.466  0.3068 -0.2943 -0.4165
  989TIP3    H1 2973   6.045   3.616   4.461 -0.7882  0.3570 -0.5135
  989TIP3    H2 2974   6.065   3.466   4.469  1.2152  0.5965 -0.5087
  990TIP3   OH2 2975   4.087   4.473   4.607  0.0914 -0.1173  0.6776
  990TIP3    H1 2976   4.026   4.494   4.536  1.3409  1.5304  0.0165
  990TIP3    H2 2977   4.168   4.518   4.582  0.6993  0.1626  2.9572
  991TIP3   OH2 2978   2.359   0.763   2.397  0.2481 -0.3314  0.4227
  991TIP3    H1 2979   2.393   0.832   2.341 -1.2619 -0.0790 -0.2470
  991TIP3    H2 2980   2.311   0.809   2.465  0.1173 -0.6915  0.5761
  992TIP3   OH2 2981   4.655   3.162   4.416 -0.2161  0.3734 -0.6106
  992TIP3    H1 2982   4.745   3.191   4.403  0.1546 -0.7903 -0.6887
  992TIP3    H2 2983   4.656   3.119   4.502 -0.9706  1.3709 -0.0715
  993TIP3   OH2 2984   0.624   4.666   0.450  0.0284  0.4149  0.7213
  993TIP3    H1 2985   0.594   4.583   0.487  2.0659 -1.3097 -1.2095
  993TIP3    H2 2986   0.689   4.641   0.385 -1.5551  3.3436 -2.2765
  994TIP3   OH2 2987   5.961   5.906   4.637 -0.7605 -0.1474 -0.1259
  994TIP3    H1 2988   6.039   5.878   4.590  0.1077 -0.0265  1.1783
  994TIP3    H2 2989   5.895   5.841   4.615 -0.7685  0.5437 -2.4190
  995TIP3   OH2 2990   6.088   3.573   2.011  0.1636 -0.1146 -0.1275
  995TIP3    H1 2991   6.148   3.547   1.941  1.2279  0.4511  0.5411
  995TIP3    H2 2992   6.034   3.496   2.026  1.0099 -0.7942 -0.4643
  996TIP3   OH2 2993   4.871   4.022   0.994 -0.2526 -0.3053 -0.6858
  996TIP3    H1 2994   4.911   4.107   0.975 -0.3024 -0.3344 -0.9195
  996TIP3    H2 2995   4.819   4.038   1.073  0.8918 -0.4715  0.1243
  997TIP3   OH2 2996   5.412   4.897   4.760 -0.3190  0.5642  0.0486
  997TIP3    H1 2997   5.421   4.920   4.853 -0.3852 -0.9241  0.4453
  997TIP3    H2 2998   5.351   4.823   4.760  1.4818 -1.0047 -0.9344
  998TIP3   OH2 2999   0.679   5.185   3.283  0.2180  0.0725 -0.0518
  998TIP3    H1 3000   0.667   5.162   3.191 -1.2660  0.1817  0.0988
  998TIP3    H2 3001   0.748   5.252   3.282  1.0430 -0.7582 -0.9506
  999TIP3   OH2 3002   0.985   3.917   3.060  0.1866  0.4245 -0.5490
  999TIP3    H1 3003   0.895   3.890   3.077  0.2489 -0.1909 -1.1686
  999TIP3    H2 3004   0.996   3.908   2.965  1.6524 -1.9695 -0.2333
 1000TIP3   OH2 3005   3.376   1.783   2.386 -0.0423  0.2320  0.0523
 1000TIP3    H1 3006   3.439   1.853   2.403  1.2533 -0.8551 -0.0888
 1000TIP3    H2 3007   3.291   1.821   2.410  0.7576  1.4557  1.1015
 1001TIP3   OH2 3008   1.608   4.064   0.255  0.0940  0.0049  0.1007
 1001TIP3    H1 3009   1.655   4.001   0.308 -0.7784 -1.1394 -0.4390
 1001TIP3    H2 3010   1.676   4.110   0.206  0.6784 -1.5617 -0.6275
 1002TIP3   OH2 3011   2.391   0.164   2.632 -0.5354 -0.0667 -0.1600
 1002TIP3    H1 3012   2.474   0.126   2.604  0.3012  0.6156  1.2894
 1002TIP3    H2 3013   2.342   0.091   2.670  0.3204 -0.0926  0.9552
 1003TIP3   OH2 3014   5.461   3.447   0.913  0.1829  0.3124 -0.3617
 1003TIP3    H1 3015   5.498   3.420   0.997  0.0303  0.4541 -0.2471
 1003TIP3    H2 3016   5.473   3.542   0.912 -2.0842  0.6728  0.6303
 1004TIP3   OH2 3017   1.353   1.578   1.067 -0.1854 -0.2606  0.2451
 1004TIP3    H1 3018   1.388   1.543   1.149  1.3895  0.0335 -0.2751
 1004TIP3    H2 3019   1.399   1.661   1.054 -0.4429 -0.2814 -0.9136
 1005TIP3   OH2 3020   4.244   1.393   1.738  0.4087 -0.7037 -0.3543
 1005TIP3    H1 3021   4.163   1.348   1.712 -0.7110  1.9841 -1.9108
 1005TIP3    H2 3022   4.224   1.431   1.823 -0.7435  1.4682 -1.5065
 1006TIP3   OH2 3023   5.818   1.713   2.880  0.1678  0.1661 -0.1608
 1006TIP3    H1 3024   5.889   1.776   2.890  0.9910 -0.9025  0.9663
 1006TIP3    H2 3025   5.847   1.636   2.929 -0.4991 -1.3716 -2.0566
 1007TIP3   OH2 3026   4.407   3.504   2.442  0.0739  0.4075 -0.0882
 1007TIP3    H1 3027   4.486   3.478   2.395  0.6399 -0.3419  1.2121
 1007TIP3    H2 3028   4.430   3.588   2.482 -0.2987  0.8889 -0.8578
 1008TIP3   OH2 3029   3.839   4.998   4.393 -0.3729  1.1241  0.1362
 1008TIP3    H1 3030   3.817   5.018   4.302  0.2995 -0.2230 -0.3503
 1008TIP3    H2 3031   3.935   4.994   4.394 -0.3456  1.7303  1.0485
 1009TIP3   OH2 3032   0.670   0.869   0.363 -0.4618 -0.1523  0.6616
 1009TIP3    H1 3033   0.589   0.821   0.383 -1.8012  2.1399  1.0167
 1009TIP3    H2 3034   0.671   0.875   0.267  0.6276 -2.2844  0.4803
 1010TIP3   OH2 3035   5.080   4.094   1.818 -1.0350  0.6226 -0.5734
 1010TIP3    H1 3036   5.111   4.109   1.729 -1.0539  0.2921 -0.6382
 1010TIP3    H2 3037   5.069   4.182   1.855 -1.9100  0.7929 -1.2009
 1011TIP3   OH2 3038   1.259   4.719   1.885  0.2445 -0.2235  0.1224
 1011TIP3    H1 3039   1.341   4.737   1.930  0.1538 -1.1084  0.6653
 1011TIP3    H2 3040   1.193   4.768   1.934  0.5851  1.4958 -1.0453
 1012TIP3   OH2 3041   5.557   1.871   2.500 -0.2076  0.8262  0.2386
 1012TIP3    H1 3042   5.596   1.860   2.587  1.2925  2.6878 -0.1425
 1012TIP3    H2 3043   5.621   1.922   2.451 -1.1012 -0.0139 -1.9377
 1013TIP3   OH2 3044   1.556   1.044   2.658  0.2144 -0.4293 -0.4153
 1013TIP3    H1 3045   1.555   1.133   2.693 -2.4287 -0.4861 -0.1556
 1013TIP3    H2 3046   1.554   1.055   2.563  1.3831 -0.2560 -0.4359
 1014TIP3   OH2 3047   1.552   4.427   1.458  0.5857  0.1496  0.6057
 1014TIP3    H1 3048   1.490   4.414   1.530  0.4257  0.6747  0.5695
 1014TIP3    H2 3049   1.622   4.365   1.476  0.6281  0.3868  1.3104
 1015TIP3   OH2 3050   3.542   3.993   2.676 -0.0590  0.5023  0.2671
 1015TIP3    H1 3051   3.514   4.072   2.723  0.7316 -0.3260  2.1993
 1015TIP3    H2 3052   3.619   4.021   2.627  0.6975  0.7740  1.5639
 1016TIP3   OH2 3053   5.398   3.302   3.153  0.1966 -0.3173 -0.0692
 1016TIP3    H1 3054   5.448   3.300   3.234  0.5041 -1.5633 -0.2758
 1016TIP3    H2 3055   5.384   3.210   3.130 -0.8012  0.0067 -0.8689
 1017TIP3   OH2 3056   1.642   4.199   5.138  0.3280  0.4931  0.0061
 1017TIP3    H1 3057   1.688   4.274   5.101  0.9034  0.3384  0.3850
 1017TIP3    H2 3058   1.610   4.151   5.061 -2.0017  2.2642 -0.2167
 1018TIP3   OH2 3059   2.121   3.092   4.892 -0.3745  0.4025  0.1240
 1018TIP3    H1 3060   2.182   3.019   4.892 -0.3448  0.3611 -2.0161
 1018TIP3    H2 3061   2.063   3.075   4.966  1.0378 -0.5489  1.0500
 1019TIP3   OH2 3062   5.579   4.590   0.315 -0.2909 -0.1141 -0.0816
 1019TIP3    H1 3063   5.575   4.496   0.297 -0.6854 -0.0152 -0.5496
 1019TIP3    H2 3064   5.493   4.612   0.351  0.8650 -0.5297  3.2239
 1020TIP3   OH2 3065   0.362   1.458   3.246  0.4443  0.5082 -0.9212
 1020TIP3    H1 3066   0.296   1.415   3.192  2.3120 -2.5729 -1.0238
 1020TIP3    H2 3067   0.409   1.515   3.186 -0.2236  0.4088 -1.5477
 1021TIP3   OH2 3068   4.662   3.132   1.890 -0.2007 -0.0732 -0.6619
 1021TIP3    H1 3069   4.656   3.219   1.931  0.2836 -0.3052 -0.0966
 1021TIP3    H2 3070   4.702   3.149   1.805 -0.9213  0.3683 -0.9261
 1022TIP3   OH2 3071   3.212   0.509   5.046  0.3238 -0.0749  0.3710
 1022TIP3    H1 3072   3.283   0.447   5.031  0.5762  0.2612  0.1480
 1022TIP3    H2 3073   3.145   0.486   4.982  0.2511 -0.3562  0.5445
 1023TIP3   OH2 3074   0.378   5.242   1.735  0.3130 -0.9630 -0.2765
 1023TIP3    H1 3075   0.320   5.231   1.810  1.1208  1.6859  0.8774
 1023TIP3    H2 3076   0.424   5.158   1.727 -0.7967 -1.7665  1.3116
 1024TIP3   OH2 3077   2.666   0.132   0.506 -0.1862 -0.5428 -0.0256
 1024TIP3    H1 3078   2.679   0.038   0.512  2.3905 -0.2798 -0.5114
 1024TIP3    H2 3079   2.754   0.169   0.498 -1.1988  1.7519 -1.8873
 1025TIP3   OH2 3080   1.786   4.781   1.619  0.0175 -0.0625 -0.0818
 1025TIP3    H1 3081   1.822   4.807   1.704  0.8729  0.0428 -0.4647
 1025TIP3    H2 3082   1.862   4.760   1.566 -0.4707  0.3813 -0.9925
 1026TIP3   OH2 3083   4.764   1.951   1.172  0.2854 -0.7389  0.1365
 1026TIP3    H1 3084   4.769   1.990   1.085 -0.6246 -0.8302  0.0357
 1026TIP3    H2 3085   4.730   1.863   1.158 -1.2977 -0.2593  0.6910
 1027TIP3   OH2 3086   5.522   3.143   1.344  0.3391 -0.1616 -0.1030
 1027TIP3    H1 3087   5.578   3.066   1.340  1.2566  0.4619  0.3837
 1027TIP3    H2 3088   5.439   3.110   1.377  0.9397 -0.8236  0.7845
 1028TIP3   OH2 3089   5.399   3.222   3.611 -0.0500 -0.6815 -0.0885
 1028TIP3    H1 3090   5.393   3.311   3.577 -0.8756 -0.9698 -0.7412
 1028TIP3    H2 3091   5.425   3.169   3.535  0.0085 -1.0546  0.1897
 1029TIP3   OH2 3092   4.655   3.890   0.209 -0.1407 -0.4557  0.1183
 1029TIP3    H1 3093   4.735   3.838   0.205 -1.0165 -1.8890  0.1540
 1029TIP3    H2 3094   4.643   3.909   0.302  0.5217  0.3801  0.0386
 1030TIP3   OH2 3095   3.677   4.421   4.111  0.1552  0.0907  0.1085
 1030TIP3    H1 3096   3.748   4.359   4.127 -1.6471 -2.1809 -0.1633
 1030TIP3    H2 3097   3.664   4.465   4.195  0.9402 -0.5167  0.5570
 1031TIP3   OH2 3098   2.455   5.592   3.060 -0.8684  0.2256  0.2059
 1031TIP3    H1 3099   2.390   5.658   3.034 -0.7585  0.6937  1.0933
 1031TIP3    H2 3100   2.405   5.510   3.062 -1.0678  0.3087 -0.6371
 1032TIP3   OH2 3101   3.306   1.237   0.655 -0.1804  0.7785  0.3310
 1032TIP3    H1 3102   3.398   1.233   0.679 -0.2029  0.7294  0.4105
 1032TIP3    H2 3103   3.275   1.321   0.690 -0.1336  0.8547  0.1892
 1033TIP3   OH2 3104   2.800   4.486   3.140 -0.0013  0.2000 -0.0236
 1033TIP3    H1 3105   2.805   4.522   3.228  1.4761 -0.0426  0.0245
 1033TIP3    H2 3106   2.756   4.402   3.150 -0.2483  0.3844  0.4169
 1034TIP3   OH2 3107   0.592   3.615   4.055 -0.6727 -0.0488  0.1942
 1034TIP3    H1 3108   0.498   3.616   4.038 -0.7396 -0.0450  0.5750
 1034TIP3    H2 3109   0.604   3.549   4.123 -0.8386  2.3988  2.7288
 1035TIP3   OH2 3110   2.184   1.789   0.670  0.2589 -0.9372  0.1487
 1035TIP3    H1 3111   2.236   1.789   0.751  0.9712 -1.3171 -0.2986
 1035TIP3    H2 3112   2.227   1.724   0.614  1.0842  0.8153 -1.3583
 1036TIP3   OH2 3113   4.784   3.746   1.198  0.5674 -0.7268  0.0461
 1036TIP3    H1 3114   4.700   3.700   1.198 -0.1865  0.5794 -0.3902
 1036TIP3    H2 3115   4.760   3.838   1.215  1.7578 -0.0939 -1.5385
 1037TIP3   OH2 3116   3.875   2.249   1.125  0.1153 -0.2401 -0.2109
 1037TIP3    H1 3117   3.845   2.337   1.150 -2.1243 -0.4782 -1.6819
 1037TIP3    H2 3118   3.863   2.247   1.030  0.4722 -2.0054 -0.2419
 1038TIP3   OH2 3119   3.756   3.977   1.345  0.3415  0.0420  0.2772
 1038TIP3    H1 3120   3.758   4.051   1.285  1.0790 -0.0237  0.2206
 1038TIP3    H2 3121   3.782   4.014   1.430 -0.1832  0.0275  0.4532
 1039TIP3   OH2 3122   1.695   0.855   1.854 -0.1293 -0.3503  0.8011
 1039TIP3    H1 3123   1.644   0.876   1.776 -1.4463 -0.9063  1.4721
 1039TIP3    H2 3124   1.680   0.929   1.913  1.4155  0.3985  0.3049
 1040TIP3   OH2 3125   4.718   5.173   4.343  0.2097 -0.2393  0.0529
 1040TIP3    H1 3126   4.800   5.123   4.337 -0.3256 -1.6231  2.7379
 1040TIP3    H2 3127   4.746   5.264   4.355  1.3248 -0.5252 -0.2445
 1041TIP3   OH2 3128   3.907   5.693   4.081  0.6353 -0.3484  0.1549
 1041TIP3    H1 3129   3.989   5.683   4.033  0.8829 -2.1222  0.8919
 1041TIP3    H2 3130   3.856   5.615   4.059 -0.7946  0.6299 -0.1361
 1042TIP3   OH2 3131   4.327   0.085   3.470  0.0206  0.4710 -0.2751
 1042TIP3    H1 3132   4.339   0.075   3.375  0.9832  1.6411 -0.2947
 1042TIP3    H2 3133   4.399   0.035   3.508  1.3795  2.3623 -0.2524
 1043TIP3   OH2 3134   1.599   5.080   3.221 -0.3216 -0.0987 -0.0315
 1043TIP3    H1 3135   1.637   5.154   3.268  0.8499 -0.2162 -0.7596
 1043TIP3    H2 3136   1.544   5.120   3.153  0.6037  0.1133 -0.6620
 1044TIP3   OH2 3137   0.039   3.185   2.368 -0.3561  0.2612  0.2070
 1044TIP3    H1 3138   0.044   3.090   2.382 -0.0115  0.0429 -1.3011
 1044TIP3    H2 3139  -0.047   3.198   2.328 -0.3453  0.5807  0.2881
 1045TIP3   OH2 3140   0.599   1.994   2.119  0.5392 -0.2804  0.2700
 1045TIP3    H1 3141   0.569   1.903   2.115  1.5770 -0.6075 -0.4224
 1045TIP3    H2 3142   0.534   2.038   2.175  0.5441 -1.6399  1.4037
 1046TIP3   OH2 3143   3.290   4.797   2.076  0.0907 -0.3171 -0.3928
 1046TIP3    H1 3144   3.293   4.703   2.058 -1.7123 -0.4951  0.1074
 1046TIP3    H2 3145   3.219   4.831   2.022  0.5586  0.7334 -0.3898
 1047TIP3   OH2 3146   2.608   5.432   0.626 -0.5104 -0.5907  0.0355
 1047TIP3    H1 3147   2.520   5.464   0.609 -1.0886 -3.2301 -2.7342
 1047TIP3    H2 3148   2.607   5.404   0.718 -3.1715 -2.1740 -0.3813
 1048TIP3   OH2 3149   3.012   3.459   3.952 -0.6505 -0.2880  0.5318
 1048TIP3    H1 3150   3.079   3.509   3.999 -0.4875  0.2092 -0.2096
 1048TIP3    H2 3151   2.941   3.448   4.016 -0.7864  1.0985  0.6570
 1049TIP3   OH2 3152   5.078   4.638   1.782 -0.0003  0.0079  0.2151
 1049TIP3    H1 3153   5.032   4.641   1.698  0.4133  2.9831  0.0088
 1049TIP3    H2 3154   5.035   4.567   1.830 -2.3590  0.2886 -1.3133
 1050TIP3   OH2 3155   2.885   4.681   3.626 -0.1729  0.0201  0.0488
 1050TIP3    H1 3156   2.934   4.715   3.701 -1.1947 -0.5755  1.0022
 1050TIP3    H2 3157   2.818   4.625   3.664 -0.0730 -1.1113 -1.3703
 1051TIP3   OH2 3158   4.134   1.637   2.731 -0.3429  0.4993 -0.4343
 1051TIP3    H1 3159   4.063   1.666   2.673 -1.0289 -0.2208  0.0278
 1051TIP3    H2 3160   4.090   1.584   2.798  0.6385 -0.0061 -0.1745
 1052TIP3   OH2 3161   5.998   3.711   0.398 -0.2874 -0.2260 -0.4013
 1052TIP3    H1 3162   6.067   3.729   0.334  0.3150  2.5364  0.8694
 1052TIP3    H2 3163   5.953   3.795   0.409  0.0129 -0.3679  3.1459
 1053TIP3   OH2 3164   0.688   2.442   0.797 -0.4253 -0.4491  0.0497
 1053TIP3    H1 3165   0.695   2.415   0.706  0.1305 -0.9785  0.2461
 1053TIP3    H2 3166   0.766   2.495   0.814 -0.6530 -0.1381  0.1507
 1054TIP3   OH2 3167   3.196   4.577   5.030 -0.1138  0.2850 -0.2218
 1054TIP3    H1 3168   3.121   4.563   4.971 -0.6121  2.3109 -0.1194
 1054TIP3    H2 3169   3.178   4.520   5.105 -0.5869 -0.6510 -1.0156
 1055TIP3   OH2 3170   6.166   1.163   1.859 -1.1219 -0.4473 -0.2273
 1055TIP3    H1 3171   6.101   1.125   1.919 -1.8663  0.2001 -0.6046
 1055TIP3    H2 3172   6.149   1.257   1.861 -0.3507 -0.2933 -0.5257
 1056TIP3   OH2 3173   4.649   3.970   3.718 -0.0815  0.7022 -0.2590
 1056TIP3    H1 3174   4.734   3.927   3.704 -1.1710 -1.5896 -0.2524
 1056TIP3    H2 3175   4.605   3.964   3.633 -0.5717  1.0814 -0.0349
 1057TIP3   OH2 3176   4.476   0.270   4.228 -0.2423  0.2510  0.7203
 1057TIP3    H1 3177   4.426   0.351   4.219  0.4853  0.4364 -3.5049
 1057TIP3    H2 3178   4.565   0.299   4.248  0.5207  0.8780 -2.8682
 1058TIP3   OH2 3179   6.172   3.035   5.111  0.5751 -0.0816  0.0145
 1058TIP3    H1 3180   6.240   3.089   5.151 -0.2998 -0.2087  1.7930
 1058TIP3    H2 3181   6.213   2.950   5.098  0.3543 -0.7293  2.7858
 1059TIP3   OH2 3182   5.616   5.859   2.056 -0.6775 -0.9334  0.6987
 1059TIP3    H1 3183   5.580   5.942   2.026  1.4697  0.0498  0.6122
 1059TIP3    H2 3184   5.555   5.828   2.122 -1.3755  0.8877  0.9675
 1060TIP3   OH2 3185   2.916   3.058   4.877 -0.1650 -0.1726 -0.3814
 1060TIP3    H1 3186   2.992   3.028   4.927 -0.4158  0.6377  0.5046
 1060TIP3    H2 3187   2.901   2.989   4.812  0.8552 -0.7000 -0.0693
 1061TIP3   OH2 3188   2.465   0.037   3.130  0.1270  0.0931  0.0699
 1061TIP3    H1 3189   2.511   0.119   3.148 -0.8254  0.4515  0.9223
 1061TIP3    H2 3190   2.424   0.013   3.213 -1.0715 -0.3135 -0.6098
 1062TIP3   OH2 3191   0.123   4.095   4.988  0.3794 -0.7025 -0.0663
 1062TIP3    H1 3192   0.112   4.003   4.963  1.3631 -0.5258 -1.2585
 1062TIP3    H2 3193   0.194   4.094   5.053 -0.1039 -0.8430  0.4723
 1063TIP3   OH2 3194   5.109   5.442   3.417  0.3520 -0.2893  0.6535
 1063TIP3    H1 3195   5.104   5.531   3.452  0.7911  0.1303 -0.2947
 1063TIP3    H2 3196   5.152   5.453   3.332 -0.3371 -1.3069  0.1551
 1064TIP3   OH2 3197   5.094   2.443   2.849 -0.4304 -0.2972  0.3756
 1064TIP3    H1 3198   5.143   2.515   2.811 -0.5505 -1.4329 -2.1114
 1064TIP3    H2 3199   5.155   2.370   2.850 -1.1713 -0.9461  0.0024
 1065TIP3   OH2 3200   5.392   4.862   0.896 -0.2003 -0.1886  0.3612
 1065TIP3    H1 3201   5.384   4.798   0.826 -1.5175 -1.0366  1.2388
 1065TIP3    H2 3202   5.386   4.947   0.853 -3.8808 -0.6563 -0.3539
 1066TIP3   OH2 3203   4.956   4.839   2.735  0.2994  0.3260 -0.0963
 1066TIP3    H1 3204   4.996   4.838   2.822 -1.2956 -1.1209  0.6920
 1066TIP3    H2 3205   4.883   4.777   2.741  0.3971 -0.1706 -2.6028
 1067TIP3   OH2 3206   5.004   5.084   4.321 -0.8940  0.0576  0.7871
 1067TIP3    H1 3207   5.023   5.155   4.382 -0.7633  1.2335 -0.5529
 1067TIP3    H2 3208   5.088   5.040   4.308 -0.3027  1.5188 -0.5893
 1068TIP3   OH2 3209   3.634   4.355   1.072 -0.7345  0.0420 -0.4426
 1068TIP3    H1 3210   3.632   4.430   1.013 -1.3072  1.4099  1.2362
 1068TIP3    H2 3211   3.543   4.343   1.100 -0.5510 -0.8904 -0.1984
 1069TIP3   OH2 3212   3.799   3.574   0.345  0.0048  0.4913  0.0569
 1069TIP3    H1 3213   3.716   3.566   0.393  0.1721  1.6122  0.5555
 1069TIP3    H2 3214   3.857   3.511   0.388  0.1449  1.4661  1.3465
 1070TIP3   OH2 3215   5.489   2.230   1.872  0.1478  0.6849  0.0712
 1070TIP3    H1 3216   5.433   2.167   1.918 -1.5383  1.8784 -0.2458
 1070TIP3    H2 3217   5.543   2.268   1.941 -0.9279  1.0026  0.7625
 1071TIP3   OH2 3218   2.901   5.804   4.526 -0.3506 -0.1159 -0.5252
 1071TIP3    H1 3219   2.935   5.781   4.612 -2.7461 -1.0472  0.2273
 1071TIP3    H2 3220   2.958   5.757   4.465  1.2607  0.4072  0.5060
 1072TIP3   OH2 3221   5.759   2.015   0.120  0.2573 -0.4657  0.2262
 1072TIP3    H1 3222   5.764   1.944   0.184  0.8927  0.5088  1.2939
 1072TIP3    H2 3223   5.844   2.012   0.075  0.0143 -0.8143 -0.2184
 1073TIP3   OH2 3224   2.432   0.659   0.040  0.1526 -0.2535  0.2874
 1073TIP3    H1 3225   2.499   0.711   0.083  0.5355 -1.8991  1.7745
 1073TIP3    H2 3226   2.401   0.715  -0.031  1.6935  1.3201  0.7774
 1074TIP3   OH2 3227   2.034   5.062   1.179  0.3708  0.1993 -0.0160
 1074TIP3    H1 3228   2.023   5.051   1.085 -0.4993 -0.1122  0.1131
 1074TIP3    H2 3229   2.120   5.103   1.189  1.5360 -1.9041 -0.8116
 1075TIP3   OH2 3230   3.464   0.950   5.028 -0.4652  0.3523  0.2172
 1075TIP3    H1 3231   3.504   1.035   5.012 -2.1526  0.7305 -2.5863
 1075TIP3    H2 3232   3.536   0.887   5.016  0.6930  1.2658  1.8738
 1076TIP3   OH2 3233   2.452   5.455   3.514  0.3133 -0.1215 -0.1209
 1076TIP3    H1 3234   2.402   5.470   3.595  0.0454  0.4276 -0.3818
 1076TIP3    H2 3235   2.388   5.416   3.454  0.5466 -0.6539 -0.0349
 1077TIP3   OH2 3236   4.361   0.655   4.893 -0.2235  0.4428 -0.2729
 1077TIP3    H1 3237   4.337   0.663   4.985  0.0191 -1.2008 -0.0294
 1077TIP3    H2 3238   4.451   0.688   4.889 -0.1883  0.4051  0.1104
 1078TIP3   OH2 3239   5.921   3.433   0.043  0.3246  0.1291  0.3366
 1078TIP3    H1 3240   5.991   3.391   0.094 -0.4577 -1.8824 -0.1655
 1078TIP3    H2 3241   5.967   3.489  -0.019  1.4821 -0.6847  0.4223
 1079TIP3   OH2 3242   5.926   3.119   4.255 -0.7614 -0.2577 -0.4116
 1079TIP3    H1 3243   5.874   3.070   4.318  0.3010 -1.4122 -0.4016
 1079TIP3    H2 3244   5.884   3.205   4.251 -1.9911 -0.7947  0.4098
 1080TIP3   OH2 3245   1.588   1.055   4.178  0.1780  0.1147 -0.1970
 1080TIP3    H1 3246   1.535   1.125   4.140  0.3057  0.4660  0.2591
 1080TIP3    H2 3247   1.655   1.038   4.113  0.7960  1.1728  0.1255
 1081TIP3   OH2 3248   4.175   3.118   2.488  0.4434  0.0921 -0.2586
 1081TIP3    H1 3249   4.245   3.119   2.423 -1.2136  0.2575 -2.1589
 1081TIP3    H2 3250   4.134   3.204   2.480  0.9250  0.5867  1.9268
 1082TIP3   OH2 3251   2.903   0.033   4.024  0.0515 -0.2596 -0.5689
 1082TIP3    H1 3252   2.989  -0.009   4.028  1.1611  1.9643  0.8361
 1082TIP3    H2 3253   2.867   0.022   4.113 -1.5873 -1.9295 -1.3550
 1083TIP3   OH2 3254   0.813   4.738   4.666 -0.1835  0.5726 -0.5097
 1083TIP3    H1 3255   0.893   4.703   4.627 -0.4909  0.2525 -0.8646
 1083TIP3    H2 3256   0.822   4.833   4.657  0.0237  0.5271 -0.8192
 1084TIP3   OH2 3257   4.491   2.065   2.596 -0.2381  0.1915 -0.2398
 1084TIP3    H1 3258   4.539   2.040   2.517 -0.0335 -1.2852  0.3232
 1084TIP3    H2 3259   4.525   2.008   2.665 -0.1657  1.6860  1.0303
 1085TIP3   OH2 3260   0.932   4.615   2.757  0.0751  0.1218  0.1216
 1085TIP3    H1 3261   0.924   4.710   2.750 -1.0927 -0.0415 -1.4307
 1085TIP3    H2 3262   0.878   4.592   2.833 -0.8390  0.5918 -0.3698
 1086TIP3   OH2 3263   5.748   0.422   3.749  0.3544 -0.0112  0.1841
 1086TIP3    H1 3264   5.670   0.476   3.767 -1.0416 -0.5800 -3.3104
 1086TIP3    H2 3265   5.822   0.481   3.760 -0.8923  1.6966 -0.2747
 1087TIP3   OH2 3266   1.416   1.317   2.490  0.0383 -0.2446 -0.3367
 1087TIP3    H1 3267   1.363   1.261   2.547 -0.7701 -0.5650 -1.3695
 1087TIP3    H2 3268   1.486   1.349   2.546  0.3319 -2.0266  0.3684
 1088TIP3   OH2 3269   5.299   4.904   2.924  0.2123  0.5183 -0.1385
 1088TIP3    H1 3270   5.322   4.978   2.980  2.5369 -1.3503  1.5942
 1088TIP3    H2 3271   5.382   4.876   2.885 -0.8635 -0.2121 -2.0438
 1089TIP3   OH2 3272   3.159   1.563   2.831  0.3710  0.1348  0.0532
 1089TIP3    H1 3273   3.106   1.631   2.873 -0.1974 -0.5054  0.3898
 1089TIP3    H2 3274   3.182   1.600   2.746  1.5367  1.4634  0.8856
 1090TIP3   OH2 3275   0.987   1.585   1.039 -0.1028 -0.3242  0.0943
 1090TIP3    H1 3276   1.026   1.627   1.115 -0.4428  0.5927 -0.2162
 1090TIP3    H2 3277   0.921   1.648   1.008 -0.9302 -1.2779 -0.1414
 1091TIP3   OH2 3278   1.644   4.072   1.191  0.0210 -0.2432  0.0774
 1091TIP3    H1 3279   1.717   4.054   1.250 -1.2189 -1.6742  1.2533
 1091TIP3    H2 3280   1.591   3.993   1.194 -1.7513  0.8681 -0.4784
 1092TIP3   OH2 3281   5.526   0.342   1.196  0.6535 -0.2462 -0.1161
 1092TIP3    H1 3282   5.477   0.424   1.193  0.1599 -0.5581 -0.6464
 1092TIP3    H2 3283   5.534   0.323   1.290 -1.3130 -0.8119 -0.0121
 1093TIP3   OH2 3284   1.458   3.700   3.120 -0.4600 -0.6022  0.6616
 1093TIP3    H1 3285   1.401   3.744   3.183 -0.1198 -0.4668  0.8780
 1093TIP3    H2 3286   1.547   3.716   3.153 -0.1902  0.6371 -0.5938
 1094TIP3   OH2 3287   3.916   1.445   3.788  0.1254  0.0620  0.2901
 1094TIP3    H1 3288   3.828   1.480   3.777 -0.6873 -1.4365  1.7587
 1094TIP3    H2 3289   3.928   1.440   3.882  1.2751 -1.0389  0.1042
 1095TIP3   OH2 3290   4.974   1.898   5.042 -0.2994 -0.1442 -0.0098
 1095TIP3    H1 3291   4.983   1.868   5.133 -0.2818 -1.0819 -0.3042
 1095TIP3    H2 3292   4.968   1.993   5.048  0.9814 -0.0965  0.8826
 1096TIP3   OH2 3293   3.608   4.911   3.905  0.1750  0.1179  0.3344
 1096TIP3    H1 3294   3.544   4.938   3.839  1.4469  0.2578 -0.8961
 1096TIP3    H2 3295   3.656   4.991   3.925 -0.8270  0.3056  2.2275
 1097TIP3   OH2 3296   2.171   5.189   2.556  0.0110  0.3234  0.1738
 1097TIP3    H1 3297   2.244   5.141   2.517 -0.5263 -1.1454  0.8988
 1097TIP3    H2 3298   2.144   5.250   2.487  0.3979 -0.7589 -0.9890
 1098TIP3   OH2 3299   0.579   2.786   1.729  0.8735  0.0253  0.9552
 1098TIP3    H1 3300   0.637   2.750   1.662  1.1912  1.0572  0.6543
 1098TIP3    H2 3301   0.631   2.856   1.770  0.4425 -0.1561  1.8231
 1099TIP3   OH2 3302   3.985   4.877   2.631 -0.0030  0.3075 -0.1532
 1099TIP3    H1 3303   3.989   4.972   2.633 -1.8961  0.4253  1.5588
 1099TIP3    H2 3304   3.991   4.851   2.723 -1.8094 -1.0449 -0.3512
 1100TIP3   OH2 3305   6.306   5.681   3.792 -0.7347 -0.6154  0.0902
 1100TIP3    H1 3306   6.350   5.603   3.759  0.0284 -0.4778  0.7579
 1100TIP3    H2 3307   6.293   5.736   3.714  1.0718 -0.2827 -0.0111
 1101TIP3   OH2 3308   5.096   2.374   3.122 -0.6576  0.0602  0.1116
 1101TIP3    H1 3309   5.173   2.430   3.114  0.0298 -0.4797  2.4016
 1101TIP3    H2 3310   5.073   2.353   3.031  2.0167  0.0493 -0.6432
 1102TIP3   OH2 3311   0.757   5.350   2.180 -0.0785  0.1551  0.7690
 1102TIP3    H1 3312   0.726   5.375   2.267 -0.4044  0.9856  0.4214
 1102TIP3    H2 3313   0.846   5.318   2.195 -0.3448 -0.2794  1.4831
 1103TIP3   OH2 3314   0.070   3.464   4.607 -0.1230 -0.4521  0.4959
 1103TIP3    H1 3315   0.137   3.507   4.555 -0.5056 -0.5243 -0.0712
 1103TIP3    H2 3316   0.114   3.389   4.646  0.2297 -0.2565  0.4751
 1104TIP3   OH2 3317   3.613   5.402   0.013 -0.3520  0.0988  0.0789
 1104TIP3    H1 3318   3.700   5.411  -0.025  1.5182  1.6079  4.1449
 1104TIP3    H2 3319   3.603   5.308   0.029  0.7029 -0.0640 -0.1530
 1105TIP3   OH2 3320   2.861   0.136   3.780 -0.6056 -0.0640 -0.4413
 1105TIP3    H1 3321   2.861   0.132   3.876 -2.1354 -0.2266 -0.4295
 1105TIP3    H2 3322   2.844   0.228   3.760  1.6456  0.3803 -0.6038
 1106TIP3   OH2 3323   3.313   4.733   1.435  0.3542  0.0423  0.0116
 1106TIP3    H1 3324   3.349   4.651   1.401  2.4338  0.9434 -0.1036
 1106TIP3    H2 3325   3.364   4.752   1.513 -0.8165  0.7207  0.6485
 1107TIP3   OH2 3326   1.859   5.709   2.743 -0.0851 -0.4959  0.1074
 1107TIP3    H1 3327   1.850   5.784   2.684  1.6645 -0.5357 -0.2501
 1107TIP3    H2 3328   1.786   5.651   2.718 -0.5585  0.3876 -0.6440
 1108TIP3   OH2 3329   4.502   2.031   0.513 -0.0964  0.5507 -0.1529
 1108TIP3    H1 3330   4.502   1.976   0.435 -1.2150  1.1384 -0.5947
 1108TIP3    H2 3331   4.547   1.979   0.580  0.3269 -0.2085 -1.0167
 1109TIP3   OH2 3332   5.608   5.735   3.167  0.1471 -0.4181 -0.4467
 1109TIP3    H1 3333   5.673   5.743   3.098  0.5482  1.2912  0.0899
 1109TIP3    H2 3334   5.543   5.802   3.147 -0.5704 -0.9669 -0.0216
 1110TIP3   OH2 3335   0.723   5.126   1.082  0.5510 -0.2515 -0.2827
 1110TIP3    H1 3336   0.773   5.071   1.142 -0.1270 -2.4598 -1.6301
 1110TIP3    H2 3337   0.782   5.140   1.008  0.5792  0.5761 -0.1180
 1111TIP3   OH2 3338   4.036   5.201   1.443 -0.1430 -0.9509 -0.4605
 1111TIP3    H1 3339   4.055   5.294   1.429 -0.3605 -1.0138 -1.2455
 1111TIP3    H2 3340   4.121   5.158   1.434 -0.2028 -0.9358 -1.1766
 1112TIP3   OH2 3341   0.662   5.768   3.200  0.0061  0.1887 -0.1780
 1112TIP3    H1 3342   0.650   5.702   3.269  0.3276  0.3263  0.0124
 1112TIP3    H2 3343   0.646   5.852   3.244 -0.8649  0.2130 -0.5326
 1113TIP3   OH2 3344   0.439   0.600   2.545  0.4566  0.1218 -0.1256
 1113TIP3    H1 3345   0.423   0.598   2.639 -0.7462 -3.1961 -0.2814
 1113TIP3    H2 3346   0.353   0.617   2.506  0.5458 -0.5641 -0.6457
 1114TIP3   OH2 3347   2.130   5.790   2.594 -0.1376 -0.7715  0.6513
 1114TIP3    H1 3348   2.073   5.862   2.622  0.9084 -0.8727  3.2729
 1114TIP3    H2 3349   2.082   5.711   2.616 -0.1215 -0.8699  0.3355
 1115TIP3   OH2 3350   2.448   0.454   2.432  0.2628  0.5903 -0.1089
 1115TIP3    H1 3351   2.475   0.407   2.511  0.7965  1.4509  0.2285
 1115TIP3    H2 3352   2.442   0.545   2.459 -0.0205  0.8297 -0.9476
 1116TIP3   OH2 3353   1.402   1.318   0.981 -0.0084  0.2775 -0.7026
 1116TIP3    H1 3354   1.323   1.265   0.972  0.9738 -1.2341 -0.7720
 1116TIP3    H2 3355   1.372   1.401   1.018 -1.5069 -0.5773  0.0609
 1117TIP3   OH2 3356   3.362   0.271   4.925 -0.6503  0.4308 -0.2290
 1117TIP3    H1 3357   3.381   0.293   4.834  2.0207 -0.4951  0.0197
 1117TIP3    H2 3358   3.444   0.287   4.972 -1.6050 -0.2272  1.8034
 1118TIP3   OH2 3359   0.820   3.989   3.946  0.3635 -0.2796  0.1654
 1118TIP3    H1 3360   0.801   4.049   4.018  0.4827  1.9180 -1.5503
 1118TIP3    H2 3361   0.753   3.921   3.954 -0.5948  0.7463  1.4269
 1119TIP3   OH2 3362   0.576   4.605   4.622  0.1542  0.5402  0.2771
 1119TIP3    H1 3363   0.661   4.643   4.645  0.4312  0.2094 -0.1671
 1119TIP3    H2 3364   0.519   4.680   4.607 -0.0165  0.7691  1.9166
 1120TIP3   OH2 3365   0.233   0.866   1.276  0.2853 -0.3165 -0.0459
 1120TIP3    H1 3366   0.155   0.815   1.298 -0.4547  0.1207 -1.5714
 1120TIP3    H2 3367   0.249   0.919   1.355  0.2135 -1.7972  1.0110
 1121TIP3   OH2 3368   3.975   0.601   4.563 -0.3046 -0.3168 -0.3787
 1121TIP3    H1 3369   3.984   0.692   4.533 -1.5194  0.4466  1.3646
 1121TIP3    H2 3370   3.886   0.597   4.599  0.5359 -1.5012  1.7301
 1122TIP3   OH2 3371   1.688   2.730   1.405 -0.4176 -0.0639 -0.1217
 1122TIP3    H1 3372   1.731   2.815   1.401  0.1169 -0.3390 -0.3688
 1122TIP3    H2 3373   1.607   2.742   1.354 -0.3665  0.3057 -0.1215
 1123TIP3   OH2 3374   1.835   2.959   1.378 -0.2274 -0.1738  0.3645
 1123TIP3    H1 3375   1.813   3.040   1.332 -1.2849 -0.4111  0.4233
 1123TIP3    H2 3376   1.910   2.981   1.433 -0.2815  0.6661  0.1041
 1124TIP3   OH2 3377   4.720   3.955   2.129 -0.2210 -0.0401 -0.0160
 1124TIP3    H1 3378   4.790   4.003   2.172  0.4802 -0.5045 -0.6245
 1124TIP3    H2 3379   4.711   3.997   2.043 -1.5449  0.8242  0.5149
 1125TIP3   OH2 3380   0.486   3.914   0.028 -0.1754 -0.2584  0.1050
 1125TIP3    H1 3381   0.520   3.971   0.097  0.1986  0.0600 -0.3285
 1125TIP3    H2 3382   0.558   3.854   0.008 -1.0171 -1.8008  1.4891
 1126TIP3   OH2 3383   5.776   5.349   0.559  0.2333 -0.2830  0.1131
 1126TIP3    H1 3384   5.739   5.424   0.512  0.3277  0.1927  0.7958
 1126TIP3    H2 3385   5.808   5.385   0.642 -0.9722 -1.2976  1.0639
 1127TIP3   OH2 3386   2.526   4.604   4.106  0.2537  0.4208  0.0369
 1127TIP3    H1 3387   2.470   4.527   4.120  0.1874  0.6941  1.4667
 1127TIP3    H2 3388   2.597   4.572   4.051  0.4435 -0.7836  0.9348
 1128TIP3   OH2 3389   1.078   1.671   4.142  0.1733 -0.1453  0.1416
 1128TIP3    H1 3390   1.152   1.643   4.195  0.3611 -1.6221 -0.8536
 1128TIP3    H2 3391   1.118   1.724   4.072 -0.0667  1.7368  1.3552
 1129TIP3   OH2 3392   6.113   0.823   1.925  0.2090  0.1012  0.3069
 1129TIP3    H1 3393   6.026   0.837   1.963  0.1265 -0.4414  0.3245
 1129TIP3    H2 3394   6.096   0.785   1.839  0.4233  0.3302  0.1617
 1130TIP3   OH2 3395   0.732   2.860   3.169  0.1374  0.0748  0.3962
 1130TIP3    H1 3396   0.644   2.897   3.165 -0.5687 -1.6162 -1.5307
 1130TIP3    H2 3397   0.738   2.821   3.256 -0.6628  1.0049  0.8796
 1131TIP3   OH2 3398   1.169   1.830   0.696 -0.5326  0.6498 -0.3989
 1131TIP3    H1 3399   1.168   1.743   0.736 -2.0228  0.3730 -0.9710
 1131TIP3    H2 3400   1.189   1.890   0.769  0.2045 -0.1294  0.0568
 1132TIP3   OH2 3401   3.789   2.573   0.663 -0.1281  0.0319  0.4314
 1132TIP3    H1 3402   3.849   2.602   0.731  0.1669  2.1330 -0.6411
 1132TIP3    H2 3403   3.843   2.525   0.601 -0.4346 -2.0809  1.6971
 1133TIP3   OH2 3404   1.474   4.199   1.955  0.6461  0.0710  0.0007
 1133TIP3    H1 3405   1.422   4.247   1.891  0.4803 -0.0072  0.0782
 1133TIP3    H2 3406   1.494   4.264   2.023  0.9922  0.2074 -0.2280
 1134TIP3   OH2 3407   0.449   5.128   4.055  1.0916 -0.2938 -0.0963
 1134TIP3    H1 3408   0.446   5.096   3.965  0.2129 -1.3899  0.2987
 1134TIP3    H2 3409   0.535   5.169   4.063  0.4744  1.5433 -1.9935
 1135TIP3   OH2 3410   6.122   4.439   0.495 -0.2747 -0.3270  0.2692
 1135TIP3    H1 3411   6.163   4.510   0.446  1.1086 -1.5300 -0.3870
 1135TIP3    H2 3412   6.171   4.434   0.577  0.5852 -1.4418 -0.2995
 1136TIP3   OH2 3413   5.715   0.987   1.711 -0.1673  0.2225  0.1675
 1136TIP3    H1 3414   5.803   1.019   1.690  0.6481 -0.4002  2.3690
 1136TIP3    H2 3415   5.657   1.041   1.657  1.4581  1.8816 -0.0289
 1137TIP3   OH2 3416   0.837   2.010   0.731  0.3398  0.6275 -0.4975
 1137TIP3    H1 3417   0.845   1.942   0.664 -0.2019  1.4073 -1.3787
 1137TIP3    H2 3418   0.901   2.077   0.704  0.1061  0.9528 -0.2477
 1138TIP3   OH2 3419   4.579   2.983   5.049 -0.1921 -0.4557 -0.4054
 1138TIP3    H1 3420   4.548   3.017   4.965 -0.4903 -1.5544 -0.7536
 1138TIP3    H2 3421   4.642   2.915   5.026  1.8513  1.1078  0.2811
 1139TIP3   OH2 3422   4.296   5.642   1.491 -0.3803 -0.1771 -0.2168
 1139TIP3    H1 3423   4.382   5.607   1.467 -0.9889 -1.1208 -1.1376
 1139TIP3    H2 3424   4.256   5.573   1.544 -0.6873  0.1221 -0.0516
 1140TIP3   OH2 3425   1.417   3.408   0.348  0.0097  0.0825  0.4038
 1140TIP3    H1 3426   1.321   3.414   0.340 -0.0738 -0.2733  1.0219
 1140TIP3    H2 3427   1.446   3.372   0.265 -0.4334 -0.1706  0.3538
 1141TIP3   OH2 3428   1.924   0.793   3.437 -0.0118  0.6772 -0.2035
 1141TIP3    H1 3429   1.973   0.724   3.482  2.3446  1.4037 -1.4823
 1141TIP3    H2 3430   1.855   0.747   3.389 -0.2271 -0.4661  1.1509
 1142TIP3   OH2 3431   0.623   0.857   0.071  0.4255  0.3275  0.2947
 1142TIP3    H1 3432   0.611   0.762   0.078  2.2378 -0.0095 -0.5752
 1142TIP3    H2 3433   0.564   0.883  -0.000  0.7648 -0.3604 -0.2526
 1143TIP3   OH2 3434   2.580   2.380   3.035 -0.1815 -0.1972 -0.5470
 1143TIP3    H1 3435   2.610   2.358   3.123  1.4197  0.1760 -0.9806
 1143TIP3    H2 3436   2.620   2.465   3.017  0.4176 -0.7720 -2.0489
 1144TIP3   OH2 3437   6.274   1.108   1.119  0.5536 -0.5368  0.2270
 1144TIP3    H1 3438   6.271   1.035   1.181 -1.2701  1.5162  2.8070
 1144TIP3    H2 3439   6.319   1.178   1.167  1.9883  0.1802 -2.0356
 1145TIP3   OH2 3440   5.985   0.094   2.968 -0.1775 -0.0682 -0.0998
 1145TIP3    H1 3441   5.916   0.061   3.024 -1.0912 -1.2177 -1.8203
 1145TIP3    H2 3442   5.990   0.032   2.895  0.5604  1.6309 -1.5958
 1146TIP3   OH2 3443   2.681   0.123   2.631  0.4914  0.0617  0.0625
 1146TIP3    H1 3444   2.688   0.029   2.615 -3.0337 -0.1938 -0.9829
 1146TIP3    H2 3445   2.719   0.136   2.718 -1.3790 -2.8696  1.4834
 1147TIP3   OH2 3446   0.045   1.149   4.609 -0.3455 -0.3657 -0.2229
 1147TIP3    H1 3447   0.088   1.208   4.671  0.4935 -1.1481 -0.0378
 1147TIP3    H2 3448   0.002   1.084   4.664  0.1324 -0.8791 -0.4569
 1148TIP3   OH2 3449   3.868   2.412   1.753  0.6141  0.1930 -0.3337
 1148TIP3    H1 3450   3.900   2.403   1.663  1.2827  1.4892 -0.2494
 1148TIP3    H2 3451   3.834   2.325   1.776  3.4767 -1.1179 -0.6720
 1149TIP3   OH2 3452   5.349   3.829   4.710 -0.0985 -0.6059  0.4440
 1149TIP3    H1 3453   5.391   3.908   4.746  2.2685 -2.1009  1.1902
 1149TIP3    H2 3454   5.269   3.821   4.760  1.0579 -0.2543  2.4749
 1150TIP3   OH2 3455   4.938   1.070   1.146  0.2661  0.5113  0.5330
 1150TIP3    H1 3456   4.873   1.137   1.167  0.6275  1.0144  0.0990
 1150TIP3    H2 3457   5.020   1.119   1.135  0.3616  0.1216 -0.6545
 1151TIP3   OH2 3458   1.908   5.077   1.615  0.0449  0.2683 -0.5417
 1151TIP3    H1 3459   1.896   5.022   1.537 -0.7390 -2.2640  1.2395
 1151TIP3    H2 3460   1.826   5.126   1.623 -0.5549 -0.7503 -0.3778
 1152TIP3   OH2 3461   2.874   0.618   1.901  0.1789  0.6265  0.1360
 1152TIP3    H1 3462   2.793   0.577   1.930 -0.0156 -0.1119 -1.3677
 1152TIP3    H2 3463   2.920   0.639   1.982 -0.3322 -1.3445  0.9997
 1153TIP3   OH2 3464   3.112   0.309   1.539  0.1391  0.0592 -0.6502
 1153TIP3    H1 3465   3.065   0.374   1.486  2.2956  0.4787 -2.1906
 1153TIP3    H2 3466   3.102   0.227   1.491 -0.6009 -0.2579  0.0355
 1154TIP3   OH2 3467   0.500   1.631   1.959 -0.4532 -0.2836  0.2157
 1154TIP3    H1 3468   0.496   1.536   1.942 -2.1505 -0.0020 -1.2793
 1154TIP3    H2 3469   0.409   1.655   1.977 -0.4926  1.4277 -1.8938
 1155TIP3   OH2 3470   0.127   3.939   3.531  0.4896  0.0907 -0.4982
 1155TIP3    H1 3471   0.159   4.019   3.575  0.3478 -0.2751  0.2956
 1155TIP3    H2 3472   0.201   3.878   3.537  0.6770  0.2288 -1.3049
 1156TIP3   OH2 3473   1.128   3.160   0.101  0.6161 -0.2831  0.0335
 1156TIP3    H1 3474   1.063   3.095   0.128 -0.7287  1.2958  0.7869
 1156TIP3    H2 3475   1.110   3.176   0.009  0.6078 -0.5909 -0.0181
 1157TIP3   OH2 3476   0.705   0.285   0.206  0.4135  0.2601  0.2880
 1157TIP3    H1 3477   0.761   0.318   0.277 -0.4132  0.4326  0.8775
 1157TIP3    H2 3478   0.722   0.344   0.133 -0.1282  1.2708  0.9460
 1158TIP3   OH2 3479   5.517   5.319   1.307  0.3046  0.5703  0.0215
 1158TIP3    H1 3480   5.436   5.301   1.354 -0.0768  1.7080 -0.1775
 1158TIP3    H2 3481   5.575   5.246   1.330 -0.8979 -0.4662 -0.1556
 1159TIP3   OH2 3482   1.276   0.260   4.022  0.7403 -0.2113  0.0365
 1159TIP3    H1 3483   1.254   0.306   4.104 -0.1362  3.3863 -1.9866
 1159TIP3    H2 3484   1.362   0.294   3.998  0.2692  0.0859 -1.3053
 1160TIP3   OH2 3485   5.700   1.573   1.527  0.0071  0.5483  0.1975
 1160TIP3    H1 3486   5.608   1.591   1.507 -0.5460  0.5850  2.4508
 1160TIP3    H2 3487   5.700   1.484   1.562  0.9171  0.3743 -0.2180
 1161TIP3   OH2 3488   4.446   5.351   1.695  0.4382 -0.3593 -0.3867
 1161TIP3    H1 3489   4.485   5.322   1.612  2.0629 -0.0522  0.2201
 1161TIP3    H2 3490   4.461   5.278   1.755  0.2109 -0.1693 -0.0977
 1162TIP3   OH2 3491   5.918   2.934   2.436 -0.3601 -0.2796  0.2729
 1162TIP3    H1 3492   5.842   2.897   2.390 -0.1876 -0.3276  0.0239
 1162TIP3    H2 3493   5.922   3.025   2.405  0.8070 -0.7809 -1.1931
 1163TIP3   OH2 3494   2.788   2.560   3.831  0.0631 -0.1139 -0.1534
 1163TIP3    H1 3495   2.880   2.580   3.844  0.2556 -1.5474  0.9044
 1163TIP3    H2 3496   2.787   2.488   3.768 -0.4105  0.7548 -1.1560
 1164TIP3   OH2 3497   1.680   3.951   3.044  0.5381 -0.1247 -0.4695
 1164TIP3    H1 3498   1.678   3.917   3.134  0.1103  2.2155  0.4724
 1164TIP3    H2 3499   1.773   3.948   3.020  0.2935 -5.1350 -1.8737
 1165TIP3   OH2 3500   5.910   1.864   3.684  0.1737 -0.6487  0.3923
 1165TIP3    H1 3501   5.845   1.873   3.614 -0.4694  0.0113  1.0502
 1165TIP3    H2 3502   5.980   1.925   3.659  0.2505 -0.8923  0.0031
 1166TIP3   OH2 3503   6.339   5.250   4.977  0.3201 -0.0654  0.6692
 1166TIP3    H1 3504   6.257   5.233   4.929 -1.0273  1.6036  2.2295
 1166TIP3    H2 3505   6.355   5.169   5.026 -0.5100 -0.3513  0.4898
 1167TIP3   OH2 3506   4.481   3.259   0.882 -0.8733 -0.0192  0.5322
 1167TIP3    H1 3507   4.457   3.346   0.849 -3.0220  0.0831  2.1612
 1167TIP3    H2 3508   4.454   3.199   0.812 -1.6409  0.4538  0.4091
 1168TIP3   OH2 3509   0.819   1.420   4.672 -0.3063 -0.2991  0.4056
 1168TIP3    H1 3510   0.750   1.384   4.727 -0.2564  0.6994  1.1448
 1168TIP3    H2 3511   0.878   1.464   4.734  0.2648  0.0202 -0.3510
 1169TIP3   OH2 3512   6.020   2.523   3.302  0.0182  0.2567 -0.1850
 1169TIP3    H1 3513   6.060   2.601   3.264 -1.0687  0.5209 -0.8195
 1169TIP3    H2 3514   6.091   2.458   3.302  0.7300  1.0162 -0.3186
 1170TIP3   OH2 3515   5.392   4.730   3.188 -0.3214  0.0763  0.0559
 1170TIP3    H1 3516   5.424   4.817   3.162 -1.7363  0.4496 -0.5629
 1170TIP3    H2 3517   5.302   4.728   3.156 -0.5308 -1.3695  0.6782
 1171TIP3   OH2 3518   1.537   0.721   5.148  0.0061 -0.1322 -0.1652
 1171TIP3    H1 3519   1.505   0.644   5.196 -0.0884 -0.3186 -0.5229
 1171TIP3    H2 3520   1.632   0.708   5.143 -0.0803 -0.5466 -0.7785
 1172TIP3   OH2 3521   2.183   5.420   3.459  0.0695  0.5714 -0.5332
 1172TIP3    H1 3522   2.136   5.503   3.461  1.2067  1.2377 -0.7519
 1172TIP3    H2 3523   2.167   5.385   3.372 -1.6759 -0.2211  0.0510
 1173TIP3   OH2 3524   0.705   5.667   1.584  0.2924 -0.1014 -0.1299
 1173TIP3    H1 3525   0.739   5.654   1.496 -0.3665  1.5910 -0.6797
 1173TIP3    H2 3526   0.660   5.752   1.580 -2.6283 -1.4645  0.9286
 1174TIP3   OH2 3527   0.890   3.867   1.718 -0.4069 -0.0307  0.2028
 1174TIP3    H1 3528   0.946   3.903   1.649 -0.7606  1.0721  0.4754
 1174TIP3    H2 3529   0.888   3.935   1.785 -1.8618 -0.1703  0.3242
 1175TIP3   OH2 3530   2.149   0.102   2.844 -0.0720  0.7339  0.1167
 1175TIP3    H1 3531   2.191   0.036   2.789 -0.2997  1.1104 -0.5163
 1175TIP3    H2 3532   2.079   0.137   2.790  1.0380  2.6408 -0.1466
 1176TIP3   OH2 3533   1.604   0.012   2.787  0.6743  0.1489  0.0760
 1176TIP3    H1 3534   1.626   0.083   2.848  1.3143 -0.5117  0.6453
 1176TIP3    H2 3535   1.594   0.055   2.702 -0.6862  1.1591  0.7056
 1177TIP3   OH2 3536   5.317   0.755   4.507 -0.3592  0.3589  0.4597
 1177TIP3    H1 3537   5.247   0.719   4.452 -0.4930 -0.0048  0.8613
 1177TIP3    H2 3538   5.396   0.746   4.454 -0.3302 -0.8536  0.6656
 1178TIP3   OH2 3539   5.912   0.947   5.152 -0.3671 -0.7669 -0.3151
 1178TIP3    H1 3540   5.826   0.920   5.118 -0.5664 -0.4764 -0.0489
 1178TIP3    H2 3541   5.941   0.872   5.203 -1.0227 -0.4109  0.6104
 1179TIP3   OH2 3542   3.508   0.059   1.452  0.3299 -0.3027 -0.4116
 1179TIP3    H1 3543   3.506  -0.007   1.383  1.0807  0.5345 -1.2811
 1179TIP3    H2 3544   3.582   0.034   1.507 -0.5167 -1.1985  0.3492
 1180TIP3   OH2 3545   5.800   4.997   2.885  0.0820 -0.3591 -0.1063
 1180TIP3    H1 3546   5.707   5.016   2.897  0.5539  0.6444  2.5788
 1180TIP3    H2 3547   5.807   4.902   2.894 -0.6236 -0.3896  0.1345
 1181TIP3   OH2 3548   3.562   3.427   4.638  0.3188  0.0689 -0.3201
 1181TIP3    H1 3549   3.576   3.474   4.556 -1.3242  0.3384 -0.4740
 1181TIP3    H2 3550   3.472   3.448   4.663  0.9228  0.3900  1.8127
 1182TIP3   OH2 3551   5.372   1.228   2.322 -0.7841 -0.0319 -0.5618
 1182TIP3    H1 3552   5.345   1.265   2.406 -0.9538  1.5383 -1.2708
 1182TIP3    H2 3553   5.466   1.247   2.317 -0.9182  0.5298 -1.0309
 1183TIP3   OH2 3554   5.985   3.689   2.537 -0.5588  0.0417 -0.1132
 1183TIP3    H1 3555   6.026   3.630   2.600  0.9915  1.4298  0.2125
 1183TIP3    H2 3556   6.026   3.667   2.453  0.8232  1.3283  0.1877
 1184TIP3   OH2 3557   5.955   3.151   0.211  0.3500 -0.5525 -0.3033
 1184TIP3    H1 3558   5.885   3.111   0.159  0.1736  0.8464 -1.1895
 1184TIP3    H2 3559   5.917   3.164   0.297 -0.0754 -0.9239 -0.4323
 1185TIP3   OH2 3560   1.082   1.707   2.825 -0.4549 -0.3501  0.4361
 1185TIP3    H1 3561   1.021   1.633   2.824 -0.3738 -0.4216  0.7454
 1185TIP3    H2 3562   1.029   1.782   2.854 -0.8920  0.0344 -1.2397
 1186TIP3   OH2 3563   4.399   4.570   4.079  0.2556 -0.3297 -0.3252
 1186TIP3    H1 3564   4.385   4.569   4.174 -1.0259 -0.6083 -0.4909
 1186TIP3    H2 3565   4.454   4.494   4.061 -0.2913 -0.8337  0.0985
 1187TIP3   OH2 3566   3.128   3.482   2.741  0.4573  0.1678  0.4300
 1187TIP3    H1 3567   3.178   3.562   2.760  1.0877 -0.1574  0.1843
 1187TIP3    H2 3568   3.194   3.412   2.740  0.2767 -0.0492 -1.4709
 1188TIP3   OH2 3569   2.359   0.427   3.588  0.4455 -0.0727 -0.4191
 1188TIP3    H1 3570   2.434   0.468   3.546 -0.1307  2.3976  0.8369
 1188TIP3    H2 3571   2.294   0.419   3.518  1.5161 -1.4377 -1.3040
 1189TIP3   OH2 3572   3.383   0.055   0.780  0.1955  0.3011  0.5227
 1189TIP3    H1 3573   3.413   0.146   0.779  0.0866  0.3738 -2.1140
 1189TIP3    H2 3574   3.290   0.060   0.762  0.4035 -0.3644 -0.8396
 1190TIP3   OH2 3575   5.392   0.503   1.853  0.0073 -0.4100 -0.2392
 1190TIP3    H1 3576   5.380   0.428   1.795 -0.4563 -0.4840 -0.0420
 1190TIP3    H2 3577   5.316   0.503   1.910 -1.4451  1.7817 -1.9924
 1191TIP3   OH2 3578   2.057   1.553   4.840 -0.0246  0.2596 -0.1270
 1191TIP3    H1 3579   2.050   1.550   4.935  0.4492 -1.1372 -0.1105
 1191TIP3    H2 3580   1.979   1.600   4.811 -0.1694  0.7039  0.9399
 1192TIP3   OH2 3581   2.534   2.374   3.391 -0.1840 -0.4665 -0.2853
 1192TIP3    H1 3582   2.556   2.453   3.440  0.4257 -0.9426  0.2076
 1192TIP3    H2 3583   2.531   2.304   3.456  0.0816 -1.0025 -0.8425
 1193TIP3   OH2 3584   2.744   3.083   4.525  0.3185  0.1741  0.3567
 1193TIP3    H1 3585   2.705   2.997   4.510  0.3300  0.4430 -1.4260
 1193TIP3    H2 3586   2.695   3.119   4.599  0.7285 -1.5879  1.5468
 1194TIP3   OH2 3587   0.931   2.815   0.058  0.6095  0.0931 -0.0898
 1194TIP3    H1 3588   1.008   2.779   0.014  1.1233 -0.4377  1.1995
 1194TIP3    H2 3589   0.880   2.738   0.084 -0.0468  0.4204 -0.3632
 1195TIP3   OH2 3590   4.306   0.871   3.165  0.4558  0.2654  0.5872
 1195TIP3    H1 3591   4.280   0.792   3.118  0.7186 -1.6894  3.4854
 1195TIP3    H2 3592   4.227   0.900   3.211  0.1434  2.2668 -1.0526
 1196TIP3   OH2 3593   4.784   3.993   1.862  0.1921  0.8909 -0.1643
 1196TIP3    H1 3594   4.749   3.920   1.812  0.4995  2.1963 -2.4045
 1196TIP3    H2 3595   4.870   4.010   1.824  0.6127  1.7076  1.0741
 1197TIP3   OH2 3596   2.372   1.110   0.555 -0.0798  0.1823  0.1449
 1197TIP3    H1 3597   2.287   1.079   0.588  0.7394 -1.2251  0.9994
 1197TIP3    H2 3598   2.374   1.202   0.579 -1.0035  0.0327  0.8918
 1198TIP3   OH2 3599   3.094   3.452   1.526  0.0662 -0.3387 -0.1132
 1198TIP3    H1 3600   3.159   3.415   1.586  1.5047  1.3275 -0.5755
 1198TIP3    H2 3601   3.125   3.540   1.507 -0.7725 -0.5068 -2.6900
 1199TIP3   OH2 3602   4.197   1.418   2.445 -0.1945  0.2295  0.1655
 1199TIP3    H1 3603   4.184   1.327   2.421 -2.4056  0.7810 -1.0460
 1199TIP3    H2 3604   4.180   1.421   2.540 -0.9441 -0.4935  0.0635
 1200TIP3   OH2 3605   4.207   0.141   2.301  0.0006  0.5263  0.1257
 1200TIP3    H1 3606   4.272   0.203   2.266  1.1698 -1.3449 -1.1930
 1200TIP3    H2 3607   4.242   0.055   2.279 -0.8090 -0.7141  3.2475
 1201TIP3   OH2 3608   3.851   1.933   4.296 -0.0339 -0.1215 -0.3224
 1201TIP3    H1 3609   3.811   1.910   4.212 -0.0886  0.0159 -0.3356
 1201TIP3    H2 3610   3.782   1.917   4.360  0.6999 -2.3335 -0.0330
 1202TIP3   OH2 3611   4.704   1.855   1.661  0.0926  0.2882  0.1173
 1202TIP3    H1 3612   4.648   1.920   1.619 -2.5090 -0.7421  1.7902
 1202TIP3    H2 3613   4.688   1.774   1.612 -0.1367 -0.0903  0.8075
 1203TIP3   OH2 3614   3.491   0.144   4.018 -0.0203  0.2089  0.3666
 1203TIP3    H1 3615   3.570   0.104   4.054 -0.4463 -0.7796  0.2275
 1203TIP3    H2 3616   3.480   0.104   3.932 -0.2937  0.8488  0.0950
 1204TIP3   OH2 3617   5.660   2.031   2.294  0.2371 -0.0232 -0.1124
 1204TIP3    H1 3618   5.619   1.973   2.230  0.7821 -1.5481  0.8798
 1204TIP3    H2 3619   5.591   2.095   2.315 -1.3224 -1.9000  0.7543
 1205TIP3   OH2 3620   1.290   5.895   3.180 -0.5116 -0.1292 -0.0962
 1205TIP3    H1 3621   1.219   5.883   3.244 -1.4884  1.7309 -0.7745
 1205TIP3    H2 3622   1.363   5.929   3.232 -1.6759  2.5203 -0.0764
 1206TIP3   OH2 3623   4.110   5.150   0.817  0.5370 -0.1587  0.3089
 1206TIP3    H1 3624   4.171   5.213   0.776  0.4600  0.6120  1.3482
 1206TIP3    H2 3625   4.071   5.199   0.889  0.0758 -1.2540  0.8062
 1207TIP3   OH2 3626   6.303   1.597   0.042 -0.6634  0.6085 -0.1491
 1207TIP3    H1 3627   6.358   1.518   0.038 -0.3294  0.8823 -1.3258
 1207TIP3    H2 3628   6.358   1.666   0.006 -1.0460  1.3399  0.6503
 1208TIP3   OH2 3629   0.824   0.919   2.584 -0.2187 -0.2319 -0.1786
 1208TIP3    H1 3630   0.832   0.993   2.644  0.0419 -0.4133  0.0098
 1208TIP3    H2 3631   0.732   0.922   2.555 -0.3527 -0.1638  0.2486
 1209TIP3   OH2 3632   3.785   4.966   1.094 -0.3675  0.6990  0.1496
 1209TIP3    H1 3633   3.745   4.886   1.060 -0.5540  0.8150  0.0958
 1209TIP3    H2 3634   3.748   4.976   1.182 -0.9922  1.1845 -0.1626
 1210TIP3   OH2 3635   2.246   5.218   2.174  0.5107  0.3391 -0.3050
 1210TIP3    H1 3636   2.210   5.140   2.132 -0.0903 -0.0702  0.8951
 1210TIP3    H2 3637   2.179   5.243   2.238  0.9175  1.5511 -0.3296
 1211TIP3   OH2 3638   4.087   2.391   4.857 -0.0044  0.1951  0.2748
 1211TIP3    H1 3639   4.010   2.340   4.882  0.1744 -0.1345  0.1577
 1211TIP3    H2 3640   4.079   2.472   4.907  0.0766 -0.2392  1.0002
 1212TIP3   OH2 3641   0.560   4.842   2.593 -0.4020  0.8050 -0.1728
 1212TIP3    H1 3642   0.515   4.915   2.550 -2.5038 -0.8689 -1.0373
 1212TIP3    H2 3643   0.492   4.775   2.603  1.8677 -1.9756 -1.6587
 1213TIP3   OH2 3644   3.202   2.716   2.523 -0.1349 -0.1728  0.2832
 1213TIP3    H1 3645   3.228   2.625   2.539  0.0965  0.0301  1.0859
 1213TIP3    H2 3646   3.285   2.765   2.526 -0.0020 -0.1635 -1.9684
 1214TIP3   OH2 3647   5.223   4.930   4.580  0.4717  0.2247  0.5947
 1214TIP3    H1 3648   5.232   4.892   4.492 -0.5913 -1.2200  1.0824
 1214TIP3    H2 3649   5.313   4.932   4.614  0.7743 -0.0795 -0.1605
 1215TIP3   OH2 3650   1.214   2.629   1.246  0.1143  0.4523  0.0222
 1215TIP3    H1 3651   1.294   2.592   1.210 -1.1309 -1.3092 -1.0934
 1215TIP3    H2 3652   1.204   2.713   1.202 -1.3171 -1.5700 -4.0321
 1216TIP3   OH2 3653   4.157   3.998   3.280  0.1511  0.0075 -0.1452
 1216TIP3    H1 3654   4.111   3.976   3.361  0.2791  0.4513  0.0476
 1216TIP3    H2 3655   4.089   3.999   3.213 -0.3954  2.1156  0.3779
 1217TIP3   OH2 3656   5.907   2.249   2.098 -0.2411 -0.2442  0.0699
 1217TIP3    H1 3657   5.963   2.191   2.045  2.3638  2.4958 -0.4486
 1217TIP3    H2 3658   5.951   2.255   2.182 -2.2719 -1.4860  1.3022
 1218TIP3   OH2 3659   4.232   4.241   1.147 -0.1031 -0.2977  0.3874
 1218TIP3    H1 3660   4.179   4.254   1.069 -0.8643 -0.7402  0.8161
 1218TIP3    H2 3661   4.221   4.148   1.168  1.4170 -0.5766  0.0804
 1219TIP3   OH2 3662   1.675   2.773   4.740 -0.5336 -0.0984  0.0358
 1219TIP3    H1 3663   1.749   2.833   4.742  0.9504 -1.6787 -2.6201
 1219TIP3    H2 3664   1.687   2.718   4.817  0.0939  0.7025  0.5254
 1220TIP3   OH2 3665   0.687   3.541   4.868 -0.0170  0.3778  0.2275
 1220TIP3    H1 3666   0.731   3.503   4.945  1.8676 -1.6960 -1.7115
 1220TIP3    H2 3667   0.718   3.631   4.866 -1.6165  1.1046  2.8792
 1221TIP3   OH2 3668   3.264   3.010   3.672 -0.0878  0.3849 -0.0076
 1221TIP3    H1 3669   3.228   2.932   3.629 -0.1148 -0.2496  1.1230
 1221TIP3    H2 3670   3.340   2.978   3.719  0.6401  1.2985 -0.5432
 1222TIP3   OH2 3671   5.080   2.572   3.545 -0.1236  0.8226 -0.0648
 1222TIP3    H1 3672   5.026   2.648   3.568 -0.5262  0.7060 -0.6165
 1222TIP3    H2 3673   5.030   2.526   3.478 -0.6730 -0.8526  1.4131
 1223TIP3   OH2 3674   0.859   5.605   4.982 -0.0882  0.4933 -0.3090
 1223TIP3    H1 3675   0.885   5.558   4.903  0.0577 -2.4622  1.3271
 1223TIP3    H2 3676   0.781   5.655   4.956  0.6462  0.5791 -2.5540
 1224TIP3   OH2 3677   2.877   4.617   5.196  0.6329  0.0668 -0.1908
 1224TIP3    H1 3678   2.913   4.682   5.136 -1.1990 -0.4846 -1.9904
 1224TIP3    H2 3679   2.938   4.543   5.190  1.3835  0.6648 -0.0354
 1225TIP3   OH2 3680   1.398   0.254   3.511 -0.0699 -0.1555  0.2675
 1225TIP3    H1 3681   1.337   0.217   3.447 -1.3141  0.9937  0.7283
 1225TIP3    H2 3682   1.461   0.184   3.527 -2.1056 -1.9786  0.8753
 1226TIP3   OH2 3683   1.721   4.762   0.306  0.3604 -0.1742  0.4714
 1226TIP3    H1 3684   1.660   4.731   0.373  0.2635  1.1099  1.0039
 1226TIP3    H2 3685   1.803   4.776   0.353  1.1499 -1.9825 -0.2595
 1227TIP3   OH2 3686   5.346   4.109   2.644  0.0761  0.7712 -0.6697
 1227TIP3    H1 3687   5.361   4.041   2.578  0.1257 -0.2701  0.3777
 1227TIP3    H2 3688   5.432   4.124   2.683 -0.1460  0.5382 -0.0716
 1228TIP3   OH2 3689   0.954   2.772   5.069  0.2062  0.9059  0.6653
 1228TIP3    H1 3690   0.906   2.848   5.102  0.4805  1.7682 -0.8258
 1228TIP3    H2 3691   0.969   2.792   4.977 -0.8683 -1.5461 -0.1124
 1229TIP3   OH2 3692   1.945   4.855   4.465  0.3210  0.1760  0.1220
 1229TIP3    H1 3693   1.932   4.760   4.465  3.2757 -0.3071 -0.0743
 1229TIP3    H2 3694   1.888   4.887   4.395  0.1763 -1.5900 -0.6183
 1230TIP3   OH2 3695   0.601   4.828   0.668  0.3344  0.1763  0.1153
 1230TIP3    H1 3696   0.602   4.763   0.598 -0.2898 -0.3918  0.6169
 1230TIP3    H2 3697   0.663   4.895   0.640 -0.3388  0.2595 -1.2591
 1231TIP3   OH2 3698   4.039   2.236   2.679  0.0926 -0.1197 -0.6543
 1231TIP3    H1 3699   4.102   2.192   2.736  0.8981  1.0516 -0.6126
 1231TIP3    H2 3700   3.959   2.242   2.731  0.4683 -0.0938 -0.0739
 1232TIP3   OH2 3701   3.647   4.823   2.322  0.4985 -0.0408 -0.0655
 1232TIP3    H1 3702   3.713   4.877   2.279  0.1826  0.6415  0.2987
 1232TIP3    H2 3703   3.645   4.854   2.412 -1.2647  0.8916 -0.3786
 1233TIP3   OH2 3704   0.026   4.970   2.136  0.0675 -0.0203 -0.4547
 1233TIP3    H1 3705  -0.068   4.986   2.125 -0.1066 -0.6608  0.0557
 1233TIP3    H2 3706   0.053   5.037   2.199 -0.3367 -0.7062  0.4647
 1234TIP3   OH2 3707   5.210   4.698   2.740 -0.1274 -0.1018 -0.0656
 1234TIP3    H1 3708   5.251   4.729   2.659 -0.2155 -0.2946 -0.1836
 1234TIP3    H2 3709   5.233   4.765   2.805 -1.4572  0.9332 -0.6169
 1235TIP3   OH2 3710   3.008   5.626   0.943  0.5143  0.9939 -0.0156
 1235TIP3    H1 3711   3.087   5.651   0.895 -0.0085 -0.2076 -1.5846
 1235TIP3    H2 3712   3.028   5.539   0.978  0.3439  1.2371  0.7021
 1236TIP3   OH2 3713   4.210   5.295   2.146 -0.7171  0.1651 -0.2620
 1236TIP3    H1 3714   4.170   5.284   2.232 -1.0686 -1.4191 -0.5955
 1236TIP3    H2 3715   4.159   5.239   2.088  1.0660 -0.8194 -0.9818
 1237TIP3   OH2 3716   6.013   2.807   3.534 -0.0280  0.3883  0.4660
 1237TIP3    H1 3717   5.965   2.806   3.616 -0.5277  0.7554  0.1766
 1237TIP3    H2 3718   5.946   2.808   3.466  0.3806  0.1550  0.0508
 1238TIP3   OH2 3719   2.454   2.938   4.985  0.5634 -0.4193 -1.1125
 1238TIP3    H1 3720   2.457   2.938   4.889 -0.1224 -1.7799 -1.1634
 1238TIP3    H2 3721   2.411   2.855   5.007  0.0405  0.2092  0.3539
 1239TIP3   OH2 3722   4.108   5.897   2.917  0.5429  0.2487  0.1678
 1239TIP3    H1 3723   4.028   5.848   2.935  1.2550 -0.3678  1.8531
 1239TIP3    H2 3724   4.131   5.874   2.827 -0.8710  0.0137 -0.1435
 1240TIP3   OH2 3725   5.832   5.083   0.223  0.1234  0.2777  0.0269
 1240TIP3    H1 3726   5.799   5.035   0.146  1.1146  1.4586 -1.1891
 1240TIP3    H2 3727   5.771   5.156   0.233  1.3946  1.5864 -1.2744
 1241TIP3   OH2 3728   6.261   3.438   4.272 -0.0492 -0.7363 -0.2564
 1241TIP3    H1 3729   6.193   3.452   4.206  0.6626 -0.0664 -0.8629
 1241TIP3    H2 3730   6.260   3.344   4.287 -1.4563 -0.6873  0.1337
 1242TIP3   OH2 3731   5.894   1.121   4.307 -0.4828  0.3121  0.1058
 1242TIP3    H1 3732   5.969   1.142   4.364  0.0754  1.7168 -1.0612
 1242TIP3    H2 3733   5.859   1.207   4.282  0.2234 -0.1534 -2.8277
 1243TIP3   OH2 3734   3.930   1.980   3.155 -0.5201  0.2372 -0.1447
 1243TIP3    H1 3735   3.919   2.073   3.136 -1.3539 -0.0243 -0.9709
 1243TIP3    H2 3736   3.950   1.940   3.071 -4.0217 -0.8910 -0.6264
 1244TIP3   OH2 3737   2.760   4.204   4.820  1.3480  0.0314  0.8399
 1244TIP3    H1 3738   2.768   4.109   4.809  2.8777  0.2581 -0.3048
 1244TIP3    H2 3739   2.810   4.223   4.899  0.2893 -0.1970  1.5861
 1245TIP3   OH2 3740   5.318   3.637   2.544 -0.5133 -0.1557  0.2306
 1245TIP3    H1 3741   5.409   3.630   2.575 -0.6262 -0.9157  0.4085
 1245TIP3    H2 3742   5.320   3.601   2.456 -0.8872 -1.4554  0.7314
 1246TIP3   OH2 3743   1.303   3.510   3.671  0.4034  0.5478  0.1645
 1246TIP3    H1 3744   1.303   3.521   3.576  1.8852 -0.1375  0.0479
 1246TIP3    H2 3745   1.265   3.424   3.685  0.8962  0.3212  0.1281
 1247TIP3   OH2 3746   1.380   0.743   3.588 -0.5510  0.5589 -0.0283
 1247TIP3    H1 3747   1.287   0.727   3.578 -0.9502  2.1269  0.7503
 1247TIP3    H2 3748   1.400   0.814   3.526  0.2150 -0.0309 -0.4776
 1248TIP3   OH2 3749   0.256   1.017   0.096  0.2982  0.2825 -0.1302
 1248TIP3    H1 3750   0.344   1.056   0.096  0.3314  0.3165 -2.0032
 1248TIP3    H2 3751   0.218   1.047   0.013 -1.3850  0.0334  0.5288
 1249TIP3   OH2 3752   5.531   5.217   0.445  0.1687  0.7778  0.0704
 1249TIP3    H1 3753   5.621   5.243   0.467  0.2820  0.7163 -0.3196
 1249TIP3    H2 3754   5.529   5.217   0.350 -0.2314  0.7206  0.0790
 1250TIP3   OH2 3755   5.690   0.667   2.480 -0.1586  0.4776 -0.3309
 1250TIP3    H1 3756   5.667   0.652   2.571 -0.6605 -0.1249 -0.5539
 1250TIP3    H2 3757   5.710   0.761   2.475  0.8515  0.3329  0.6053
 1251TIP3   OH2 3758   0.768   0.042   3.938 -0.1021  0.0493  0.0104
 1251TIP3    H1 3759   0.769  -0.035   3.881  0.8560  1.5877 -2.1858
 1251TIP3    H2 3760   0.860   0.054   3.963  0.1985  1.8432 -1.7251
 1252TIP3   OH2 3761   5.803   2.529   2.559 -0.3588 -0.3276 -0.0682
 1252TIP3    H1 3762   5.837   2.523   2.469 -0.3259 -2.0251  0.0272
 1252TIP3    H2 3763   5.710   2.549   2.548  0.1408  2.1558 -0.3814
 1253TIP3   OH2 3764   5.770   3.042   3.055  0.0361  0.0937 -0.2170
 1253TIP3    H1 3765   5.810   2.983   2.991 -0.0392  0.4092 -0.5618
 1253TIP3    H2 3766   5.693   3.077   3.009  0.1112  0.4971 -0.0348
 1254TIP3   OH2 3767   2.389   5.233   4.911  0.5193  0.3731 -0.7441
 1254TIP3    H1 3768   2.332   5.309   4.926  1.6548  1.0189  0.4825
 1254TIP3    H2 3769   2.461   5.266   4.859  2.5827  0.9622  2.2500
 1255TIP3   OH2 3770   0.062   4.497   2.648 -0.0880  0.0677 -0.0498
 1255TIP3    H1 3771   0.017   4.556   2.708 -0.8955  0.9010 -1.4200
 1255TIP3    H2 3772  -0.008   4.464   2.591  0.8474  0.4304 -1.4497
 1256TIP3   OH2 3773   6.125   5.246   1.053  0.2345 -0.0511  0.4820
 1256TIP3    H1 3774   6.125   5.159   1.093  0.7135 -0.4146 -0.2899
 1256TIP3    H2 3775   6.139   5.230   0.960 -0.8280  0.7850  0.1555
 1257TIP3   OH2 3776   0.427   4.656   3.613 -0.4279  0.2192 -0.3599
 1257TIP3    H1 3777   0.407   4.741   3.574 -0.9255 -0.1593 -0.9402
 1257TIP3    H2 3778   0.371   4.651   3.690 -1.4129 -0.1506 -1.0848
 1258TIP3   OH2 3779   2.174   1.789   4.615 -0.0171 -0.7733  0.2343
 1258TIP3    H1 3780   2.217   1.724   4.671  0.9120  1.4208  2.2181
 1258TIP3    H2 3781   2.127   1.846   4.675  0.8787  1.5950 -1.1858
 1259TIP3   OH2 3782   2.467   0.996   3.761  0.3242 -0.0872 -0.1692
 1259TIP3    H1 3783   2.513   1.074   3.733  0.9017 -0.4630 -0.2717
 1259TIP3    H2 3784   2.374   1.016   3.747  0.2318  1.5483  2.1309
 1260TIP3   OH2 3785   5.203   3.435   3.327  0.6906  0.1059  0.3182
 1260TIP3    H1 3786   5.130   3.374   3.313  0.0643  0.8737  0.1751
 1260TIP3    H2 3787   5.267   3.412   3.260 -0.7013  1.3454 -1.5534
 1261TIP3   OH2 3788   0.745   0.464   1.755  0.1507  0.5101 -0.7819
 1261TIP3    H1 3789   0.798   0.524   1.807 -1.5348  0.7481  0.7971
 1261TIP3    H2 3790   0.681   0.521   1.712 -1.2136 -0.0263  0.4202
 1262TIP3   OH2 3791   5.029   0.919   2.805  0.3028  0.4473 -0.1932
 1262TIP3    H1 3792   5.050   0.878   2.721  0.8214  1.8564 -0.7795
 1262TIP3    H2 3793   4.934   0.907   2.814  0.4333 -0.8031 -0.3758
 1263TIP3   OH2 3794   2.594   3.023   2.461  0.0106  0.0752  0.1194
 1263TIP3    H1 3795   2.591   3.101   2.516 -1.7423 -0.9810  1.6346
 1263TIP3    H2 3796   2.666   2.970   2.496  1.2960  0.9987 -1.0006
 1264TIP3   OH2 3797   4.394   0.362   3.575 -1.1219 -0.3064 -0.6258
 1264TIP3    H1 3798   4.476   0.325   3.607 -2.6152 -2.5014  0.9306
 1264TIP3    H2 3799   4.355   0.292   3.523 -1.9523  0.7761 -1.5170
 1265TIP3   OH2 3800   0.623   2.506   2.246  0.2248 -0.3385 -0.3817
 1265TIP3    H1 3801   0.699   2.451   2.262 -0.0159 -1.3502 -2.3417
 1265TIP3    H2 3802   0.575   2.506   2.328  1.7189 -0.6617  0.5257
 1266TIP3   OH2 3803   1.220   1.069   1.913  0.3240 -0.8541 -0.0297
 1266TIP3    H1 3804   1.315   1.055   1.920  0.2800 -1.7302 -0.9559
 1266TIP3    H2 3805   1.185   0.984   1.887 -0.6345 -0.3471 -0.4660
 1267TIP3   OH2 3806   6.337   1.197   2.958  0.4834 -0.0416 -0.1958
 1267TIP3    H1 3807   6.267   1.260   2.978 -0.5894 -1.1352 -0.3505
 1267TIP3    H2 3808   6.305   1.150   2.881  1.0865 -1.0296  0.1431
 1268TIP3   OH2 3809   0.386   0.819   0.295 -0.1788 -0.1224  0.4638
 1268TIP3    H1 3810   0.326   0.882   0.254  0.1076  0.1878  0.5134
 1268TIP3    H2 3811   0.338   0.736   0.293 -0.3444 -0.0197 -0.0991
 1269TIP3   OH2 3812   4.035   1.949   0.279  0.0663  0.3333  0.1857
 1269TIP3    H1 3813   3.973   1.970   0.348  0.1311  1.9542 -0.2020
 1269TIP3    H2 3814   3.982   1.940   0.200  0.2187  0.9005  0.0100
 1270TIP3   OH2 3815   3.352   3.886   1.581  0.6383  0.8155 -0.2864
 1270TIP3    H1 3816   3.434   3.931   1.602  0.0715  2.5369 -1.5236
 1270TIP3    H2 3817   3.283   3.944   1.614 -0.1045  0.1662 -0.6546
 1271TIP3   OH2 3818   4.677   5.966   2.193  1.0813  0.1418  0.1239
 1271TIP3    H1 3819   4.602   6.020   2.218  2.1850  1.8980 -0.2279
 1271TIP3    H2 3820   4.652   5.877   2.218 -1.2727  0.6119 -0.3378
 1272TIP3   OH2 3821   0.866   3.167   0.489  0.2180 -0.1583  0.1665
 1272TIP3    H1 3822   0.796   3.214   0.534 -0.5935  0.2020 -1.3697
 1272TIP3    H2 3823   0.909   3.234   0.435  1.0771 -0.5845  0.3005
 1273TIP3   OH2 3824   0.922   0.681   0.468  0.0959  0.2223 -0.6256
 1273TIP3    H1 3825   0.831   0.652   0.475  0.5737 -1.1290  0.3686
 1273TIP3    H2 3826   0.924   0.763   0.517 -0.9917  1.3730 -2.3794
 1274TIP3   OH2 3827   4.814   1.026   2.975  0.5554 -0.7394 -0.3989
 1274TIP3    H1 3828   4.879   1.062   3.035 -0.1685 -0.8603  0.4818
 1274TIP3    H2 3829   4.789   0.943   3.014  1.0864 -1.4992 -1.6143
 1275TIP3   OH2 3830   1.918   4.086   4.604 -0.0428  0.1482  0.0684
 1275TIP3    H1 3831   1.852   4.016   4.609  0.9700 -0.9653 -1.2548
 1275TIP3    H2 3832   1.996   4.049   4.645  1.2494 -0.5302 -2.6948
 1276TIP3   OH2 3833   2.155   0.315   2.129 -0.0806 -0.0785 -0.1921
 1276TIP3    H1 3834   2.140   0.305   2.223  0.5726 -0.1539 -0.0882
 1276TIP3    H2 3835   2.181   0.407   2.119  0.3810 -0.2094 -0.2195
 1277TIP3   OH2 3836   6.234   4.128   2.316 -0.2036 -0.8248 -0.4556
 1277TIP3    H1 3837   6.277   4.061   2.368  0.9761 -0.1454 -0.5128
 1277TIP3    H2 3838   6.216   4.199   2.378 -1.5299 -1.2050 -0.3734
 1278TIP3   OH2 3839   3.501   3.520   5.119 -0.2003  0.6216 -0.0142
 1278TIP3    H1 3840   3.444   3.556   5.052 -1.4409 -0.2980  0.5027
 1278TIP3    H2 3841   3.455   3.441   5.150  0.6227  0.6860  1.4770
 1279TIP3   OH2 3842   5.097   1.005   3.949 -0.6594  0.0999  0.0412
 1279TIP3    H1 3843   5.130   1.074   4.007 -1.4907  0.6704 -0.1464
 1279TIP3    H2 3844   5.101   0.926   4.002  3.5656 -0.4987 -0.7749
 1280TIP3   OH2 3845   3.427   5.519   4.080  0.0621 -0.8620  0.1833
 1280TIP3    H1 3846   3.455   5.447   4.137 -1.2156 -1.0830  0.5465
 1280TIP3    H2 3847   3.451   5.598   4.127 -0.2704 -1.0497  0.6732
 1281TIP3   OH2 3848   5.090   0.364   3.921 -0.0451  0.2024  0.0450
 1281TIP3    H1 3849   5.037   0.423   3.976  0.8560  0.0970  1.0668
 1281TIP3    H2 3850   5.029   0.296   3.894 -0.5027  0.2048  1.0140
 1282TIP3   OH2 3851   5.347   4.488   4.088  0.1792 -0.1658  0.2109
 1282TIP3    H1 3852   5.397   4.565   4.116 -0.8113  0.7271 -0.3942
 1282TIP3    H2 3853   5.373   4.419   4.149  0.1689  0.9777  1.5620
 1283TIP3   OH2 3854   4.873   5.557   4.614  0.1602  0.0934  0.9434
 1283TIP3    H1 3855   4.948   5.497   4.622 -0.1021 -0.2035  1.2395
 1283TIP3    H2 3856   4.899   5.634   4.664 -1.1570 -1.4443  4.2745
 1284TIP3   OH2 3857   1.964   3.647   4.505  0.4484  0.3855  0.5341
 1284TIP3    H1 3858   2.023   3.623   4.577 -0.4594 -0.2646  1.0723
 1284TIP3    H2 3859   1.985   3.586   4.435 -2.5803 -2.9729  2.2471
 1285TIP3   OH2 3860   4.502   3.674   0.042  0.1852 -0.0452  0.2831
 1285TIP3    H1 3861   4.475   3.756   0.084 -0.2891  1.3095 -2.4103
 1285TIP3    H2 3862   4.596   3.668   0.059 -0.1642 -0.2271  2.4547
 1286TIP3   OH2 3863   0.294   2.557   2.570  0.2013  0.0955 -0.5127
 1286TIP3    H1 3864   0.231   2.502   2.617  0.3146  0.0469 -0.4167
 1286TIP3    H2 3865   0.270   2.548   2.478 -0.7920  1.1371 -0.3828
 1287TIP3   OH2 3866   3.935   4.651   4.255  0.5579 -0.0419 -0.6670
 1287TIP3    H1 3867   3.845   4.657   4.287  0.4878 -1.2691 -0.5983
 1287TIP3    H2 3868   3.930   4.677   4.163  0.0613 -0.4758 -0.7669
 1288TIP3   OH2 3869   6.292   1.735   4.038 -0.2371  0.1283  0.0715
 1288TIP3    H1 3870   6.356   1.692   3.981 -1.3365 -0.4892 -0.7383
 1288TIP3    H2 3871   6.237   1.786   3.978  0.6258  2.1641  0.9512
 1289TIP3   OH2 3872   0.241   1.305   0.299 -0.3301 -0.8566  0.6501
 1289TIP3    H1 3873   0.285   1.262   0.372  0.7604  1.2651  1.3337
 1289TIP3    H2 3874   0.311   1.321   0.235  0.2568  3.0027  1.9466
 1290TIP3   OH2 3875   1.183   1.848   3.970  0.2646  0.4682  0.0277
 1290TIP3    H1 3876   1.210   1.902   4.044 -1.7504  1.5714  0.0268
 1290TIP3    H2 3877   1.166   1.911   3.900 -1.7914 -0.1441 -0.0880
 1291TIP3   OH2 3878   5.625   3.371   1.700 -0.3751  0.1785  0.8166
 1291TIP3    H1 3879   5.567   3.367   1.624 -2.4490 -0.7543  2.3382
 1291TIP3    H2 3880   5.713   3.357   1.664 -1.4888 -2.8783 -1.1815
 1292TIP3   OH2 3881   1.257   3.150   4.526 -0.0402  0.9161 -0.4619
 1292TIP3    H1 3882   1.348   3.179   4.530 -0.0870  0.9172  2.4097
 1292TIP3    H2 3883   1.262   3.059   4.496  1.0864  0.3618  1.2842
 1293TIP3   OH2 3884   1.665   1.050   2.077 -0.2377  0.3407  0.0844
 1293TIP3    H1 3885   1.675   1.144   2.064  0.8664  0.1783 -0.4110
 1293TIP3    H2 3886   1.725   1.029   2.149  0.7516 -0.2149 -0.8729
 1294TIP3   OH2 3887   6.204   3.166   4.263 -0.2032  0.3568  0.7870
 1294TIP3    H1 3888   6.111   3.146   4.275 -0.2726 -0.6023 -1.0167
 1294TIP3    H2 3889   6.234   3.101   4.200  1.9419  0.0392  2.0572
 1295TIP3   OH2 3890   2.497   4.694   2.402  0.2482 -0.0300  0.0179
 1295TIP3    H1 3891   2.442   4.625   2.439 -1.3773  1.4743  0.5568
 1295TIP3    H2 3892   2.490   4.766   2.465 -0.7383  1.7856 -2.0344
 1296TIP3   OH2 3893   1.223   0.329   0.047 -0.3205 -0.0219  0.0287
 1296TIP3    H1 3894   1.164   0.324  -0.028 -1.5256  1.0574  0.8684
 1296TIP3    H2 3895   1.188   0.399   0.102  0.6706 -0.6039  1.4875
 1297TIP3   OH2 3896   5.574   2.065   3.675  0.0112  0.1077  0.3497
 1297TIP3    H1 3897   5.549   2.136   3.616  1.7415  0.3023 -0.2033
 1297TIP3    H2 3898   5.509   2.068   3.745 -1.9262  0.0701 -1.3488
 1298TIP3   OH2 3899   1.242   0.352   3.718  0.2910  0.4437  0.0050
 1298TIP3    H1 3900   1.286   0.324   3.638  1.2662  2.3191 -0.1924
 1298TIP3    H2 3901   1.266   0.286   3.783 -0.3414 -0.9870 -1.1748
 1299TIP3   OH2 3902   3.308   3.280   1.674 -0.0106  0.6978 -0.2381
 1299TIP3    H1 3903   3.384   3.338   1.665 -0.7521  1.9068  0.9153
 1299TIP3    H2 3904   3.337   3.211   1.734  0.5689  0.3991 -0.8466
 1300TIP3   OH2 3905   1.249   4.161   0.113 -0.4378  0.5748  0.0196
 1300TIP3    H1 3906   1.266   4.223   0.184 -0.3645  1.2673 -0.5900
 1300TIP3    H2 3907   1.291   4.079   0.141 -1.0466  0.6181  1.1029
 1301TIP3   OH2 3908   4.446   2.049   4.737  0.2085 -0.2587  0.2900
 1301TIP3    H1 3909   4.472   2.060   4.646 -1.4846 -2.9918 -0.6262
 1301TIP3    H2 3910   4.524   2.015   4.781  0.8786  0.5779 -0.2198
 1302TIP3   OH2 3911   4.389   5.786   1.834 -0.7917  0.7011 -0.2587
 1302TIP3    H1 3912   4.365   5.823   1.919 -1.2298 -0.6550  0.2362
 1302TIP3    H2 3913   4.349   5.699   1.834  0.7298 -0.0302 -1.0930
 1303TIP3   OH2 3914   2.459   3.089   3.990  0.4012 -0.7135 -0.3613
 1303TIP3    H1 3915   2.549   3.070   4.016  0.1073 -1.7878 -0.0503
 1303TIP3    H2 3916   2.463   3.097   3.895  0.5239 -2.7797 -0.5776
 1304TIP3   OH2 3917   2.000   2.270   5.186  0.0240 -0.6365 -0.6990
 1304TIP3    H1 3918   2.074   2.237   5.238  0.5376  1.1478 -0.2437
 1304TIP3    H2 3919   2.039   2.332   5.125 -1.1519  0.9460  0.0734
 1305TIP3   OH2 3920   5.619   4.268   1.687 -0.3949 -0.4610  0.6175
 1305TIP3    H1 3921   5.602   4.180   1.723  0.6409 -0.0049  2.3693
 1305TIP3    H2 3922   5.566   4.326   1.742  0.0040  0.1237  0.3895
 1306TIP3   OH2 3923   3.516   2.947   0.106 -0.2736 -0.3420 -0.0049
 1306TIP3    H1 3924   3.537   2.954   0.199  0.2101  0.9977 -0.1917
 1306TIP3    H2 3925   3.427   2.979   0.099 -0.3033 -0.4248 -0.0082
 1307TIP3   OH2 3926   4.248   1.836   1.385  0.3219 -0.3331 -0.6538
 1307TIP3    H1 3927   4.299   1.761   1.354  1.2320 -0.3347  0.7534
 1307TIP3    H2 3928   4.168   1.797   1.419  0.0682 -0.4911 -1.4111
 1308TIP3   OH2 3929   3.330   1.112   4.139  0.0634 -0.6676 -0.4582
 1308TIP3    H1 3930   3.253   1.064   4.109  0.1490  0.3165 -2.4391
 1308TIP3    H2 3931   3.378   1.133   4.058  0.8828  1.2551  0.4572
 1309TIP3   OH2 3932   0.323   5.869   2.350  0.2341 -0.1640  0.0217
 1309TIP3    H1 3933   0.377   5.816   2.410  0.9462  0.7068  0.1686
 1309TIP3    H2 3934   0.256   5.808   2.319  0.1053 -0.7493  1.3771
 1310TIP3   OH2 3935   4.638   2.699   2.779 -0.2958 -0.0448  0.0150
 1310TIP3    H1 3936   4.701   2.630   2.755 -0.3218 -0.3556  0.8171
 1310TIP3    H2 3937   4.562   2.651   2.812 -1.0557  0.3258 -1.1693
 1311TIP3   OH2 3938   6.330   2.786   3.799  0.6347  0.1486 -0.3404
 1311TIP3    H1 3939   6.352   2.749   3.884  1.4069 -2.4556 -1.5766
 1311TIP3    H2 3940   6.252   2.839   3.815  1.2405  0.4194  2.0905
 1312TIP3   OH2 3941   5.330   2.411   4.511  0.1575 -0.6283  0.3848
 1312TIP3    H1 3942   5.373   2.370   4.586 -1.4691 -1.2217  1.0262
 1312TIP3    H2 3943   5.276   2.480   4.548 -0.8318 -1.0647 -0.2056
 1313TIP3   OH2 3944   1.457   5.826   0.807 -0.5873 -0.0480 -0.3248
 1313TIP3    H1 3945   1.426   5.738   0.827 -0.8277  0.1854  0.3502
 1313TIP3    H2 3946   1.378   5.878   0.796 -0.4587 -0.0732 -1.4985
 1314TIP3   OH2 3947   4.178   3.864   2.392 -0.3904 -0.1423 -0.2587
 1314TIP3    H1 3948   4.201   3.797   2.456  1.1403  0.8771  0.3309
 1314TIP3    H2 3949   4.237   3.847   2.318 -0.6820 -0.0437 -0.5139
 1315TIP3   OH2 3950   0.629   1.490   4.047 -0.1218 -0.7616 -0.5912
 1315TIP3    H1 3951   0.613   1.536   3.965  1.2276  0.8700  0.0069
 1315TIP3    H2 3952   0.710   1.529   4.081 -0.6825 -1.3366  1.5391
 1316TIP3   OH2 3953   3.949   3.224   1.551  0.4796 -0.2953 -0.4940
 1316TIP3    H1 3954   4.009   3.280   1.501  0.2234  1.5483  1.1440
 1316TIP3    H2 3955   3.875   3.282   1.572  0.1224 -1.3024  1.1215
 1317TIP3   OH2 3956   2.128   5.659   3.972 -0.0145  0.5297 -0.4240
 1317TIP3    H1 3957   2.157   5.750   3.980  1.5424 -0.0019  0.4439
 1317TIP3    H2 3958   2.203   5.613   3.933  0.1311 -0.7779  1.2817
 1318TIP3   OH2 3959   4.615   3.172   2.836 -0.2079 -0.3669 -0.0260
 1318TIP3    H1 3960   4.632   3.079   2.821  0.7116  0.1037 -2.4660
 1318TIP3    H2 3961   4.584   3.205   2.751  1.3325  1.8982  0.1899
 1319TIP3   OH2 3962   3.753   5.116   0.182 -0.5059 -0.3760 -0.3823
 1319TIP3    H1 3963   3.666   5.081   0.166 -0.3727 -0.5791 -0.6786
 1319TIP3    H2 3964   3.810   5.065   0.124  0.3651 -2.7542  2.3346
 1320TIP3   OH2 3965   2.394   2.614   2.993  0.1298 -0.4464 -0.1969
 1320TIP3    H1 3966   2.486   2.640   2.997  0.6226 -2.0680 -0.2646
 1320TIP3    H2 3967   2.395   2.531   2.945 -1.1218 -1.5962  1.6655
 1321TIP3   OH2 3968   1.735   2.770   1.794  0.3397 -0.2532 -0.3324
 1321TIP3    H1 3969   1.730   2.743   1.886 -0.6250  0.7866 -0.0478
 1321TIP3    H2 3970   1.771   2.859   1.798  0.3825 -0.2412 -0.9632
 1322TIP3   OH2 3971   3.837   2.587   4.595  0.0238 -0.1698 -0.0650
 1322TIP3    H1 3972   3.785   2.613   4.519  0.6406 -0.4207 -0.5777
 1322TIP3    H2 3973   3.884   2.509   4.567  0.0382 -0.4360  0.6720
 1323TIP3   OH2 3974   5.026   1.028   5.153  0.5588  0.3794  0.1690
 1323TIP3    H1 3975   5.016   1.096   5.219 -1.0484 -1.1634  1.6196
 1323TIP3    H2 3976   4.963   1.052   5.085 -0.6208 -0.0608  1.0748
 1324TIP3   OH2 3977   2.543   4.888   2.778  0.4509  0.1410 -0.1321
 1324TIP3    H1 3978   2.632   4.857   2.797  0.2913  0.6542  1.6236
 1324TIP3    H2 3979   2.488   4.844   2.843 -0.4844  0.4157 -0.7177
 1325TIP3   OH2 3980   0.958   3.951   0.880 -0.1309  0.2313  0.3936
 1325TIP3    H1 3981   0.964   3.954   0.976 -0.1660  0.5100  0.3868
 1325TIP3    H2 3982   1.040   3.991   0.850  1.2150 -2.4104  0.3047
 1326TIP3   OH2 3983   4.136   0.684   3.021 -0.2675  0.2344  0.1406
 1326TIP3    H1 3984   4.123   0.596   2.987  0.8024  0.2934 -0.4596
 1326TIP3    H2 3985   4.052   0.708   3.059 -0.7849 -0.7577 -0.3547
 1327TIP3   OH2 3986   0.980   3.129   4.839  0.3163 -0.5590  0.0606
 1327TIP3    H1 3987   0.970   3.169   4.753  2.3800 -0.6135 -0.2735
 1327TIP3    H2 3988   1.005   3.038   4.821 -0.9520 -1.0791  0.7711
 1328TIP3   OH2 3989   2.800   1.003   4.692  0.1797 -0.1461  0.1003
 1328TIP3    H1 3990   2.725   1.043   4.736  0.1103  1.1096 -1.1130
 1328TIP3    H2 3991   2.867   0.998   4.761 -0.5914 -0.1354  0.8772
 1329TIP3   OH2 3992   1.682   5.137   3.755 -0.5974  0.3871  0.2865
 1329TIP3    H1 3993   1.591   5.155   3.780 -0.7353 -0.3281  0.3333
 1329TIP3    H2 3994   1.724   5.223   3.752 -1.0060  0.6422  1.3086
 1330TIP3   OH2 3995   5.007   0.369   1.293 -0.0615 -0.3355  0.1465
 1330TIP3    H1 3996   4.990   0.275   1.296 -0.4628 -0.2712 -0.0816
 1330TIP3    H2 3997   5.006   0.390   1.199 -0.5469  0.0021  0.2271
 1331TIP3   OH2 3998   0.222   3.332   3.207 -0.7946  0.0439 -0.1740
 1331TIP3    H1 3999   0.222   3.288   3.292  1.2712 -1.0360 -0.6763
 1331TIP3    H2 4000   0.141   3.383   3.206 -0.5437  0.6408  2.7064
 1332TIP3   OH2 4001   3.212   3.908   4.835  0.3625  0.7710  0.0018
 1332TIP3    H1 4002   3.305   3.893   4.849  0.5433 -1.5110 -2.7204
 1332TIP3    H2 4003   3.168   3.841   4.889  0.3873  0.7556  0.0028
 1333TIP3   OH2 4004   1.972   5.899   3.300 -0.5729 -0.1739 -0.1733
 1333TIP3    H1 4005   1.976   5.993   3.318  0.2655 -0.4032  0.9778
 1333TIP3    H2 4006   1.883   5.874   3.323 -1.1249  0.5077 -1.4816
 1334TIP3   OH2 4007   3.761   0.694   1.299 -0.0797  0.3720 -0.9011
 1334TIP3    H1 4008   3.757   0.783   1.264 -0.2627  1.3160  1.3451
 1334TIP3    H2 4009   3.699   0.695   1.372 -0.9581 -1.9667 -1.5413
 1335TIP3   OH2 4010   1.139   3.672   0.221  0.2737  0.8199 -0.0802
 1335TIP3    H1 4011   1.111   3.751   0.173 -0.3738  1.1193  0.7541
 1335TIP3    H2 4012   1.234   3.675   0.219  0.2572  0.9680 -1.1114
 1336TIP3   OH2 4013   0.066   3.191   5.166  0.4795 -0.2985 -0.1991
 1336TIP3    H1 4014   0.127   3.243   5.218  0.6806 -0.1097 -0.6194
 1336TIP3    H2 4015   0.055   3.241   5.085  0.2781 -0.6567 -0.3957
 1337TIP3   OH2 4016   2.883   0.725   0.255 -0.7170  0.4221 -0.1068
 1337TIP3    H1 4017   2.941   0.697   0.184 -0.7149  1.2434 -0.4439
 1337TIP3    H2 4018   2.796   0.699   0.225 -0.5381 -0.9870  0.4862
 1338TIP3   OH2 4019   0.157   3.173   1.289  0.7518  0.2461 -0.0964
 1338TIP3    H1 4020   0.183   3.158   1.198 -0.0182 -1.5513 -0.0691
 1338TIP3    H2 4021   0.075   3.124   1.299  0.3758  1.0996  1.3446
 1339TIP3   OH2 4022   3.219   1.800   4.968  0.0439 -0.0834 -0.8297
 1339TIP3    H1 4023   3.304   1.788   5.009 -0.4795 -1.3071 -0.0362
 1339TIP3    H2 4024   3.156   1.794   5.040 -0.8574 -1.7768 -1.6736
 1340TIP3   OH2 4025   4.704   2.502   0.668  0.6298 -0.0225 -0.2709
 1340TIP3    H1 4026   4.650   2.520   0.745 -0.2699 -0.2061 -0.8444
 1340TIP3    H2 4027   4.701   2.406   0.659 -0.2015  0.0736 -1.1741
 1341TIP3   OH2 4028   6.019   4.197   4.767 -0.1848 -0.1669 -0.3348
 1341TIP3    H1 4029   5.930   4.225   4.788 -0.4914 -0.9293 -0.6022
 1341TIP3    H2 4030   6.052   4.159   4.848  0.4334  1.3936  0.2012
 1342TIP3   OH2 4031   3.587   0.689   1.504  0.5089 -0.2671  0.1237
 1342TIP3    H1 4032   3.503   0.680   1.460  1.1330 -0.1696 -1.1038
 1342TIP3    H2 4033   3.565   0.725   1.590 -0.5992  0.9433 -0.6436
 1343TIP3   OH2 4034   3.339   0.262   3.369 -0.6719 -0.3776 -0.0557
 1343TIP3    H1 4035   3.362   0.311   3.448  0.9737  0.8687 -1.2349
 1343TIP3    H2 4036   3.360   0.171   3.390  2.5470  0.2823  0.0418
 1344TIP3   OH2 4037   4.918   4.574   1.034 -0.0135  0.5135  0.4228
 1344TIP3    H1 4038   4.868   4.492   1.032  2.1973 -1.0608 -3.5554
 1344TIP3    H2 4039   4.867   4.635   0.982 -0.3975  0.7931  1.1191
 1345TIP3   OH2 4040   2.885   4.386   1.147  0.1177 -0.7828 -0.0581
 1345TIP3    H1 4041   2.796   4.357   1.124  0.1960 -0.8493 -0.2848
 1345TIP3    H2 4042   2.872   4.446   1.220 -0.3651  1.2128 -1.6752
 1346TIP3   OH2 4043   2.585   2.445   1.998 -0.2029 -0.1916 -0.1911
 1346TIP3    H1 4044   2.670   2.412   1.967 -0.1188  0.0584 -0.2314
 1346TIP3    H2 4045   2.577   2.411   2.087  0.5656  0.9048  0.3120
 1347TIP3   OH2 4046   5.632   2.278   5.176  0.3360  0.0670  0.3952
 1347TIP3    H1 4047   5.548   2.236   5.191  0.8196 -1.2339 -0.3866
 1347TIP3    H2 4048   5.688   2.208   5.143  2.3310  0.3750  2.7950
 1348TIP3   OH2 4049   3.504   3.390   3.033  0.2858 -0.2823  0.1405
 1348TIP3    H1 4050   3.459   3.314   2.998 -0.0114  0.4051 -1.0395
 1348TIP3    H2 4051   3.587   3.356   3.067  0.5085 -1.0339 -1.0891
 1349TIP3   OH2 4052   3.593   1.373   3.202  0.0699  0.0692  0.3953
 1349TIP3    H1 4053   3.573   1.280   3.212 -2.5890  0.4333 -0.8253
 1349TIP3    H2 4054   3.670   1.386   3.257 -0.4330 -2.5022  1.8946
 1350TIP3   OH2 4055   5.898   2.779   0.674  0.1010 -0.0989 -0.3478
 1350TIP3    H1 4056   5.854   2.700   0.644  0.0096 -0.3338  0.3826
 1350TIP3    H2 4057   5.844   2.851   0.641 -1.5586 -0.3820  1.5305
 1351TIP3   OH2 4058   4.778   0.139   3.159 -0.1844 -0.4609 -0.6464
 1351TIP3    H1 4059   4.757   0.087   3.236  0.3200  0.2276 -0.0236
 1351TIP3    H2 4060   4.696   0.145   3.110 -0.7158 -0.2182  0.2601
 1352TIP3   OH2 4061   4.896   5.539   1.937  0.0418  0.3020 -0.2644
 1352TIP3    H1 4062   4.813   5.506   1.972  0.2114  1.0172  0.8764
 1352TIP3    H2 4063   4.936   5.463   1.895 -1.2643 -0.0057 -1.0050
 1353TIP3   OH2 4064   2.721   3.309   1.027  0.0180 -0.4341  0.4204
 1353TIP3    H1 4065   2.675   3.333   0.946  1.1640  0.0581 -0.1094
 1353TIP3    H2 4066   2.684   3.225   1.052 -0.0359 -0.8087 -0.8656
 1354TIP3   OH2 4067   2.277   3.308   4.055 -0.3374 -0.1568  0.0200
 1354TIP3    H1 4068   2.327   3.242   4.006  0.1945  0.9802 -1.0268
 1354TIP3    H2 4069   2.304   3.296   4.146 -0.1289 -1.2764 -0.1798
 1355TIP3   OH2 4070   3.677   1.811   0.287  0.3206 -0.4469 -0.4291
 1355TIP3    H1 4071   3.636   1.833   0.370  2.9267  2.7124  0.2274
 1355TIP3    H2 4072   3.607   1.820   0.222 -0.8181  1.2151  0.9541
 1356TIP3   OH2 4073   6.050   1.939   0.548 -0.5303 -0.2999  0.4627
 1356TIP3    H1 4074   5.962   1.958   0.581 -0.3615 -0.3342  0.9350
 1356TIP3    H2 4075   6.058   1.844   0.554  0.4815 -0.1227  2.8848
 1357TIP3   OH2 4076   5.050   1.989   0.952  0.6173 -0.5891  0.5314
 1357TIP3    H1 4077   4.976   1.934   0.925  0.9208 -0.3597 -0.8511
 1357TIP3    H2 4078   5.122   1.929   0.964  1.1700 -0.4914 -1.7763
 1358TIP3   OH2 4079   0.976   2.994   0.258 -0.2823 -0.2714  0.3976
 1358TIP3    H1 4080   0.954   2.926   0.194 -2.1365 -0.7321  1.4335
 1358TIP3    H2 4081   0.894   3.010   0.305 -0.0552  3.0884 -0.1083
 1359TIP3   OH2 4082   2.572   5.662   0.876  0.2914 -0.2584  0.1498
 1359TIP3    H1 4083   2.630   5.617   0.814 -1.5651 -2.0060 -0.4389
 1359TIP3    H2 4084   2.500   5.695   0.823 -1.8146 -2.5784  1.3112
 1360TIP3   OH2 4085   2.343   3.256   2.314  0.2116 -0.0271 -0.4788
 1360TIP3    H1 4086   2.292   3.205   2.377  0.9241 -0.5674 -0.3319
 1360TIP3    H2 4087   2.418   3.288   2.364 -1.1193  2.7554 -0.0508
 1361TIP3   OH2 4088   2.542   1.839   1.039 -0.3322 -0.1736 -0.1185
 1361TIP3    H1 4089   2.504   1.810   1.122 -1.6485  0.8081 -0.3553
 1361TIP3    H2 4090   2.632   1.805   1.041  0.2233  1.1927  2.4621
 1362TIP3   OH2 4091   2.614   3.287   4.237 -0.6434 -0.8087 -0.3624
 1362TIP3    H1 4092   2.659   3.357   4.190 -0.5899 -1.1966 -0.9092
 1362TIP3    H2 4093   2.671   3.210   4.225 -0.7030 -0.9455  0.2202
 1363TIP3   OH2 4094   2.018   4.330   3.068 -0.7838 -0.5450  0.2541
 1363TIP3    H1 4095   2.045   4.295   3.152 -0.5635  0.4083  0.5921
 1363TIP3    H2 4096   2.092   4.312   3.009 -0.4282 -0.1354  0.5688
 1364TIP3   OH2 4097   4.679   2.144   1.356  0.7539  0.6437  0.5224
 1364TIP3    H1 4098   4.619   2.072   1.375 -0.5732  1.4611 -0.4292
 1364TIP3    H2 4099   4.730   2.114   1.281  1.2432  0.1305  1.0462
 1365TIP3   OH2 4100   4.872   2.539   0.274  0.4491 -0.1112  0.7413
 1365TIP3    H1 4101   4.953   2.570   0.234  0.8083  0.8973  2.1683
 1365TIP3    H2 4102   4.822   2.500   0.202  2.0383 -0.4367 -0.2252
 1366TIP3   OH2 4103   2.542   4.547   1.280 -0.3265 -0.0996  0.5646
 1366TIP3    H1 4104   2.551   4.641   1.264  0.8778  0.0491  1.9180
 1366TIP3    H2 4105   2.476   4.540   1.349 -1.3031 -0.3539 -0.3702
 1367TIP3   OH2 4106   1.416   1.197   0.553  0.0423 -0.0970  0.7801
 1367TIP3    H1 4107   1.503   1.215   0.518 -1.2026  1.4050 -1.8902
 1367TIP3    H2 4108   1.373   1.282   0.556 -2.6208 -1.1137 -2.1024
 1368TIP3   OH2 4109   2.941   2.067   0.233 -0.2496 -0.2452 -0.0711
 1368TIP3    H1 4110   2.876   2.022   0.179  1.7137 -1.0217 -1.9486
 1368TIP3    H2 4111   2.903   2.070   0.320 -2.0722 -2.1493 -0.7345
 1369TIP3   OH2 4112   2.525   2.137   4.788 -0.3084 -0.4696  0.7858
 1369TIP3    H1 4113   2.619   2.151   4.800 -0.0704  1.0180 -1.9309
 1369TIP3    H2 4114   2.520   2.050   4.747 -0.2911 -1.1952  2.2657
 1370TIP3   OH2 4115   5.309   2.435   3.452  0.5795 -0.2235  0.0298
 1370TIP3    H1 4116   5.273   2.478   3.374  3.0768  2.2528  0.0831
 1370TIP3    H2 4117   5.262   2.475   3.525  0.6536  0.0130 -0.0526
 1371TIP3   OH2 4118   3.873   0.615   3.321  0.5163 -0.0596  0.7160
 1371TIP3    H1 4119   3.873   0.522   3.295  0.0875  0.4097 -1.1434
 1371TIP3    H2 4120   3.791   0.627   3.369  0.3088 -0.5204  0.4803
 1372TIP3   OH2 4121   1.262   5.343   1.460  0.2558  0.0724 -0.0507
 1372TIP3    H1 4122   1.215   5.325   1.541 -0.3234 -0.7116 -0.5403
 1372TIP3    H2 4123   1.241   5.434   1.438  0.6181  0.3669  0.7959
 1373TIP3   OH2 4124   3.598   1.085   0.166  0.2024  0.1898 -0.1515
 1373TIP3    H1 4125   3.678   1.089   0.218  1.6432 -0.4186 -2.1893
 1373TIP3    H2 4126   3.535   1.038   0.222  1.2722  0.6150  1.4612
 1374TIP3   OH2 4127   0.827   2.578   4.575  0.3327  0.3005 -0.1723
 1374TIP3    H1 4128   0.862   2.617   4.495 -0.8668 -0.5513 -1.1548
 1374TIP3    H2 4129   0.743   2.621   4.588  0.1157 -0.1991  0.1159
 1375TIP3   OH2 4130   0.236   5.297   4.615 -0.3311  0.3796 -0.5630
 1375TIP3    H1 4131   0.140   5.304   4.617 -0.3815 -0.2479 -0.5971
 1375TIP3    H2 4132   0.254   5.237   4.542  0.0560  0.0387 -0.1949
 1376TIP3   OH2 4133   2.875   2.321   4.773  0.2147  0.3402 -0.2885
 1376TIP3    H1 4134   2.844   2.285   4.690  0.9886 -0.3342 -0.3031
 1376TIP3    H2 4135   2.855   2.253   4.837 -0.7475  1.0253  0.1599
 1377TIP3   OH2 4136   2.434   0.420   1.659  0.1394  0.2128 -0.3890
 1377TIP3    H1 4137   2.455   0.480   1.731 -2.1466  0.3321  0.2624
 1377TIP3    H2 4138   2.451   0.471   1.580  0.9849  0.7144  0.1011
 1378TIP3   OH2 4139   6.228   0.861   4.284 -0.4434  0.0244  0.0600
 1378TIP3    H1 4140   6.262   0.794   4.224  2.1040  1.7707 -0.6165
 1378TIP3    H2 4141   6.188   0.926   4.226 -0.0776  0.5791  0.4217
 1379TIP3   OH2 4142   2.068   1.891   4.833 -0.1445  0.2098 -0.6652
 1379TIP3    H1 4143   2.128   1.873   4.906 -0.1063 -0.7677 -0.9227
 1379TIP3    H2 4144   1.982   1.895   4.874 -0.1955 -0.9480 -0.6371
 1380TIP3   OH2 4145   1.842   0.406   3.618 -0.2652 -0.1381  0.1682
 1380TIP3    H1 4146   1.756   0.433   3.649  0.1203 -0.3944  1.5366
 1380TIP3    H2 4147   1.872   0.480   3.564 -1.2541  0.0143 -0.1923
 1381TIP3   OH2 4148   4.728   0.555   5.038 -0.4455  0.2243  0.2525
 1381TIP3    H1 4149   4.758   0.473   4.998  0.0667  0.1597  0.7531
 1381TIP3    H2 4150   4.645   0.532   5.079 -1.6179  0.5980 -1.8202
 1382TIP3   OH2 4151   1.411   4.521   2.724 -0.2129 -0.5889 -0.4004
 1382TIP3    H1 4152   1.493   4.567   2.706 -0.6888  0.8287  0.8176
 1382TIP3    H2 4153   1.385   4.551   2.811 -1.3771 -1.9959 -0.2251
 1383TIP3   OH2 4154   2.797   1.618   4.092  0.1118  0.2895 -0.1903
 1383TIP3    H1 4155   2.809   1.705   4.130 -0.3379  0.3674 -0.2166
 1383TIP3    H2 4156   2.826   1.558   4.160  2.6294  0.4772 -0.9933
 1384TIP3   OH2 4157   3.384   0.408   3.612  0.1393 -0.2829  0.0450
 1384TIP3    H1 4158   3.456   0.452   3.658 -0.9030 -1.1635  2.7333
 1384TIP3    H2 4159   3.309   0.467   3.622 -0.4092 -1.0510  0.6091
 1385TIP3   OH2 4160   3.389   1.676   1.171  0.0359  0.3834 -0.2173
 1385TIP3    H1 4161   3.333   1.608   1.133 -0.5169  0.6523  0.0923
 1385TIP3    H2 4162   3.476   1.657   1.138 -0.2728  0.0637 -0.8758
 1386TIP3   OH2 4163   1.421   1.353   1.660 -0.5762  0.0795 -0.1850
 1386TIP3    H1 4164   1.456   1.442   1.658  3.6229 -1.2760  1.2799
 1386TIP3    H2 4165   1.482   1.302   1.607 -0.8829 -2.4431  1.6787
 1387TIP3   OH2 4166   4.210   0.168   2.874 -0.5220  0.4568 -0.5351
 1387TIP3    H1 4167   4.207   0.076   2.901 -0.8825  0.9464  1.2180
 1387TIP3    H2 4168   4.127   0.182   2.828 -0.2768 -0.1919 -1.1944
 1388TIP3   OH2 4169   3.187   2.575   1.182 -0.2712  0.2615 -0.5408
 1388TIP3    H1 4170   3.231   2.656   1.159 -0.8604  0.3099 -1.5315
 1388TIP3    H2 4171   3.213   2.513   1.114 -1.8922  0.3585 -1.2966
 1389TIP3   OH2 4172   3.548   4.189   4.642  0.0704 -0.8103  0.0152
 1389TIP3    H1 4173   3.528   4.179   4.549 -1.3272 -1.4582  0.3486
 1389TIP3    H2 4174   3.620   4.128   4.658 -0.7926 -1.9638 -0.3297
 1390TIP3   OH2 4175   2.584   0.653   2.016 -0.4712 -0.3569 -0.3356
 1390TIP3    H1 4176   2.608   0.606   2.096  0.5973 -0.0030 -0.4288
 1390TIP3    H2 4177   2.591   0.745   2.040 -1.8814 -0.2233 -0.3484
 1391TIP3   OH2 4178   0.936   5.163   0.424 -0.1921 -0.6442  0.0657
 1391TIP3    H1 4179   0.874   5.173   0.352  0.5597 -1.3370 -0.6986
 1391TIP3    H2 4180   0.895   5.210   0.497 -0.0710  1.8634 -1.3373
 1392TIP3   OH2 4181   6.053   2.793   4.359 -0.2282  0.2535  0.6124
 1392TIP3    H1 4182   6.051   2.863   4.425 -1.7447  0.7984  0.0377
 1392TIP3    H2 4183   5.964   2.792   4.323 -0.5770 -2.6752  1.3091
 1393TIP3   OH2 4184   3.205   3.092   1.462 -0.2010 -0.1302 -0.7795
 1393TIP3    H1 4185   3.135   3.044   1.506  0.7017 -0.8304 -0.0675
 1393TIP3    H2 4186   3.224   3.166   1.520  0.0213 -0.2500 -0.6990
 1394TIP3   OH2 4187   3.531   5.264   1.077  0.4817  0.0766 -0.2470
 1394TIP3    H1 4188   3.607   5.224   1.033 -0.1279 -0.6122 -0.7035
 1394TIP3    H2 4189   3.455   5.218   1.040 -0.1131  0.1640  0.8110
 1395TIP3   OH2 4190   3.579   1.473   4.965  0.1038 -0.4484  0.6639
 1395TIP3    H1 4191   3.613   1.502   5.050 -1.2167 -2.2010  1.8570
 1395TIP3    H2 4192   3.512   1.538   4.943 -2.4021 -2.0220  3.0173
 1396TIP3   OH2 4193   0.653   5.686   4.696  0.7120 -0.4033 -0.3676
 1396TIP3    H1 4194   0.666   5.727   4.782  0.9486 -0.7336 -0.2442
 1396TIP3    H2 4195   0.684   5.751   4.633  0.1274  0.0194 -0.2274
 1397TIP3   OH2 4196   6.181   2.611   5.208  0.1532 -0.2066  0.4469
 1397TIP3    H1 4197   6.221   2.554   5.142  0.8958  0.4864  0.2883
 1397TIP3    H2 4198   6.101   2.643   5.167  0.9102  0.6968 -0.3667
 1398TIP3   OH2 4199   5.180   5.203   1.134 -0.0904  0.3057  0.0580
 1398TIP3    H1 4200   5.265   5.168   1.160  0.6301  1.4465 -0.7140
 1398TIP3    H2 4201   5.175   5.187   1.040 -0.2655  1.1860 -0.0928
 1399TIP3   OH2 4202   5.355   5.534   4.656 -0.3916  0.3848 -0.3115
 1399TIP3    H1 4203   5.298   5.520   4.731 -0.9725 -0.3215 -0.8759
 1399TIP3    H2 4204   5.431   5.478   4.674 -1.0368 -0.6774 -0.7706
 1400TIP3   OH2 4205   5.908   5.643   3.028  0.9399  0.5713  0.6904
 1400TIP3    H1 4206   5.950   5.715   3.074  4.3489  0.1504 -1.3624
 1400TIP3    H2 4207   5.840   5.684   2.975  1.7167  2.0444  0.7979
 1401TIP3   OH2 4208   0.404   1.033   3.683  0.0913 -0.3024  0.7081
 1401TIP3    H1 4209   0.311   1.038   3.702  0.2483  1.9457  1.1013
 1401TIP3    H2 4210   0.447   1.030   3.768  0.4092 -1.3485  0.5316
 1402TIP3   OH2 4211   1.376   5.826   1.267  0.2349  0.2231 -0.2422
 1402TIP3    H1 4212   1.453   5.808   1.212 -0.8854 -0.1906 -1.7459
 1402TIP3    H2 4213   1.351   5.741   1.302 -0.4545  0.0792 -1.0486
 1403TIP3   OH2 4214   3.636   5.677   1.744  0.8520  0.0755  0.5898
 1403TIP3    H1 4215   3.720   5.673   1.698  0.9637  0.4696  0.7572
 1403TIP3    H2 4216   3.652   5.734   1.819  1.1955 -2.0596  2.2378
 1404TIP3   OH2 4217   2.300   3.027   4.438  0.0744 -0.2725  0.3453
 1404TIP3    H1 4218   2.249   3.058   4.513 -0.4798 -1.7108  0.5906
 1404TIP3    H2 4219   2.336   2.943   4.466  1.1196 -0.1213 -0.4737
 1405TIP3   OH2 4220   3.359   1.622   4.239 -0.0985  0.1061  0.3434
 1405TIP3    H1 4221   3.336   1.568   4.315  0.4285 -1.5352 -0.6007
 1405TIP3    H2 4222   3.440   1.583   4.206 -1.8517 -1.2895 -2.8501
 1406TIP3   OH2 4223   3.506   3.723   1.830 -0.1479  0.6342 -0.0475
 1406TIP3    H1 4224   3.534   3.763   1.912 -2.0885  2.6480 -0.2658
 1406TIP3    H2 4225   3.575   3.745   1.768 -0.0930  1.7429  0.3755
 1407TIP3   OH2 4226   4.174   2.764   3.297  0.0921 -0.3947  0.5976
 1407TIP3    H1 4227   4.237   2.723   3.238 -0.2735 -0.0563 -0.0474
 1407TIP3    H2 4228   4.226   2.791   3.373  0.5714 -0.8445  0.4350
 1408TIP3   OH2 4229   0.830   1.973   3.284 -0.1540  0.0399  0.2933
 1408TIP3    H1 4230   0.908   1.948   3.334  0.3954  1.4610  0.1980
 1408TIP3    H2 4231   0.769   1.901   3.298  1.6299 -1.7648 -0.7071
 1409TIP3   OH2 4232   5.006   4.702   3.565 -0.0744  0.4510  0.2188
 1409TIP3    H1 4233   5.080   4.688   3.506 -0.1263  2.1714 -0.3210
 1409TIP3    H2 4234   4.940   4.638   3.537 -0.8303  2.3810 -2.9423
 1410TIP3   OH2 4235   3.032   0.033   2.485  0.2991 -0.0844  0.1281
 1410TIP3    H1 4236   2.954   0.026   2.540 -0.8412  0.4282 -1.3652
 1410TIP3    H2 4237   3.056  -0.057   2.465 -0.9161 -0.2316 -0.7458
 1411TIP3   OH2 4238   4.806   5.464   3.471  0.0313  0.4924  0.3120
 1411TIP3    H1 4239   4.900   5.477   3.459 -0.0820  0.0482 -1.3277
 1411TIP3    H2 4240   4.798   5.375   3.507  0.1416 -1.0035 -3.0255
 1412TIP3   OH2 4241   1.223   5.100   0.449  0.4392 -0.4212 -0.1287
 1412TIP3    H1 4242   1.238   5.026   0.507  1.6661 -1.7222 -1.9746
 1412TIP3    H2 4243   1.129   5.095   0.428  0.3475 -0.9683  0.3856
 1413TIP3   OH2 4244   5.518   1.813   3.357  0.1849  0.0649  0.7678
 1413TIP3    H1 4245   5.555   1.725   3.361  3.1483  1.0373 -1.2066
 1413TIP3    H2 4246   5.488   1.822   3.267 -0.0711  1.0613  0.9383
 1414TIP3   OH2 4247   5.078   3.800   2.688 -0.1191  0.0172  0.1195
 1414TIP3    H1 4248   5.131   3.794   2.767 -2.5043  1.3860  1.9768
 1414TIP3    H2 4249   5.134   3.767   2.618  1.5612 -2.9835  2.6067
 1415TIP3   OH2 4250   3.198   3.391   0.923 -0.4184  0.5053 -0.0550
 1415TIP3    H1 4251   3.185   3.473   0.971 -0.4976  0.4599  0.0011
 1415TIP3    H2 4252   3.120   3.339   0.942  0.6367 -0.5239  1.7845
 1416TIP3   OH2 4253   4.483   5.269   4.938 -0.1728 -0.0870 -0.1564
 1416TIP3    H1 4254   4.561   5.280   4.883 -0.4561  0.8101 -0.4049
 1416TIP3    H2 4255   4.463   5.358   4.968 -1.0645 -0.3139 -0.0528
 1417TIP3   OH2 4256   1.761   1.521   3.726 -0.0642  0.2284  0.3523
 1417TIP3    H1 4257   1.801   1.604   3.701 -0.5442  0.1609 -0.6707
 1417TIP3    H2 4258   1.675   1.544   3.762  0.4673  0.2927  1.6477
 1418TIP3   OH2 4259   2.209   3.790   2.029  0.1366 -0.1517 -0.2881
 1418TIP3    H1 4260   2.206   3.791   2.125  2.8778  0.6794 -0.1312
 1418TIP3    H2 4261   2.302   3.787   2.008 -0.4103 -1.0866 -2.9647
 1419TIP3   OH2 4262   6.238   0.637   2.963 -0.5829  0.1597  0.0982
 1419TIP3    H1 4263   6.266   0.574   2.897  0.1428  1.6128 -1.0399
 1419TIP3    H2 4264   6.143   0.628   2.965 -0.6280  0.1735 -1.2387
 1420TIP3   OH2 4265   2.421   5.012   1.480 -0.6804  0.8263  0.1768
 1420TIP3    H1 4266   2.393   5.056   1.401 -1.2662  0.8436  0.3930
 1420TIP3    H2 4267   2.361   5.042   1.548 -2.0622 -1.3888  0.0484
 1421TIP3   OH2 4268   2.999   1.823   4.175 -0.2340  0.5627  0.1733
 1421TIP3    H1 4269   3.026   1.813   4.266  0.8981  2.2194  0.0740
 1421TIP3    H2 4270   3.025   1.742   4.132 -0.2591 -0.0006  1.1951
 1422TIP3   OH2 4271   0.064   5.959   3.086 -0.7857  0.0365  0.1232
 1422TIP3    H1 4272   0.035   6.020   3.017 -0.0158  1.0404  0.6495
 1422TIP3    H2 4273   0.160   5.961   3.080 -0.7406 -0.7437  0.4888
 1423TIP3   OH2 4274   6.016   3.833   1.939 -0.3157  0.2937 -0.6433
 1423TIP3    H1 4275   5.999   3.873   2.024  1.1746  0.2525 -0.3054
 1423TIP3    H2 4276   6.048   3.746   1.960 -0.5524  0.0512 -1.2780
 1424TIP3   OH2 4277   5.406   2.597   0.000  0.2659  0.1071 -0.1748
 1424TIP3    H1 4278   5.472   2.531   0.019  0.4061  0.9778  3.0426
 1424TIP3    H2 4279   5.323   2.551   0.009  0.3737  0.1969  1.6121
 1425TIP3   OH2 4280   4.950   5.504   2.556 -0.4428  0.2526 -0.1633
 1425TIP3    H1 4281   5.012   5.526   2.626  0.6446  0.5377 -1.1850
 1425TIP3    H2 4282   4.980   5.420   2.522 -3.4671 -2.1272  2.4449
 1426TIP3   OH2 4283   4.790   0.879   1.028  0.3498  0.2036 -0.0844
 1426TIP3    H1 4284   4.756   0.829   1.102  0.3247  0.5082  0.1109
 1426TIP3    H2 4285   4.854   0.939   1.066 -1.5986  2.2875  0.1159
 1427TIP3   OH2 4286   2.313   4.180   0.403  0.4979 -0.3614 -0.7292
 1427TIP3    H1 4287   2.389   4.165   0.346  0.1492  0.0980 -1.3158
 1427TIP3    H2 4288   2.265   4.252   0.363  0.6332  0.4785  0.5477
 1428TIP3   OH2 4289   5.770   2.584   2.841 -0.1326 -0.3391 -0.1326
 1428TIP3    H1 4290   5.815   2.504   2.868  2.0987  1.0376  0.5402
 1428TIP3    H2 4291   5.771   2.582   2.745 -1.4918 -1.8044 -0.1405
 1429TIP3   OH2 4292   4.414   2.184   3.508 -0.3835 -0.3265 -0.3610
 1429TIP3    H1 4293   4.436   2.271   3.475 -1.2861  0.9246  2.0918
 1429TIP3    H2 4294   4.499   2.147   3.534 -0.0904  0.2332 -0.4885
 1430TIP3   OH2 4295   0.267   0.157   3.024 -0.3709  0.1853  0.0363
 1430TIP3    H1 4296   0.289   0.064   3.029  0.2759  0.3787  1.3208
 1430TIP3    H2 4297   0.352   0.201   3.026 -0.7267  0.8417  1.0114
 1431TIP3   OH2 4298   2.583   2.071   1.377 -0.1505  0.1682 -0.4046
 1431TIP3    H1 4299   2.609   1.990   1.421  1.0634  0.7106 -0.0914
 1431TIP3    H2 4300   2.634   2.072   1.296  0.1780  0.8243 -0.1989
 1432TIP3   OH2 4301   5.697   5.060   4.386  0.5278  0.5304 -0.2363
 1432TIP3    H1 4302   5.613   5.017   4.399  1.1251 -0.0838  1.8992
 1432TIP3    H2 4303   5.740   5.009   4.317  0.1147 -0.6604  0.3595
 1433TIP3   OH2 4304   5.592   4.519   2.782 -0.2504  0.1064 -0.1778
 1433TIP3    H1 4305   5.584   4.503   2.688 -1.9793 -0.6735  0.0677
 1433TIP3    H2 4306   5.683   4.495   2.803 -0.1057 -0.5549 -1.4778
 1434TIP3   OH2 4307   5.440   2.639   1.559  0.1879  0.3272 -0.1909
 1434TIP3    H1 4308   5.347   2.625   1.537 -0.8278  0.6841  3.3280
 1434TIP3    H2 4309   5.484   2.561   1.526 -1.7453 -0.9224 -0.0122
 1435TIP3   OH2 4310   3.323   4.168   4.058 -0.6068 -0.1093 -0.6278
 1435TIP3    H1 4311   3.281   4.088   4.026  0.9769 -1.2961  0.1160
 1435TIP3    H2 4312   3.351   4.213   3.978 -1.9923  0.0165 -1.0761
 1436TIP3   OH2 4313   6.027   3.120   2.858 -0.8385 -0.2423 -0.3622
 1436TIP3    H1 4314   6.071   3.073   2.787  2.3835  1.3474  0.3707
 1436TIP3    H2 4315   6.024   3.057   2.930 -0.7643 -0.7318 -0.7818
 1437TIP3   OH2 4316   2.547   0.100   4.516  0.3098  0.4744 -0.8961
 1437TIP3    H1 4317   2.488   0.041   4.467 -1.6939 -0.8530  2.6950
 1437TIP3    H2 4318   2.518   0.188   4.492 -0.6923 -0.1093 -1.9477
 1438TIP3   OH2 4319   0.411   5.178   0.518  0.1268 -0.1641  0.5748
 1438TIP3    H1 4320   0.352   5.139   0.583 -1.8548  0.2989 -0.8531
 1438TIP3    H2 4321   0.478   5.111   0.502 -1.1848 -1.5694  0.7510
 1439TIP3   OH2 4322   2.406   4.917   2.540 -0.4128  0.1986  0.5529
 1439TIP3    H1 4323   2.449   4.936   2.624 -2.9443  0.4183  1.9045
 1439TIP3    H2 4324   2.429   4.991   2.484  2.0673 -0.3902  0.6558
 1440TIP3   OH2 4325   3.382   1.145   0.390 -0.2169 -0.0969 -0.6469
 1440TIP3    H1 4326   3.393   1.070   0.331 -1.2067 -0.7154 -0.0852
 1440TIP3    H2 4327   3.329   1.110   0.462 -3.0026  1.7581 -1.6400
 1441TIP3   OH2 4328   1.405   0.950   2.109  0.1709 -0.6303 -0.0086
 1441TIP3    H1 4329   1.491   0.990   2.098  0.1434  0.3474  2.7315
 1441TIP3    H2 4330   1.412   0.865   2.065  2.3352 -0.3256 -0.3288
 1442TIP3   OH2 4331   5.853   0.644   5.115  0.1153 -0.2735 -0.0907
 1442TIP3    H1 4332   5.782   0.627   5.052  0.0097 -0.8915  0.1891
 1442TIP3    H2 4333   5.933   0.618   5.068  0.0601 -0.5027 -0.0602
 1443TIP3   OH2 4334   1.014   5.351   4.469  0.0638  0.5158  0.0614
 1443TIP3    H1 4335   1.037   5.266   4.432  0.3799 -0.1916  1.7690
 1443TIP3    H2 4336   1.070   5.413   4.423  0.5404 -0.3259 -0.5227
 1444TIP3   OH2 4337   0.499   5.897   3.621  0.4609  0.4100 -0.3687
 1444TIP3    H1 4338   0.414   5.856   3.638  1.0676 -0.4153  0.7592
 1444TIP3    H2 4339   0.488   5.988   3.647  0.2104  0.0685  0.7438
 1445TIP3   OH2 4340   4.729   2.248   3.939  0.5655 -0.0171  0.5823
 1445TIP3    H1 4341   4.668   2.204   3.880  0.8281 -1.3347  1.2455
 1445TIP3    H2 4342   4.673   2.302   3.995  0.2853  0.9318 -0.5743
 1446TIP3   OH2 4343   3.654   5.307   4.647  0.1316 -0.3766 -0.2107
 1446TIP3    H1 4344   3.652   5.243   4.718 -0.1235 -1.8001 -1.4383
 1446TIP3    H2 4345   3.663   5.392   4.690  3.0644 -1.3859  1.4128
 1447TIP3   OH2 4346   5.158   2.020   4.186  0.0280 -0.3441 -0.3109
 1447TIP3    H1 4347   5.072   2.053   4.159 -0.6360 -1.7776 -0.0319
 1447TIP3    H2 4348   5.151   2.009   4.281  0.9524  0.6902 -0.0971
 1448TIP3   OH2 4349   0.164   0.267   3.488  0.1156  0.1519  0.0971
 1448TIP3    H1 4350   0.127   0.186   3.452  0.5979 -0.8910  1.8115
 1448TIP3    H2 4351   0.254   0.268   3.456  0.3332 -0.3972  0.6762
 1449TIP3   OH2 4352   4.325   5.465   2.537  0.0796 -0.8582  0.3987
 1449TIP3    H1 4353   4.252   5.424   2.584  1.0999 -2.1420  0.9340
 1449TIP3    H2 4354   4.368   5.393   2.492  0.9873 -0.1224  0.0570
 1450TIP3   OH2 4355   0.725   0.596   3.113  0.2605  0.0498 -0.2695
 1450TIP3    H1 4356   0.637   0.626   3.136 -0.4738 -0.0671 -2.6298
 1450TIP3    H2 4357   0.737   0.626   3.022  2.0918 -1.1721 -0.4813
 1451TIP3   OH2 4358   4.884   5.800   3.762 -0.3366 -0.4339 -0.1499
 1451TIP3    H1 4359   4.805   5.747   3.750 -0.9777 -0.0308  1.9245
 1451TIP3    H2 4360   4.954   5.737   3.778 -0.6567 -0.7318  0.0901
 1452TIP3   OH2 4361   0.310   3.042   2.357 -0.5891 -0.5825  0.6170
 1452TIP3    H1 4362   0.236   3.102   2.362 -2.4997 -2.7143 -0.3408
 1452TIP3    H2 4363   0.358   3.056   2.438 -1.6153  1.3706  0.9422
 1453TIP3   OH2 4364   2.833   5.990   0.401 -0.1665  0.1815 -0.0579
 1453TIP3    H1 4365   2.825   6.054   0.472 -1.0898  0.8992 -0.7842
 1453TIP3    H2 4366   2.833   5.905   0.445 -0.0163  0.6360  0.8436
 1454TIP3   OH2 4367   3.777   5.217   1.377  0.0667 -0.6196  0.2768
 1454TIP3    H1 4368   3.872   5.208   1.369  0.3210  0.6928  1.3942
 1454TIP3    H2 4369   3.764   5.245   1.468 -1.3033  0.1402 -0.1302
 1455TIP3   OH2 4370   2.696   1.532   0.946 -0.3755 -0.1144  0.6926
 1455TIP3    H1 4371   2.743   1.616   0.952  0.7601 -0.7932  1.8471
 1455TIP3    H2 4372   2.758   1.474   0.902 -2.0616  0.2156 -2.3794
 1456TIP3   OH2 4373   4.157   0.339   3.096 -0.4146  0.3564  0.3314
 1456TIP3    H1 4374   4.074   0.373   3.063 -0.6795 -1.6117 -1.1655
 1456TIP3    H2 4375   4.177   0.264   3.041  1.9167  0.2048  1.2511
 1457TIP3   OH2 4376   2.499   1.846   0.571 -0.1269 -0.2773  0.1129
 1457TIP3    H1 4377   2.520   1.934   0.539 -0.1416 -1.0254 -2.1474
 1457TIP3    H2 4378   2.453   1.861   0.653  2.7149  1.6831  1.4991
 1458TIP3   OH2 4379   6.372   3.489   3.302 -0.0399 -0.5723  0.1744
 1458TIP3    H1 4380   6.300   3.431   3.326  0.0120 -1.1356 -0.9393
 1458TIP3    H2 4381   6.330   3.564   3.261 -0.0565 -0.2210  0.8165
 1459TIP3   OH2 4382   3.397   2.728   1.565 -0.7422  0.2864  0.1795
 1459TIP3    H1 4383   3.470   2.720   1.504  0.0398 -1.5605  1.2797
 1459TIP3    H2 4384   3.332   2.666   1.533 -2.3814  2.6245 -1.3808
 1460TIP3   OH2 4385   5.809   0.938   0.566  0.2363  0.1442 -0.0272
 1460TIP3    H1 4386   5.896   0.977   0.562 -0.2349  1.3877  0.9476
 1460TIP3    H2 4387   5.801   0.888   0.485  1.2721  1.2769 -0.8661
 1461TIP3   OH2 4388   2.576   3.913   5.025  0.0862 -0.3133 -0.3450
 1461TIP3    H1 4389   2.519   3.978   4.985  2.0156  1.8774  0.2419
 1461TIP3    H2 4390   2.648   3.903   4.963  1.1162  0.1288  0.7394
 1462TIP3   OH2 4391   5.820   5.773   3.776 -0.2928  0.1795  0.2898
 1462TIP3    H1 4392   5.812   5.682   3.805  0.6108  0.0753  0.2652
 1462TIP3    H2 4393   5.730   5.804   3.767 -0.6022 -0.4814  1.0194
 1463TIP3   OH2 4394   1.354   1.682   1.621 -0.2908 -0.3379 -0.1114
 1463TIP3    H1 4395   1.272   1.662   1.577 -0.5278  1.3752 -0.5151
 1463TIP3    H2 4396   1.337   1.663   1.713 -1.2422  0.2427 -0.1546
 1464TIP3   OH2 4397   2.879   4.757   2.136  0.1992  0.4195  0.2782
 1464TIP3    H1 4398   2.856   4.836   2.185  0.0367  0.3797  0.2658
 1464TIP3    H2 4399   2.804   4.699   2.147 -0.0697  0.6161 -0.4569
 1465TIP3   OH2 4400   4.331   0.573   3.379  0.2752 -0.2226 -0.3917
 1465TIP3    H1 4401   4.373   0.515   3.316  1.9296 -0.4688  0.8711
 1465TIP3    H2 4402   4.320   0.519   3.457 -0.3144  0.5165  0.0487
 1466TIP3   OH2 4403   4.275   2.888   2.318 -0.0778 -0.1367  0.4109
 1466TIP3    H1 4404   4.292   2.850   2.232 -0.6499  1.1347 -0.2875
 1466TIP3    H2 4405   4.181   2.882   2.329 -0.0546  0.0934  0.7534
 1467TIP3   OH2 4406   2.349   5.611   1.230 -0.1109  0.0282 -0.5770
 1467TIP3    H1 4407   2.434   5.644   1.259 -0.5569 -0.5249  1.5171
 1467TIP3    H2 4408   2.331   5.660   1.150  2.9908 -1.1612 -2.1466
 1468TIP3   OH2 4409   4.850   0.636   0.488 -0.3468 -0.1344 -0.1156
 1468TIP3    H1 4410   4.808   0.635   0.575  0.2469 -2.1441  0.1927
 1468TIP3    H2 4411   4.787   0.593   0.431 -0.0407 -0.2918 -0.3340
 1469TIP3   OH2 4412   4.264   3.147   4.224 -0.1763 -0.4353 -0.2042
 1469TIP3    H1 4413   4.178   3.113   4.247 -0.7676  0.8572 -0.4229
 1469TIP3    H2 4414   4.279   3.118   4.134 -0.5779 -0.2813 -0.3192
 1470TIP3   OH2 4415   5.722   1.281   3.337 -0.2510  0.3907  0.2501
 1470TIP3    H1 4416   5.702   1.267   3.429 -1.7248  0.5339 -0.0327
 1470TIP3    H2 4417   5.754   1.195   3.307 -0.4957  0.1380  0.7008
 1471TIP3   OH2 4418   0.889   4.437   4.912  0.3920 -0.0642  0.5531
 1471TIP3    H1 4419   0.800   4.407   4.931 -0.8881  2.5447 -0.8637
 1471TIP3    H2 4420   0.917   4.482   4.992 -0.4184  0.9275  0.2901
 1472TIP3   OH2 4421   1.015   1.180   0.163 -0.1116  0.0764 -0.3996
 1472TIP3    H1 4422   1.063   1.142   0.089  0.0311  0.6046 -0.5841
 1472TIP3    H2 4423   0.972   1.105   0.205 -0.2913 -0.2129 -1.0878
 1473TIP3   OH2 4424   5.915   2.087   3.329  0.7083  0.7126  0.3105
 1473TIP3    H1 4425   5.872   2.017   3.377  0.5522  1.3957  1.2003
 1473TIP3    H2 4426   5.921   2.055   3.239 -0.9301  0.2622  0.3237
 1474TIP3   OH2 4427   2.886   1.796   2.449  0.0189  0.3936  0.0445
 1474TIP3    H1 4428   2.927   1.766   2.368 -1.9179 -0.1504 -0.7927
 1474TIP3    H2 4429   2.816   1.854   2.420 -1.2263 -0.4389  1.2718
 1475TIP3   OH2 4430   5.631   5.928   0.995 -0.7038 -0.2478 -0.7419
 1475TIP3    H1 4431   5.649   5.908   1.087  3.5284 -3.6514 -1.9431
 1475TIP3    H2 4432   5.568   5.862   0.968 -1.3540  0.2605 -0.4801
 1476TIP3   OH2 4433   0.478   1.231   3.012 -0.5266  0.2854 -0.2250
 1476TIP3    H1 4434   0.465   1.142   3.043 -0.3220  0.1712 -0.4596
 1476TIP3    H2 4435   0.431   1.286   3.075  0.7729  0.1445  0.9237
 1477TIP3   OH2 4436   2.056   5.923   3.011  0.1507 -0.0355  0.1746
 1477TIP3    H1 4437   2.025   5.885   3.094  0.0786 -2.2664 -0.8018
 1477TIP3    H2 4438   1.979   5.920   2.954  1.0500 -1.7645 -1.0036
 1478TIP3   OH2 4439   2.550   5.510   2.610  0.0700 -0.3384 -0.3694
 1478TIP3    H1 4440   2.616   5.559   2.660  0.7384 -0.4554 -1.1255
 1478TIP3    H2 4441   2.506   5.456   2.675  0.0953  0.4196  0.2955
 1479TIP3   OH2 4442   2.803   1.294   4.054  0.8291 -0.0746  0.4711
 1479TIP3    H1 4443   2.765   1.319   4.138 -1.3103  2.4099 -1.0443
 1479TIP3    H2 4444   2.785   1.201   4.046 -4.4729  0.5998  0.4259
 1480TIP3   OH2 4445   2.247   5.869   2.235 -0.3533 -0.0796 -0.3268
 1480TIP3    H1 4446   2.290   5.863   2.150  1.6529 -1.2003  0.6903
 1480TIP3    H2 4447   2.277   5.792   2.283  0.7055  1.8096  2.2969
 1481TIP3   OH2 4448   0.760   3.209   2.668  0.6930  0.2785  0.2507
 1481TIP3    H1 4449   0.699   3.148   2.709  1.3441  0.6032  1.7681
 1481TIP3    H2 4450   0.731   3.295   2.697  1.0449  0.5406 -0.1573
 1482TIP3   OH2 4451   2.946   4.568   1.454  0.7234 -0.1626  0.1439
 1482TIP3    H1 4452   3.013   4.599   1.515  1.3925  0.1147 -0.7135
 1482TIP3    H2 4453   2.950   4.629   1.381  1.7363 -1.9481 -1.3641
 1483TIP3   OH2 4454   6.245   5.750   4.728  0.0714  0.0112  0.8403
 1483TIP3    H1 4455   6.213   5.764   4.638 -0.3479 -2.3359  0.5762
 1483TIP3    H2 4456   6.191   5.807   4.782  1.0503  2.3103 -0.4500
 1484TIP3   OH2 4457   3.562   1.888   0.567 -0.1355  0.6711 -0.3918
 1484TIP3    H1 4458   3.489   1.826   0.554 -0.5901  0.8205  1.2085
 1484TIP3    H2 4459   3.519   1.971   0.588  0.4413  0.3545  2.3625
 1485TIP3   OH2 4460   0.481   2.136   3.147 -0.1354 -0.1997 -0.6280
 1485TIP3    H1 4461   0.397   2.122   3.191 -0.4235 -1.9380 -1.6474
 1485TIP3    H2 4462   0.507   2.049   3.117  1.8640  0.3635 -0.6568
 1486TIP3   OH2 4463   1.824   0.964   2.280  0.1435 -0.4789 -0.2052
 1486TIP3    H1 4464   1.812   0.995   2.370  1.2391 -0.5210 -0.0301
 1486TIP3    H2 4465   1.913   0.993   2.257 -0.6251  0.7804 -1.7759
 1487TIP3   OH2 4466   2.163   1.333   3.110 -0.4136  0.3943 -0.1432
 1487TIP3    H1 4467   2.069   1.317   3.120 -0.8988  2.2084 -1.2460
 1487TIP3    H2 4468   2.201   1.312   3.195 -1.8567 -0.0678  0.4088
 1488TIP3   OH2 4469   2.942   2.904   4.158 -0.1189  0.0794  0.8426
 1488TIP3    H1 4470   2.984   2.913   4.243  1.4448 -0.6914  0.1920
 1488TIP3    H2 4471   3.015   2.893   4.096 -1.2483 -0.3493 -0.4631
 1489TIP3   OH2 4472   5.244   4.894   4.281  0.1064 -0.6721  0.3851
 1489TIP3    H1 4473   5.184   4.839   4.231 -1.1852  0.4766  0.6107
 1489TIP3    H2 4474   5.312   4.834   4.312 -0.1244 -1.7396 -1.1087
 1490TIP3   OH2 4475   0.710   1.177   0.845  0.1767 -0.4043  0.1665
 1490TIP3    H1 4476   0.726   1.180   0.940 -0.3639 -0.1812  0.2554
 1490TIP3    H2 4477   0.755   1.254   0.811 -1.2769  0.6503  0.5116
 1491TIP3   OH2 4478   6.303   5.344   4.592  0.8880 -0.1360 -0.2700
 1491TIP3    H1 4479   6.317   5.355   4.498 -0.7481 -0.6999 -0.6208
 1491TIP3    H2 4480   6.336   5.424   4.631  0.9402  0.4116 -1.4058
 1492TIP3   OH2 4481   1.791   4.770   3.337  0.0077  0.0788 -0.0410
 1492TIP3    H1 4482   1.757   4.765   3.248  0.5010 -0.2775 -0.2135
 1492TIP3    H2 4483   1.882   4.796   3.327 -0.0276  0.3732  0.3794
 1493TIP3   OH2 4484   1.484   4.883   3.958  0.1196  0.4033 -0.0194
 1493TIP3    H1 4485   1.487   4.862   3.865  1.7994 -0.9294  0.2822
 1493TIP3    H2 4486   1.446   4.805   3.999  1.6292 -0.0220  0.6231
 1494TIP3   OH2 4487   5.070   4.490   4.726  0.0193 -0.3817 -0.8805
 1494TIP3    H1 4488   5.033   4.414   4.772  1.0669  0.3362  1.2510
 1494TIP3    H2 4489   4.994   4.535   4.690 -0.7862 -1.3270 -0.4140
 1495TIP3   OH2 4490   5.769   4.671   1.992  0.0103 -0.0415  0.7145
 1495TIP3    H1 4491   5.675   4.653   1.998  0.3173 -1.8655  0.7082
 1495TIP3    H2 4492   5.793   4.701   2.080 -0.4767 -0.1193  0.8792
 1496TIP3   OH2 4493   0.055   1.933   4.905 -0.6103  0.0586  0.3806
 1496TIP3    H1 4494  -0.025   1.906   4.860 -1.3084  1.1019  0.9520
 1496TIP3    H2 4495   0.103   1.985   4.841 -0.3994 -0.5255  0.0541
 1497TIP3   OH2 4496   5.259   4.528   2.009 -0.4919  0.1982  0.5715
 1497TIP3    H1 4497   5.225   4.575   2.085  0.8442  0.8324  0.8178
 1497TIP3    H2 4498   5.197   4.548   1.939 -1.9267 -0.6603  1.5421
 1498TIP3   OH2 4499   2.754   4.914   5.200 -0.0940  0.2920 -0.6027
 1498TIP3    H1 4500   2.753   4.818   5.202  1.6719  0.2007  2.2822
 1498TIP3    H2 4501   2.698   4.938   5.126 -1.8222 -2.9156 -0.4808
 1499TIP3   OH2 4502   2.439   1.864   3.588 -0.1110  0.3246 -0.3736
 1499TIP3    H1 4503   2.500   1.901   3.524  0.6218 -0.4545 -0.1429
 1499TIP3    H2 4504   2.481   1.783   3.618 -1.8687 -0.9440 -1.1815
 1500TIP3   OH2 4505   0.763   2.398   4.353 -0.2107 -0.5569 -0.1811
 1500TIP3    H1 4506   0.684   2.430   4.310 -0.3645  1.2398  1.2882
 1500TIP3    H2 4507   0.766   2.447   4.436  2.8259 -0.0107 -0.5124
 1501TIP3   OH2 4508   5.430   5.321   2.874 -0.2890 -0.5952 -0.0406
 1501TIP3    H1 4509   5.372   5.351   2.804 -0.5041  1.3176  0.8993
 1501TIP3    H2 4510   5.441   5.397   2.931  1.1079 -1.6525  1.1947
 1502TIP3   OH2 4511   2.623   3.540   1.722 -0.1413 -0.3169  0.3192
 1502TIP3    H1 4512   2.605   3.455   1.764  1.5158 -0.1746  1.4150
 1502TIP3    H2 4513   2.713   3.560   1.748  0.2189  0.8062 -1.6447
 1503TIP3   OH2 4514   1.267   5.103   1.301 -0.0180  0.0145 -0.4692
 1503TIP3    H1 4515   1.275   5.190   1.341 -0.6077  0.2058 -0.7528
 1503TIP3    H2 4516   1.356   5.068   1.303  0.7960  1.6661 -2.7179
 1504TIP3   OH2 4517   5.423   3.309   2.800 -0.0534  1.1090 -0.4900
 1504TIP3    H1 4518   5.361   3.355   2.856 -1.8089  1.2321 -2.4315
 1504TIP3    H2 4519   5.488   3.375   2.777 -0.6708  1.7155 -0.5258
 1505TIP3   OH2 4520   2.657   4.748   0.339  0.3630  0.0750  0.4067
 1505TIP3    H1 4521   2.697   4.662   0.351  1.1690  0.2775 -0.6699
 1505TIP3    H2 4522   2.646   4.782   0.428 -1.0514 -1.5929  0.9286
 1506TIP3   OH2 4523   3.085   5.607   4.312 -0.2695  0.0227  0.4916
 1506TIP3    H1 4524   3.158   5.565   4.267 -0.1619 -0.3048  0.9558
 1506TIP3    H2 4525   3.127   5.660   4.380 -0.4112  0.7931 -0.0110
 1507TIP3   OH2 4526   0.039   1.237   0.613 -0.2247  0.4326  0.0373
 1507TIP3    H1 4527   0.050   1.332   0.615 -0.4750  0.5303 -1.5818
 1507TIP3    H2 4528  -0.040   1.220   0.664  0.9302  0.8595  2.0747
 1508TIP3   OH2 4529   0.854   1.257   3.347 -0.1864 -0.2820 -0.2534
 1508TIP3    H1 4530   0.903   1.219   3.275  0.6673  0.1914  0.0632
 1508TIP3    H2 4531   0.903   1.336   3.371 -0.7242 -0.1673  0.5210
 1509TIP3   OH2 4532   2.599   4.208   3.451  0.0708  1.1305 -0.4130
 1509TIP3    H1 4533   2.569   4.185   3.539  2.5502 -0.0281  0.2070
 1509TIP3    H2 4534   2.612   4.124   3.408  0.8706  1.6224 -1.1598
 1510TIP3   OH2 4535   0.933   5.608   1.762 -0.0727 -0.2388 -0.0926
 1510TIP3    H1 4536   1.018   5.618   1.719 -0.0284 -1.0436 -0.2025
 1510TIP3    H2 4537   0.872   5.658   1.708 -0.0990 -1.5606 -1.3397
 1511TIP3   OH2 4538   3.680   0.368   4.270  0.5819  0.1481  0.2704
 1511TIP3    H1 4539   3.639   0.408   4.193  0.0212  0.0598  0.5193
 1511TIP3    H2 4540   3.769   0.349   4.242  0.5768  0.7165 -0.1518
 1512TIP3   OH2 4541   1.884   5.562   0.294  0.5928 -0.3474 -0.1045
 1512TIP3    H1 4542   1.915   5.560   0.203  0.3676 -0.1623 -0.1858
 1512TIP3    H2 4543   1.879   5.655   0.316 -0.2033 -0.3592 -0.1983
 1513TIP3   OH2 4544   1.860   4.394   1.956 -0.5676 -0.5018  0.3529
 1513TIP3    H1 4545   1.823   4.417   2.042  0.7984 -0.0597  0.8485
 1513TIP3    H2 4546   1.815   4.452   1.895 -2.1440 -1.3767  0.6262
 1514TIP3   OH2 4547   5.441   4.060   4.844  0.2351  0.2824  0.0382
 1514TIP3    H1 4548   5.439   4.052   4.940 -2.0634 -0.6718 -0.0298
 1514TIP3    H2 4549   5.378   4.129   4.825 -0.8163 -0.8911 -0.8623
 1515TIP3   OH2 4550   1.055   1.081   2.966  0.4165 -0.8133 -0.1869
 1515TIP3    H1 4551   0.983   1.023   2.992  1.9063 -2.1525  1.1954
 1515TIP3    H2 4552   1.038   1.163   3.014 -2.2109  0.4044 -2.8717
 1516TIP3   OH2 4553   5.382   1.488   4.350 -0.1354 -0.6382  0.3293
 1516TIP3    H1 4554   5.426   1.521   4.429  3.5055  0.1774 -1.8287
 1516TIP3    H2 4555   5.300   1.451   4.383  0.9283  0.0834  4.4146
 1517TIP3   OH2 4556   2.262   0.847   1.315  0.5372  0.2461 -0.6869
 1517TIP3    H1 4557   2.238   0.831   1.406  2.7182  0.9589  0.0752
 1517TIP3    H2 4558   2.181   0.831   1.266 -0.5826 -0.5937  1.2972
 1518TIP3   OH2 4559   3.890   2.689   3.326 -0.2748  0.0733 -0.8213
 1518TIP3    H1 4560   3.976   2.731   3.327 -0.4692  0.4735 -0.0885
 1518TIP3    H2 4561   3.875   2.667   3.234  0.4148  0.4017 -1.0183
 1519TIP3   OH2 4562   4.510   4.924   3.620  0.3729  0.0584 -0.0793
 1519TIP3    H1 4563   4.588   4.877   3.649  0.4739  0.1870 -0.1413
 1519TIP3    H2 4564   4.464   4.862   3.564  0.0208 -0.2980  0.5922
 1520TIP3   OH2 4565   6.017   2.097   4.710  0.1040  0.2375  0.2799
 1520TIP3    H1 4566   6.034   2.170   4.770 -3.3923  1.4827 -0.0191
 1520TIP3    H2 4567   6.002   2.138   4.625 -1.6009 -0.8051  0.0294
 1521TIP3   OH2 4568   3.407   0.244   1.706  0.4553 -0.3609 -0.1837
 1521TIP3    H1 4569   3.366   0.182   1.646 -0.6332  0.0884  0.0832
 1521TIP3    H2 4570   3.479   0.283   1.655 -0.9865  0.6701 -1.5218
 1522TIP3   OH2 4571   4.093   0.611   3.749 -0.6804  0.0611  0.3458
 1522TIP3    H1 4572   4.182   0.594   3.782 -0.8342 -3.1359 -0.4690
 1522TIP3    H2 4573   4.104   0.620   3.655 -1.2986 -2.1141  0.0045
 1523TIP3   OH2 4574   0.044   5.681   4.190 -0.4316  0.2471  0.2422
 1523TIP3    H1 4575   0.104   5.709   4.120 -0.8415 -1.8798 -1.0539
 1523TIP3    H2 4576  -0.043   5.699   4.155 -0.6307  0.8432  1.0073
 1524TIP3   OH2 4577   5.297   0.611   4.733  0.0731  0.2414 -0.3707
 1524TIP3    H1 4578   5.226   0.547   4.732  0.3399 -0.1009  0.7772
 1524TIP3    H2 4579   5.305   0.640   4.642  0.3873 -1.8604 -1.0608
 1525TIP3   OH2 4580   2.110   3.914   3.359 -0.2253  0.5185 -0.9104
 1525TIP3    H1 4581   2.199   3.881   3.349 -0.4770 -0.6188  0.1945
 1525TIP3    H2 4582   2.055   3.841   3.329 -0.7959  0.0008  1.2306
 1526TIP3   OH2 4583   3.647   0.001   3.282 -0.1815  0.0429 -0.3685
 1526TIP3    H1 4584   3.682   0.090   3.286  0.7858 -0.3776  0.7478
 1526TIP3    H2 4585   3.685  -0.044   3.357 -1.3996 -1.0612 -0.3815
 1527TIP3   OH2 4586   6.073   3.822   4.427 -0.3137 -0.8227  0.0626
 1527TIP3    H1 4587   6.038   3.900   4.470 -0.9155 -1.5342  0.8963
 1527TIP3    H2 4588   6.103   3.853   4.342  1.9979  0.8910  1.3920
 1528TIP3   OH2 4589   2.657   0.943   2.029  0.9024  0.0965 -0.0705
 1528TIP3    H1 4590   2.633   1.000   1.956  0.1757 -0.6347 -0.4141
 1528TIP3    H2 4591   2.689   1.003   2.096  4.6086  0.6158 -2.0539
 1529TIP3   OH2 4592   5.979   5.647   3.577  0.2127 -0.0416 -0.1736
 1529TIP3    H1 4593   5.931   5.667   3.497 -0.5968  0.0737  0.3353
 1529TIP3    H2 4594   5.943   5.707   3.642  1.1909  0.1916  0.1748
 1530TIP3   OH2 4595   3.296   5.298   2.980  0.4861 -0.1990  0.3665
 1530TIP3    H1 4596   3.337   5.269   3.061  1.8774 -2.0272 -0.8836
 1530TIP3    H2 4597   3.223   5.237   2.966  1.0485 -0.7261 -0.3644
 1531TIP3   OH2 4598   2.154   5.236   0.178  0.1514 -0.0117 -0.1927
 1531TIP3    H1 4599   2.243   5.234   0.143  0.2945 -0.5128  0.1866
 1531TIP3    H2 4600   2.160   5.293   0.255  1.1647 -3.3311  2.4433
 1532TIP3   OH2 4601   5.018   3.888   3.075  0.3927  0.4263 -0.4194
 1532TIP3    H1 4602   5.068   3.834   3.136  0.7802  1.4700  0.2223
 1532TIP3    H2 4603   5.052   3.865   2.989  0.5619 -0.3224 -0.1621
 1533TIP3   OH2 4604   1.990   1.742   0.239  0.0139  0.4040 -0.2847
 1533TIP3    H1 4605   2.017   1.817   0.186 -0.9662  0.1625 -1.1653
 1533TIP3    H2 4606   1.902   1.720   0.207 -0.4083 -0.0764  1.1006
 1534TIP3   OH2 4607   4.578   2.620   1.934 -0.1660 -0.0698  0.1073
 1534TIP3    H1 4608   4.605   2.709   1.956 -0.1668 -0.1999  0.6517
 1534TIP3    H2 4609   4.526   2.629   1.855  1.6451  0.1817 -1.1226
 1535TIP3   OH2 4610   0.654   3.373   4.214  0.3905  0.2422 -0.5484
 1535TIP3    H1 4611   0.665   3.382   4.309  1.8559 -0.0017 -0.6699
 1535TIP3    H2 4612   0.618   3.285   4.203 -0.4393  0.5248 -0.1912
 1536TIP3   OH2 4613   1.730   4.564   1.797 -0.3253  0.3141 -0.1969
 1536TIP3    H1 4614   1.706   4.611   1.718 -1.5632 -1.6610 -1.0747
 1536TIP3    H2 4615   1.669   4.596   1.864 -1.9007 -0.7296 -1.0546
 1537TIP3   OH2 4616   6.243   4.656   1.173  0.4322 -0.1069 -0.4493
 1537TIP3    H1 4617   6.293   4.712   1.232  0.0477 -0.7222  0.4682
 1537TIP3    H2 4618   6.167   4.629   1.224 -0.0566 -0.4181 -1.3211
 1538TIP3   OH2 4619   2.538   2.219   5.089 -0.0951  0.0472  0.3817
 1538TIP3    H1 4620   2.483   2.298   5.085 -0.5206 -0.2656 -0.0686
 1538TIP3    H2 4621   2.487   2.152   5.044  0.5418 -0.3298  0.2103
 1539TIP3   OH2 4622   0.407   2.790   3.901 -0.2741  0.0704  0.2056
 1539TIP3    H1 4623   0.375   2.732   3.832 -1.5805  0.4675  0.4427
 1539TIP3    H2 4624   0.496   2.760   3.919 -1.2304 -2.5205  1.0271
 1540TIP3   OH2 4625   5.328   5.945   4.211 -0.5044  0.1868  0.3076
 1540TIP3    H1 4626   5.326   5.996   4.130  0.2167 -0.2145  0.0269
 1540TIP3    H2 4627   5.322   6.011   4.281 -2.1502  0.4656 -0.0603
 1541TIP3   OH2 4628   1.933   3.695   3.286  0.4209 -0.1757 -0.4293
 1541TIP3    H1 4629   1.963   3.648   3.209  2.6872 -1.1290  0.9436
 1541TIP3    H2 4630   1.945   3.634   3.358 -1.8274  0.6070  0.7072
 1542TIP3   OH2 4631   0.597   1.824   1.675 -0.2798  0.3541 -0.0642
 1542TIP3    H1 4632   0.587   1.911   1.713 -0.0949  1.0746 -1.5720
 1542TIP3    H2 4633   0.547   1.766   1.732 -0.7127  1.5106  0.7578
 1543TIP3   OH2 4634   4.924   2.679   2.605 -0.8738 -0.1811  0.3417
 1543TIP3    H1 4635   4.929   2.692   2.699 -1.7002 -0.9582  0.5053
 1543TIP3    H2 4636   5.015   2.680   2.575 -0.6088  0.0153  1.1472
 1544TIP3   OH2 4637   5.955   1.039   1.223  0.2248 -0.4613 -0.0563
 1544TIP3    H1 4638   5.955   0.944   1.221  0.7099 -0.4620 -0.3617
 1544TIP3    H2 4639   5.979   1.065   1.134 -1.1065 -0.0325 -0.3106
 1545TIP3   OH2 4640   2.023   0.613   2.586 -0.2063 -0.2854 -0.1608
 1545TIP3    H1 4641   1.928   0.613   2.570 -0.1667  1.5236 -0.5512
 1545TIP3    H2 4642   2.037   0.539   2.645 -1.7060 -1.2387 -0.9341
 1546TIP3   OH2 4643   1.396   5.554   0.824  0.0410 -0.7797  0.4830
 1546TIP3    H1 4644   1.395   5.487   0.892  0.6908 -2.7927 -1.3835
 1546TIP3    H2 4645   1.440   5.513   0.750 -3.0851  0.2111 -2.1980
 1547TIP3   OH2 4646   3.385   4.694   2.896  0.0192 -0.4932 -0.1815
 1547TIP3    H1 4647   3.395   4.708   2.801  1.3217 -1.0002 -0.1498
 1547TIP3    H2 4648   3.300   4.653   2.906 -0.0762 -0.5533 -1.1527
 1548TIP3   OH2 4649   3.061   4.761   3.852 -0.3418  0.0033 -0.2760
 1548TIP3    H1 4650   3.076   4.671   3.879  0.6804 -0.7559 -3.0541
 1548TIP3    H2 4651   3.143   4.806   3.872 -1.3670  0.8740  2.6206
 1549TIP3   OH2 4652   1.091   1.229   2.548  0.0952 -0.0341 -0.3079
 1549TIP3    H1 4653   1.119   1.144   2.516  2.3344  0.2584  0.7110
 1549TIP3    H2 4654   1.010   1.247   2.501 -0.1546 -2.4718 -0.9316
 1550TIP3   OH2 4655   0.069   3.850   3.888  0.5720  0.7021  0.0753
 1550TIP3    H1 4656   0.104   3.769   3.851 -0.3977  0.0953  0.4684
 1550TIP3    H2 4657   0.147   3.899   3.916  1.1354 -0.3575  0.4006
 1551TIP3   OH2 4658   5.276   1.172   0.523 -0.0728  0.7180  0.0836
 1551TIP3    H1 4659   5.209   1.191   0.589  0.0555 -0.1491  0.4644
 1551TIP3    H2 4660   5.359   1.187   0.568  0.0101  1.1599 -0.2027
 1552TIP3   OH2 4661   1.763   3.539   4.161  0.6497 -0.1333 -0.5965
 1552TIP3    H1 4662   1.752   3.477   4.090 -0.9252  0.1648 -0.6634
 1552TIP3    H2 4663   1.717   3.618   4.132  2.5330  1.0802 -0.4891
 1553TIP3   OH2 4664   4.200   2.641   4.258 -0.0276 -0.3776  0.7129
 1553TIP3    H1 4665   4.160   2.657   4.172 -0.8085 -0.2654  1.0944
 1553TIP3    H2 4666   4.261   2.714   4.269  0.7412 -0.8672 -0.1270
 1554TIP3   OH2 4667   4.360   3.676   0.521  0.1666  0.0453 -0.1846
 1554TIP3    H1 4668   4.266   3.679   0.503 -0.5268 -2.7637  2.1005
 1554TIP3    H2 4669   4.398   3.631   0.446 -0.2223  1.3956 -1.2273
 1555TIP3   OH2 4670   2.323   5.804   2.883 -0.3989  0.2586  0.5573
 1555TIP3    H1 4671   2.258   5.874   2.893 -0.8090 -0.0892  0.3897
 1555TIP3    H2 4672   2.301   5.764   2.798 -0.4529 -0.3614  0.8618
 1556TIP3   OH2 4673   4.750   2.948   2.734  0.1295 -0.2471  0.2371
 1556TIP3    H1 4674   4.817   2.924   2.798  2.1066  1.1379 -1.1405
 1556TIP3    H2 4675   4.704   2.867   2.715  0.8659 -1.0918  1.8844
 1557TIP3   OH2 4676   0.390   1.862   3.248 -0.0530  0.2301 -0.1396
 1557TIP3    H1 4677   0.396   1.772   3.216  1.8764  0.4621 -0.5712
 1557TIP3    H2 4678   0.431   1.860   3.334 -1.0151  0.5053  0.3421
 1558TIP3   OH2 4679   0.380   3.110   4.977 -0.6785 -0.1243 -0.7790
 1558TIP3    H1 4680   0.357   3.147   5.062 -0.5708 -0.6210 -0.5245
 1558TIP3    H2 4681   0.432   3.177   4.934 -0.8452  0.1818 -0.5038
 1559TIP3   OH2 4682   0.944   2.790   4.347 -0.0601 -0.2575 -0.4002
 1559TIP3    H1 4683   1.027   2.835   4.358 -0.8316  1.2247 -0.3707
 1559TIP3    H2 4684   0.967   2.704   4.313  1.5302 -0.2083  0.4626
 1560TIP3   OH2 4685   1.774   0.204   4.631  0.3240  0.3664  0.3441
 1560TIP3    H1 4686   1.750   0.111   4.637 -0.6251  0.6711  1.8068
 1560TIP3    H2 4687   1.778   0.234   4.721  0.0750  1.8862 -0.1086
 1561TIP3   OH2 4688   3.804   5.397   3.902  0.2489 -0.1804  0.3178
 1561TIP3    H1 4689   3.872   5.334   3.879 -2.3033 -2.9429 -0.1933
 1561TIP3    H2 4690   3.818   5.470   3.841  2.2403 -0.9823 -0.2646
 1562TIP3   OH2 4691   4.734   1.242   4.409  0.4326 -0.1057 -0.2410
 1562TIP3    H1 4692   4.648   1.208   4.383 -0.3587 -0.2742  2.3015
 1562TIP3    H2 4693   4.755   1.307   4.342  0.0663 -2.5791 -2.9399
 1563TIP3   OH2 4694   5.464   2.816   3.660  0.0451  0.1495 -0.4065
 1563TIP3    H1 4695   5.538   2.810   3.720 -0.3091 -0.5324 -0.0254
 1563TIP3    H2 4696   5.387   2.804   3.715 -0.4353  1.8818 -0.6269
 1564TIP3   OH2 4697   5.423   0.380   4.146  0.7818  0.4462  0.0570
 1564TIP3    H1 4698   5.507   0.364   4.102  1.1623  0.9563  0.5695
 1564TIP3    H2 4699   5.421   0.317   4.217 -0.6219 -1.5759 -1.6406
 1565TIP3   OH2 4700   3.354   5.487   4.370  0.3723 -0.1637  0.3537
 1565TIP3    H1 4701   3.399   5.414   4.327 -2.3054 -0.2803 -2.6845
 1565TIP3    H2 4702   3.310   5.447   4.445 -1.1541 -1.8259 -1.3210
 1566TIP3   OH2 4703   1.637   0.839   0.521  0.6984  0.2031 -0.3404
 1566TIP3    H1 4704   1.707   0.843   0.456  0.2781 -0.0473 -0.8160
 1566TIP3    H2 4705   1.561   0.876   0.476  1.0720  2.7234  0.9324
 1567TIP3   OH2 4706   2.327   4.728   4.800 -0.5796  0.3080  0.2056
 1567TIP3    H1 4707   2.298   4.799   4.742 -0.2574 -0.4946 -0.9820
 1567TIP3    H2 4708   2.419   4.749   4.819 -0.6696  0.5418  0.3877
 1568TIP3   OH2 4709   4.080   4.784   1.652 -0.3027 -0.2805  0.4057
 1568TIP3    H1 4710   4.145   4.732   1.605 -0.3757  1.6561 -2.0726
 1568TIP3    H2 4711   4.125   4.867   1.671 -1.7728  0.8525 -0.7888
 1569TIP3   OH2 4712   4.273   1.201   2.010 -0.3337  0.0156  0.2193
 1569TIP3    H1 4713   4.289   1.193   2.104  0.3473  0.3874  0.1507
 1569TIP3    H2 4714   4.178   1.206   2.001 -0.5217 -1.9259  0.7095
 1570TIP3   OH2 4715   3.705   4.218   0.751  0.8675  0.0611  0.3270
 1570TIP3    H1 4716   3.784   4.191   0.703  0.3041  0.0081 -0.5782
 1570TIP3    H2 4717   3.665   4.285   0.696  0.7778  0.7943  1.2479
 1571TIP3   OH2 4718   5.362   4.542   4.986 -0.0438  0.0477 -0.4869
 1571TIP3    H1 4719   5.348   4.551   5.080 -2.0972  0.9415 -0.8200
 1571TIP3    H2 4720   5.351   4.631   4.952 -0.0650 -0.3889 -1.6504
 1572TIP3   OH2 4721   2.540   1.630   3.987 -0.7443 -0.1941  0.1925
 1572TIP3    H1 4722   2.622   1.598   4.025  0.1464  0.1394 -1.3816
 1572TIP3    H2 4723   2.568   1.688   3.917 -2.3497  0.3720  0.0037
 1573TIP3   OH2 4724   5.939   0.928   2.137 -0.6688  0.0453 -0.1792
 1573TIP3    H1 4725   5.997   0.888   2.202 -0.1240 -0.9941 -1.2679
 1573TIP3    H2 4726   5.851   0.900   2.164 -0.6435  1.1760  1.1612
 1574TIP3   OH2 4727   6.062   0.155   0.891 -0.0343 -0.2210  0.0084
 1574TIP3    H1 4728   6.032   0.220   0.827 -1.0053 -1.4409 -0.8308
 1574TIP3    H2 4729   5.988   0.094   0.900  0.3042 -0.4034  1.8842
 1575TIP3   OH2 4730   1.585   3.697   4.029 -0.1807 -0.2560  0.3036
 1575TIP3    H1 4731   1.595   3.783   4.069  0.2811  1.4475 -3.1305
 1575TIP3    H2 4732   1.491   3.681   4.032 -0.3734  0.7716  0.2753
 1576TIP3   OH2 4733   4.679   4.058   2.776 -0.1853 -0.1965  0.0445
 1576TIP3    H1 4734   4.666   3.984   2.718  0.0223  0.6474 -1.1078
 1576TIP3    H2 4735   4.622   4.127   2.741  2.4165  1.4543 -1.2435
 1577TIP3   OH2 4736   2.976   3.984   1.180  0.0902 -0.2280 -0.2932
 1577TIP3    H1 4737   3.058   3.936   1.172  0.2827 -0.3017  1.6279
 1577TIP3    H2 4738   2.958   3.986   1.275 -1.9722  0.0233 -0.6321
 1578TIP3   OH2 4739   3.476   0.688   3.252 -0.3960 -0.2448  0.0339
 1578TIP3    H1 4740   3.399   0.684   3.309  0.0085  0.4303  0.6537
 1578TIP3    H2 4741   3.550   0.673   3.312  0.0789  1.0600 -0.1963
 1579TIP3   OH2 4742   0.496   3.571   0.310 -0.1035 -0.4431  0.2031
 1579TIP3    H1 4743   0.425   3.539   0.253 -0.2173  0.5826 -0.2702
 1579TIP3    H2 4744   0.455   3.640   0.362 -0.1774 -1.8183  2.0792
 1580TIP3   OH2 4745   5.583   5.623   0.976  0.0345  0.3702  0.0647
 1580TIP3    H1 4746   5.520   5.552   0.964 -1.3285  1.5205  0.2671
 1580TIP3    H2 4747   5.607   5.619   1.068 -0.3599  0.4238  0.1708
 1581TIP3   OH2 4748   3.310   2.048   3.916  0.1105 -0.0943 -0.2753
 1581TIP3    H1 4749   3.338   2.090   3.835 -0.2229  0.1032 -0.2922
 1581TIP3    H2 4750   3.227   2.091   3.937 -0.1458 -0.6210 -0.1946
 1582TIP3   OH2 4751   4.373   2.735   0.637 -0.0614  0.3008 -0.4782
 1582TIP3    H1 4752   4.439   2.674   0.671 -0.1750 -0.5966 -1.7736
 1582TIP3    H2 4753   4.290   2.701   0.670  0.0448  1.0522  0.6115
 1583TIP3   OH2 4754   2.114   2.577   3.053  0.0109 -0.2854 -0.5362
 1583TIP3    H1 4755   2.076   2.491   3.070 -0.3996 -0.3299 -1.6323
 1583TIP3    H2 4756   2.206   2.559   3.032 -0.2952 -0.5741 -1.7173
 1584TIP3   OH2 4757   5.277   0.680   3.599  0.3556  0.1802 -0.3778
 1584TIP3    H1 4758   5.237   0.718   3.521 -0.6061 -0.2335 -0.1058
 1584TIP3    H2 4759   5.284   0.586   3.579 -0.5162 -0.0415  0.2661
 1585TIP3   OH2 4760   1.937   0.063   0.793  0.4753  0.2382  0.1488
 1585TIP3    H1 4761   1.968   0.136   0.739 -0.7244  0.5659 -0.1238
 1585TIP3    H2 4762   1.873   0.103   0.852 -1.1699 -0.7910 -0.8710
 1586TIP3   OH2 4763   2.741   1.651   0.656  0.2429 -0.4186 -0.3240
 1586TIP3    H1 4764   2.675   1.719   0.640  1.0023 -0.1160 -2.4980
 1586TIP3    H2 4765   2.821   1.700   0.676  0.4389 -0.7117 -0.3954
 1587TIP3   OH2 4766   2.663   4.785   4.575  0.3277  0.1561  0.2711
 1587TIP3    H1 4767   2.618   4.868   4.591 -0.1932 -0.1727  0.5815
 1587TIP3    H2 4768   2.641   4.762   4.485  2.5446  1.5816 -0.7025
 1588TIP3   OH2 4769   4.512   1.466   0.439  0.0087 -0.1598  0.3554
 1588TIP3    H1 4770   4.523   1.373   0.461 -1.5522 -0.3821  0.3271
 1588TIP3    H2 4771   4.495   1.508   0.523  2.9034  0.5311  0.7003
 1589TIP3   OH2 4772   6.020   5.444   4.576  0.4187  0.4868  0.5129
 1589TIP3    H1 4773   6.105   5.439   4.531  0.8839  0.1262  1.4058
 1589TIP3    H2 4774   5.976   5.362   4.554  0.1692  0.7889 -0.1722
 1590TIP3   OH2 4775   5.687   4.448   4.277 -0.1134 -0.1363  0.3040
 1590TIP3    H1 4776   5.748   4.413   4.212 -2.1348  0.3194 -1.9546
 1590TIP3    H2 4777   5.740   4.459   4.356  2.0283 -2.4079 -0.6934
 1591TIP3   OH2 4778   4.164   5.953   0.054 -0.4065  0.1761  0.2327
 1591TIP3    H1 4779   4.094   5.981  -0.006  0.0912  0.4483 -0.2359
 1591TIP3    H2 4780   4.172   5.859   0.039  1.6084  0.6340 -2.2480
 1592TIP3   OH2 4781   3.092   0.445   3.938 -0.2643 -0.2432  0.5848
 1592TIP3    H1 4782   3.133   0.366   3.902  1.0336 -1.1146  3.6323
 1592TIP3    H2 4783   3.081   0.503   3.862  1.0765 -2.3437 -1.3625
 1593TIP3   OH2 4784   3.182   2.167   5.130 -0.0599 -0.2232  0.6190
 1593TIP3    H1 4785   3.106   2.134   5.178 -0.2485  0.4803  0.8069
 1593TIP3    H2 4786   3.162   2.259   5.113 -0.0826 -0.4759 -0.9500
 1594TIP3   OH2 4787   3.453   0.278   4.385  0.1547 -0.2741  0.7234
 1594TIP3    H1 4788   3.472   0.185   4.373  2.1774  0.1746  0.0950
 1594TIP3    H2 4789   3.523   0.323   4.337 -0.9427  1.5787  0.7711
 1595TIP3   OH2 4790   3.042   0.025   3.608 -0.1792  0.7691  0.7263
 1595TIP3    H1 4791   2.981   0.059   3.673 -1.6076 -0.4229  0.0700
 1595TIP3    H2 4792   3.028   0.079   3.531 -0.1900  0.6864  0.6698
 1596TIP3   OH2 4793   3.953   1.133   4.176  0.2480 -0.5621  0.1490
 1596TIP3    H1 4794   3.923   1.049   4.212 -0.9818 -0.0269  0.4306
 1596TIP3    H2 4795   3.925   1.130   4.084  0.4626 -0.5769  0.0844
 1597TIP3   OH2 4796   1.173   0.824   3.324  0.6615 -0.9716 -0.2293
 1597TIP3    H1 4797   1.084   0.852   3.301 -0.4025 -2.6610  1.4994
 1597TIP3    H2 4798   1.169   0.729   3.323  2.6614 -1.0949 -0.6738
 1598TIP3   OH2 4799   0.982   1.317   3.654  0.2781  0.3388 -0.4459
 1598TIP3    H1 4800   1.026   1.247   3.605  0.1452  1.2226 -1.8613
 1598TIP3    H2 4801   0.966   1.279   3.740  0.8569 -1.1333 -0.9606
 1599TIP3   OH2 4802   4.497   5.840   2.982  0.3887 -0.4467  0.0316
 1599TIP3    H1 4803   4.440   5.769   2.954  0.1489  0.0485 -0.7783
 1599TIP3    H2 4804   4.546   5.865   2.904 -1.7618  2.3336 -0.6160
 1600TIP3   OH2 4805   5.029   3.372   0.860 -0.3903  0.4480 -0.6018
 1600TIP3    H1 4806   4.953   3.409   0.816  0.6367  0.9368 -2.0562
 1600TIP3    H2 4807   5.099   3.376   0.794  1.0305  0.5193  0.8536
 1601TIP3   OH2 4808   2.345   3.835   3.279 -0.0184 -0.0394 -0.3480
 1601TIP3    H1 4809   2.411   3.769   3.300 -1.0178 -1.3132 -1.0242
 1601TIP3    H2 4810   2.322   3.817   3.187 -1.5841  0.1056 -0.0115
 1602TIP3   OH2 4811   1.298   5.962   5.111  0.7078  0.0711 -0.3007
 1602TIP3    H1 4812   1.215   5.916   5.099  0.0915  1.2089 -0.5344
 1602TIP3    H2 4813   1.332   5.974   5.023  0.6412  0.4517 -0.2764
 1603TIP3   OH2 4814   0.522   5.773   0.206 -0.1979 -0.3087 -0.6819
 1603TIP3    H1 4815   0.567   5.823   0.139 -0.3947 -0.9675 -1.3286
 1603TIP3    H2 4816   0.467   5.837   0.252  2.7430  0.9060  1.4094
 1604TIP3   OH2 4817   4.495   2.623   3.339  1.0203  0.6052  0.5114
 1604TIP3    H1 4818   4.529   2.542   3.377 -0.0631 -0.4840 -0.7724
 1604TIP3    H2 4819   4.492   2.606   3.245 -0.2564  1.7322  0.3206
 1605TIP3   OH2 4820   3.429   5.517   0.218  0.5901 -0.1238  0.2333
 1605TIP3    H1 4821   3.504   5.498   0.161  1.1533  0.9760  0.5724
 1605TIP3    H2 4822   3.362   5.551   0.159  0.7599 -0.0653  0.0719
 1606TIP3   OH2 4823   0.563   5.075   4.350  0.0474 -0.2979 -0.2357
 1606TIP3    H1 4824   0.629   5.140   4.371  0.2670 -0.1703 -1.2384
 1606TIP3    H2 4825   0.523   5.107   4.269 -0.8276 -0.6779  0.0341
 1607TIP3   OH2 4826   3.874   1.822   1.980  0.0784 -0.3080  0.3683
 1607TIP3    H1 4827   3.858   1.812   2.073  4.5965  0.9175  1.4994
 1607TIP3    H2 4828   3.914   1.739   1.953  1.3437  0.3391  0.2178
 1608TIP3   OH2 4829   0.461   4.155   3.944 -0.1651  0.5724  1.2677
 1608TIP3    H1 4830   0.469   4.126   3.854  0.1248  1.2453  1.0659
 1608TIP3    H2 4831   0.504   4.087   3.996  1.9623  1.3781  0.6740
 1609TIP3   OH2 4832   4.866   4.880   4.435  0.6730  0.3291 -0.1414
 1609TIP3    H1 4833   4.841   4.800   4.388 -0.5476  1.2684 -1.1445
 1609TIP3    H2 4834   4.906   4.936   4.368  0.1578  1.1493  0.2191
 1610TIP3   OH2 4835   3.812   4.553   4.818  0.0961  0.3882 -0.7838
 1610TIP3    H1 4836   3.757   4.475   4.827 -1.2317  1.3290 -0.5797
 1610TIP3    H2 4837   3.810   4.573   4.724 -1.1097  1.2563 -0.5863
 1611TIP3   OH2 4838   3.184   0.278   4.353 -0.7391 -0.3916 -0.3453
 1611TIP3    H1 4839   3.274   0.287   4.383 -1.5004 -0.4399  2.2090
 1611TIP3    H2 4840   3.189   0.222   4.276  1.4896  0.4275 -0.8498
 1612TIP3   OH2 4841   0.063   3.434   2.168 -0.4953  0.1095 -0.1704
 1612TIP3    H1 4842   0.128   3.379   2.125  0.0824 -0.6019  1.5420
 1612TIP3    H2 4843  -0.021   3.397   2.142 -0.2170  0.3496 -1.5002
 1613TIP3   OH2 4844   1.427   4.890   2.957  0.0566  0.5836 -0.4140
 1613TIP3    H1 4845   1.366   4.822   2.984  1.6235  0.3239  2.9638
 1613TIP3    H2 4846   1.381   4.972   2.974 -0.1925  0.3766 -0.0868
 1614TIP3   OH2 4847   5.254   1.784   0.970 -0.9876  0.3133  0.1352
 1614TIP3    H1 4848   5.212   1.702   0.944  0.0378  0.0033 -0.6002
 1614TIP3    H2 4849   5.297   1.764   1.053  0.6787 -0.4163 -0.8538
 1615TIP3   OH2 4850   2.960   4.662   2.986 -0.5101 -0.4867 -0.0183
 1615TIP3    H1 4851   2.914   4.593   3.034  3.0144 -2.4227  0.9431
 1615TIP3    H2 4852   3.024   4.615   2.933  0.4158  1.9982 -1.2381
 1616TIP3   OH2 4853   1.497   3.139   2.954 -0.8207  0.1016 -0.0644
 1616TIP3    H1 4854   1.499   3.149   2.859  0.6676  0.0223 -0.0641
 1616TIP3    H2 4855   1.430   3.073   2.970 -3.4100  2.3681 -0.7994
 1617TIP3   OH2 4856   5.555   1.068   0.575 -0.1911 -0.1698 -0.3091
 1617TIP3    H1 4857   5.640   1.040   0.541 -0.4024 -0.0734 -0.9244
 1617TIP3    H2 4858   5.550   1.029   0.662  1.4946  1.7448  0.7202
 1618TIP3   OH2 4859   4.155   3.385   2.850  0.0861 -0.5097  0.0976
 1618TIP3    H1 4860   4.209   3.464   2.840 -0.0524 -0.5511 -1.1645
 1618TIP3    H2 4861   4.102   3.383   2.770  0.8760 -2.4719 -0.4362
 1619TIP3   OH2 4862   2.105   2.996   4.261  0.4259  0.4078  0.3270
 1619TIP3    H1 4863   2.146   2.935   4.201  1.7135 -0.3805  1.9279
 1619TIP3    H2 4864   2.174   3.018   4.324 -1.4933 -0.8729  3.0860
 1620TIP3   OH2 4865   5.354   2.341   4.246  0.1209  0.0141  0.6093
 1620TIP3    H1 4866   5.353   2.388   4.330 -1.3172  1.1487 -0.0050
 1620TIP3    H2 4867   5.261   2.330   4.224  0.4651  0.9596 -1.4953
 1621TIP3   OH2 4868   5.089   0.238   2.891  0.6053  0.0508  0.2065
 1621TIP3    H1 4869   5.142   0.185   2.951 -1.0277 -3.0829 -0.8466
 1621TIP3    H2 4870   5.116   0.210   2.804 -1.1972 -0.0589 -0.3666
 1622TIP3   OH2 4871   0.179   5.896   2.730 -0.5041  0.2614  0.3200
 1622TIP3    H1 4872   0.238   5.877   2.802  0.8414  0.8664 -0.5788
 1622TIP3    H2 4873   0.163   5.812   2.688 -1.2912 -0.0925  1.2925
 1623TIP3   OH2 4874   4.956   2.674   4.601 -0.0918  0.2156 -0.0365
 1623TIP3    H1 4875   4.898   2.601   4.580 -0.6985 -0.0178  2.1155
 1623TIP3    H2 4876   4.899   2.751   4.597 -0.4411  0.0725  1.3398
 1624TIP3   OH2 4877   2.678   3.439   4.467 -0.2411  0.8224  0.0148
 1624TIP3    H1 4878   2.625   3.499   4.415  0.4745  2.1287  0.7574
 1624TIP3    H2 4879   2.689   3.362   4.410 -0.7957  1.5602 -1.1290
 1625TIP3   OH2 4880   0.954   3.814   1.141  0.3485  0.5355 -0.1317
 1625TIP3    H1 4881   0.918   3.758   1.210 -0.6518  0.4931 -0.6591
 1625TIP3    H2 4882   0.949   3.760   1.062  1.5994  0.5392 -0.2288
 1626TIP3   OH2 4883   3.645   0.546   2.382  0.2881  0.0343 -0.1704
 1626TIP3    H1 4884   3.723   0.528   2.330  1.5379  0.0079  1.6467
 1626TIP3    H2 4885   3.662   0.505   2.467 -2.3141 -1.1877 -0.1535
 1627TIP3   OH2 4886   5.149   2.461   3.799  0.1588  0.3276  0.0714
 1627TIP3    H1 4887   5.116   2.463   3.709 -2.1461  1.0026  0.8791
 1627TIP3    H2 4888   5.204   2.540   3.806  0.5833  0.1223 -0.7994
 1628TIP3   OH2 4889   2.304   0.968   0.988  0.5166  0.7161 -0.0730
 1628TIP3    H1 4890   2.244   1.041   0.975 -0.5509 -0.0270  0.5354
 1628TIP3    H2 4891   2.341   0.951   0.901  0.4904  1.7193 -0.2923
 1629TIP3   OH2 4892   0.929   4.239   1.105 -0.3381  0.1539 -0.0319
 1629TIP3    H1 4893   1.020   4.255   1.080  0.1905  2.1026  2.6645
 1629TIP3    H2 4894   0.878   4.262   1.028  1.3257  1.8713 -0.6927
 1630TIP3   OH2 4895   5.938   4.786   4.392 -0.5376  0.5061 -0.5244
 1630TIP3    H1 4896   5.875   4.767   4.460 -1.0591  0.4276 -1.0213
 1630TIP3    H2 4897   5.994   4.854   4.429 -0.1072 -0.3291  0.3946
 1631TIP3   OH2 4898   2.916   4.543   2.363  0.3594 -0.0277 -0.0226
 1631TIP3    H1 4899   2.851   4.570   2.297  0.6112 -0.0438 -0.2801
 1631TIP3    H2 4900   2.974   4.483   2.316 -0.7687 -1.8200  0.7992
 1632TIP3   OH2 4901   1.859   1.032   2.840 -0.6788 -0.0036 -0.1182
 1632TIP3    H1 4902   1.802   1.099   2.878 -0.5966  0.9656 -1.6134
 1632TIP3    H2 4903   1.939   1.079   2.817  0.7832 -1.3413  1.9440
 1633TIP3   OH2 4904   3.267   0.024   1.164 -0.4188  0.2070 -0.2318
 1633TIP3    H1 4905   3.272   0.110   1.123 -0.6359  0.1938 -0.2904
 1633TIP3    H2 4906   3.357  -0.007   1.168 -0.4428 -0.0163 -1.1847
 1634TIP3   OH2 4907   3.392   3.377   3.504  0.1351  0.4985 -0.3463
 1634TIP3    H1 4908   3.468   3.425   3.538  0.1365  0.7113 -0.6543
 1634TIP3    H2 4909   3.385   3.404   3.413 -0.5295  0.7528 -0.2263
 1635TIP3   OH2 4910   1.901   3.863   4.010  0.3627 -0.4874 -0.0683
 1635TIP3    H1 4911   1.943   3.844   4.093 -0.3158  0.5675  0.5402
 1635TIP3    H2 4912   1.896   3.778   3.965  3.0300 -0.6903 -0.1573
 1636TIP3   OH2 4913   0.687   3.615   0.092 -0.2089 -0.0093 -0.1181
 1636TIP3    H1 4914   0.618   3.607   0.159 -0.8286  2.6831 -0.3357
 1636TIP3    H2 4915   0.768   3.627   0.142 -0.2669 -0.5970  0.1289
 1637TIP3   OH2 4916   3.485   1.738   5.040  0.5039 -0.0339 -0.4011
 1637TIP3    H1 4917   3.478   1.795   5.117  1.8826  1.6192 -1.4316
 1637TIP3    H2 4918   3.565   1.768   4.996  1.6339 -3.1500 -0.7262
 1638TIP3   OH2 4919   1.900   2.819   2.125  0.5328 -0.2081 -0.1610
 1638TIP3    H1 4920   1.949   2.896   2.153  0.2855  0.2647 -1.0146
 1638TIP3    H2 4921   1.966   2.760   2.088  0.6693 -0.2464  0.1407
 1639TIP3   OH2 4922   3.741   5.194   3.335 -0.2240 -0.6422 -0.1514
 1639TIP3    H1 4923   3.656   5.217   3.373 -0.1919 -0.1963 -0.3474
 1639TIP3    H2 4924   3.720   5.129   3.267 -0.2459 -1.7088  0.8459
 1640TIP3   OH2 4925   4.660   5.323   1.252 -0.1888  0.2133 -0.3266
 1640TIP3    H1 4926   4.650   5.407   1.206  0.2472  0.1938 -0.4673
 1640TIP3    H2 4927   4.747   5.292   1.225 -1.1858 -1.3016 -1.9350
 1641TIP3   OH2 4928   0.267   4.968   5.067  0.3057  0.3086  0.2777
 1641TIP3    H1 4929   0.334   4.916   5.021  1.3662  0.9539  1.0434
 1641TIP3    H2 4930   0.277   5.056   5.032 -1.0202  0.1742 -0.5126
 1642TIP3   OH2 4931   3.952   0.679   2.009  0.2101 -0.2557 -0.4335
 1642TIP3    H1 4932   4.045   0.673   2.030 -0.2544  0.9943  2.5897
 1642TIP3    H2 4933   3.936   0.773   2.003 -1.0402 -0.4181  0.1580
 1643TIP3   OH2 4934   1.455   4.687   0.421 -0.0008 -0.1129 -0.6562
 1643TIP3    H1 4935   1.466   4.614   0.482  3.2566  0.0821 -0.8150
 1643TIP3    H2 4936   1.366   4.718   0.436  0.0408 -1.2154  2.6833
 1644TIP3   OH2 4937   0.812   0.643   5.085  0.5515 -0.4395 -0.6042
 1644TIP3    H1 4938   0.901   0.617   5.106  0.1480 -3.3061 -2.0092
 1644TIP3    H2 4939   0.784   0.582   5.017 -3.2369 -1.0819  1.2751
 1645TIP3   OH2 4940   4.754   2.350   2.516  0.9252  1.1026  0.2243
 1645TIP3    H1 4941   4.721   2.438   2.535 -0.7197  0.3798  0.8270
 1645TIP3    H2 4942   4.713   2.326   2.433 -1.7474 -0.5414  1.8828
 1646TIP3   OH2 4943   0.088   5.035   3.844 -0.0331  0.3715  0.0451
 1646TIP3    H1 4944   0.156   4.994   3.790  0.2462  0.1519  0.5576
 1646TIP3    H2 4945   0.070   4.971   3.912 -2.6969 -0.7932 -1.5705
 1647TIP3   OH2 4946   4.567   1.594   3.496 -0.2089  0.0317 -0.1654
 1647TIP3    H1 4947   4.604   1.674   3.459 -1.0453  0.5949  0.1893
 1647TIP3    H2 4948   4.482   1.585   3.453  0.1528 -1.0159 -0.6673
 1648TIP3   OH2 4949   2.353   4.698   1.865 -0.0020  0.0288  0.5770
 1648TIP3    H1 4950   2.379   4.613   1.829  2.1810  0.9486 -0.2029
 1648TIP3    H2 4951   2.340   4.681   1.958  2.7630 -0.7655  0.9096
 1649TIP3   OH2 4952   2.883   2.745   0.445 -0.0518  0.4092 -0.8599
 1649TIP3    H1 4953   2.856   2.830   0.478  0.7712  0.5455 -0.5115
 1649TIP3    H2 4954   2.954   2.718   0.504 -0.4798 -0.6347 -0.8056
 1650TIP3   OH2 4955   3.835   1.392   3.342  0.3768 -0.4350 -0.0503
 1650TIP3    H1 4956   3.892   1.434   3.406 -0.7958  1.7586 -0.3537
 1650TIP3    H2 4957   3.849   1.441   3.261 -2.2215  0.4962 -0.0141
 1651TIP3   OH2 4958   5.440   4.440   0.949 -0.1364  0.4140  0.3743
 1651TIP3    H1 4959   5.347   4.463   0.948 -0.0933  0.6147  0.8240
 1651TIP3    H2 4960   5.484   4.519   0.978  0.2406  0.5188 -0.4597
 1652TIP3   OH2 4961   0.148   2.948   0.530 -0.0194  0.5353  0.2302
 1652TIP3    H1 4962   0.217   2.917   0.589 -0.1580  0.8776  0.5752
 1652TIP3    H2 4963   0.099   2.869   0.507  0.9126  0.1735 -0.5850
 1653TIP3   OH2 4964   5.116   4.693   2.169 -0.1837  0.1091  0.2715
 1653TIP3    H1 4965   5.028   4.726   2.155 -1.0096 -1.3521  1.6181
 1653TIP3    H2 4966   5.126   4.692   2.265  0.2546 -2.2055  0.2521
 1654TIP3   OH2 4967   3.832   4.769   4.536 -0.0524  0.8084  0.2425
 1654TIP3    H1 4968   3.823   4.862   4.513  0.2074  0.9812  0.8129
 1654TIP3    H2 4969   3.781   4.723   4.469  0.7526  1.2751 -0.7281
 1655TIP3   OH2 4970   1.207   0.779   4.631  0.3348 -0.2242 -0.1262
 1655TIP3    H1 4971   1.176   0.694   4.664  0.6745 -0.7446 -1.0865
 1655TIP3    H2 4972   1.229   0.828   4.710  2.6018 -1.9904  0.4680
 1656TIP3   OH2 4973   5.178   3.531   1.047 -0.2877 -0.3227 -0.5133
 1656TIP3    H1 4974   5.133   3.458   1.004 -1.0396 -1.3339  1.7968
 1656TIP3    H2 4975   5.260   3.540   1.000 -0.5259 -2.1550 -1.3690
 1657TIP3   OH2 4976   1.762   4.112   1.942  0.0066  0.7097 -0.4664
 1657TIP3    H1 4977   1.668   4.111   1.958  0.5031 -1.2070  3.4423
 1657TIP3    H2 4978   1.788   4.203   1.958 -1.0937  1.1877 -1.2843
 1658TIP3   OH2 4979   4.093   2.133   5.115 -0.5772 -0.6228  0.0077
 1658TIP3    H1 4980   4.041   2.185   5.053 -0.8310  0.3249  0.9854
 1658TIP3    H2 4981   4.073   2.171   5.201  1.7660 -0.1956  0.4243
 1659TIP3   OH2 4982   0.593   2.980   3.463  0.3156  0.0049  0.3299
 1659TIP3    H1 4983   0.668   3.035   3.440  2.1748 -2.3980  0.2213
 1659TIP3    H2 4984   0.548   2.964   3.380  0.9523 -0.2605  0.0301
 1660TIP3   OH2 4985   6.318   1.765   0.550 -0.7692  0.1331 -0.0443
 1660TIP3    H1 4986   6.413   1.776   0.564 -0.5529 -0.2913 -1.0983
 1660TIP3    H2 4987   6.308   1.766   0.455 -2.0330  1.7455  0.0721
 1661TIP3   OH2 4988   1.956   3.533   4.798  0.3645 -0.1274 -0.3590
 1661TIP3    H1 4989   1.924   3.504   4.883  2.3832 -0.1242  0.4744
 1661TIP3    H2 4990   1.996   3.455   4.759 -1.4596 -0.4039 -1.8390
 1662TIP3   OH2 4991   3.764   5.494   1.311 -0.5726  0.2451 -0.1750
 1662TIP3    H1 4992   3.762   5.398   1.317  1.3676  0.2465  1.4737
 1662TIP3    H2 4993   3.741   5.524   1.398 -1.0923  1.2931 -0.6592
 1663TIP3   OH2 4994   1.719   2.335   3.906 -0.1509  0.1402  0.2207
 1663TIP3    H1 4995   1.667   2.401   3.953 -1.9435 -1.5960  0.7974
 1663TIP3    H2 4996   1.677   2.327   3.821  1.0060  0.7768 -0.4498
 1664TIP3   OH2 4997   3.253   4.916   4.402 -0.0455  0.3210 -0.2136
 1664TIP3    H1 4998   3.174   4.936   4.352 -0.8417  0.4673  1.0552
 1664TIP3    H2 4999   3.225   4.850   4.465  0.9768  0.0135 -0.0667
 1665TIP3   OH2 5000   3.218   4.188   1.988 -0.4306 -0.2542 -0.5764
 1665TIP3    H1 5001   3.277   4.121   1.954 -0.2976 -0.2100 -0.4308
 1665TIP3    H2 5002   3.215   4.254   1.919 -0.5092 -0.3780 -0.6914
 1666TIP3   OH2 5003   1.971   0.826   4.771 -0.2243  0.0063  0.2124
 1666TIP3    H1 5004   1.974   0.893   4.839 -1.0948 -0.2051  0.4802
 1666TIP3    H2 5005   2.063   0.806   4.752  0.0329  0.6286  0.7658
 1667TIP3   OH2 5006   3.719   0.179   0.610  0.2611  0.3998 -0.1712
 1667TIP3    H1 5007   3.795   0.237   0.597  0.4601  0.0720 -0.4670
 1667TIP3    H2 5008   3.644   0.232   0.584  0.3338  0.9044  0.6103
 1668TIP3   OH2 5009   0.496   4.934   0.368 -0.0393  0.3542  0.6205
 1668TIP3    H1 5010   0.563   4.867   0.380 -0.1751  0.2954  1.0330
 1668TIP3    H2 5011   0.434   4.921   0.439 -0.3495  0.5821  0.3988
 1669TIP3   OH2 5012   1.785   3.647   3.846  0.3227  0.3498  0.1673
 1669TIP3    H1 5013   1.744   3.624   3.763  0.3805 -0.3483  0.3280
 1669TIP3    H2 5014   1.712   3.660   3.906  0.3287 -1.5732  0.6305
 1670TIP3   OH2 5015   0.810   1.809   2.106 -0.2904 -0.4069  0.3620
 1670TIP3    H1 5016   0.728   1.855   2.121 -1.9250 -2.0217 -2.6664
 1670TIP3    H2 5017   0.788   1.716   2.115  1.8115 -0.8601  1.7152
 1671TIP3   OH2 5018   0.340   2.399   4.073 -0.3491  0.6546  0.6104
 1671TIP3    H1 5019   0.317   2.354   3.991 -2.0331 -1.0826  1.9371
 1671TIP3    H2 5020   0.271   2.464   4.085 -0.8281  0.0491  1.2351
 1672TIP3   OH2 5021   5.006   3.500   0.498 -0.0214 -0.3831 -0.8367
 1672TIP3    H1 5022   4.925   3.550   0.505  1.2996  1.8889 -0.8012
 1672TIP3    H2 5023   5.010   3.475   0.405 -1.1029 -1.2020 -0.6840
 1673TIP3   OH2 5024   5.951   4.672   4.152 -0.9266  0.2440  0.6150
 1673TIP3    H1 5025   5.933   4.695   4.243 -0.2478 -1.0372  1.0940
 1673TIP3    H2 5026   5.945   4.576   4.149  2.8878 -0.1383  0.2452
 1674TIP3   OH2 5027   5.576   1.090   1.019 -0.6581 -0.1403  0.3168
 1674TIP3    H1 5028   5.638   1.161   1.036 -1.4244  0.7573 -0.5103
 1674TIP3    H2 5029   5.621   1.033   0.957 -0.7807  0.7131 -0.5835
 1675TIP3   OH2 5030   4.431   3.315   4.373  0.5101 -0.1860 -0.9603
 1675TIP3    H1 5031   4.508   3.264   4.397 -0.4162 -1.1140  0.1192
 1675TIP3    H2 5032   4.374   3.252   4.329  0.0162  0.3094 -1.0338
 1676TIP3   OH2 5033   5.596   5.612   4.101  0.2663 -0.0440 -0.0494
 1676TIP3    H1 5034   5.654   5.608   4.025  0.6043  0.0684  0.2038
 1676TIP3    H2 5035   5.620   5.537   4.154  0.8183  0.5132  0.5117
 1677TIP3   OH2 5036   0.107   5.621  -0.003  0.3782  0.3056  0.1491
 1677TIP3    H1 5037   0.172   5.690   0.014  0.5346 -0.0510  1.0666
 1677TIP3    H2 5038   0.158   5.541  -0.004 -0.0927 -0.0495  1.4645
 1678TIP3   OH2 5039   2.829   3.350   5.111  0.9789 -0.5147 -0.1695
 1678TIP3    H1 5040   2.914   3.389   5.089  0.4753 -0.0620 -1.4324
 1678TIP3    H2 5041   2.813   3.286   5.041  1.1950 -2.0954  1.1737
 1679TIP3   OH2 5042   4.731   5.581   3.052  0.1864 -0.5825  0.0499
 1679TIP3    H1 5043   4.640   5.553   3.060 -0.1125 -0.0104 -1.0483
 1679TIP3    H2 5044   4.782   5.505   3.078 -0.5921 -0.5870  1.6681
 1680TIP3   OH2 5045   1.190   4.950   0.958  0.0025  0.6498 -0.1190
 1680TIP3    H1 5046   1.274   4.991   0.979  0.3706 -0.6070  1.0552
 1680TIP3    H2 5047   1.202   4.858   0.981 -1.3519  0.2183 -0.9921
 1681TIP3   OH2 5048   0.026   0.727   4.759  0.0571 -0.1877  0.0190
 1681TIP3    H1 5049   0.052   0.635   4.759 -1.5405 -0.6621 -0.4011
 1681TIP3    H2 5050   0.035   0.755   4.668  2.3010  0.6427  0.4256
 1682TIP3   OH2 5051   4.483   4.338   1.982  0.3513 -0.4779 -0.1574
 1682TIP3    H1 5052   4.517   4.282   1.912 -0.4354 -1.5496  0.2879
 1682TIP3    H2 5053   4.428   4.280   2.034  0.4065  0.4571  0.9838
 1683TIP3   OH2 5054   0.930   3.154   0.890 -0.0321  0.4540 -0.3820
 1683TIP3    H1 5055   0.841   3.154   0.855 -0.1328  2.1893 -0.1953
 1683TIP3    H2 5056   0.930   3.083   0.954 -1.5782  1.0183  0.3006
 1684TIP3   OH2 5057   0.433   1.307   1.062 -0.6631 -0.0910 -0.2377
 1684TIP3    H1 5058   0.438   1.235   1.125  1.7004  2.2440  2.5175
 1684TIP3    H2 5059   0.374   1.371   1.102  1.8815  2.0102  0.4357
 1685TIP3   OH2 5060   5.295   1.928   1.500 -0.2126 -0.1608  0.1686
 1685TIP3    H1 5061   5.386   1.912   1.525 -0.3272 -1.5074 -0.1954
 1685TIP3    H2 5062   5.245   1.858   1.543 -0.9017 -0.2140 -0.6841
 1686TIP3   OH2 5063   5.773   5.740   3.427  0.3938 -0.0035  0.0274
 1686TIP3    H1 5064   5.724   5.696   3.358 -0.2347  0.5079  0.1380
 1686TIP3    H2 5065   5.821   5.810   3.382 -0.5809  0.7907  0.1964
 1687TIP3   OH2 5066   4.712   4.630   2.443  0.0684  0.1549  0.8115
 1687TIP3    H1 5067   4.621   4.610   2.421 -0.5605  1.0193  2.4002
 1687TIP3    H2 5068   4.762   4.556   2.411 -1.0394  0.1851 -1.1234
 1688TIP3   OH2 5069   3.953   3.528   1.950 -0.0861  0.4811  0.1793
 1688TIP3    H1 5070   3.985   3.589   2.016  0.1314  0.4940  0.0611
 1688TIP3    H2 5071   3.976   3.442   1.984  1.6525  0.5569 -0.7338
 1689TIP3   OH2 5072   5.572   3.755   3.891 -0.4133  0.6048 -0.4497
 1689TIP3    H1 5073   5.529   3.669   3.888 -2.3706  1.4609  0.9399
 1689TIP3    H2 5074   5.591   3.769   3.984  0.1922  1.5280 -0.7033
 1690TIP3   OH2 5075   2.536   2.473   1.593  0.3565 -0.0033 -0.0407
 1690TIP3    H1 5076   2.506   2.388   1.623 -0.2576  0.7323  1.5160
 1690TIP3    H2 5077   2.615   2.454   1.541  1.2863 -1.3859  1.7583
 1691TIP3   OH2 5078   1.013   2.667   0.402 -0.2006 -0.1464 -0.0214
 1691TIP3    H1 5079   1.072   2.616   0.346  1.0258  0.8965  0.2791
 1691TIP3    H2 5080   1.065   2.742   0.430 -2.0630  1.5368 -0.7818
 1692TIP3   OH2 5081   4.609   5.466   1.977  0.5396  0.2441  0.1020
 1692TIP3    H1 5082   4.572   5.473   1.889  1.6363 -2.1495 -0.6311
 1692TIP3    H2 5083   4.563   5.392   2.017  1.3185  0.1556  0.8590
 1693TIP3   OH2 5084   0.990   3.608   4.570 -0.5132  0.1553 -0.3627
 1693TIP3    H1 5085   0.982   3.658   4.652  1.6335 -0.5052  0.3191
 1693TIP3    H2 5086   1.064   3.648   4.525  0.5120 -1.6308 -0.3477
 1694TIP3   OH2 5087   5.015   1.266   0.129  0.5154  0.1018 -0.7624
 1694TIP3    H1 5088   5.110   1.272   0.125  0.7700 -2.8865 -1.8314
 1694TIP3    H2 5089   4.997   1.172   0.131 -2.3376  0.4650  2.8815
 1695TIP3   OH2 5090   1.609   5.144   1.594 -0.4918  0.0263 -0.7323
 1695TIP3    H1 5091   1.609   5.178   1.683 -0.8878  1.3007 -1.1949
 1695TIP3    H2 5092   1.628   5.051   1.604 -0.1758  0.2132  0.6487
 1696TIP3   OH2 5093   2.941   2.816   3.588  0.1316  0.4462  0.1117
 1696TIP3    H1 5094   3.020   2.792   3.540 -0.9303 -1.9826 -0.5538
 1696TIP3    H2 5095   2.875   2.828   3.519 -0.8535 -0.8453  0.7901
 1697TIP3   OH2 5096   2.308   0.622   4.506  0.5756 -0.3554 -0.1434
 1697TIP3    H1 5097   2.279   0.684   4.572  0.4286 -0.1774 -0.3749
 1697TIP3    H2 5098   2.384   0.664   4.465  0.2757 -0.1804 -0.5252
 1698TIP3   OH2 5099   5.119   0.753   3.049 -0.1033  0.6047  0.0736
 1698TIP3    H1 5100   5.127   0.839   3.009 -1.3064  1.4043  1.4571
 1698TIP3    H2 5101   5.035   0.755   3.095  0.9020 -0.4510  2.1045
 1699TIP3   OH2 5102   3.455   2.314   4.048 -0.0900  0.5479 -0.6044
 1699TIP3    H1 5103   3.407   2.362   4.115 -0.1634  1.7253 -1.4623
 1699TIP3    H2 5104   3.543   2.301   4.085 -0.3745  0.4495  0.0414
 1700TIP3   OH2 5105   2.365   0.126   0.707 -0.3778  0.2298  0.0373
 1700TIP3    H1 5106   2.423   0.107   0.780  0.0972  1.6161  0.0579
 1700TIP3    H2 5107   2.369   0.049   0.651 -0.9730 -0.9785  1.5990
 1701TIP3   OH2 5108   1.280   3.834   2.916 -0.2272  0.4018 -0.3119
 1701TIP3    H1 5109   1.303   3.750   2.876 -0.4919 -0.3120  0.9663
 1701TIP3    H2 5110   1.290   3.819   3.010 -0.5340  1.7296 -0.0483
 1702TIP3   OH2 5111   0.945   1.970   4.338  0.7153 -0.4912  0.4449
 1702TIP3    H1 5112   1.009   2.006   4.400 -1.1924  0.0676  2.1964
 1702TIP3    H2 5113   0.917   1.888   4.379 -0.3238 -0.2821  0.1685
 1703TIP3   OH2 5114   2.236   4.336   1.425 -0.1411  0.4894  0.5615
 1703TIP3    H1 5115   2.286   4.416   1.412 -0.8612  0.7571 -0.8083
 1703TIP3    H2 5116   2.148   4.366   1.446 -0.1440  0.0317  1.2557
 1704TIP3   OH2 5117   5.760   3.197   2.772 -0.6406  0.2532  0.0026
 1704TIP3    H1 5118   5.805   3.117   2.800  0.9946  1.3425  0.6056
 1704TIP3    H2 5119   5.826   3.246   2.724 -1.2350  1.8178  0.7341
 1705TIP3   OH2 5120   3.871   4.385   3.775  0.3831 -0.4063  0.0017
 1705TIP3    H1 5121   3.923   4.422   3.703 -0.6074  0.1204 -0.4649
 1705TIP3    H2 5122   3.782   4.419   3.761 -0.1816 -1.5673  0.5669
 1706TIP3   OH2 5123   6.320   2.170   2.929  0.3713 -0.2411 -0.3847
 1706TIP3    H1 5124   6.250   2.235   2.926  0.1970 -0.3928  0.2617
 1706TIP3    H2 5125   6.355   2.168   2.840 -1.3289 -1.1255 -1.0680
 1707TIP3   OH2 5126   3.741   3.202   0.250  0.0849 -0.5844 -0.2388
 1707TIP3    H1 5127   3.662   3.214   0.197  0.3117  1.1544 -0.2422
 1707TIP3    H2 5128   3.774   3.116   0.224 -0.3609 -0.2129 -2.2000
 1708TIP3   OH2 5129   1.574   0.160   0.221 -0.6768  0.5392  0.3454
 1708TIP3    H1 5130   1.535   0.111   0.293 -0.0155  0.4592  0.6506
 1708TIP3    H2 5131   1.572   0.251   0.250 -2.7104  0.8530 -0.5768
 1709TIP3   OH2 5132   1.505   4.776   2.144  0.1282  0.1555 -0.0772
 1709TIP3    H1 5133   1.514   4.811   2.233  2.1135 -1.7378  0.5692
 1709TIP3    H2 5134   1.515   4.853   2.087  0.8028  1.1395  1.3019
 1710TIP3   OH2 5135   1.882   5.951   4.034 -0.4306  0.1267  0.2809
 1710TIP3    H1 5136   1.941   5.926   3.964  0.8803  0.9113  1.0460
 1710TIP3    H2 5137   1.927   5.923   4.114 -1.4439  0.0947  0.8511
 1711TIP3   OH2 5138   5.988   1.835   5.035 -0.2788  0.1511  0.3757
 1711TIP3    H1 5139   6.011   1.746   5.007 -1.7358 -0.5816  1.3686
 1711TIP3    H2 5140   6.056   1.859   5.098 -0.2110 -0.5291  0.5712
 1712TIP3   OH2 5141   3.116   5.207   2.456 -0.6699 -0.8916  0.2354
 1712TIP3    H1 5142   3.103   5.300   2.436  1.9592 -0.6723 -0.8414
 1712TIP3    H2 5143   3.056   5.190   2.529 -1.6880  1.4572  0.0655
 1713TIP3   OH2 5144   3.102   1.800   0.621 -0.6680 -0.5773 -0.1076
 1713TIP3    H1 5145   3.169   1.734   0.604 -0.0972  0.4252 -2.0515
 1713TIP3    H2 5146   3.133   1.845   0.700 -0.3018 -1.6360  0.3692
 1714TIP3   OH2 5147   4.408   1.351   4.189  0.2998 -0.1938 -0.3844
 1714TIP3    H1 5148   4.472   1.422   4.195  0.2767 -0.0903 -1.2192
 1714TIP3    H2 5149   4.368   1.348   4.276 -1.1234  2.1687 -0.8625
 1715TIP3   OH2 5150   1.046   5.313   0.176 -0.1737  0.4777 -0.1182
 1715TIP3    H1 5151   1.023   5.295   0.267 -2.5004  1.1970 -0.4875
 1715TIP3    H2 5152   1.092   5.397   0.179 -1.3048  1.1022  0.3028
 1716TIP3   OH2 5153   4.898   0.323   5.004  0.1588 -0.4886  0.5505
 1716TIP3    H1 5154   4.945   0.240   4.996  1.4372  0.2829 -0.3507
 1716TIP3    H2 5155   4.831   0.306   5.070 -0.6160 -2.6921 -0.6655
 1717TIP3   OH2 5156   0.793   2.086   2.822 -0.5948  0.1453  0.7499
 1717TIP3    H1 5157   0.831   2.000   2.804 -1.2566  0.0631 -0.3461
 1717TIP3    H2 5158   0.786   2.089   2.917 -1.3916 -1.3959  0.7804
 1718TIP3   OH2 5159   1.819   3.603   0.970 -0.1160  0.0047  0.0400
 1718TIP3    H1 5160   1.843   3.620   0.879  1.9797  1.7154  0.8347
 1718TIP3    H2 5161   1.791   3.688   1.004  0.2606 -0.3557  1.3042
 1719TIP3   OH2 5162   5.150   4.509   2.993  0.1734  0.1680  0.0632
 1719TIP3    H1 5163   5.150   4.589   3.046 -1.0331  0.5453 -0.4850
 1719TIP3    H2 5164   5.190   4.536   2.910 -1.3378  0.5412 -0.5749
 1720TIP3   OH2 5165   0.381   1.258   2.291  0.0264  0.1174 -0.0773
 1720TIP3    H1 5166   0.468   1.233   2.259 -0.1173  1.0312 -1.2857
 1720TIP3    H2 5167   0.369   1.207   2.370  1.5425 -0.2564 -0.0488
 1721TIP3   OH2 5168   3.165   0.533   2.515 -0.3070  0.5122  0.0185
 1721TIP3    H1 5169   3.197   0.622   2.502 -0.4383  0.5768  0.1391
 1721TIP3    H2 5170   3.234   0.491   2.567  0.1715  0.2821 -0.7805
 1722TIP3   OH2 5171   2.679   4.071   1.878 -0.8630  0.3053  0.1200
 1722TIP3    H1 5172   2.630   4.099   1.801 -0.4501 -0.9723 -0.6353
 1722TIP3    H2 5173   2.615   4.070   1.949 -1.3545  1.0151 -0.2984
 1723TIP3   OH2 5174   2.180   1.521   2.352  0.3911  0.0722 -0.1617
 1723TIP3    H1 5175   2.124   1.468   2.410  0.1244  0.7748  0.2340
 1723TIP3    H2 5176   2.122   1.546   2.280  1.0897 -1.9930 -1.5198
 1724TIP3   OH2 5177   4.947   4.371   3.603 -0.1697  0.3425  0.0516
 1724TIP3    H1 5178   5.029   4.421   3.600 -0.0732  0.1728 -0.1559
 1724TIP3    H2 5179   4.904   4.392   3.521  0.2854 -0.6111 -0.4517
 1725TIP3   OH2 5180   0.181   5.582   2.341 -0.2456 -0.1954  0.0078
 1725TIP3    H1 5181   0.259   5.577   2.286 -0.1124 -0.7226  0.2327
 1725TIP3    H2 5182   0.108   5.593   2.280  0.0723  1.1700 -0.1570
 1726TIP3   OH2 5183   2.688   4.538   1.872 -0.3381  0.4537  0.1081
 1726TIP3    H1 5184   2.780   4.527   1.847 -0.9394 -1.1034 -1.6981
 1726TIP3    H2 5185   2.675   4.476   1.943 -0.5076 -1.0906 -1.2127
 1727TIP3   OH2 5186   2.697   1.995   2.390  0.1086 -0.4392 -0.2347
 1727TIP3    H1 5187   2.730   2.066   2.336  1.2351  0.5001  1.5742
 1727TIP3    H2 5188   2.602   2.009   2.394  0.1378  0.0455 -1.1325
 1728TIP3   OH2 5189   4.632   1.335   3.645  0.2128 -0.4235  0.1753
 1728TIP3    H1 5190   4.640   1.427   3.668  1.5443 -0.3567 -0.4898
 1728TIP3    H2 5191   4.546   1.328   3.605 -0.1368  0.4039  0.7547
 1729TIP3   OH2 5192   3.411   5.851   3.621 -0.3414  0.2194  0.0540
 1729TIP3    H1 5193   3.451   5.782   3.570  0.7234 -0.1212  1.2999
 1729TIP3    H2 5194   3.357   5.805   3.685  0.6060  0.4945  1.0821
 1730TIP3   OH2 5195   3.701   1.914   4.539 -0.3374  0.1647 -0.0779
 1730TIP3    H1 5196   3.652   1.926   4.620 -1.3546 -0.6315 -0.5472
 1730TIP3    H2 5197   3.638   1.934   4.469  0.5258  0.8631 -0.6810
 1731TIP3   OH2 5198   2.069   0.591   0.470 -0.4066 -0.0048  0.1765
 1731TIP3    H1 5199   1.984   0.565   0.505 -0.2665  0.8728  1.2331
 1731TIP3    H2 5200   2.107   0.645   0.539  1.1821 -0.7107 -0.0967
 1732TIP3   OH2 5201   5.628   3.285   4.500 -0.1728  0.5046  0.1805
 1732TIP3    H1 5202   5.650   3.360   4.444 -0.7668  0.1750 -0.5061
 1732TIP3    H2 5203   5.695   3.286   4.568  2.0353 -0.4819 -1.8298
 1733TIP3   OH2 5204   0.963   5.743   2.309  0.2501 -0.1114 -0.1547
 1733TIP3    H1 5205   0.876   5.731   2.346  1.2569  0.2090  2.5593
 1733TIP3    H2 5206   0.948   5.748   2.215 -2.6121 -0.3311  0.1841
 1734TIP3   OH2 5207   5.725   1.921   3.486 -0.0105 -0.5895  0.1246
 1734TIP3    H1 5208   5.674   1.988   3.531  0.7394  1.1861 -1.5366
 1734TIP3    H2 5209   5.674   1.900   3.408 -1.0616 -3.2692  1.4096
 1735TIP3   OH2 5210   4.453   0.399   0.157  0.0205 -0.1701 -0.2559
 1735TIP3    H1 5211   4.412   0.454   0.091  0.0358  0.2196  0.0556
 1735TIP3    H2 5212   4.381   0.377   0.218  0.3543  0.8909  0.5442
 1736TIP3   OH2 5213   0.618   3.482   0.528 -0.2309 -0.1617  0.1082
 1736TIP3    H1 5214   0.612   3.476   0.433  0.6724  0.1586  0.0218
 1736TIP3    H2 5215   0.529   3.501   0.557 -0.3188  0.8712 -0.7754
 1737TIP3   OH2 5216   4.658   1.241   2.094  0.2971  0.2826  0.2001
 1737TIP3    H1 5217   4.682   1.285   2.176 -0.5625  0.2148  0.4927
 1737TIP3    H2 5218   4.578   1.285   2.066 -0.6102 -1.1287  0.5187
 1738TIP3   OH2 5219   2.079   1.404   4.505 -0.7419 -0.5212  0.6202
 1738TIP3    H1 5220   1.992   1.443   4.494 -0.3524  0.1144 -0.3601
 1738TIP3    H2 5221   2.079   1.370   4.595 -2.6257 -2.1304  0.0603
 1739TIP3   OH2 5222   5.837   4.228   3.539  0.2540 -0.7959  0.3514
 1739TIP3    H1 5223   5.858   4.136   3.520  1.1440 -0.7829  1.1854
 1739TIP3    H2 5224   5.907   4.278   3.498 -0.1123 -0.4955  0.0844
 1740TIP3   OH2 5225   1.076   1.141   3.452  0.2718  0.2932 -0.2744
 1740TIP3    H1 5226   1.109   1.137   3.362 -1.5909 -2.0577 -0.9756
 1740TIP3    H2 5227   0.984   1.166   3.443 -0.0108 -0.2326  0.9297
 1741TIP3   OH2 5228   0.139   3.688   4.210  0.0493 -0.4971  0.2502
 1741TIP3    H1 5229   0.054   3.679   4.254  0.8726 -0.7293  1.8554
 1741TIP3    H2 5230   0.179   3.765   4.250  0.7267 -0.5736 -0.2659
 1742TIP3   OH2 5231   4.602   3.700   2.851  0.0379  0.1799  0.0216
 1742TIP3    H1 5232   4.594   3.791   2.882  1.9471  0.1793  0.6835
 1742TIP3    H2 5233   4.695   3.692   2.828 -0.1371 -1.5628 -0.1633
 1743TIP3   OH2 5234   3.472   5.299   4.242 -0.5257  0.7690  0.2776
 1743TIP3    H1 5235   3.407   5.239   4.207  0.1947  0.6147 -0.8592
 1743TIP3    H2 5236   3.528   5.244   4.297 -0.2017  0.5056 -0.3103
 1744TIP3   OH2 5237   1.780   3.789   1.592 -0.1777 -0.5879  0.0476
 1744TIP3    H1 5238   1.786   3.784   1.496  2.6285  1.7402 -0.0531
 1744TIP3    H2 5239   1.811   3.704   1.623 -1.9894 -1.7061 -1.0520
 1745TIP3   OH2 5240   5.142   4.875   1.901 -0.1376 -0.2936 -0.1747
 1745TIP3    H1 5241   5.136   4.784   1.874 -0.3596 -0.1987 -0.4428
 1745TIP3    H2 5242   5.125   4.873   1.996 -0.8050 -0.4535 -0.2941
 1746TIP3   OH2 5243   1.249   2.849   1.015 -0.1393  0.1686  0.6422
 1746TIP3    H1 5244   1.172   2.799   0.990 -0.1069  0.8931 -1.0414
 1746TIP3    H2 5245   1.289   2.875   0.932  2.2569 -0.6559  1.4449
 1747TIP3   OH2 5246   3.369   1.492   3.804 -0.4548 -0.6310  0.0003
 1747TIP3    H1 5247   3.293   1.451   3.846 -0.5692 -0.4483 -0.0228
 1747TIP3    H2 5248   3.412   1.541   3.875 -0.3260 -0.7802  0.0254
 1748TIP3   OH2 5249   2.497   0.522   1.381  0.3767  0.1371 -0.1889
 1748TIP3    H1 5250   2.562   0.452   1.378 -0.7743 -0.9822 -0.0061
 1748TIP3    H2 5251   2.447   0.513   1.300  0.0789  0.6185 -0.0676
 1749TIP3   OH2 5252   5.425   2.492   4.752 -0.2418  0.0801 -0.0604
 1749TIP3    H1 5253   5.407   2.584   4.773  1.4048  0.4067  0.0738
 1749TIP3    H2 5254   5.520   2.488   4.744 -0.3798 -1.3404 -1.4465
 1750TIP3   OH2 5255   2.327   4.848   0.469 -0.5132  0.0540  0.4003
 1750TIP3    H1 5256   2.395   4.914   0.457 -0.7941  0.5554  1.4355
 1750TIP3    H2 5257   2.257   4.875   0.410 -0.7230  0.8278  0.9943
 1751TIP3   OH2 5258   5.893   0.716   1.780  0.4965  0.0100  0.6098
 1751TIP3    H1 5259   5.939   0.655   1.723 -0.2836 -0.0865  0.0613
 1751TIP3    H2 5260   5.842   0.771   1.720 -0.4758 -0.2027  1.2110
 1752TIP3   OH2 5261   5.319   5.763   5.095  0.6024 -0.1748 -0.3761
 1752TIP3    H1 5262   5.349   5.790   5.182  0.8286  0.0882 -0.5364
 1752TIP3    H2 5263   5.261   5.689   5.112  1.3696 -0.7148 -0.0689
 1753TIP3   OH2 5264   5.884   4.095   2.438  0.0742  0.0545 -0.5726
 1753TIP3    H1 5265   5.804   4.110   2.387  0.5562  1.0142 -1.0906
 1753TIP3    H2 5266   5.913   4.183   2.461  0.3412 -0.3375  0.6411
 1754TIP3   OH2 5267   5.835   4.303   3.795 -0.5498  0.1942 -0.6017
 1754TIP3    H1 5268   5.920   4.302   3.841 -1.0088  1.6035  0.3211
 1754TIP3    H2 5269   5.851   4.253   3.715  0.7295 -0.9068  0.2924
 1755TIP3   OH2 5270   5.842   3.776   0.048  0.1134 -0.2008  0.1511
 1755TIP3    H1 5271   5.810   3.820   0.126  0.1601 -1.4062  0.8806
 1755TIP3    H2 5272   5.928   3.742   0.072  0.8544  0.8145 -0.9688
 1756TIP3   OH2 5273   2.493   4.095   3.732 -0.3172  0.6823 -0.3825
 1756TIP3    H1 5274   2.407   4.136   3.743 -0.5114 -0.2017  2.0801
 1756TIP3    H2 5275   2.476   4.001   3.738  0.6480  0.4020 -1.5479
 1757TIP3   OH2 5276   5.564   4.970   1.589 -0.0924  0.7846 -0.4624
 1757TIP3    H1 5277   5.511   4.964   1.510 -0.8479  3.5594 -0.2789
 1757TIP3    H2 5278   5.506   5.010   1.654  1.2490  0.8440  0.7432
 1758TIP3   OH2 5279   4.698   2.258   3.171 -0.7265  0.0139 -0.1958
 1758TIP3    H1 5280   4.773   2.203   3.147 -1.2427 -0.0819 -1.7189
 1758TIP3    H2 5281   4.624   2.196   3.175 -0.8618  0.2171  0.5981
 1759TIP3   OH2 5282   5.216   4.378   0.244 -0.3495 -0.2764 -0.0578
 1759TIP3    H1 5283   5.202   4.432   0.167 -0.4994 -0.7753 -0.3901
 1759TIP3    H2 5284   5.296   4.411   0.283 -0.3570  0.0815 -0.3427
 1760TIP3   OH2 5285   5.198   4.467   3.665  0.3387  0.2365  0.2841
 1760TIP3    H1 5286   5.260   4.540   3.666  1.7196 -0.8845 -0.0210
 1760TIP3    H2 5287   5.246   4.396   3.621 -0.9888 -0.8261  0.4986
 1761TIP3   OH2 5288   1.950   4.356   3.415  0.5489 -0.1578 -0.6193
 1761TIP3    H1 5289   1.994   4.437   3.390  0.7442 -0.3733 -0.9845
 1761TIP3    H2 5290   2.000   4.287   3.372  0.7910 -0.5313  0.2376
 1762TIP3   OH2 5291   2.962   3.653   2.284 -0.3915 -0.0156 -0.1265
 1762TIP3    H1 5292   2.992   3.603   2.360 -0.7512 -0.3921 -0.2312
 1762TIP3    H2 5293   2.875   3.683   2.308 -1.0301 -1.1973 -0.8707
 1763TIP3   OH2 5294   1.749   0.953   4.940 -0.3158 -0.1963  0.1601
 1763TIP3    H1 5295   1.801   0.883   4.980 -0.2408  0.2941  0.9234
 1763TIP3    H2 5296   1.695   0.907   4.875 -0.2449 -0.9671  0.6265
 1764TIP3   OH2 5297   2.861   4.678   4.145 -0.1719 -0.4779 -0.3619
 1764TIP3    H1 5298   2.936   4.620   4.133 -1.7090 -2.3782 -1.3532
 1764TIP3    H2 5299   2.887   4.758   4.100  1.2975 -1.0376 -0.5924
 1765TIP3   OH2 5300   3.346   1.759   0.881 -0.2083 -0.3488  0.1846
 1765TIP3    H1 5301   3.418   1.744   0.941 -1.0958 -0.6708  1.2043
 1765TIP3    H2 5302   3.366   1.705   0.805  0.5092 -0.6047  0.5478
 1766TIP3   OH2 5303   0.963   1.922   3.030  0.3145 -0.1717 -0.1846
 1766TIP3    H1 5304   1.008   2.004   3.048 -0.0257 -0.0820  0.2598
 1766TIP3    H2 5305   0.903   1.911   3.103 -0.4952 -0.2202 -0.8484
 1767TIP3   OH2 5306   5.835   4.616   1.233 -0.3521 -0.7455  0.2269
 1767TIP3    H1 5307   5.914   4.579   1.272  0.9115 -0.1750 -1.6937
 1767TIP3    H2 5308   5.787   4.653   1.308  2.6342  1.5718  1.1832
 1768TIP3   OH2 5309   2.283   2.215   4.834 -0.0900 -0.5930 -0.0291
 1768TIP3    H1 5310   2.282   2.153   4.907  1.8458 -1.6095 -0.7810
 1768TIP3    H2 5311   2.374   2.216   4.804 -0.7761 -0.1061 -2.3420
 1769TIP3   OH2 5312   4.511   0.128   0.343  0.4858  0.0383 -0.7179
 1769TIP3    H1 5313   4.545   0.156   0.258 -0.5753  1.1927 -0.7998
 1769TIP3    H2 5314   4.429   0.083   0.323  0.2093  0.3488 -0.3095
 1770TIP3   OH2 5315   2.922   5.180   2.700 -0.0050  0.0748 -0.3411
 1770TIP3    H1 5316   2.958   5.094   2.678 -2.4369 -1.0661 -0.1143
 1770TIP3    H2 5317   2.930   5.185   2.796  0.2563  0.1909 -0.3657
 1771TIP3   OH2 5318   1.156   0.067   3.674  0.3444  0.0950  0.3553
 1771TIP3    H1 5319   1.075   0.045   3.627 -0.2048 -0.5671  1.5671
 1771TIP3    H2 5320   1.220   0.006   3.639  0.2789  0.4684 -0.4494
 1772TIP3   OH2 5321   0.593   4.167   0.433  1.0287 -0.1607  0.1800
 1772TIP3    H1 5322   0.539   4.184   0.356  0.9295  0.0591  0.2971
 1772TIP3    H2 5323   0.643   4.088   0.411 -0.8022 -1.5670  0.8535
 1773TIP3   OH2 5324   0.291   3.242   2.944  0.2289 -0.1712  0.0524
 1773TIP3    H1 5325   0.216   3.184   2.956 -1.0725  1.5938  0.8758
 1773TIP3    H2 5326   0.310   3.274   3.031  0.4802  1.1395 -0.4669
 1774TIP3   OH2 5327   3.005   5.892   0.748 -0.5838 -0.4710  0.0896
 1774TIP3    H1 5328   3.082   5.922   0.797 -0.5396 -0.2937 -0.0895
 1774TIP3    H2 5329   3.038   5.821   0.693 -0.3487  0.2188 -0.6757
 1775TIP3   OH2 5330   4.655   0.767   2.312 -0.8376  0.1930  0.5509
 1775TIP3    H1 5331   4.669   0.784   2.406  0.8088 -0.1600  0.4000
 1775TIP3    H2 5332   4.718   0.824   2.268 -2.8364  1.7320 -0.4741
 1776TIP3   OH2 5333   2.240   3.940   0.535  0.6340  0.7896 -0.3454
 1776TIP3    H1 5334   2.251   3.992   0.456  2.0015  0.2114 -0.5601
 1776TIP3    H2 5335   2.214   4.004   0.602  1.2463  1.5796 -0.8427
 1777TIP3   OH2 5336   3.189   1.189   1.367  0.0454  0.1743  0.5879
 1777TIP3    H1 5337   3.187   1.095   1.349 -0.3365 -0.2915  2.8482
 1777TIP3    H2 5338   3.099   1.219   1.353 -0.1548 -0.0937  1.2898
 1778TIP3   OH2 5339   2.696   5.821   3.930  0.5801 -0.3331  0.6875
 1778TIP3    H1 5340   2.748   5.852   4.005  0.0398 -0.9528  1.3295
 1778TIP3    H2 5341   2.619   5.780   3.969 -0.8503  1.3035 -0.2444
 1779TIP3   OH2 5342   1.871   5.316   3.377  0.6524 -0.6353  0.1050
 1779TIP3    H1 5343   1.800   5.294   3.437  1.8223 -0.1455  1.7629
 1779TIP3    H2 5344   1.854   5.407   3.352  0.1456 -0.8489 -0.3297
 1780TIP3   OH2 5345   2.465   2.972   3.539  0.2661 -0.2189 -0.8837
 1780TIP3    H1 5346   2.428   2.915   3.606 -0.9756  2.0197  0.4488
 1780TIP3    H2 5347   2.390   3.001   3.488  0.4538  2.1604  0.0743
 1781TIP3   OH2 5348   1.169   5.205   2.197 -0.0285 -0.0004 -0.3002
 1781TIP3    H1 5349   1.100   5.242   2.252  1.3306 -2.1681  3.1846
 1781TIP3    H2 5350   1.234   5.274   2.191  0.6400 -0.2577  2.6037
 1782TIP3   OH2 5351   2.997   0.913   4.896  0.1333  0.6847 -0.0984
 1782TIP3    H1 5352   3.068   0.850   4.898  0.0166  0.5290 -0.5730
 1782TIP3    H2 5353   3.028   0.987   4.948  0.3972  0.3665  0.1953
 1783TIP3   OH2 5354   0.403   1.009   2.071 -0.4508 -0.2013 -0.7403
 1783TIP3    H1 5355   0.468   0.948   2.106 -1.1829 -1.1001 -0.9351
 1783TIP3    H2 5356   0.439   1.096   2.092  0.6917 -0.6828 -0.6409
 1784TIP3   OH2 5357   6.271   1.909   4.276 -0.6117 -0.6586 -0.1286
 1784TIP3    H1 5358   6.336   1.843   4.302 -0.9475 -1.2530 -0.7583
 1784TIP3    H2 5359   6.247   1.884   4.186 -2.7955 -1.3318  0.5772
 1785TIP3   OH2 5360   1.561   3.801   4.342 -0.2897  0.0901 -0.1904
 1785TIP3    H1 5361   1.538   3.890   4.314 -0.5298  0.0381 -0.1658
 1785TIP3    H2 5362   1.656   3.800   4.343 -0.2771  0.1822 -0.7257
 1786TIP3   OH2 5363   4.229   3.247   3.665 -0.5866  0.0158 -0.2666
 1786TIP3    H1 5364   4.322   3.268   3.671 -0.3724 -0.5150 -1.4906
 1786TIP3    H2 5365   4.223   3.155   3.688 -0.8018  0.0261 -0.2747
 1787TIP3   OH2 5366   2.390   2.148   0.473  0.3149 -0.1809  0.1387
 1787TIP3    H1 5367   2.349   2.066   0.446  0.5222 -0.0067 -0.7399
 1787TIP3    H2 5368   2.343   2.174   0.552 -0.6092 -0.4857 -0.3030
 1788TIP3   OH2 5369   4.469   1.421   2.153  1.0503 -0.3714  0.1221
 1788TIP3    H1 5370   4.521   1.500   2.142 -0.8441  1.0036  0.5254
 1788TIP3    H2 5371   4.466   1.407   2.247  1.8873 -1.3294  0.0288
 1789TIP3   OH2 5372   4.686   0.768   2.944 -0.4245  0.0958  0.1031
 1789TIP3    H1 5373   4.736   0.711   2.886 -0.1529  0.9068 -0.4644
 1789TIP3    H2 5374   4.603   0.722   2.957 -1.0013  0.4751 -1.9424
 1790TIP3   OH2 5375   4.415   1.542   2.692  0.3657 -0.3168  0.9105
 1790TIP3    H1 5376   4.436   1.525   2.600  1.2746  0.0690  1.0368
 1790TIP3    H2 5377   4.319   1.542   2.695  0.2915  0.9128 -0.2846
 1791TIP3   OH2 5378   1.933   3.579   3.016  0.3188  0.4397  0.3391
 1791TIP3    H1 5379   1.975   3.494   3.017  0.0544  0.3019 -0.0096
 1791TIP3    H2 5380   1.843   3.562   2.987  0.6089  0.9784 -0.9670
 1792TIP3   OH2 5381   5.463   3.048   4.837 -0.3651  0.3016 -0.3138
 1792TIP3    H1 5382   5.435   3.063   4.928 -1.9342  1.6501 -0.9694
 1792TIP3    H2 5383   5.548   3.092   4.831 -0.3454  0.3894  0.4245
 1793TIP3   OH2 5384   3.148   3.262   3.082 -0.1933 -0.1263 -0.5402
 1793TIP3    H1 5385   3.157   3.167   3.088  0.4154 -0.0802 -0.6574
 1793TIP3    H2 5386   3.062   3.276   3.044 -0.5381 -0.6186  0.0437
 1794TIP3   OH2 5387   1.072   3.728   2.204 -0.2240  0.0574 -0.1845
 1794TIP3    H1 5388   1.123   3.808   2.191 -0.4219  0.3961  1.0207
 1794TIP3    H2 5389   1.135   3.664   2.235 -0.4358  0.3605  0.9077
 1795TIP3   OH2 5390   0.249   1.637   2.796 -0.3660  0.2591  0.4518
 1795TIP3    H1 5391   0.243   1.729   2.772  2.9820  0.1492 -1.2916
 1795TIP3    H2 5392   0.180   1.625   2.861 -1.8802  3.5948 -0.3411
 1796TIP3   OH2 5393   0.299   3.579   2.298 -0.3331  0.1772  0.3607
 1796TIP3    H1 5394   0.266   3.519   2.364  0.3572 -2.3278 -1.4022
 1796TIP3    H2 5395   0.228   3.587   2.234  0.3940 -0.7494 -0.6091
 1797TIP3   OH2 5396   1.793   0.523   4.927  0.6934  0.3424 -0.1239
 1797TIP3    H1 5397   1.840   0.593   4.972  0.8731 -0.4455  0.9457
 1797TIP3    H2 5398   1.839   0.443   4.951  1.3000 -0.0629 -2.3639
 1798TIP3   OH2 5399   2.719   3.037   4.038 -0.0505  0.6767 -0.0969
 1798TIP3    H1 5400   2.799   3.017   4.085 -0.1496  1.7480  0.5580
 1798TIP3    H2 5401   2.703   2.960   3.983  3.4932  1.8327 -3.1968
 1799TIP3   OH2 5402   5.288   1.947   2.649 -0.4309  0.0032 -0.2319
 1799TIP3    H1 5403   5.207   1.896   2.653 -0.5322  0.2357  0.9441
 1799TIP3    H2 5404   5.353   1.886   2.613 -0.8837 -0.5055 -0.2022
 1800TIP3   OH2 5405   5.357   0.876   1.169  0.4593  0.1425 -0.4004
 1800TIP3    H1 5406   5.326   0.900   1.081  0.2408 -0.2454 -0.4320
 1800TIP3    H2 5407   5.443   0.917   1.176 -0.2406  1.6604 -0.1301
 1801TIP3   OH2 5408   0.350   4.076   2.528  0.5646 -0.7231 -0.0203
 1801TIP3    H1 5409   0.371   4.104   2.438  0.8040 -0.5121  0.1009
 1801TIP3    H2 5410   0.372   3.983   2.529  2.6580 -0.2736  0.4396
 1802TIP3   OH2 5411   0.727   0.038   0.411 -0.1844 -0.2424 -0.5863
 1802TIP3    H1 5412   0.776   0.111   0.447  2.9651 -1.3932 -2.0912
 1802TIP3    H2 5413   0.688   0.072   0.330  0.3250  0.0723 -0.7024
 1803TIP3   OH2 5414   0.050   1.716   4.618 -0.0032 -0.2984 -0.3399
 1803TIP3    H1 5415   0.074   1.704   4.526 -0.6096 -0.4091 -0.4877
 1803TIP3    H2 5416   0.019   1.806   4.623 -0.3147 -0.4065 -0.3217
 1804TIP3   OH2 5417   2.340   4.200   4.061  0.4861 -0.3226 -0.7993
 1804TIP3    H1 5418   2.287   4.120   4.056 -1.5911  0.5624  3.0620
 1804TIP3    H2 5419   2.317   4.248   3.981 -1.4179 -1.8212 -1.2349
 1805TIP3   OH2 5420   0.036   5.302   2.228  0.1706 -0.4602 -0.0038
 1805TIP3    H1 5421   0.011   5.389   2.199  0.5443 -0.1244  0.6605
 1805TIP3    H2 5422   0.011   5.299   2.320 -3.3686 -2.3992 -0.8511
 1806TIP3   OH2 5423   1.254   3.654   1.175  0.0722 -0.1901 -0.0602
 1806TIP3    H1 5424   1.227   3.688   1.261  1.0446  2.1049 -0.5963
 1806TIP3    H2 5425   1.292   3.730   1.130  0.5362 -1.5831 -2.1407
 1807TIP3   OH2 5426   2.088   3.682   1.205 -0.1034  0.2349  0.8012
 1807TIP3    H1 5427   2.088   3.715   1.115 -0.0771 -2.1917 -0.1567
 1807TIP3    H2 5428   2.179   3.689   1.232  0.8719 -3.1061 -1.0786
 1808TIP3   OH2 5429   5.477   2.774   0.252 -0.1252 -0.0768 -0.2785
 1808TIP3    H1 5430   5.482   2.790   0.158  0.9942 -1.3936 -0.4774
 1808TIP3    H2 5431   5.390   2.737   0.265  0.0468 -0.7402 -0.9483
 1809TIP3   OH2 5432   2.790   3.641   3.887 -0.4150  0.2615 -0.3313
 1809TIP3    H1 5433   2.723   3.598   3.833 -0.9827  0.8261 -0.0879
 1809TIP3    H2 5434   2.846   3.569   3.918 -1.9466 -0.4524  0.9210
 1810TIP3   OH2 5435   5.409   3.906   2.434  0.1171 -0.7168 -0.3625
 1810TIP3    H1 5436   5.354   3.916   2.356  1.8801  0.5154 -1.4934
 1810TIP3    H2 5437   5.468   3.834   2.412 -0.5298 -1.5743  0.5849
 1811TIP3   OH2 5438   3.141   3.160   4.194  0.4422  0.2000 -0.1422
 1811TIP3    H1 5439   3.184   3.075   4.198  0.4147  0.2027  0.2184
 1811TIP3    H2 5440   3.188   3.214   4.258 -1.4227 -0.4003  1.8426
 1812TIP3   OH2 5441   2.436   3.832   3.785  0.2078 -0.2832 -0.2806
 1812TIP3    H1 5442   2.493   3.761   3.757  1.5410  0.2289  0.9752
 1812TIP3    H2 5443   2.348   3.803   3.762  0.6626 -2.5141  0.5369
 1813TIP3   OH2 5444   4.044   5.126   1.959 -0.2770 -0.1881  0.4097
 1813TIP3    H1 5445   4.114   5.066   1.985  1.4498  1.4136 -0.3266
 1813TIP3    H2 5446   3.986   5.073   1.905 -0.8509 -2.1021  2.7277
 1814TIP3   OH2 5447   1.190   1.638   3.784  0.1619  0.4531  0.2255
 1814TIP3    H1 5448   1.193   1.708   3.849 -0.8932 -0.1902  0.9916
 1814TIP3    H2 5449   1.125   1.577   3.817  0.8813 -0.7797 -0.5581
 1815TIP3   OH2 5450   0.054   4.614   0.017  0.4486 -0.5456 -0.2439
 1815TIP3    H1 5451   0.014   4.688   0.063  1.7570  1.2466 -1.8200
 1815TIP3    H2 5452   0.008   4.611  -0.067  0.6139 -1.3566 -0.3160
 1816TIP3   OH2 5453   1.693   2.388   2.827 -0.4107 -0.1085  0.4038
 1816TIP3    H1 5454   1.610   2.426   2.800  0.0223  0.0284 -0.7819
 1816TIP3    H2 5455   1.701   2.307   2.776  0.3122  0.0197  0.2961
 1817TIP3   OH2 5456   3.851   0.860   4.290  0.0595  0.8992  0.5199
 1817TIP3    H1 5457   3.765   0.877   4.328 -0.8972  0.6224 -1.4063
 1817TIP3    H2 5458   3.836   0.788   4.229  1.5107  1.3111 -0.3655
 1818TIP3   OH2 5459   5.344   4.991   1.751  0.5393  0.3707 -0.0242
 1818TIP3    H1 5460   5.262   4.949   1.777  1.1435 -1.1684 -0.4972
 1818TIP3    H2 5461   5.401   4.982   1.828  0.5654  0.6310 -0.0116
 1819TIP3   OH2 5462   5.525   0.637   3.250 -0.5342 -0.2101 -0.8160
 1819TIP3    H1 5463   5.496   0.554   3.212  0.1732 -1.2055  0.7479
 1819TIP3    H2 5464   5.591   0.612   3.315 -0.5079  1.5650 -0.1223
 1820TIP3   OH2 5465   4.511   4.490   0.217 -0.0135 -0.0965 -0.3558
 1820TIP3    H1 5466   4.513   4.450   0.305 -0.4923 -0.5068 -0.5244
 1820TIP3    H2 5467   4.600   4.521   0.203 -0.2730  1.3331  0.8944
 1821TIP3   OH2 5468   3.654   1.592   0.686 -0.2207  0.3493  0.0401
 1821TIP3    H1 5469   3.571   1.584   0.640 -1.2319  0.5477  1.7706
 1821TIP3    H2 5470   3.651   1.678   0.727  1.1281  0.6222 -0.3885
 1822TIP3   OH2 5471   1.004   5.847   4.084 -0.2087 -0.0995 -0.9683
 1822TIP3    H1 5472   1.075   5.794   4.121 -0.3379  0.4029  0.0466
 1822TIP3    H2 5473   0.927   5.823   4.136  0.1938  2.7754  1.2461
 1823TIP3   OH2 5474   3.178   1.032   0.163  0.0603 -0.0642 -0.3621
 1823TIP3    H1 5475   3.091   1.024   0.201  0.3337 -0.6816  0.1580
 1823TIP3    H2 5476   3.222   0.949   0.186  0.8791  0.3606 -0.3562
 1824TIP3   OH2 5477   2.941   1.980   3.489  0.1087 -0.0276  0.4386
 1824TIP3    H1 5478   2.975   1.920   3.555 -2.2046 -0.5242  1.2685
 1824TIP3    H2 5479   2.887   1.925   3.431 -0.9114  0.9862  0.3780
 1825TIP3   OH2 5480   3.355   5.473   3.820 -0.2843  0.0573  0.4509
 1825TIP3    H1 5481   3.381   5.475   3.912 -1.6271 -1.2901  0.9027
 1825TIP3    H2 5482   3.436   5.453   3.773  0.7533  2.3580  1.1355
 1826TIP3   OH2 5483   2.292   4.452   0.633  0.5126  0.3158  0.3346
 1826TIP3    H1 5484   2.358   4.383   0.637 -0.7850 -1.0526 -0.6209
 1826TIP3    H2 5485   2.284   4.472   0.540 -1.0669 -0.2382  0.3209
 1827TIP3   OH2 5486   3.801   1.140   0.319  0.6424  0.5162  0.1149
 1827TIP3    H1 5487   3.790   1.080   0.394  2.8745 -0.2229 -0.0746
 1827TIP3    H2 5488   3.799   1.227   0.358  1.2203  0.1634  0.9582
 1828TIP3   OH2 5489   5.237   1.902   3.081 -0.5139  0.5138  0.1944
 1828TIP3    H1 5490   5.197   1.815   3.081  1.9312 -0.8040 -2.7033
 1828TIP3    H2 5491   5.175   1.958   3.035 -0.7308 -0.5237 -0.8126
 1829TIP3   OH2 5492   2.713   2.973   2.208  0.1080 -0.3167  0.4740
 1829TIP3    H1 5493   2.674   2.990   2.294 -0.1998  0.4481  0.1906
 1829TIP3    H2 5494   2.760   3.053   2.187  1.6904 -1.1443  0.7161
 1830TIP3   OH2 5495   0.105   4.188   2.565 -0.3948  0.2850 -0.2962
 1830TIP3    H1 5496   0.193   4.150   2.568 -0.5460 -0.0562  2.4430
 1830TIP3    H2 5497   0.108   4.260   2.627 -2.6318 -1.2407  1.7835
 1831TIP3   OH2 5498   2.225   1.933   1.790 -0.6532 -0.6446 -0.0562
 1831TIP3    H1 5499   2.313   1.971   1.800 -0.5295 -1.2510  1.4553
 1831TIP3    H2 5500   2.203   1.903   1.878 -1.4439 -2.5541 -0.8758
 1832TIP3   OH2 5501   5.085   2.339   4.161  0.0205  0.3721 -0.2460
 1832TIP3    H1 5502   5.124   2.330   4.074  0.0659 -0.8429 -0.1177
 1832TIP3    H2 5503   5.023   2.267   4.168 -1.3392  1.5068  0.0578
 1833TIP3   OH2 5504   4.715   5.262   4.765  0.0187  0.3476 -0.2976
 1833TIP3    H1 5505   4.757   5.181   4.736  0.4495  0.8055 -1.0095
 1833TIP3    H2 5506   4.785   5.309   4.811 -0.6736 -0.3903  1.5933
 1834TIP3   OH2 5507   3.622   0.795   0.535 -0.1907  0.0920 -0.0651
 1834TIP3    H1 5508   3.641   0.775   0.627 -1.0647  1.0290  0.3478
 1834TIP3    H2 5509   3.528   0.776   0.526 -0.2293  0.5151 -0.6056
 1835TIP3   OH2 5510   1.716   3.935   4.678 -0.3854 -0.0142  1.0078
 1835TIP3    H1 5511   1.647   4.000   4.683 -2.4323 -1.9436 -0.4552
 1835TIP3    H2 5512   1.673   3.851   4.697  1.3462 -1.3986 -0.6876
 1836TIP3   OH2 5513   3.482   4.294   5.138 -0.2308 -0.0841  0.4827
 1836TIP3    H1 5514   3.466   4.387   5.155  2.6506  0.8320 -1.1133
 1836TIP3    H2 5515   3.521   4.261   5.220 -0.5740  0.2899  0.7998
 1837TIP3   OH2 5516   3.965   3.726   1.152 -0.0428  0.2882 -0.2108
 1837TIP3    H1 5517   3.908   3.772   1.090  0.1849 -0.0922 -0.7084
 1837TIP3    H2 5518   4.016   3.666   1.098  0.4205  0.2105  0.3046
 1838TIP3   OH2 5519   5.665   3.305   2.087 -0.0198  0.4433  0.3098
 1838TIP3    H1 5520   5.587   3.261   2.054  0.4258  0.5116 -0.8567
 1838TIP3    H2 5521   5.692   3.363   2.016  0.4572  1.2556  1.1275
 1839TIP3   OH2 5522   5.499   4.781   2.781 -0.0998  0.1278  0.1782
 1839TIP3    H1 5523   5.503   4.686   2.788  0.9001  0.2126  0.9682
 1839TIP3    H2 5524   5.560   4.802   2.711  0.7580  0.2728  0.9531
 1840TIP3   OH2 5525   1.812   4.169   0.122  0.2501  0.2840  0.3957
 1840TIP3    H1 5526   1.850   4.255   0.139  2.1074  0.0626 -2.0565
 1840TIP3    H2 5527   1.828   4.154   0.029 -1.8582 -1.8628  0.2816
 1841TIP3   OH2 5528   5.363   5.304   1.621  0.3952 -0.0035  0.2380
 1841TIP3    H1 5529   5.280   5.257   1.613  0.1941  0.3477  0.2150
 1841TIP3    H2 5530   5.338   5.396   1.617  0.9687  0.1060 -1.5921
 1842TIP3   OH2 5531   0.353   4.005   1.391 -0.1402  0.1201  0.2463
 1842TIP3    H1 5532   0.327   3.924   1.433 -1.5114  0.5106  0.1902
 1842TIP3    H2 5533   0.297   4.072   1.430  0.4106  0.9134 -0.2827
 1843TIP3   OH2 5534   2.409   5.283   4.402 -0.1297 -0.0742 -0.3569
 1843TIP3    H1 5535   2.470   5.287   4.476  0.4629 -2.5447 -0.6438
 1843TIP3    H2 5536   2.322   5.293   4.441  0.2423 -0.3759  0.5595
 1844TIP3   OH2 5537   0.049   3.280   3.665 -0.2635 -0.3700 -0.4670
 1844TIP3    H1 5538   0.017   3.247   3.581  0.6816 -0.9168 -0.6227
 1844TIP3    H2 5539   0.091   3.205   3.706  1.6993  0.5289 -0.7131
 1845TIP3   OH2 5540   3.066   1.867   1.902  0.0121  0.1380  0.5193
 1845TIP3    H1 5541   3.009   1.918   1.845  0.1086 -3.1173 -2.8617
 1845TIP3    H2 5542   3.153   1.877   1.863  0.9419  1.0654  2.6614
 1846TIP3   OH2 5543   0.459   4.710   3.206 -0.4091 -0.0490 -0.4658
 1846TIP3    H1 5544   0.530   4.695   3.267  0.0436 -0.6194 -1.1237
 1846TIP3    H2 5545   0.379   4.703   3.259 -0.0181 -0.4209  0.0731
 1847TIP3   OH2 5546   4.780   1.416   4.197 -0.0803 -0.4253  0.1190
 1847TIP3    H1 5547   4.804   1.383   4.110 -1.2266 -0.9158 -0.0239
 1847TIP3    H2 5548   4.717   1.486   4.180 -0.8537 -0.9948  0.5622
 1848TIP3   OH2 5549   4.265   0.734   4.094 -0.1178 -0.6383  0.3231
 1848TIP3    H1 5550   4.227   0.785   4.166 -2.8858 -0.8061 -0.9286
 1848TIP3    H2 5551   4.231   0.646   4.107  0.1203 -0.8829 -0.6869
 1849TIP3   OH2 5552   3.095   2.384   2.260 -0.0824  0.3850  0.2681
 1849TIP3    H1 5553   3.123   2.350   2.345  0.4888 -0.6047 -0.2974
 1849TIP3    H2 5554   3.123   2.475   2.260 -0.7576  0.6162  1.4327
 1850TIP3   OH2 5555   5.897   0.659   0.751  0.4597 -0.0541 -0.4888
 1850TIP3    H1 5556   5.813   0.684   0.713  2.2167  2.2257 -3.2578
 1850TIP3    H2 5557   5.924   0.734   0.804  1.5501  0.0714 -1.1742
 1851TIP3   OH2 5558   6.232   3.104   0.093  0.0031 -0.2002  0.2305
 1851TIP3    H1 5559   6.222   3.115  -0.001  1.2783  3.2444  0.3598
 1851TIP3    H2 5560   6.146   3.123   0.129 -0.3653 -1.0454 -0.1672
 1852TIP3   OH2 5561   4.254   5.511   1.786 -0.3402  0.2870 -0.3231
 1852TIP3    H1 5562   4.174   5.459   1.777 -0.2209 -0.0662  0.5302
 1852TIP3    H2 5563   4.323   5.455   1.749  0.1072 -1.0441  2.2889
 1853TIP3   OH2 5564   5.070   2.157   2.112  0.1645  0.4002  0.5147
 1853TIP3    H1 5565   5.066   2.079   2.056 -1.3348  1.1618 -0.5316
 1853TIP3    H2 5566   5.047   2.126   2.199  1.2774 -0.6037  0.4708
 1854TIP3   OH2 5567   4.601   4.295   1.458  1.2427  0.2434  0.1787
 1854TIP3    H1 5568   4.627   4.336   1.376 -0.5331 -0.0102 -0.5589
 1854TIP3    H2 5569   4.671   4.317   1.520  1.1708  2.9689 -0.6068
 1855TIP3   OH2 5570   3.529   1.146   4.352 -0.2472  0.2044 -0.2246
 1855TIP3    H1 5571   3.568   1.059   4.364  1.1191  0.8872  0.6090
 1855TIP3    H2 5572   3.460   1.133   4.288 -0.3966 -1.5902  0.2516
 1856TIP3   OH2 5573   3.697   1.669   3.273  0.0460  0.5164  0.1370
 1856TIP3    H1 5574   3.659   1.622   3.198 -1.1355  1.0686  0.3626
 1856TIP3    H2 5575   3.791   1.667   3.257 -0.0469 -0.9413 -0.4366
 1857TIP3   OH2 5576   5.688   4.712   3.243 -0.1750  0.0372  0.3634
 1857TIP3    H1 5577   5.663   4.756   3.324  1.5694  1.8996 -0.0276
 1857TIP3    H2 5578   5.606   4.701   3.195 -0.9349  0.9519  1.4156
 1858TIP3   OH2 5579   5.022   5.131   0.355  1.1323 -0.0607  0.3211
 1858TIP3    H1 5580   5.022   5.227   0.361  0.8207  0.0637 -1.1530
 1858TIP3    H2 5581   4.936   5.105   0.387  0.8131  0.2446 -0.2789
 1859TIP3   OH2 5582   6.058   2.485   4.262 -0.4941 -0.1643 -0.0108
 1859TIP3    H1 5583   6.127   2.433   4.303 -1.1339 -0.2645  0.9908
 1859TIP3    H2 5584   6.057   2.567   4.311 -1.1344 -0.1966  0.0406
 1860TIP3   OH2 5585   3.628   5.094   3.613 -0.2816  0.0875 -0.5681
 1860TIP3    H1 5586   3.682   5.166   3.645  0.7629 -0.5424 -0.8370
 1860TIP3    H2 5587   3.570   5.134   3.549  0.2679  0.6954 -0.7008
 1861TIP3   OH2 5588   3.723   1.628   4.629  0.0261  0.1109 -0.3110
 1861TIP3    H1 5589   3.756   1.709   4.591 -0.8675  0.3292 -0.6510
 1861TIP3    H2 5590   3.643   1.654   4.675  1.3687 -0.0260  2.2904
 1862TIP3   OH2 5591   1.877   3.009   1.779 -0.6454  0.2985 -0.6166
 1862TIP3    H1 5592   1.890   3.083   1.720 -0.0070  0.0394 -0.8091
 1862TIP3    H2 5593   1.965   2.981   1.803 -0.8936  0.1822  0.1961
 1863TIP3   OH2 5594   0.090   2.562   3.371 -0.1519 -0.3699  0.4185
 1863TIP3    H1 5595   0.120   2.489   3.424  3.7765  0.7293  0.0937
 1863TIP3    H2 5596   0.069   2.631   3.434  1.0441 -0.2153  0.6731
 1864TIP3   OH2 5597   5.470   3.386   4.686 -0.1091 -0.0755 -0.1300
 1864TIP3    H1 5598   5.552   3.431   4.706 -0.0398 -1.2246  2.6987
 1864TIP3    H2 5599   5.488   3.335   4.607  0.9398  1.8991 -1.2433
 1865TIP3   OH2 5600   3.846   4.945   1.572  1.1027  0.0416  0.3051
 1865TIP3    H1 5601   3.937   4.918   1.582  0.7532 -0.7040  1.7877
 1865TIP3    H2 5602   3.840   5.028   1.618  1.1585  0.4081 -0.3349
 1866TIP3   OH2 5603   2.513   3.823   4.070 -0.8540 -0.4115 -0.8533
 1866TIP3    H1 5604   2.482   3.851   3.984  0.6029  1.2376 -0.8964
 1866TIP3    H2 5605   2.578   3.755   4.051 -2.2675 -1.8158 -0.8883
 1867TIP3   OH2 5606   5.357   2.986   2.863  0.1591  0.3904 -0.4105
 1867TIP3    H1 5607   5.412   2.914   2.893  0.2586 -1.0362 -3.5667
 1867TIP3    H2 5608   5.416   3.041   2.811 -0.4400  1.4623  0.0121
 1868TIP3   OH2 5609   0.119   1.018   3.527 -0.3629  0.3705 -0.1755
 1868TIP3    H1 5610   0.139   1.095   3.579 -1.0900  1.3779 -1.3350
 1868TIP3    H2 5611   0.025   1.006   3.537  0.0277 -1.8224  1.8798
 1869TIP3   OH2 5612   2.849   4.185   4.103  0.3344 -0.6354 -0.0098
 1869TIP3    H1 5613   2.829   4.105   4.151  0.2917 -0.8096 -0.3164
 1869TIP3    H2 5614   2.829   4.255   4.165  2.6806 -0.8951  1.1604
 1870TIP3   OH2 5615   0.146   3.042   3.238  0.1612 -0.1955 -0.3739
 1870TIP3    H1 5616   0.202   3.091   3.299 -0.4550  2.0347 -1.5041
 1870TIP3    H2 5617   0.206   2.981   3.195  1.0762 -0.1122  0.7442
 1871TIP3   OH2 5618   1.249   2.592   1.978  0.4576  0.6613  0.5345
 1871TIP3    H1 5619   1.239   2.514   1.923  1.1469  0.3287  0.8709
 1871TIP3    H2 5620   1.274   2.558   2.064 -0.0224  1.2128  0.9025
 1872TIP3   OH2 5621   0.726   0.722   4.560  0.6385  0.2265 -0.1973
 1872TIP3    H1 5622   0.738   0.805   4.514  2.0327 -0.6413 -1.4880
 1872TIP3    H2 5623   0.638   0.728   4.599 -0.2588  1.3559 -2.2679
 1873TIP3   OH2 5624   3.509   0.881   2.101  0.0686 -0.3133  0.0104
 1873TIP3    H1 5625   3.476   0.792   2.088  2.0247 -1.0545 -0.1136
 1873TIP3    H2 5626   3.559   0.877   2.182 -2.1314  1.4052  1.5755
 1874TIP3   OH2 5627   2.953   5.066   4.721 -0.7451 -0.2192  0.0440
 1874TIP3    H1 5628   2.915   5.152   4.703  0.0592 -0.1532 -1.5071
 1874TIP3    H2 5629   3.039   5.069   4.679 -1.0741 -2.0981 -0.8861
 1875TIP3   OH2 5630   3.965   5.687   1.726 -0.3952  0.2311  0.3497
 1875TIP3    H1 5631   4.014   5.768   1.740 -0.3494 -0.0743  2.2480
 1875TIP3    H2 5632   3.939   5.659   1.814 -0.8633 -1.5409 -0.3030
 1876TIP3   OH2 5633   2.094   4.063   1.108 -0.7185 -0.0060  0.0926
 1876TIP3    H1 5634   2.189   4.078   1.115 -0.8868  0.3018  2.6454
 1876TIP3    H2 5635   2.086   3.969   1.096 -0.0772 -0.4755  2.6424
 1877TIP3   OH2 5636   3.988   1.601   1.878  0.3513  0.1914  0.0357
 1877TIP3    H1 5637   4.036   1.536   1.928  0.0059  0.1503  0.3152
 1877TIP3    H2 5638   3.980   1.564   1.790 -0.2200 -0.3335  0.3067
 1878TIP3   OH2 5639   1.425   5.121   2.430 -0.0322  0.3993  0.3120
 1878TIP3    H1 5640   1.355   5.059   2.447 -0.6801  1.2683  0.9009
 1878TIP3    H2 5641   1.501   5.067   2.409 -0.0999 -0.6854  2.5103
 1879TIP3   OH2 5642   4.202   5.410   4.606  0.0529  0.1192  0.5429
 1879TIP3    H1 5643   4.198   5.479   4.540 -1.5710 -0.0145  0.4726
 1879TIP3    H2 5644   4.291   5.415   4.640  0.5553  0.9617 -0.8219
 1880TIP3   OH2 5645   1.842   0.323   4.209 -0.5290  0.4999  0.8593
 1880TIP3    H1 5646   1.855   0.399   4.266 -0.3242  0.6699  0.5933
 1880TIP3    H2 5647   1.877   0.249   4.258 -0.8166  0.5632  1.1601
 1881TIP3   OH2 5648   3.918   3.172   0.637 -0.3396  0.0818 -0.7515
 1881TIP3    H1 5649   4.002   3.137   0.607 -0.9392 -1.0799 -1.1668
 1881TIP3    H2 5650   3.914   3.148   0.730 -0.2941 -0.0454 -0.7812
 1882TIP3   OH2 5651   5.388   2.784   4.792  0.0186  0.2442 -0.0873
 1882TIP3    H1 5652   5.292   2.786   4.786 -0.0119  1.3530  0.4732
 1882TIP3    H2 5653   5.414   2.876   4.794  1.0956 -0.0425 -0.1104
 1883TIP3   OH2 5654   3.806   5.719   4.595 -0.3157 -0.0566  0.0550
 1883TIP3    H1 5655   3.721   5.695   4.632  0.0245 -0.4622  0.5972
 1883TIP3    H2 5656   3.847   5.635   4.573  0.2051  0.0943  0.4112
 1884TIP3   OH2 5657   4.862   4.032   3.520 -0.7799 -0.4869 -0.2100
 1884TIP3    H1 5658   4.807   4.066   3.450  0.9678 -1.2098 -2.0297
 1884TIP3    H2 5659   4.841   3.939   3.525 -1.7725 -0.2292  1.1400
 1885TIP3   OH2 5660   5.542   2.542   3.316 -0.5201 -0.2075  0.3293
 1885TIP3    H1 5661   5.594   2.462   3.326 -0.4536 -0.3063 -0.6545
 1885TIP3    H2 5662   5.462   2.525   3.365 -1.2044 -1.5450 -1.1524
 1886TIP3   OH2 5663   5.697   4.128   0.612 -0.0689  0.2190 -0.1628
 1886TIP3    H1 5664   5.643   4.175   0.676 -2.6541 -0.8106 -1.4184
 1886TIP3    H2 5665   5.682   4.036   0.632  0.7031 -0.1033 -1.0217
 1887TIP3   OH2 5666   4.318   5.936   4.648 -0.4414  0.3008  0.8394
 1887TIP3    H1 5667   4.409   5.925   4.621 -0.9786  0.7026 -1.3536
 1887TIP3    H2 5668   4.280   5.848   4.641 -0.5975  0.4171  0.1525
 1888TIP3   OH2 5669   5.253   2.741   3.856  0.3029 -0.2231 -0.5719
 1888TIP3    H1 5670   5.331   2.719   3.906  0.2195 -0.5426 -0.5798
 1888TIP3    H2 5671   5.210   2.810   3.907  0.3123 -0.4216 -0.2941
 1889TIP3   OH2 5672   0.480   3.617   0.876  0.1317 -0.3883  0.2760
 1889TIP3    H1 5673   0.474   3.548   0.941  0.9003 -0.7520 -0.0371
 1889TIP3    H2 5674   0.517   3.692   0.923  2.9727 -1.3646 -0.2536
 1890TIP3   OH2 5675   5.757   5.410   3.294 -0.5047 -0.8082 -0.0872
 1890TIP3    H1 5676   5.750   5.381   3.203 -1.0750 -0.4096 -0.1759
 1890TIP3    H2 5677   5.800   5.337   3.339 -0.4716 -1.1236 -0.6205
 1891TIP3   OH2 5678   3.094   1.015   2.554 -0.0019 -0.5293 -0.1054
 1891TIP3    H1 5679   3.065   0.996   2.643  0.5284  1.7986  0.6149
 1891TIP3    H2 5680   3.187   1.038   2.563  0.6401 -2.2653 -1.5811
 1892TIP3   OH2 5681   2.076   1.172   4.203 -0.1101  0.0788 -0.5239
 1892TIP3    H1 5682   2.084   1.081   4.173  1.3987  0.2781 -0.7539
 1892TIP3    H2 5683   1.999   1.170   4.261  1.2643 -1.8789  1.4064
 1893TIP3   OH2 5684   3.822   3.512   1.034  0.0996 -0.0711 -0.1336
 1893TIP3    H1 5685   3.764   3.443   1.000  0.1846 -0.4949  0.5548
 1893TIP3    H2 5686   3.763   3.577   1.072  0.0509 -0.2414  0.0853
 1894TIP3   OH2 5687   3.758   4.696   4.008  0.2436  0.1150  0.0989
 1894TIP3    H1 5688   3.696   4.765   3.985  0.9595  0.0071 -2.3560
 1894TIP3    H2 5689   3.707   4.615   4.004 -0.5565  0.3617  2.8278
 1895TIP3   OH2 5690   4.253   1.389   1.453  0.5549 -0.2437  0.2695
 1895TIP3    H1 5691   4.255   1.393   1.549  1.1195 -2.6953  0.4257
 1895TIP3    H2 5692   4.175   1.337   1.433  0.2505  0.5386 -0.6373
 1896TIP3   OH2 5693   3.312   3.461   4.680 -0.1343 -0.0536 -0.4909
 1896TIP3    H1 5694   3.268   3.452   4.595 -0.0609  1.1067 -0.6662
 1896TIP3    H2 5695   3.270   3.395   4.735 -1.2067  0.1535 -1.0208
 1897TIP3   OH2 5696   1.986   2.631   4.526 -0.4731 -0.0287  0.5107
 1897TIP3    H1 5697   2.024   2.717   4.509 -1.5413  0.4610  0.5631
 1897TIP3    H2 5698   1.894   2.648   4.544 -0.0487 -0.6994  4.3156
 1898TIP3   OH2 5699   1.504   5.434   3.886 -0.4851  0.2513  0.3163
 1898TIP3    H1 5700   1.588   5.407   3.923  0.2131  0.8694 -0.7540
 1898TIP3    H2 5701   1.459   5.352   3.865  0.4052 -0.0938 -0.2974
 1899TIP3   OH2 5702   4.495   3.876   0.690 -0.2151 -0.2935  0.3068
 1899TIP3    H1 5703   4.525   3.861   0.779  1.0800 -0.2907 -0.1093
 1899TIP3    H2 5704   4.447   3.797   0.666 -0.2477 -0.4434  0.8632
 1900TIP3   OH2 5705   2.686   0.693   1.461  0.0407 -0.2596 -0.5582
 1900TIP3    H1 5706   2.601   0.651   1.449  0.0607 -0.2084 -0.9113
 1900TIP3    H2 5707   2.665   0.780   1.494  0.0201 -0.6888  0.6048
 1901TIP3   OH2 5708   0.466   2.225   4.404 -0.3942  0.0574 -0.5898
 1901TIP3    H1 5709   0.552   2.186   4.391  1.0037  2.1728  1.5035
 1901TIP3    H2 5710   0.415   2.197   4.327  2.6656  0.1690 -2.8380
 1902TIP3   OH2 5711   3.094   4.154   2.440 -0.4598 -1.0065 -0.5625
 1902TIP3    H1 5712   3.040   4.076   2.429 -0.0197 -1.2642 -0.9113
 1902TIP3    H2 5713   3.135   4.143   2.526  0.9590 -2.0121 -1.3389
 1903TIP3   OH2 5714   3.991   5.838   4.447  0.1676  0.0729  0.3402
 1903TIP3    H1 5715   4.007   5.916   4.501 -0.0954  0.1431  0.3222
 1903TIP3    H2 5716   3.916   5.795   4.490  0.5882 -0.4081  0.6010
 1904TIP3   OH2 5717   0.303   3.377   1.989 -0.4321 -0.6498  0.4072
 1904TIP3    H1 5718   0.324   3.470   1.979 -1.1544 -0.4581  0.6248
 1904TIP3    H2 5719   0.284   3.346   1.901  1.0299 -0.8998  0.1636
 1905TIP3   OH2 5720   5.526   1.686   0.330 -0.3174 -0.1922  0.4646
 1905TIP3    H1 5721   5.522   1.610   0.272 -1.7313  1.2254 -1.3946
 1905TIP3    H2 5722   5.436   1.718   0.334  0.5577  2.7151 -0.7083
 1906TIP3   OH2 5723   5.845   5.359   2.991 -0.5554 -0.5384 -0.0118
 1906TIP3    H1 5724   5.877   5.449   2.984  0.1499 -0.4560  3.0546
 1906TIP3    H2 5725   5.883   5.314   2.916  0.6788  1.2801 -0.5425
 1907TIP3   OH2 5726   5.908   4.027   1.776  0.3475 -1.1270 -0.6629
 1907TIP3    H1 5727   5.951   3.963   1.832  0.2232 -0.8442 -0.2366
 1907TIP3    H2 5728   5.908   4.108   1.828 -1.9757 -1.4534 -0.0505
 1908TIP3   OH2 5729   6.109   5.579   3.975 -0.0305 -0.5997  0.5580
 1908TIP3    H1 5730   6.092   5.489   3.949  0.5396 -1.0092  1.5367
 1908TIP3    H2 5731   6.164   5.614   3.905  3.3784 -2.3791  2.0979
 1909TIP3   OH2 5732   1.548   1.350   1.988 -0.3290 -0.9588 -0.0182
 1909TIP3    H1 5733   1.544   1.422   1.925 -0.1691  0.5276  1.6102
 1909TIP3    H2 5734   1.460   1.312   1.986 -0.6239 -0.2824 -0.4140
 1910TIP3   OH2 5735   0.036   2.079   2.369 -0.2949  0.2068 -0.4300
 1910TIP3    H1 5736   0.064   1.988   2.352 -0.0196 -0.1268  1.5523
 1910TIP3    H2 5737  -0.037   2.093   2.309 -0.1165 -1.2081 -1.0270
 1911TIP3   OH2 5738   4.083   0.382   3.520  0.0025 -0.1875  0.1895
 1911TIP3    H1 5739   4.166   0.395   3.564 -1.1139 -0.4389  2.5226
 1911TIP3    H2 5740   4.035   0.463   3.534 -0.6533 -0.5487  0.0986
 1912TIP3   OH2 5741   1.387   2.592   1.554 -0.1410  0.2643  0.7382
 1912TIP3    H1 5742   1.378   2.511   1.504  1.1229  0.2458  0.5052
 1912TIP3    H2 5743   1.429   2.565   1.635 -0.5174  0.5645  1.0349
 1913TIP3   OH2 5744   1.578   1.391   4.433 -1.1629  0.5610 -0.0437
 1913TIP3    H1 5745   1.564   1.395   4.527  1.1444 -1.1021  0.4644
 1913TIP3    H2 5746   1.613   1.303   4.417  1.3823  1.7636 -1.9543
 1914TIP3   OH2 5747   3.630   5.184   3.926 -0.0890  0.0416  0.0133
 1914TIP3    H1 5748   3.675   5.264   3.901 -0.5729 -0.4655 -2.7810
 1914TIP3    H2 5749   3.543   5.212   3.953 -0.8105  0.4312 -2.4730
 1915TIP3   OH2 5750   2.979   3.324   3.640 -0.1138  0.6141  0.5527
 1915TIP3    H1 5751   2.952   3.376   3.564 -0.3180  0.3987  0.4760
 1915TIP3    H2 5752   2.946   3.236   3.621 -1.0493  0.7800  1.3539
 1916TIP3   OH2 5753   0.493   3.575   2.615 -0.4237  0.3293 -0.2726
 1916TIP3    H1 5754   0.463   3.606   2.530 -2.0323  0.4368  0.3047
 1916TIP3    H2 5755   0.425   3.516   2.646  0.7775 -0.7797  0.3683
 1917TIP3   OH2 5756   2.853   1.594   2.233  0.4745  0.3004  0.0655
 1917TIP3    H1 5757   2.890   1.658   2.172 -0.4363  0.2971 -0.5142
 1917TIP3    H2 5758   2.899   1.513   2.213  0.5825  0.4319 -0.2274
 1918TIP3   OH2 5759   0.024   4.244   4.344 -0.0148 -0.0303 -0.1404
 1918TIP3    H1 5760   0.098   4.287   4.388 -1.0459 -0.9135  2.6585
 1918TIP3    H2 5761   0.056   4.155   4.326  0.0112 -0.0294 -0.0976
 1919TIP3   OH2 5762   1.512   5.485   3.606  0.2024 -0.8941  0.5055
 1919TIP3    H1 5763   1.490   5.482   3.699 -2.0601  2.0871  0.2167
 1919TIP3    H2 5764   1.581   5.551   3.600 -1.3264  0.7179 -0.0946
 1920TIP3   OH2 5765   4.794   3.451   2.687 -0.1334  0.0111  0.0032
 1920TIP3    H1 5766   4.814   3.361   2.662  1.2568  0.8732 -2.3393
 1920TIP3    H2 5767   4.874   3.483   2.728 -0.7899  0.0748  1.2828
 1921TIP3   OH2 5768   4.778   5.644   1.682 -0.2909  0.1534  0.2664
 1921TIP3    H1 5769   4.741   5.732   1.678  1.2154  0.7892 -0.5132
 1921TIP3    H2 5770   4.785   5.626   1.776  3.6139  2.8455  0.7443
 1922TIP3   OH2 5771   0.176   3.425   4.083  0.1057  0.0141  0.2786
 1922TIP3    H1 5772   0.108   3.378   4.131  0.5147 -0.4826  0.3829
 1922TIP3    H2 5773   0.154   3.517   4.093 -1.5251 -0.1814 -1.1074
 1923TIP3   OH2 5774   5.259   3.607   0.532 -0.0834  0.3756 -0.2549
 1923TIP3    H1 5775   5.277   3.638   0.443 -0.7285  1.4722 -0.0222
 1923TIP3    H2 5776   5.178   3.557   0.525  0.0104  0.2326 -0.3252
 1924TIP3   OH2 5777   0.359   1.767   4.466 -0.3459 -0.3314  0.8758
 1924TIP3    H1 5778   0.417   1.751   4.540 -0.6869  1.2635  1.5299
 1924TIP3    H2 5779   0.418   1.779   4.391  0.0280 -1.3552  1.0022
 1925TIP3   OH2 5780   1.050   3.771   4.036  0.0166 -0.6273 -0.0698
 1925TIP3    H1 5781   1.051   3.721   3.954 -1.0216  0.8623 -1.0446
 1925TIP3    H2 5782   0.958   3.782   4.057  0.2261  0.3550  0.4217
 1926TIP3   OH2 5783   1.884   3.194   4.580 -0.0548  0.1593  0.3538
 1926TIP3    H1 5784   1.945   3.233   4.642 -2.0090  2.6891  0.8603
 1926TIP3    H2 5785   1.884   3.254   4.505 -0.9658 -0.4956 -0.1967
 1927TIP3   OH2 5786   5.930   1.236   2.792 -0.3144  0.0754 -0.4299
 1927TIP3    H1 5787   5.907   1.150   2.828  0.5030  0.2456  0.5501
 1927TIP3    H2 5788   5.856   1.292   2.815 -1.4256 -0.6264 -2.1559
 1928TIP3   OH2 5789   1.928   2.502   2.709  0.6284 -0.2469 -0.4849
 1928TIP3    H1 5790   2.009   2.452   2.715 -0.0353 -1.2590  0.3859
 1928TIP3    H2 5791   1.863   2.450   2.757 -0.3421  0.9442 -0.4357
 1929TIP3   OH2 5792   1.178   1.424   4.448 -0.1902 -0.6617  0.1458
 1929TIP3    H1 5793   1.102   1.368   4.466 -0.9342  0.2123 -0.1940
 1929TIP3    H2 5794   1.195   1.411   4.355  0.6677 -1.5453  0.4060
 1930TIP3   OH2 5795   5.912   4.378   4.151  0.5853  0.2903  0.2354
 1930TIP3    H1 5796   5.974   4.349   4.218  2.2517  1.4993 -0.7107
 1930TIP3    H2 5797   5.955   4.360   4.068 -0.7568  0.3003 -0.5030
 1931TIP3   OH2 5798   4.324   3.370   4.040  1.1948  0.5202 -0.4710
 1931TIP3    H1 5799   4.414   3.392   4.017  1.3289 -0.1904 -0.6535
 1931TIP3    H2 5800   4.333   3.307   4.112  0.8518  0.2159 -0.6941
 1932TIP3   OH2 5801   2.302   0.549   2.214  0.0025  0.1343 -0.6805
 1932TIP3    H1 5802   2.344   0.485   2.271 -1.7679  0.0893  0.6612
 1932TIP3    H2 5803   2.310   0.632   2.262 -0.0929  0.4058 -1.1318
 1933TIP3   OH2 5804   1.001   1.789   0.217 -0.0488 -0.1361 -0.2867
 1933TIP3    H1 5805   0.951   1.728   0.270  0.1627  0.4584  0.6246
 1933TIP3    H2 5806   0.972   1.773   0.127 -3.1512  1.3027  0.3188
 1934TIP3   OH2 5807   2.119   5.695   3.419 -0.3838 -0.0992 -0.8298
 1934TIP3    H1 5808   2.213   5.693   3.397 -0.2626  1.1966 -0.5047
 1934TIP3    H2 5809   2.082   5.762   3.362 -0.7932  0.5569  0.1720
 1935TIP3   OH2 5810   0.237   3.331   4.784 -0.1080 -0.4343 -0.4574
 1935TIP3    H1 5811   0.254   3.254   4.729 -1.3446 -0.9180 -0.1995
 1935TIP3    H2 5812   0.298   3.323   4.857  0.4901 -0.6092 -0.9682
 1936TIP3   OH2 5813   5.206   2.684   2.531  0.7276 -0.3595  0.5294
 1936TIP3    H1 5814   5.249   2.757   2.487 -0.6829 -0.1079 -0.5030
 1936TIP3    H2 5815   5.207   2.613   2.467 -0.2626 -0.3808  0.5228
 1937TIP3   OH2 5816   2.192   2.685   0.257  0.4269 -0.2372 -0.1924
 1937TIP3    H1 5817   2.222   2.756   0.314 -1.9619  0.3830  0.3914
 1937TIP3    H2 5818   2.166   2.615   0.318 -0.3178 -0.3241 -0.6054
 1938TIP3   OH2 5819   4.376   5.229   0.109 -0.1851 -0.2638 -0.1691
 1938TIP3    H1 5820   4.428   5.196   0.182 -1.6535 -0.5445  0.8045
 1938TIP3    H2 5821   4.356   5.319   0.133  2.2428  0.8564 -1.9383
 1939TIP3   OH2 5822   4.263   4.993   2.057 -0.3324  0.3346 -0.6260
 1939TIP3    H1 5823   4.291   4.902   2.068  0.4856  0.7279  0.8697
 1939TIP3    H2 5824   4.332   5.033   2.004  0.3272  0.5237  0.3445
 1940TIP3   OH2 5825   2.506   1.492   1.186 -0.4082  0.1651  0.1826
 1940TIP3    H1 5826   2.508   1.584   1.213 -0.5143 -0.2286  1.6010
 1940TIP3    H2 5827   2.589   1.480   1.139 -1.2639  1.4624 -1.7579
 1941TIP3   OH2 5828   2.565   4.258   1.559 -0.0803  0.3457 -0.0690
 1941TIP3    H1 5829   2.657   4.231   1.561 -0.0637  0.4259  0.2964
 1941TIP3    H2 5830   2.534   4.229   1.473  0.2483  0.1930 -0.1395
 1942TIP3   OH2 5831   0.806   0.520   1.387 -0.3462 -0.0787  0.2295
 1942TIP3    H1 5832   0.866   0.477   1.327  0.3467  0.0845  0.7882
 1942TIP3    H2 5833   0.861   0.580   1.438 -1.1488  0.8125  0.0738
 1943TIP3   OH2 5834   3.145   3.866   2.328  0.0449  0.2427  0.0848
 1943TIP3    H1 5835   3.071   3.911   2.369 -0.4342  0.3895 -0.8998
 1943TIP3    H2 5836   3.110   3.781   2.301  0.2131  0.3329 -0.4329
 1944TIP3   OH2 5837   3.239   3.715   2.840  0.6326  0.0787  0.1496
 1944TIP3    H1 5838   3.228   3.753   2.927 -0.5764 -1.7727  0.8696
 1944TIP3    H2 5839   3.229   3.790   2.780 -1.6162  0.9582  1.4845
 1945TIP3   OH2 5840   3.188   0.724   0.706 -0.1288 -0.0964  0.2668
 1945TIP3    H1 5841   3.156   0.762   0.788 -1.5269  0.5732 -0.5528
 1945TIP3    H2 5842   3.119   0.743   0.642  1.4917  0.5519 -1.3914
 1946TIP3   OH2 5843   1.857   5.155   4.720  0.4714 -0.2425  0.4717
 1946TIP3    H1 5844   1.806   5.092   4.771  0.6966 -1.5504 -0.8264
 1946TIP3    H2 5845   1.947   5.141   4.748  0.4812 -0.2827  0.4217
 1947TIP3   OH2 5846   2.064   0.576   3.562  0.1193 -0.3964 -0.5827
 1947TIP3    H1 5847   2.110   0.492   3.564 -2.5161 -1.9521  0.8372
 1947TIP3    H2 5848   2.125   0.638   3.602  2.1985 -1.5495 -1.8232
 1948TIP3   OH2 5849   1.190   3.258   3.723 -0.2418 -0.4021  0.4431
 1948TIP3    H1 5850   1.105   3.266   3.680  0.1562  0.3834 -0.2114
 1948TIP3    H2 5851   1.239   3.197   3.668  1.0923  2.3433 -1.6434
 1949TIP3   OH2 5852   3.288   2.238   1.534 -0.3270 -0.3206 -0.3849
 1949TIP3    H1 5853   3.375   2.202   1.549 -0.4671 -0.0220  1.4413
 1949TIP3    H2 5854   3.257   2.195   1.454  1.3954 -0.5698 -0.9623
 1950TIP3   OH2 5855   4.203   5.146   0.463 -1.0226  0.2212 -0.8378
 1950TIP3    H1 5856   4.216   5.079   0.396  0.8577 -0.0624 -0.2586
 1950TIP3    H2 5857   4.145   5.106   0.527  0.9672 -1.3771  0.0862
 1951TIP3   OH2 5858   4.399   2.401   4.565  0.0243  0.0845  0.5610
 1951TIP3    H1 5859   4.458   2.404   4.641 -0.9548 -1.4744  1.4308
 1951TIP3    H2 5860   4.423   2.321   4.519 -1.0729 -0.3200  0.6622
 1952TIP3   OH2 5861   5.407   3.216   4.376  0.5506 -0.4104 -0.1812
 1952TIP3    H1 5862   5.373   3.275   4.309  0.5039 -0.7452 -0.4603
 1952TIP3    H2 5863   5.492   3.252   4.400  0.5820 -0.3079 -0.4501
 1953TIP3   OH2 5864   1.043   1.980   1.567 -0.5082 -0.0811 -0.0646
 1953TIP3    H1 5865   1.084   2.066   1.565 -0.4592 -0.0451  1.3796
 1953TIP3    H2 5866   1.009   1.967   1.479  0.2277  1.0492 -0.5315
 1954TIP3   OH2 5867   0.592   2.214   3.660 -0.2073  0.0386 -0.4480
 1954TIP3    H1 5868   0.575   2.195   3.752  0.0514 -2.3266 -0.8201
 1954TIP3    H2 5869   0.687   2.204   3.651 -0.1326  1.0179 -0.8287
 1955TIP3   OH2 5870   2.265   4.232   3.776 -0.2644  0.1004 -0.0554
 1955TIP3    H1 5871   2.259   4.322   3.810 -0.6867  0.5034 -1.1621
 1955TIP3    H2 5872   2.176   4.211   3.748  0.0976 -0.1493 -1.0619
 1956TIP3   OH2 5873   4.162   1.139   2.985  0.4060  0.4148  0.2463
 1956TIP3    H1 5874   4.253   1.166   2.998  0.5703 -0.2582  0.4939
 1956TIP3    H2 5875   4.143   1.081   3.058  0.6704 -1.6955 -1.2546
 1957TIP3   OH2 5876   6.064   3.346   2.676  0.1246 -0.2800  0.0193
 1957TIP3    H1 5877   6.095   3.283   2.742  2.8290  1.1110  0.2271
 1957TIP3    H2 5878   6.062   3.430   2.722 -0.2704  0.3157 -1.0570
 1958TIP3   OH2 5879   6.120   4.860   4.908  0.1029  0.1327  0.0078
 1958TIP3    H1 5880   6.188   4.831   4.969  0.2001  0.8219  0.2418
 1958TIP3    H2 5881   6.162   4.930   4.858 -0.7300  1.2502  0.8332
 1959TIP3   OH2 5882   3.448   4.309   2.331  0.0038  0.2972  0.0429
 1959TIP3    H1 5883   3.445   4.244   2.261  0.0985  0.7789 -0.4064
 1959TIP3    H2 5884   3.535   4.347   2.326 -0.0409  0.4455  0.3230
 1960TIP3   OH2 5885   0.316   1.639   4.048  0.4313  0.6776 -0.2070
 1960TIP3    H1 5886   0.387   1.699   4.024 -0.2698  1.5918 -0.0135
 1960TIP3    H2 5887   0.242   1.665   3.994 -0.0368  0.3085  0.2392
 1961TIP3   OH2 5888   2.197   4.016   2.364 -0.9120  0.0499  0.9241
 1961TIP3    H1 5889   2.142   3.959   2.311  1.5375 -0.4283 -1.3158
 1961TIP3    H2 5890   2.186   4.103   2.327  2.0487 -0.5300 -1.7722
 1962TIP3   OH2 5891   3.180   5.633   1.898  0.4496  0.2854 -0.6949
 1962TIP3    H1 5892   3.218   5.704   1.950  0.2790  1.0371 -1.5526
 1962TIP3    H2 5893   3.087   5.654   1.894 -0.0773 -1.4085  1.1842
 1963TIP3   OH2 5894   0.436   5.290   0.119  0.1846  0.3325  0.3001
 1963TIP3    H1 5895   0.444   5.195   0.115  0.3565  0.3103  1.0495
 1963TIP3    H2 5896   0.420   5.317   0.028  0.1806 -0.4026  0.0788
 1964TIP3   OH2 5897   5.168   0.625   4.313 -0.4019 -0.3610  0.6533
 1964TIP3    H1 5898   5.230   0.642   4.242 -0.5731  0.7078  0.7405
 1964TIP3    H2 5899   5.110   0.557   4.279  0.3585 -0.8522  0.3009
 1965TIP3   OH2 5900   5.430   5.297   3.660  0.6455  0.2628  0.0327
 1965TIP3    H1 5901   5.439   5.337   3.747  0.8943 -1.9136  1.0697
 1965TIP3    H2 5902   5.336   5.286   3.648  0.6197  0.4100  0.0904
 1966TIP3   OH2 5903   4.116   0.834   5.026 -0.0727 -0.1751 -0.0635
 1966TIP3    H1 5904   4.195   0.820   5.077  0.2378 -0.3254 -0.5748
 1966TIP3    H2 5905   4.145   0.882   4.949 -0.7036  0.9895  0.3935
 1967TIP3   OH2 5906   3.447   2.097   4.996  0.1083  0.5408 -0.2836
 1967TIP3    H1 5907   3.353   2.082   4.991  0.2051 -0.3381  0.2727
 1967TIP3    H2 5908   3.456   2.190   5.016 -0.6569  0.5201  0.1898
 1968TIP3   OH2 5909   3.754   2.371   0.406  0.5886  0.4532 -0.3355
 1968TIP3    H1 5910   3.666   2.389   0.440  0.4514 -2.5273  1.2250
 1968TIP3    H2 5911   3.754   2.407   0.318 -1.7822  1.5477  0.0366
 1969TIP3   OH2 5912   3.310   1.654   1.599  0.2373  0.0721  0.3076
 1969TIP3    H1 5913   3.301   1.559   1.602  1.3979 -0.0618  0.0972
 1969TIP3    H2 5914   3.255   1.682   1.525 -0.1810 -0.4156  0.4315
 1970TIP3   OH2 5915   0.860   4.449   3.689  0.5017 -0.1176 -0.3014
 1970TIP3    H1 5916   0.835   4.495   3.769  0.3579  2.0261 -1.5236
 1970TIP3    H2 5917   0.943   4.487   3.663 -0.0716  0.1748 -1.8630
 1971TIP3   OH2 5918   3.150   4.520   3.947  0.4664  0.0590  0.6521
 1971TIP3    H1 5919   3.134   4.427   3.929  0.1113 -0.5808  3.7754
 1971TIP3    H2 5920   3.241   4.523   3.976 -0.4136  0.0220  3.7683
 1972TIP3   OH2 5921   4.080   3.397   1.012 -0.7808 -0.1231 -0.6154
 1972TIP3    H1 5922   3.990   3.415   0.985 -1.2255  0.4682  1.0925
 1972TIP3    H2 5923   4.133   3.456   0.958 -1.4784  0.0271 -1.1606
 1973TIP3   OH2 5924   6.231   3.046   1.291  0.4242 -0.3456 -0.4521
 1973TIP3    H1 5925   6.229   2.980   1.222  1.0429 -0.9290  0.0834
 1973TIP3    H2 5926   6.258   2.999   1.370  2.5894  0.8302 -0.4080
 1974TIP3   OH2 5927   1.410   0.781   3.892  0.5413  0.2639  0.1635
 1974TIP3    H1 5928   1.499   0.780   3.927  0.7997  0.7646 -0.4681
 1974TIP3    H2 5929   1.388   0.874   3.884 -0.1343  0.1455  0.5531
 1975TIP3   OH2 5930   4.882   5.040   4.667  0.5786 -0.4951  0.4041
 1975TIP3    H1 5931   4.969   5.079   4.653  0.1792  0.3942  0.2995
 1975TIP3    H2 5932   4.867   4.986   4.590  1.7142 -1.9854  1.1734
 1976TIP3   OH2 5933   5.994   5.786   5.168 -0.1934 -0.2393 -0.4174
 1976TIP3    H1 5934   5.950   5.701   5.171  1.6724 -1.2597 -0.1128
 1976TIP3    H2 5935   5.996   5.809   5.075 -1.3598 -0.1298 -0.4355
 1977TIP3   OH2 5936   5.723   4.042   5.082 -0.2246  0.2823 -0.2386
 1977TIP3    H1 5937   5.629   4.025   5.077 -0.0130 -1.2191  0.3353
 1977TIP3    H2 5938   5.740   4.060   5.174 -0.0415  1.2229 -0.4478
 1978TIP3   OH2 5939   4.518   0.880   0.682 -0.0780  0.8872 -0.0175
 1978TIP3    H1 5940   4.432   0.914   0.709 -2.0887 -2.5101 -1.5028
 1978TIP3    H2 5941   4.515   0.880   0.587  2.0485  1.5575 -0.1331
 1979TIP3   OH2 5942   1.604   1.601   1.301  0.1041 -0.3163  0.2749
 1979TIP3    H1 5943   1.514   1.574   1.320  0.4932 -1.5308  0.5121
 1979TIP3    H2 5944   1.648   1.520   1.275  0.3640  0.7269 -2.9774
 1980TIP3   OH2 5945   2.114   1.240   5.158 -0.4220  0.1418 -0.1882
 1980TIP3    H1 5946   2.130   1.195   5.240  0.3314 -0.7367 -0.8030
 1980TIP3    H2 5947   2.023   1.219   5.136  0.1268 -1.7584 -0.8404
 1981TIP3   OH2 5948   0.798   2.399   0.548  0.2232 -0.0195 -0.1637
 1981TIP3    H1 5949   0.889   2.372   0.541  0.3938  0.1349  1.2685
 1981TIP3    H2 5950   0.752   2.342   0.486  1.3586  0.3831 -1.4393
 1982TIP3   OH2 5951   5.121   0.504   2.715  0.1990 -0.4250  0.0849
 1982TIP3    H1 5952   5.138   0.453   2.794 -0.4836  0.0112  0.5266
 1982TIP3    H2 5953   5.196   0.563   2.707 -0.0398 -0.0277  0.7689
 1983TIP3   OH2 5954   6.008   5.653   1.560  0.1273 -0.2377 -0.2887
 1983TIP3    H1 5955   6.052   5.683   1.640  1.1261  0.6552 -1.1426
 1983TIP3    H2 5956   6.069   5.674   1.489 -1.7704  1.3627 -1.5642
 1984TIP3   OH2 5957   3.210   4.420   3.609  0.2611 -0.2917  0.1403
 1984TIP3    H1 5958   3.221   4.511   3.636 -0.3009 -0.7158  1.9685
 1984TIP3    H2 5959   3.199   4.424   3.514 -0.3391  1.6024  0.2477
 1985TIP3   OH2 5960   5.657   0.383   2.148  0.0418 -0.7323  0.5499
 1985TIP3    H1 5961   5.713   0.445   2.102 -0.1772 -0.7025  0.3200
 1985TIP3    H2 5962   5.702   0.366   2.231  0.0719 -0.2202  0.6398
 1986TIP3   OH2 5963   1.911   1.989   3.691 -0.2774 -0.8164 -0.3572
 1986TIP3    H1 5964   2.005   1.972   3.678 -0.0145  1.0157 -1.1107
 1986TIP3    H2 5965   1.908   2.051   3.763 -1.0027 -1.6247  0.3253
 1987TIP3   OH2 5966   6.112   1.818   4.487 -0.1289  0.3397  0.1786
 1987TIP3    H1 5967   6.151   1.840   4.403 -1.8438  0.9731 -0.4898
 1987TIP3    H2 5968   6.035   1.765   4.465  0.6580 -1.4591  1.4851
 1988TIP3   OH2 5969   1.867   3.998   0.553  0.1869 -0.3579 -0.2361
 1988TIP3    H1 5970   1.865   4.083   0.597 -0.7941  0.5693 -1.9789
 1988TIP3    H2 5971   1.937   4.007   0.488  3.0266 -2.3947  2.2842
 1989TIP3   OH2 5972   1.290   4.459   4.345 -0.1649 -0.6630 -0.1643
 1989TIP3    H1 5973   1.350   4.511   4.399  0.3754  0.0589 -1.4099
 1989TIP3    H2 5974   1.220   4.433   4.404 -1.5105  3.1297  0.1429
 1990TIP3   OH2 5975   4.960   5.410   4.234  0.4322 -0.1073 -0.4613
 1990TIP3    H1 5976   5.009   5.487   4.206 -0.4529  0.4458 -0.5130
 1990TIP3    H2 5977   4.996   5.339   4.180  2.6404 -0.1620  0.9706
 1991TIP3   OH2 5978   4.053   2.329   1.533 -0.5609 -0.1272  0.0068
 1991TIP3    H1 5979   4.128   2.272   1.517 -0.9656 -1.1164  1.4557
 1991TIP3    H2 5980   3.976   2.272   1.522 -0.9905  0.2382  1.0150
 1992TIP3   OH2 5981   5.034   3.940   3.759  0.2158  0.0433  0.3580
 1992TIP3    H1 5982   4.966   3.901   3.814 -0.7595 -0.2662 -1.0088
 1992TIP3    H2 5983   5.006   4.032   3.750  1.8252  0.8432  2.5228
 1993TIP3   OH2 5984   2.340   3.774   1.541  0.0061  0.3093 -0.1101
 1993TIP3    H1 5985   2.245   3.771   1.543  0.0041  0.6847  0.7844
 1993TIP3    H2 5986   2.365   3.709   1.475 -0.8551  0.0835 -0.2237
 1994TIP3   OH2 5987   3.863   2.221   4.146  0.1975 -0.5069 -0.1686
 1994TIP3    H1 5988   3.850   2.129   4.171  0.6100 -0.4653  0.2064
 1994TIP3    H2 5989   3.957   2.232   4.138  0.0764 -0.6987 -2.5297
 1995TIP3   OH2 5990   6.251   2.341   3.177 -0.7227 -1.0810 -0.5317
 1995TIP3    H1 5991   6.229   2.372   3.089 -1.2834  1.4735  0.4103
 1995TIP3    H2 5992   6.346   2.351   3.183 -0.3539 -3.3815 -1.5207
 1996TIP3   OH2 5993   1.308   0.604   1.893 -0.3914 -0.0933 -0.1419
 1996TIP3    H1 5994   1.275   0.691   1.874 -1.0804  0.3039  2.4661
 1996TIP3    H2 5995   1.399   0.617   1.920  0.2624 -0.5198 -1.9996
 1997TIP3   OH2 5996   1.169   2.043   2.428  0.1923  0.0783 -0.3082
 1997TIP3    H1 5997   1.215   2.087   2.499  0.7975 -0.5881 -0.2797
 1997TIP3    H2 5998   1.224   2.056   2.351  1.0738 -1.7235 -0.0348
 1998TIP3   OH2 5999   3.154   1.734   1.385 -0.3638 -0.1565 -1.0933
 1998TIP3    H1 6000   3.198   1.684   1.316 -0.0053  2.0526 -2.5302
 1998TIP3    H2 6001   3.062   1.734   1.361 -0.3076  0.2114 -1.3064
 1999TIP3   OH2 6002   2.524   4.879   0.886  0.5413  1.0224 -0.1255
 1999TIP3    H1 6003   2.458   4.944   0.862 -1.7409 -0.2667  2.0908
 1999TIP3    H2 6004   2.510   4.807   0.825  0.7811  1.2534 -0.4569
 2000TIP3   OH2 6005   5.031   0.900   1.329 -0.0576  0.0991  0.2713
 2000TIP3    H1 6006   5.002   0.980   1.287  1.0064 -0.0721 -0.8344
 2000TIP3    H2 6007   5.020   0.832   1.263 -3.0883 -1.1782  1.8702
 2001TIP3   OH2 6008   5.894   2.483   2.302  0.2788  0.6666  0.0444
 2001TIP3    H1 6009   5.969   2.437   2.265 -0.8198 -0.8821 -0.3489
 2001TIP3    H2 6010   5.885   2.561   2.248 -0.5503 -0.9326 -2.2760
 2002TIP3   OH2 6011   0.122   4.684   4.741  0.4566  0.1937 -0.2479
 2002TIP3    H1 6012   0.116   4.602   4.691  3.4847 -0.0115 -0.4603
 2002TIP3    H2 6013   0.161   4.658   4.824 -0.7766  1.1338  0.6645
 2003TIP3   OH2 6014   3.469   2.735   3.128  0.1489  0.1186  0.1087
 2003TIP3    H1 6015   3.408   2.796   3.170 -0.8500 -1.7819  1.6033
 2003TIP3    H2 6016   3.556   2.771   3.147 -0.3893  0.7710  1.4609
 2004TIP3   OH2 6017   4.669   4.107   5.132  0.7084 -0.5524  0.1242
 2004TIP3    H1 6018   4.693   4.015   5.143 -0.3924 -1.1341 -1.9351
 2004TIP3    H2 6019   4.643   4.115   5.041  0.1172  1.6639  0.4268
 2005TIP3   OH2 6020   1.908   0.100   2.276 -0.4205 -0.1216 -0.3087
 2005TIP3    H1 6021   1.837   0.097   2.212  0.0504 -0.1882 -0.8384
 2005TIP3    H2 6022   1.876   0.159   2.345 -0.7026  0.4086 -0.8836
 2006TIP3   OH2 6023   2.285   1.430   0.860  0.1325 -0.1751  0.1166
 2006TIP3    H1 6024   2.375   1.442   0.829 -0.0495 -0.5159 -0.5638
 2006TIP3    H2 6025   2.237   1.401   0.782 -0.4121 -0.6982  0.6410
 2007TIP3   OH2 6026   4.518   3.310   3.707  0.3795 -0.0033 -0.3438
 2007TIP3    H1 6027   4.595   3.298   3.652  1.0110  1.5987  0.1119
 2007TIP3    H2 6028   4.519   3.235   3.767  0.2145 -1.2563 -1.8486
 2008TIP3   OH2 6029   0.936   4.070   1.883  0.3593 -0.0757 -0.0179
 2008TIP3    H1 6030   0.917   4.146   1.829 -0.2841 -0.0497  0.2278
 2008TIP3    H2 6031   0.971   4.106   1.964 -0.4846  0.0080  0.3253
 2009TIP3   OH2 6032   0.530   0.080   4.056  0.4193 -0.1226  0.4134
 2009TIP3    H1 6033   0.601   0.068   3.993  0.4224 -0.2043  0.4325
 2009TIP3    H2 6034   0.516  -0.007   4.093 -0.7653 -0.4513 -0.7227
 2010TIP3   OH2 6035   4.841   3.769   3.878  0.4521 -0.4823 -0.5624
 2010TIP3    H1 6036   4.886   3.757   3.962  0.3480  0.6193 -0.3296
 2010TIP3    H2 6037   4.763   3.714   3.884  0.9406 -1.1629 -0.3334
 2011TIP3   OH2 6038   0.532   3.830   4.278  0.5577  0.5649 -0.0323
 2011TIP3    H1 6039   0.470   3.800   4.344  0.3964  0.9021 -0.0288
 2011TIP3    H2 6040   0.542   3.923   4.295 -0.4620  0.9307 -1.2578
 2012TIP3   OH2 6041   3.288   3.921   2.632  0.2827 -0.0976 -0.4064
 2012TIP3    H1 6042   3.258   4.011   2.646 -0.0351 -0.4012  1.1157
 2012TIP3    H2 6043   3.370   3.930   2.584  0.7916  1.0828  0.6192
 2013TIP3   OH2 6044   1.938   3.349   3.219  0.4147 -0.7737  0.0634
 2013TIP3    H1 6045   1.972   3.363   3.307  0.2326  0.5403 -0.0529
 2013TIP3    H2 6046   1.911   3.258   3.218  2.1792 -1.3591  0.7514
 2014TIP3   OH2 6047   3.599   3.280   2.105  0.2452 -0.5716 -0.0349
 2014TIP3    H1 6048   3.680   3.329   2.093  0.1226 -0.3428  0.0534
 2014TIP3    H2 6049   3.531   3.336   2.068  0.2625 -1.2604 -1.1398
 2015TIP3   OH2 6050   3.913   5.699   0.095 -0.3609 -0.2489 -0.0709
 2015TIP3    H1 6051   3.897   5.607   0.116  1.3253 -0.3721  0.8743
 2015TIP3    H2 6052   3.903   5.745   0.178  1.6482 -0.0320  0.1072
 2016TIP3   OH2 6053   2.165   1.881   2.311 -0.0367  0.0385  0.3908
 2016TIP3    H1 6054   2.226   1.838   2.251 -0.8279 -0.8936  0.2387
 2016TIP3    H2 6055   2.205   1.873   2.397  1.3160  1.7453 -0.0131
 2017TIP3   OH2 6056   0.338   5.491   1.100 -0.0125  0.2703  0.7484
 2017TIP3    H1 6057   0.355   5.399   1.118 -2.7688 -0.4172  0.3301
 2017TIP3    H2 6058   0.360   5.503   1.007 -1.7732 -0.6082  0.1810
 2018TIP3   OH2 6059   1.977   4.183   3.749  0.1832 -0.1469  0.0168
 2018TIP3    H1 6060   1.898   4.137   3.778  0.4270 -0.4189  0.2536
 2018TIP3    H2 6061   1.947   4.272   3.730 -0.3171 -0.4258 -0.5535
 2019TIP3   OH2 6062   1.613   0.043   3.587  0.6316 -0.0152 -0.2835
 2019TIP3    H1 6063   1.587  -0.045   3.561 -1.7198  0.8632 -1.1853
 2019TIP3    H2 6064   1.707   0.047   3.568  0.7645 -2.2727 -0.2929
 2020TIP3   OH2 6065   0.962   2.970   0.661  0.0934 -0.0078 -0.0393
 2020TIP3    H1 6066   0.920   3.008   0.738  2.3018  1.5106  0.5242
 2020TIP3    H2 6067   0.925   3.019   0.587  0.8642  1.3618  0.4465
 2021TIP3   OH2 6068   4.484   5.941   3.607  0.4408  0.4302 -0.2153
 2021TIP3    H1 6069   4.529   6.016   3.647  0.7212  0.1369  0.0277
 2021TIP3    H2 6070   4.431   5.979   3.537  2.1246  0.6564 -1.4365
 2022TIP3   OH2 6071   5.888   5.200   4.534 -0.4972 -0.0451  0.6436
 2022TIP3    H1 6072   5.806   5.192   4.485 -1.0334 -0.0910  1.5106
 2022TIP3    H2 6073   5.939   5.123   4.508  0.2507  1.1151 -1.5971
 2023TIP3   OH2 6074   0.242   4.937   3.172  0.1546  0.1502 -0.3212
 2023TIP3    H1 6075   0.153   4.919   3.204 -0.0029 -0.1441 -0.9051
 2023TIP3    H2 6076   0.264   5.022   3.209 -1.1905  1.2089 -1.8311
 2024TIP3   OH2 6077   1.498   4.791   0.952  0.2160 -0.2943  0.1343
 2024TIP3    H1 6078   1.553   4.716   0.930 -1.2616 -0.8229 -2.1477
 2024TIP3    H2 6079   1.410   4.754   0.965 -0.7417  1.0379 -1.9628
 2025TIP3   OH2 6080   0.398   3.827   3.521 -0.9484 -0.1113  0.8136
 2025TIP3    H1 6081   0.456   3.897   3.490 -0.8562  0.3281  1.9034
 2025TIP3    H2 6082   0.448   3.747   3.509 -1.0288  0.0091 -0.4001
 2026TIP3   OH2 6083   0.564   3.119   3.880  0.3211 -0.1179  0.2543
 2026TIP3    H1 6084   0.523   3.042   3.841  0.9455  0.0919 -0.8677
 2026TIP3    H2 6085   0.497   3.187   3.874  0.6602  0.1302 -1.2555
 2027TIP3   OH2 6086   1.158   2.019   4.501  0.1911  0.1751 -0.6094
 2027TIP3    H1 6087   1.097   1.995   4.571  0.6535 -1.2420 -0.6513
 2027TIP3    H2 6088   1.235   2.051   4.546  0.5812 -0.9631 -0.4338
 2028TIP3   OH2 6089   0.468   5.390   2.977 -0.4875 -0.2879  0.0304
 2028TIP3    H1 6090   0.392   5.332   2.975 -0.7896  0.1259 -0.9348
 2028TIP3    H2 6091   0.432   5.477   2.998 -0.3823  0.0351 -1.0655
 2029TIP3   OH2 6092   6.270   5.948   3.643  0.2082 -0.6832 -0.0420
 2029TIP3    H1 6093   6.232   6.034   3.626  0.2028 -0.3313  1.5279
 2029TIP3    H2 6094   6.361   5.966   3.667  0.0777 -1.0385  0.7670
 2030TIP3   OH2 6095   4.570   2.806   3.043 -0.5143 -0.1718  0.5282
 2030TIP3    H1 6096   4.475   2.799   3.032 -0.6331  2.4497 -0.8062
 2030TIP3    H2 6097   4.606   2.796   2.955  0.5184 -1.4331  1.0555
 2031TIP3   OH2 6098   2.041   5.530   1.585  0.3315  0.3262 -0.6457
 2031TIP3    H1 6099   1.976   5.598   1.603 -0.4335 -0.4054 -0.5782
 2031TIP3    H2 6100   1.996   5.467   1.529  0.3907 -1.0985  0.8250
 2032TIP3   OH2 6101   2.205   5.543   2.230  0.0351 -0.2815 -0.1752
 2032TIP3    H1 6102   2.268   5.528   2.159  0.1435 -0.8698  0.0410
 2032TIP3    H2 6103   2.255   5.590   2.297 -0.4767  1.7850 -1.1306
 2033TIP3   OH2 6104   0.795   5.036   1.348 -0.3962  0.2632  0.3774
 2033TIP3    H1 6105   0.862   4.971   1.329  0.8530  1.5727  0.1383
 2033TIP3    H2 6106   0.749   5.000   1.424 -1.2539 -1.9492 -1.0776
 2034TIP3   OH2 6107   2.009   3.312   4.013  0.3139  0.0161 -0.7079
 2034TIP3    H1 6108   2.093   3.322   4.058  0.2989  0.1639 -0.7119
 2034TIP3    H2 6109   1.983   3.402   3.990  0.1858 -0.0342 -0.7625
 2035TIP3   OH2 6110   4.829   2.101   0.241  0.0057 -0.0241  0.1133
 2035TIP3    H1 6111   4.875   2.184   0.230  0.6846 -0.5499 -1.1431
 2035TIP3    H2 6112   4.741   2.118   0.208 -0.6139  0.8440  2.0710
 2036TIP3   OH2 6113   0.944   0.715   0.855 -0.0550  0.0717  0.1402
 2036TIP3    H1 6114   0.905   0.636   0.892  1.5216 -0.6518  0.3518
 2036TIP3    H2 6115   0.884   0.742   0.785  0.4312 -2.6201 -1.4637
 2037TIP3   OH2 6116   3.389   2.994   1.701  0.1016  0.2660  0.7911
 2037TIP3    H1 6117   3.378   2.930   1.630  0.0315  0.5357  0.5587
 2037TIP3    H2 6118   3.305   2.991   1.748 -0.1530  0.6689  0.3778
 2038TIP3   OH2 6119   2.578   5.082   0.611  0.2549 -0.7649  0.5963
 2038TIP3    H1 6120   2.609   5.050   0.696  1.1392 -1.9149 -0.1288
 2038TIP3    H2 6121   2.637   5.155   0.590  2.4885 -2.7841 -0.6650
 2039TIP3   OH2 6122   4.840   3.296   2.390  0.3917  0.1835  0.3851
 2039TIP3    H1 6123   4.874   3.233   2.327  0.6961  0.1004  0.6297
 2039TIP3    H2 6124   4.870   3.263   2.475 -1.5784 -0.7584  0.7727
 2040TIP3   OH2 6125   0.130   2.787   2.517 -0.1594  0.2825  0.6705
 2040TIP3    H1 6126   0.162   2.854   2.578 -0.8290  1.0126  0.2420
 2040TIP3    H2 6127   0.181   2.709   2.539  2.9688  1.6933 -0.8463
 2041TIP3   OH2 6128   5.897   2.863   1.556 -0.3530  0.1556 -0.0528
 2041TIP3    H1 6129   5.860   2.787   1.602 -0.5073  0.7937  0.9053
 2041TIP3    H2 6130   5.968   2.827   1.503  0.5644 -0.4847  1.5259
 2042TIP3   OH2 6131   5.321   2.835   1.072  0.3634  0.0277  0.1035
 2042TIP3    H1 6132   5.386   2.903   1.087 -0.4398  0.4577  1.8608
 2042TIP3    H2 6133   5.318   2.786   1.154 -0.7088 -0.7006 -0.3483
 2043TIP3   OH2 6134   4.769   1.029   0.728  0.0012 -0.2388 -0.3594
 2043TIP3    H1 6135   4.675   1.029   0.714  0.0010  2.1696 -0.7534
 2043TIP3    H2 6136   4.794   0.936   0.725 -2.2238 -0.8722 -0.9632
 2044TIP3   OH2 6137   2.448   0.042   3.893 -0.1965  0.1293 -0.6185
 2044TIP3    H1 6138   2.450   0.121   3.947 -2.5444  0.2591 -0.6147
 2044TIP3    H2 6139   2.531  -0.002   3.912  1.2622  2.6366 -0.7480
 2045TIP3   OH2 6140   0.381   3.208   0.595  0.3602 -0.4093 -0.2460
 2045TIP3    H1 6141   0.413   3.183   0.682  0.5791  2.8703  0.7795
 2045TIP3    H2 6142   0.397   3.302   0.591 -0.5966 -0.2821 -3.4867
 2046TIP3   OH2 6143   0.554   5.723   5.099 -0.4731  0.7081  0.0494
 2046TIP3    H1 6144   0.504   5.641   5.093  1.3794 -0.4060 -0.9287
 2046TIP3    H2 6145   0.556   5.756   5.009 -0.1206  1.1363  0.2138
 2047TIP3   OH2 6146   5.634   0.607   2.740  0.1989 -0.5418 -0.3550
 2047TIP3    H1 6147   5.615   0.525   2.786 -1.5050  0.7279  1.3660
 2047TIP3    H2 6148   5.623   0.675   2.807  0.1581  1.1997 -2.0538
 2048TIP3   OH2 6149   0.731   5.934   0.076 -0.5666  0.3235 -0.1227
 2048TIP3    H1 6150   0.757   5.965   0.163 -0.4934 -1.3810  0.4982
 2048TIP3    H2 6151   0.808   5.888   0.044 -1.0942 -0.3384 -0.4550
 2049TIP3   OH2 6152   5.849   5.546   0.201  0.4801 -0.2267  0.4199
 2049TIP3    H1 6153   5.869   5.574   0.290  0.1083 -0.9223  0.7379
 2049TIP3    H2 6154   5.754   5.528   0.203  0.7663 -1.9294  0.3935
 2050TIP3   OH2 6155   2.797   4.839   2.831  0.1332  0.0706 -0.0259
 2050TIP3    H1 6156   2.857   4.813   2.902 -0.4806  0.3760  0.6176
 2050TIP3    H2 6157   2.828   4.791   2.755  0.8220 -0.2535  0.4470
 2051TIP3   OH2 6158   3.224   3.863   1.225 -0.1394 -0.1764  0.5792
 2051TIP3    H1 6159   3.272   3.936   1.263  1.2905 -0.2417 -0.9697
 2051TIP3    H2 6160   3.277   3.836   1.150 -1.2272 -2.0528  0.4159
 2052TIP3   OH2 6161   5.888   4.380   3.265 -0.0803 -0.1343  0.0789
 2052TIP3    H1 6162   5.850   4.295   3.245 -1.3854  0.2804  0.6619
 2052TIP3    H2 6163   5.965   4.360   3.318  0.4689 -0.9904 -0.9888
 2053TIP3   OH2 6164   5.780   1.920   4.839 -0.5157  0.5685  0.2807
 2053TIP3    H1 6165   5.840   1.896   4.910  0.4296  0.9635 -0.3578
 2053TIP3    H2 6166   5.837   1.958   4.772 -1.4336  0.5082 -0.5507
 2054TIP3   OH2 6167   3.194   2.126   1.321  0.0056 -0.5849 -0.3258
 2054TIP3    H1 6168   3.104   2.096   1.316  0.4735 -2.2692  0.5697
 2054TIP3    H2 6169   3.243   2.067   1.264  0.5384  0.4456 -0.9855
 2055TIP3   OH2 6170   5.556   0.651   1.999 -0.7610  0.0224  0.2049
 2055TIP3    H1 6171   5.634   0.643   1.944 -0.7470  2.2325 -0.1935
 2055TIP3    H2 6172   5.489   0.601   1.953 -0.2927  0.3976 -0.9233
 2056TIP3   OH2 6173   0.469   0.561   2.821  0.2296 -0.3669  0.2336
 2056TIP3    H1 6174   0.464   0.629   2.888  0.7866 -0.6577  0.5708
 2056TIP3    H2 6175   0.472   0.479   2.870 -1.7176 -0.7492 -0.1724
 2057TIP3   OH2 6176   4.284   5.556   3.551  0.0241  0.1875 -0.0772
 2057TIP3    H1 6177   4.297   5.487   3.616  0.5680  1.0123  0.7051
 2057TIP3    H2 6178   4.327   5.633   3.588  2.1862  0.1796 -2.3415
 2058TIP3   OH2 6179   5.451   1.556   0.057  0.2689  1.1779 -0.6648
 2058TIP3    H1 6180   5.476   1.622  -0.008  1.6714  0.3009 -1.0625
 2058TIP3    H2 6181   5.529   1.502   0.067 -0.3489  0.5063  0.8024
 2059TIP3   OH2 6182   2.740   4.208   3.127 -0.1372 -0.7098  0.2334
 2059TIP3    H1 6183   2.747   4.191   3.033  0.2010 -0.9897  0.3086
 2059TIP3    H2 6184   2.657   4.168   3.152 -0.3866 -0.3556 -0.0034
 2060TIP3   OH2 6185   0.445   5.292   2.283  0.0050 -0.2568 -0.4502
 2060TIP3    H1 6186   0.409   5.378   2.260  0.7827 -0.1616 -1.4042
 2060TIP3    H2 6187   0.387   5.230   2.238 -0.0432 -0.1875 -0.4845
 2061TIP3   OH2 6188   1.512   5.929   4.732  0.1374 -0.0165 -0.9392
 2061TIP3    H1 6189   1.604   5.947   4.751 -0.2182  0.7310  0.1541
 2061TIP3    H2 6190   1.511   5.902   4.640  1.1923  2.0265 -1.6049
 2062TIP3   OH2 6191   6.159   0.548   0.407  0.2373  0.6105 -0.4404
 2062TIP3    H1 6192   6.224   0.478   0.415  0.1106  0.6255  1.0851
 2062TIP3    H2 6193   6.189   0.615   0.469 -0.4932  1.2122 -0.7255
 2063TIP3   OH2 6194   0.359   4.804   4.654  0.0759 -0.4605  0.4430
 2063TIP3    H1 6195   0.320   4.859   4.586  0.9640 -0.7757 -0.3430
 2063TIP3    H2 6196   0.286   4.757   4.693 -0.7536  1.3675  1.2517
 2064TIP3   OH2 6197   4.479  -0.012   4.240 -0.5775 -0.4136 -0.4155
 2064TIP3    H1 6198   4.490  -0.009   4.335 -1.4530 -3.3535 -0.1270
 2064TIP3    H2 6199   4.481   0.080   4.213  0.4750  0.4786  2.3192
 2065TIP3   OH2 6200   2.656   0.751   5.136  0.1433  0.1330  0.4922
 2065TIP3    H1 6201   2.708   0.751   5.056 -1.0392 -0.8539 -0.3123
 2065TIP3    H2 6202   2.713   0.790   5.202  1.4533  0.1721 -0.6264
 2066TIP3   OH2 6203   0.480   0.243   4.332  0.3721  0.3312  0.0962
 2066TIP3    H1 6204   0.551   0.274   4.275  0.2343 -1.3072 -1.0210
 2066TIP3    H2 6205   0.493   0.149   4.338 -1.6363  0.0011 -0.0264
 2067TIP3   OH2 6206   1.456   2.791   1.915 -0.3107  0.6835  0.3080
 2067TIP3    H1 6207   1.516   2.845   1.967 -0.8066 -0.1091  1.7543
 2067TIP3    H2 6208   1.427   2.723   1.975  1.0316 -1.8360 -1.7169
 2068TIP3   OH2 6209   3.789   0.648   4.123  0.3720 -0.1256 -0.1203
 2068TIP3    H1 6210   3.836   0.567   4.144  2.6523  1.0661 -0.2720
 2068TIP3    H2 6211   3.814   0.667   4.032 -1.8977 -0.3413 -0.8555
 2069TIP3   OH2 6212   2.550   5.031   1.139 -0.7198 -0.2367  0.1755
 2069TIP3    H1 6213   2.569   5.004   1.049  1.3106  1.1074  0.1352
 2069TIP3    H2 6214   2.574   4.955   1.193  2.6662  0.5197 -0.1043
 2070TIP3   OH2 6215   1.246   0.224   2.267 -0.1517  0.7049 -0.1722
 2070TIP3    H1 6216   1.293   0.193   2.190  0.4425 -0.3263  0.5908
 2070TIP3    H2 6217   1.210   0.309   2.240  1.7153  1.3019 -0.9500
 2071TIP3   OH2 6218   4.887   4.199   3.781  0.0804  0.3031  0.1797
 2071TIP3    H1 6219   4.855   4.141   3.712  3.0286 -0.7031 -0.4823
 2071TIP3    H2 6220   4.919   4.276   3.735  1.5240 -0.1164  0.4526
 2072TIP3   OH2 6221   3.993   2.397   0.561 -0.0433  0.1720  0.2764
 2072TIP3    H1 6222   3.933   2.341   0.511 -0.5884 -1.2512  2.3885
 2072TIP3    H2 6223   4.075   2.348   0.562  0.6505  1.2446 -1.0200
 2073TIP3   OH2 6224   0.693   5.880   2.651 -0.0396  0.2818  0.1001
 2073TIP3    H1 6225   0.660   5.851   2.736  0.1603 -1.1501 -0.2774
 2073TIP3    H2 6226   0.771   5.826   2.636 -0.5082 -0.0445 -1.3216
 2074TIP3   OH2 6227   3.876   0.814   1.660  0.2579  0.1468  0.3752
 2074TIP3    H1 6228   3.829   0.734   1.680 -1.9921  0.4685 -2.9137
 2074TIP3    H2 6229   3.845   0.878   1.724 -0.6116 -0.7172  0.8232
 2075TIP3   OH2 6230   1.169   0.304   1.414  0.1828 -0.2539  0.0544
 2075TIP3    H1 6231   1.218   0.247   1.355  0.5009 -0.6078  0.6521
 2075TIP3    H2 6232   1.186   0.393   1.381  0.1403 -0.4616 -0.5377
 2076TIP3   OH2 6233   2.841   5.534   2.233  0.6296  0.1347  0.3151
 2076TIP3    H1 6234   2.843   5.605   2.297  0.2894 -1.2069  1.8852
 2076TIP3    H2 6235   2.750   5.530   2.204  0.4322 -0.2279  0.9450
 2077TIP3   OH2 6236   4.662   0.489   1.003  0.1989 -0.0990 -0.0209
 2077TIP3    H1 6237   4.600   0.528   0.942 -0.6012 -0.1706  0.7316
 2077TIP3    H2 6238   4.715   0.429   0.949 -0.0798  0.3011 -0.7472
 2078TIP3   OH2 6239   1.064   5.255   1.193  0.4700  0.5590  0.6464
 2078TIP3    H1 6240   1.124   5.188   1.227  0.3997  0.2017  0.0852
 2078TIP3    H2 6241   1.099   5.276   1.107 -1.4462 -1.3020 -0.6944
 2079TIP3   OH2 6242   5.955   2.163   4.444  0.0446  0.1460  0.1017
 2079TIP3    H1 6243   6.024   2.174   4.379 -0.8823 -0.7125 -1.0737
 2079TIP3    H2 6244   5.888   2.111   4.399 -0.8304 -0.0745  1.5998
 2080TIP3   OH2 6245   2.313   2.973   2.700 -0.0302  0.2821 -0.7027
 2080TIP3    H1 6246   2.275   2.967   2.788 -0.4534  0.8768 -0.8328
 2080TIP3    H2 6247   2.285   2.893   2.656  0.2681 -0.0661 -0.2677
 2081TIP3   OH2 6248   1.499   0.866   1.649 -0.0988 -0.3914 -0.0748
 2081TIP3    H1 6249   1.435   0.796   1.638 -0.3517 -0.0175 -1.1242
 2081TIP3    H2 6250   1.531   0.883   1.560  0.3892  0.4093  0.2431
 2082TIP3   OH2 6251   2.484  -0.008   2.070  0.2943 -0.0912 -0.2500
 2082TIP3    H1 6252   2.433   0.072   2.076  1.2721  0.5352 -0.1293
 2082TIP3    H2 6253   2.466  -0.055   2.151 -0.9296 -0.4111 -0.6773
 2083TIP3   OH2 6254   0.309   4.412   2.191  0.2191  0.0461 -0.7344
 2083TIP3    H1 6255   0.281   4.335   2.241  3.4526 -1.2398 -0.6063
 2083TIP3    H2 6256   0.342   4.473   2.258 -0.0650  0.4835 -0.9897
 2084TIP3   OH2 6257   4.574   0.453   1.919 -0.0990 -0.2818 -0.0991
 2084TIP3    H1 6258   4.497   0.502   1.890  1.0986  0.8499 -1.5709
 2084TIP3    H2 6259   4.648   0.512   1.901  1.2085 -1.7329  0.2679
 2085TIP3   OH2 6260   0.738   1.761   3.420 -0.6352 -0.1939  0.8563
 2085TIP3    H1 6261   0.658   1.712   3.437 -0.8215 -0.9669 -1.7727
 2085TIP3    H2 6262   0.798   1.735   3.489 -0.6859 -4.3189 -0.4001
 2086TIP3   OH2 6263   5.171   5.730   2.564  0.4219 -0.1671  1.0883
 2086TIP3    H1 6264   5.086   5.772   2.576 -0.4669  0.2124 -4.0627
 2086TIP3    H2 6265   5.234   5.802   2.561 -0.0739  0.2327 -0.9583
 2087TIP3   OH2 6266   3.538   3.045   1.977 -0.2878  0.0397 -0.1343
 2087TIP3    H1 6267   3.535   3.130   2.020 -1.1153 -0.5669  1.0437
 2087TIP3    H2 6268   3.534   3.066   1.883  0.2926  1.3180  0.1090
 2088TIP3   OH2 6269   0.407   0.183   4.737 -0.0283  0.0836 -0.9920
 2088TIP3    H1 6270   0.481   0.213   4.684 -0.9942  0.7588 -1.9979
 2088TIP3    H2 6271   0.372   0.107   4.689  0.6657 -0.9399  0.0632
 2089TIP3   OH2 6272   4.089   5.400   0.447  0.2831  0.2779 -1.1084
 2089TIP3    H1 6273   4.002   5.376   0.478 -0.0203  0.0553 -2.1223
 2089TIP3    H2 6274   4.142   5.321   0.461  0.3506  0.4306 -0.4428
 2090TIP3   OH2 6275   3.842   1.969   0.011  0.0252  0.0546 -0.2072
 2090TIP3    H1 6276   3.803   1.904  -0.047  1.0691  1.3379 -2.4895
 2090TIP3    H2 6277   3.769   2.026   0.037 -0.8345 -1.7348  1.5592
 2091TIP3   OH2 6278   1.895   1.569   0.852 -0.0680  0.2721  0.5362
 2091TIP3    H1 6279   1.917   1.579   0.944 -0.3342  0.3294  0.5961
 2091TIP3    H2 6280   1.855   1.482   0.846 -0.5624  0.4925  0.5799
 2092TIP3   OH2 6281   1.632   2.632   0.577  0.2068 -0.1604  0.0672
 2092TIP3    H1 6282   1.566   2.673   0.521 -0.7979  0.6131  1.7375
 2092TIP3    H2 6283   1.625   2.538   0.557 -1.2652 -0.0681  0.0644
 2093TIP3   OH2 6284   4.845   4.344   0.453  0.3020  0.1460  0.7471
 2093TIP3    H1 6285   4.773   4.315   0.396  0.5162  1.3545 -0.1740
 2093TIP3    H2 6286   4.802   4.369   0.534 -0.3656  1.0435  0.1353
 2094TIP3   OH2 6287   4.581   1.892   2.083  0.3378  0.2454  0.6702
 2094TIP3    H1 6288   4.517   1.961   2.065 -0.5138 -0.3584  1.3154
 2094TIP3    H2 6289   4.648   1.903   2.016 -0.7160  0.5550 -0.3475
 2095TIP3   OH2 6290   2.141   3.476   4.292 -0.6029  0.3643  0.9159
 2095TIP3    H1 6291   2.164   3.557   4.248 -2.6253  0.6749  0.3472
 2095TIP3    H2 6292   2.223   3.427   4.298  0.2012  1.4357 -0.8354
 2096TIP3   OH2 6293   1.037   2.148   3.286  0.2768 -0.0487 -0.0945
 2096TIP3    H1 6294   1.075   2.061   3.272  2.5743  0.8017  0.3027
 2096TIP3    H2 6295   1.005   2.175   3.200 -0.6447 -1.3454 -0.1784
 2097TIP3   OH2 6296   2.479   4.348   4.280  0.5080 -0.6785 -0.5579
 2097TIP3    H1 6297   2.455   4.285   4.212 -2.8228  0.3060 -0.4310
 2097TIP3    H2 6298   2.430   4.322   4.357  0.2561  1.1377 -0.0494
 2098TIP3   OH2 6299   1.276   0.568   3.337  0.3501  0.5123  0.2438
 2098TIP3    H1 6300   1.340   0.590   3.405  0.8380  2.1957 -0.7164
 2098TIP3    H2 6301   1.206   0.523   3.385  2.5918 -2.2669  1.1841
 2099TIP3   OH2 6302   1.777   1.561   4.036  0.2879  0.3587  0.4414
 2099TIP3    H1 6303   1.836   1.605   4.098  0.1734  1.4544 -0.1857
 2099TIP3    H2 6304   1.727   1.633   3.997  2.1592  0.0995 -2.8341
 2100TIP3   OH2 6305   4.471   4.291   4.722 -0.0323  0.0137  0.0809
 2100TIP3    H1 6306   4.557   4.302   4.682  0.9665 -1.8468  1.5330
 2100TIP3    H2 6307   4.452   4.376   4.762  1.4586  0.2812  0.2927
 2101TIP3   OH2 6308   2.309   2.561   1.952 -0.1491 -0.4779 -0.3024
 2101TIP3    H1 6309   2.294   2.474   1.917  0.9793 -1.3477  1.2777
 2101TIP3    H2 6310   2.395   2.587   1.918  0.0015 -0.4397  0.1021
 2102TIP3   OH2 6311   6.328   2.705   1.804 -0.2077  0.4024 -0.3691
 2102TIP3    H1 6312   6.381   2.774   1.844  2.7886 -1.6710 -0.4226
 2102TIP3    H2 6313   6.321   2.731   1.712  0.0860  1.1095 -0.1986
 2103TIP3   OH2 6314   5.854   1.448   2.634  0.1309 -0.0319  0.2448
 2103TIP3    H1 6315   5.779   1.454   2.693  0.4099  0.9875  0.5223
 2103TIP3    H2 6316   5.899   1.368   2.661 -0.5840 -0.3900  0.3981
 2104TIP3   OH2 6317   4.780   3.020   0.814 -0.5475  0.3232  0.4251
 2104TIP3    H1 6318   4.769   2.940   0.762  0.4620 -0.7598  1.7796
 2104TIP3    H2 6319   4.763   3.091   0.753 -0.8676 -0.9148 -0.9918
 2105TIP3   OH2 6320   1.293   2.782   0.070 -0.0064 -0.0752 -0.0441
 2105TIP3    H1 6321   1.361   2.848   0.088 -0.5571  0.2668  0.8028
 2105TIP3    H2 6322   1.313   2.711   0.130  0.1495 -0.3784 -0.4495
 2106TIP3   OH2 6323   1.215   4.083   4.388 -0.3300  0.3156  0.6386
 2106TIP3    H1 6324   1.289   4.106   4.331  0.0318 -1.5722  0.2800
 2106TIP3    H2 6325   1.149   4.047   4.329 -1.2574  1.2475  1.0620
 2107TIP3   OH2 6326   3.800   5.634   0.401  0.0593  0.2083 -0.1917
 2107TIP3    H1 6327   3.814   5.541   0.384  1.9498  0.4434 -0.1370
 2107TIP3    H2 6328   3.710   5.650   0.373  0.2168 -1.2911 -1.7394
 2108TIP3   OH2 6329   2.225   1.339   2.040  0.1492  0.0828  0.3046
 2108TIP3    H1 6330   2.189   1.409   1.985  1.2656  0.6346  0.2514
 2108TIP3    H2 6331   2.315   1.328   2.010  0.3098 -0.6570  1.0160
 2109TIP3   OH2 6332   4.960   5.318   0.585  0.0164  0.0674 -0.4925
 2109TIP3    H1 6333   5.027   5.265   0.628 -0.2600  0.6210  0.6664
 2109TIP3    H2 6334   4.961   5.401   0.633 -1.2235  0.2216 -0.7078
 2110TIP3   OH2 6335   4.227   4.317   0.793  0.2468 -0.1239  0.0815
 2110TIP3    H1 6336   4.155   4.293   0.851  0.4527  0.8774  0.7929
 2110TIP3    H2 6337   4.203   4.405   0.762  0.4506 -0.3900 -0.8623
 2111TIP3   OH2 6338   3.121   4.434   0.301 -0.0812 -0.3714 -0.2696
 2111TIP3    H1 6339   3.193   4.449   0.239 -0.4159 -0.5928 -0.7211
 2111TIP3    H2 6340   3.138   4.494   0.373 -0.2693  0.6806 -1.0687
 2112TIP3   OH2 6341   2.187   4.294   2.284  0.3829 -0.2424  0.1578
 2112TIP3    H1 6342   2.215   4.329   2.199 -0.5433 -1.1503 -0.5394
 2112TIP3    H2 6343   2.164   4.371   2.335  0.2155  0.2844 -0.6904
 2113TIP3   OH2 6344   3.071   1.004   4.154  0.0757  0.1022 -0.2142
 2113TIP3    H1 6345   3.055   1.025   4.062 -1.6800  0.7222  0.1979
 2113TIP3    H2 6346   3.056   0.909   4.160  2.1988 -0.3401 -0.9142
 2114TIP3   OH2 6347   3.773   0.863   2.873  0.2839 -0.3220  0.4488
 2114TIP3    H1 6348   3.845   0.927   2.873 -1.2109  1.5048  1.8806
 2114TIP3    H2 6349   3.789   0.809   2.950 -0.4769  0.9223  1.5352
 2115TIP3   OH2 6350   0.932   1.569   0.368  0.4145  0.5393  0.4117
 2115TIP3    H1 6351   0.864   1.509   0.338  1.2871  0.5511 -1.7624
 2115TIP3    H2 6352   1.011   1.516   0.373  0.6639  0.9518  1.0003
 2116TIP3   OH2 6353   0.996   5.756   4.700  0.7137 -0.0996  0.3368
 2116TIP3    H1 6354   1.027   5.742   4.610  0.9087 -0.0486  0.3938
 2116TIP3    H2 6355   0.978   5.668   4.734 -0.5618 -0.0457 -0.1646
 2117TIP3   OH2 6356   3.142   2.370   0.796 -0.2086  0.3883  0.5171
 2117TIP3    H1 6357   3.108   2.449   0.838 -0.8622  1.1211 -1.2991
 2117TIP3    H2 6358   3.156   2.309   0.869 -2.7591  1.0241  1.6702
 2118TIP3   OH2 6359   5.930   4.365   5.139  0.2275  0.7339  0.3120
 2118TIP3    H1 6360   5.845   4.340   5.103  0.2064  1.8400 -0.4436
 2118TIP3    H2 6361   5.908   4.413   5.219  0.2701 -1.5641  1.7964
 2119TIP3   OH2 6362   2.693   0.323   1.356  0.4051 -0.8804 -0.0028
 2119TIP3    H1 6363   2.718   0.238   1.319  1.6875 -0.8112  0.6593
 2119TIP3    H2 6364   2.731   0.324   1.444  2.2181  1.1665 -0.7021
 2120TIP3   OH2 6365   1.181   5.447   2.678  0.2023 -0.3941  0.1651
 2120TIP3    H1 6366   1.146   5.471   2.592  0.9878  0.2608  0.0209
 2120TIP3    H2 6367   1.107   5.458   2.737 -0.8407 -2.4683 -0.6420
 2121TIP3   OH2 6368   4.349   5.772   2.694 -0.2428 -0.2929 -0.2453
 2121TIP3    H1 6369   4.318   5.843   2.638  1.6603  1.6288  0.9795
 2121TIP3    H2 6370   4.444   5.767   2.678  0.0706 -0.8622  1.4829
 2122TIP3   OH2 6371   3.959   5.055   0.603 -0.3405  0.0123  0.1772
 2122TIP3    H1 6372   3.868   5.069   0.628 -0.4950  0.0047 -0.3792
 2122TIP3    H2 6373   4.009   5.085   0.679 -0.7662  1.0907  0.0515
 2123TIP3   OH2 6374   1.766   2.126   3.461  0.0522  0.0286 -0.7421
 2123TIP3    H1 6375   1.720   2.202   3.496 -2.0361 -2.0128  1.3053
 2123TIP3    H2 6376   1.801   2.082   3.539  2.1839 -0.5861 -1.9564
 2124TIP3   OH2 6377   2.689   5.330   2.879  0.8965 -0.0918  0.2317
 2124TIP3    H1 6378   2.764   5.332   2.819  0.9584  2.7755  0.2508
 2124TIP3    H2 6379   2.660   5.421   2.883 -3.5165 -1.2223 -0.8182
 2125TIP3   OH2 6380   0.199   4.081   3.951  0.1393  0.2550 -0.1013
 2125TIP3    H1 6381   0.132   4.147   3.935  1.4186  1.3896 -0.9953
 2125TIP3    H2 6382   0.273   4.129   3.989  1.0759 -0.6584 -0.7049
 2126TIP3   OH2 6383   2.088   4.887   4.767 -0.4575  0.0765  0.4351
 2126TIP3    H1 6384   2.044   4.899   4.683  0.0480  1.3221  0.3265
 2126TIP3    H2 6385   2.072   4.795   4.789 -1.1998 -0.0846 -0.6703
 2127TIP3   OH2 6386   5.349   3.445   0.256  0.1674 -0.2168  0.1322
 2127TIP3    H1 6387   5.422   3.387   0.277 -1.0933 -1.7264  0.4939
 2127TIP3    H2 6388   5.275   3.387   0.241 -0.6074  1.1787 -1.8916
 2128TIP3   OH2 6389   0.035   1.625   2.099  0.1554  0.4146  0.1754
 2128TIP3    H1 6390  -0.016   1.556   2.142 -0.6739 -0.2222 -1.7436
 2128TIP3    H2 6391   0.079   1.581   2.026  3.8876  0.8240  1.9011
 2129TIP3   OH2 6392   4.185   5.670   0.030  0.5554  0.4468  0.2811
 2129TIP3    H1 6393   4.102   5.681   0.078  1.4041 -0.0402  1.9272
 2129TIP3    H2 6394   4.216   5.583   0.053  1.0806  0.2417 -1.0860
 2130TIP3   OH2 6395   4.299   2.780   3.016 -0.3266 -0.3471 -0.4333
 2130TIP3    H1 6396   4.275   2.866   3.050 -0.1045 -0.1455 -0.7828
 2130TIP3    H2 6397   4.218   2.730   3.017  0.1867 -1.3726  3.3076
 2131TIP3   OH2 6398   2.739   0.178   2.338  0.2519  0.0608  0.0269
 2131TIP3    H1 6399   2.749   0.141   2.425  1.7749 -0.5228 -0.3753
 2131TIP3    H2 6400   2.807   0.245   2.332 -0.3073  0.5975 -0.4691
 2132TIP3   OH2 6401   5.063   3.927   0.366 -0.3299 -0.1176 -0.0675
 2132TIP3    H1 6402   5.148   3.896   0.333 -0.5360 -0.2520 -0.4670
 2132TIP3    H2 6403   5.061   4.020   0.345 -0.7622 -0.3442 -1.0792
 2133TIP3   OH2 6404   2.876   1.069   5.155  0.2090 -0.4176 -0.0844
 2133TIP3    H1 6405   2.888   0.976   5.174 -0.2963 -0.5517 -0.3926
 2133TIP3    H2 6406   2.953   1.094   5.105  0.4110 -0.6399  0.1126
 2134TIP3   OH2 6407   0.393   0.688   2.146  0.0883  0.7159 -0.1677
 2134TIP3    H1 6408   0.457   0.759   2.154  3.2455 -1.9865  0.8488
 2134TIP3    H2 6409   0.315   0.720   2.192  1.5867  3.2141  0.8240
 2135TIP3   OH2 6410   4.973   1.135   3.171 -0.3933 -0.1317 -0.6153
 2135TIP3    H1 6411   5.055   1.155   3.215 -0.2801  1.0081 -1.3207
 2135TIP3    H2 6412   4.917   1.100   3.241  0.6833 -0.9684 -0.1430
 2136TIP3   OH2 6413   5.564   4.140   2.041  0.0628  0.0085 -0.6296
 2136TIP3    H1 6414   5.546   4.061   2.092  0.3992 -0.0391 -0.5781
 2136TIP3    H2 6415   5.584   4.107   1.953  0.4336  0.0191 -0.5494
 2137TIP3   OH2 6416   2.814   0.259   4.995 -0.2918  1.0167 -0.1280
 2137TIP3    H1 6417   2.763   0.237   4.918  2.0162 -0.8072 -1.2600
 2137TIP3    H2 6418   2.791   0.191   5.059  0.5688  0.2620 -0.5979
 2138TIP3   OH2 6419   4.674   4.755   4.612  0.1883 -0.3460  0.1982
 2138TIP3    H1 6420   4.583   4.771   4.587  0.3381  0.4025  0.1328
 2138TIP3    H2 6421   4.726   4.787   4.538  0.5352 -0.1380  0.5257
 2139TIP3   OH2 6422   4.185   5.964   0.475 -0.0170  0.0889  0.3450
 2139TIP3    H1 6423   4.172   5.870   0.480  2.6878 -0.3660  0.5159
 2139TIP3    H2 6424   4.147   5.989   0.390  0.2511 -1.3680 -0.2329
 2140TIP3   OH2 6425   5.741   0.637   4.541  0.2040  0.2416  0.0365
 2140TIP3    H1 6426   5.668   0.576   4.533 -1.1371  1.7955 -0.3163
 2140TIP3    H2 6427   5.797   0.618   4.466 -0.6868  0.0495 -0.6012
 2141TIP3   OH2 6428   4.564   4.128   1.078  0.0187 -0.7493 -0.3234
 2141TIP3    H1 6429   4.480   4.083   1.083 -0.6815  0.4660 -0.6357
 2141TIP3    H2 6430   4.547   4.203   1.021  1.3259 -0.4933 -0.4031
 2142TIP3   OH2 6431   0.424   3.840   2.917 -0.0785 -0.4757 -0.2926
 2142TIP3    H1 6432   0.359   3.905   2.889 -1.2567 -1.0992  0.8819
 2142TIP3    H2 6433   0.391   3.808   3.001 -0.3415 -3.6129 -1.4355
 2143TIP3   OH2 6434   2.445   2.800   2.361 -0.5436 -0.1037 -0.3988
 2143TIP3    H1 6435   2.478   2.780   2.273  0.0329 -0.3839 -0.1220
 2143TIP3    H2 6436   2.510   2.859   2.399  0.0434 -1.2503  0.4262
 2144TIP3   OH2 6437   2.703   3.234   0.650  0.1968 -0.0485 -0.3727
 2144TIP3    H1 6438   2.703   3.301   0.582 -1.2289 -0.0220 -0.3858
 2144TIP3    H2 6439   2.629   3.257   0.706 -0.3575 -1.6291 -0.4040
 2145TIP3   OH2 6440   2.514   1.733   1.302 -0.1196  0.4200 -0.7359
 2145TIP3    H1 6441   2.423   1.726   1.332  0.0857 -1.5489 -0.4156
 2145TIP3    H2 6442   2.559   1.782   1.372 -0.2149 -1.7898  1.0136
 2146TIP3   OH2 6443   3.884   5.182   3.010 -0.3123  0.1538  0.1594
 2146TIP3    H1 6444   3.963   5.215   2.967  0.5270  0.9517  2.1812
 2146TIP3    H2 6445   3.853   5.255   3.064 -2.5644 -0.0878 -0.6802
 2147TIP3   OH2 6446   1.349   3.299   3.142  0.0963  0.4099 -0.2511
 2147TIP3    H1 6447   1.395   3.269   3.063 -1.6523  0.8272 -1.4778
 2147TIP3    H2 6448   1.321   3.388   3.121 -1.1512  0.2109  0.4800
 2148TIP3   OH2 6449   1.012   5.114   3.109 -0.3256  0.1121  0.1735
 2148TIP3    H1 6450   0.973   5.195   3.142  1.4528  1.3983 -0.6966
 2148TIP3    H2 6451   0.943   5.073   3.058 -0.7384  2.0294 -0.9116
 2149TIP3   OH2 6452   5.365   2.430   2.410 -0.5423  0.5362 -0.0221
 2149TIP3    H1 6453   5.310   2.366   2.455 -0.5010  1.3029  1.1886
 2149TIP3    H2 6454   5.329   2.435   2.322  0.0881 -1.8733 -0.4678
 2150TIP3   OH2 6455   4.484   5.676   0.257  0.0015 -0.9820  0.5831
 2150TIP3    H1 6456   4.468   5.731   0.181  1.1398 -0.8505  0.4247
 2150TIP3    H2 6457   4.468   5.734   0.332  1.0361 -0.4491  0.4194
 2151TIP3   OH2 6458   3.448   4.935   1.096 -0.1799 -0.0433 -0.1208
 2151TIP3    H1 6459   3.458   4.842   1.118  0.1527  0.1563  0.6278
 2151TIP3    H2 6460   3.480   4.981   1.174 -0.6550  0.6971 -0.3568
 2152TIP3   OH2 6461   0.495   3.632   2.083  0.1897  0.1542  0.1452
 2152TIP3    H1 6462   0.433   3.650   2.013  1.2594 -0.0599 -0.8829
 2152TIP3    H2 6463   0.444   3.641   2.163 -1.7164 -2.0331 -0.6967
 2153TIP3   OH2 6464   1.428   1.265   5.123  0.5527 -0.1371 -0.1394
 2153TIP3    H1 6465   1.507   1.306   5.089  0.1298  0.4390 -0.4412
 2153TIP3    H2 6466   1.356   1.311   5.079  0.0608 -0.9276 -0.1812
 2154TIP3   OH2 6467   1.348   1.697   3.559  0.4285 -0.2671  0.8877
 2154TIP3    H1 6468   1.303   1.782   3.563 -1.1201 -1.0344  0.5609
 2154TIP3    H2 6469   1.326   1.655   3.642 -0.7179 -1.2478  0.1100
 2155TIP3   OH2 6470   6.052   1.322   4.792 -0.2723 -0.5011 -0.4676
 2155TIP3    H1 6471   6.063   1.322   4.697 -2.3086  1.8931 -0.8006
 2155TIP3    H2 6472   6.049   1.414   4.817 -1.1171 -1.0478  1.7257
 2156TIP3   OH2 6473   2.855   1.354   0.166 -0.5585  0.1704  0.0349
 2156TIP3    H1 6474   2.946   1.370   0.192  0.0974 -2.1533 -0.6476
 2156TIP3    H2 6475   2.803   1.399   0.233  1.0732 -1.2509  2.3988
 2157TIP3   OH2 6476   2.930   2.570   5.009  0.2500  0.1670  0.0326
 2157TIP3    H1 6477   2.863   2.631   5.038  0.5913  0.2513  0.6561
 2157TIP3    H2 6478   3.000   2.577   5.074  0.8161 -0.0056 -0.5395
 2158TIP3   OH2 6479   3.694   3.097   1.162  0.6381 -0.1092  0.0765
 2158TIP3    H1 6480   3.644   3.126   1.238 -1.0937 -0.1609 -0.9926
 2158TIP3    H2 6481   3.723   3.009   1.184  1.1633  0.3026  1.1206
 2159TIP3   OH2 6482   3.750   0.855   4.753  0.4215 -0.7328 -0.3325
 2159TIP3    H1 6483   3.728   0.875   4.844  0.8244  0.0539 -0.4056
 2159TIP3    H2 6484   3.671   0.879   4.704  1.1562  1.4779 -0.5147
 2160TIP3   OH2 6485   6.062   0.940   4.496  0.3778 -0.2764  0.6025
 2160TIP3    H1 6486   6.055   1.036   4.497 -0.2252 -0.3089  0.1098
 2160TIP3    H2 6487   6.128   0.922   4.429 -0.8384 -0.2638 -0.6274
 2161TIP3   OH2 6488   1.382   0.862   1.043 -0.2895 -0.1168  0.2843
 2161TIP3    H1 6489   1.429   0.919   0.982 -1.4240  1.6004  0.9473
 2161TIP3    H2 6490   1.353   0.788   0.989  1.3318 -0.1756 -0.5717
 2162TIP3   OH2 6491   4.106   3.568   1.730 -0.3581  0.1107  0.4269
 2162TIP3    H1 6492   4.186   3.518   1.747  0.7786  1.9575  0.7944
 2162TIP3    H2 6493   4.048   3.546   1.803 -1.6674 -3.8415 -1.4953
 2163TIP3   OH2 6494   4.563   1.065   2.350 -0.0736 -0.0298  0.0292
 2163TIP3    H1 6495   4.489   1.054   2.290  0.7052  0.3910 -1.0509
 2163TIP3    H2 6496   4.536   1.022   2.430 -1.0662 -0.8369 -0.7136
 2164TIP3   OH2 6497   3.800   3.971   2.815 -0.1634  0.2498  0.0708
 2164TIP3    H1 6498   3.744   3.951   2.740 -0.8836 -0.1620  0.7035
 2164TIP3    H2 6499   3.881   3.922   2.798 -0.8656 -1.0141  0.2525
 2165TIP3   OH2 6500   5.939   4.824   1.083 -0.1429  0.1187 -0.1982
 2165TIP3    H1 6501   5.870   4.850   1.022 -0.3999  0.0514  0.0562
 2165TIP3    H2 6502   5.904   4.745   1.125 -0.0113  0.2157  0.0964
 2166TIP3   OH2 6503   3.656   4.743   1.903 -0.3562  0.1021 -0.2367
 2166TIP3    H1 6504   3.723   4.681   1.874  1.4839  1.3491  1.1653
 2166TIP3    H2 6505   3.646   4.726   1.997  0.2449  1.9341  0.1944
 2167TIP3   OH2 6506   1.992   1.208   0.154 -0.0413 -0.5209 -0.1808
 2167TIP3    H1 6507   2.034   1.293   0.140 -1.0479 -0.3233 -2.4910
 2167TIP3    H2 6508   2.064   1.146   0.156  0.9042  0.4367  3.4221
 2168TIP3   OH2 6509   1.007   1.478   2.728  0.0715  0.0795 -0.1405
 2168TIP3    H1 6510   0.962   1.529   2.660 -0.1857 -0.9630 -0.7735
 2168TIP3    H2 6511   1.031   1.397   2.685 -0.9874 -1.0401  1.2786
 2169TIP3   OH2 6512   1.286   0.816   5.131 -0.5944  0.9204  0.4185
 2169TIP3    H1 6513   1.349   0.860   5.187  0.2627  0.4450 -0.1518
 2169TIP3    H2 6514   1.289   0.724   5.159 -0.4428  0.7505 -0.1425
 2170TIP3   OH2 6515   3.157   0.496   2.871 -0.1438 -0.7509 -0.1425
 2170TIP3    H1 6516   3.064   0.516   2.861  0.5214  2.2400 -1.4620
 2170TIP3    H2 6517   3.174   0.507   2.964 -0.6976  0.9398 -0.2180
 2171TIP3   OH2 6518   1.435   3.880   1.742  0.9351 -0.2324 -0.3762
 2171TIP3    H1 6519   1.437   3.900   1.649 -0.4462 -2.2657 -0.9212
 2171TIP3    H2 6520   1.347   3.904   1.770  0.6095 -1.6110 -0.1390
 2172TIP3   OH2 6521   3.925   2.277   3.177  0.1341 -0.8363 -0.0308
 2172TIP3    H1 6522   3.998   2.304   3.122 -0.0373 -0.8079 -0.2491
 2172TIP3    H2 6523   3.931   2.331   3.255  0.1298 -0.5735 -0.2124
 2173TIP3   OH2 6524   0.367   3.259   4.332 -0.3420  0.2392  0.3447
 2173TIP3    H1 6525   0.405   3.198   4.270  2.4383  0.7710  1.4061
 2173TIP3    H2 6526   0.401   3.231   4.417 -0.8587  1.8841  1.1299
 2174TIP3   OH2 6527   2.143   3.734   4.881  0.0467  0.0772  0.0008
 2174TIP3    H1 6528   2.230   3.719   4.842 -0.0770 -0.0268 -0.2388
 2174TIP3    H2 6529   2.090   3.661   4.848 -0.1606  0.2040  0.0567
 2175TIP3   OH2 6530   4.932   2.493   3.331  0.0287 -0.4153  0.2007
 2175TIP3    H1 6531   4.853   2.517   3.282  0.0568  0.4171  0.5466
 2175TIP3    H2 6532   4.991   2.457   3.264 -0.8223 -1.5505  0.0214
 2176TIP3   OH2 6533   5.173   4.108   0.794  0.1317 -0.0300  0.6324
 2176TIP3    H1 6534   5.256   4.077   0.831 -0.2055 -0.3937  1.1072
 2176TIP3    H2 6535   5.126   4.027   0.774 -0.7045  0.1618  1.7463
 2177TIP3   OH2 6536   3.914   5.431   0.158  0.0920 -0.1653 -0.4844
 2177TIP3    H1 6537   3.893   5.380   0.236  0.6550 -1.7929 -1.3451
 2177TIP3    H2 6538   3.999   5.397   0.129  0.1466  0.7679 -1.5093
 2178TIP3   OH2 6539   3.549   3.568   0.695  0.4562 -0.3124  0.1290
 2178TIP3    H1 6540   3.482   3.625   0.734  0.8583 -1.1008  2.1217
 2178TIP3    H2 6541   3.511   3.540   0.612 -0.3268  1.7498 -0.2703
 2179TIP3   OH2 6542   5.369   0.737   0.447 -0.8649  0.6772  0.4290
 2179TIP3    H1 6543   5.355   0.687   0.527 -2.7506  0.7366  0.1796
 2179TIP3    H2 6544   5.385   0.672   0.379 -0.6459  0.5552  0.5991
 2180TIP3   OH2 6545   5.392   3.576   2.033  0.2123  0.1198 -0.0618
 2180TIP3    H1 6546   5.366   3.641   1.968  1.7228 -0.5320 -1.3892
 2180TIP3    H2 6547   5.376   3.491   1.990 -3.0711 -0.5287  2.1533
 2181TIP3   OH2 6548   2.859   3.338   3.374 -0.5478 -0.8722 -0.0032
 2181TIP3    H1 6549   2.835   3.385   3.293 -4.0102 -0.8934  0.8545
 2181TIP3    H2 6550   2.912   3.265   3.344 -0.5601 -0.0901 -2.1266
 2182TIP3   OH2 6551   0.936   0.065   1.561  0.1167  0.2604  1.2315
 2182TIP3    H1 6552   0.863   0.011   1.529 -0.1257  0.9325  0.6384
 2182TIP3    H2 6553   0.898   0.152   1.571  1.8290  1.7653 -3.3046
 2183TIP3   OH2 6554   0.309   3.845   0.737  0.1754 -0.6682 -0.1457
 2183TIP3    H1 6555   0.364   3.923   0.736 -1.7760  0.8111 -1.3107
 2183TIP3    H2 6556   0.366   3.775   0.767  2.2829  1.0094 -0.0076
 2184TIP3   OH2 6557   5.481   0.310   4.930 -0.5209  0.2199  0.5667
 2184TIP3    H1 6558   5.404   0.303   4.986 -0.8402 -1.6323 -0.0349
 2184TIP3    H2 6559   5.499   0.220   4.903  0.1434  0.9540 -1.6279
 2185TIP3   OH2 6560   5.728   4.543   3.720  0.2946 -0.0284  0.0538
 2185TIP3    H1 6561   5.769   4.457   3.733  0.4991  0.2537  1.5219
 2185TIP3    H2 6562   5.777   4.602   3.778  1.1625  1.4437 -2.0696
 2186TIP3   OH2 6563   1.160   1.615   0.843  0.2096  0.4033 -0.3376
 2186TIP3    H1 6564   1.214   1.581   0.915  2.5735  2.6230 -0.9161
 2186TIP3    H2 6565   1.075   1.634   0.884  0.0701 -2.3095  0.8369
 2187TIP3   OH2 6566   0.277   4.773   1.098 -0.2196  0.0215  0.4387
 2187TIP3    H1 6567   0.215   4.834   1.058  0.8365  1.5048  1.0024
 2187TIP3    H2 6568   0.358   4.822   1.106  1.2394 -2.0489 -0.7873
 2188TIP3   OH2 6569   3.218   4.688   2.615 -0.0595  0.0587 -0.2344
 2188TIP3    H1 6570   3.309   4.709   2.636 -0.1545  0.9816 -0.7029
 2188TIP3    H2 6571   3.206   4.717   2.525 -0.5918 -0.8317 -0.4653
 2189TIP3   OH2 6572   4.937   1.543   1.694 -0.2327  0.6941  0.5125
 2189TIP3    H1 6573   4.850   1.519   1.725 -0.4928  1.1715  0.1597
 2189TIP3    H2 6574   4.994   1.473   1.726 -1.0564 -0.6912 -0.9228
 2190TIP3   OH2 6575   0.094   3.550   1.367 -0.4008 -0.1662 -0.0148
 2190TIP3    H1 6576   0.026   3.513   1.310  0.9318 -0.4210 -1.5482
 2190TIP3    H2 6577   0.176   3.532   1.319  0.6833  0.6536  1.4696
 2191TIP3   OH2 6578   3.749   4.048   4.777  0.1420  0.1715 -0.2513
 2191TIP3    H1 6579   3.801   4.121   4.811 -0.3057 -0.1510  1.1890
 2191TIP3    H2 6580   3.750   3.983   4.847  0.8496 -1.4053 -1.6404
 2192TIP3   OH2 6581   1.319   0.135   1.980  0.2249  0.1308 -0.4366
 2192TIP3    H1 6582   1.394   0.144   1.921  0.6421  2.0701  0.3245
 2192TIP3    H2 6583   1.268   0.215   1.967 -0.0509  0.2843  1.2673
 2193TIP3   OH2 6584   2.040   0.583   2.242 -0.1524  0.1132  0.2894
 2193TIP3    H1 6585   2.034   0.520   2.313 -1.3275  2.0695  2.0628
 2193TIP3    H2 6586   2.125   0.566   2.201 -0.2908 -2.3362  0.8707
 2194TIP3   OH2 6587   3.319   3.621   4.923 -0.1732  0.1570 -0.1758
 2194TIP3    H1 6588   3.336   3.608   4.830 -1.2283  2.3245 -0.7523
 2194TIP3    H2 6589   3.242   3.567   4.941  1.3532 -2.0310  0.0409
 2195TIP3   OH2 6590   6.118   3.241   2.178 -0.5086  0.6226 -0.3124
 2195TIP3    H1 6591   6.100   3.147   2.172 -0.5086  0.6768 -1.4157
 2195TIP3    H2 6592   6.057   3.273   2.244  0.2264 -0.3239  0.8648
 2196TIP3   OH2 6593   6.098   4.908   0.715  0.0834  1.1341  0.0986
 2196TIP3    H1 6594   6.025   4.847   0.707 -0.0707  1.0380  1.7873
 2196TIP3    H2 6595   6.080   4.976   0.651 -0.0328 -0.2701 -1.4355
 2197TIP3   OH2 6596   5.177   3.874   4.909 -0.8813  0.4581 -0.8072
 2197TIP3    H1 6597   5.128   3.792   4.913 -0.0731 -0.0228 -0.7039
 2197TIP3    H2 6598   5.190   3.898   5.001  2.5320 -1.5187 -0.6317
 2198TIP3   OH2 6599   0.539   5.294   0.740 -0.0793 -0.0218 -0.1991
 2198TIP3    H1 6600   0.487   5.283   0.661  0.5763 -1.1225 -0.4922
 2198TIP3    H2 6601   0.512   5.222   0.797 -0.3097  0.5729  0.4608
 2199TIP3   OH2 6602   6.176   5.062   3.573 -0.0411 -0.2883 -0.1041
 2199TIP3    H1 6603   6.264   5.100   3.569 -0.7244  1.5319  0.8958
 2199TIP3    H2 6604   6.118   5.135   3.552 -1.3129 -1.6349 -1.5026
 2200TIP3   OH2 6605   0.061   1.510   2.384 -0.1106 -0.3183  0.0346
 2200TIP3    H1 6606   0.156   1.514   2.379 -0.0048 -2.2451 -0.2804
 2200TIP3    H2 6607   0.039   1.549   2.469  0.7051  2.4456 -0.9033
 2201TIP3   OH2 6608   4.737   4.177   0.235  0.5341 -0.3625  0.0160
 2201TIP3    H1 6609   4.751   4.093   0.279 -0.8970 -0.7725 -0.2389
 2201TIP3    H2 6610   4.655   4.165   0.188 -0.1163  1.4312  0.6134
 2202TIP3   OH2 6611   0.551   4.054   1.181 -0.2765  0.4229 -0.5601
 2202TIP3    H1 6612   0.464   4.035   1.216 -0.5381  2.0146 -0.2367
 2202TIP3    H2 6613   0.611   4.036   1.253 -0.2608 -1.1196 -0.9268
 2203TIP3   OH2 6614   1.603   3.812   5.202  0.1418  1.0129 -0.1717
 2203TIP3    H1 6615   1.682   3.761   5.220  1.1309  3.0440  1.7344
 2203TIP3    H2 6616   1.622   3.859   5.121 -0.5022 -0.9914 -1.5520
 2204TIP3   OH2 6617   3.130   0.169   5.042 -0.7844 -0.3897  0.3796
 2204TIP3    H1 6618   3.101   0.079   5.027 -0.4419 -0.4269 -0.0841
 2204TIP3    H2 6619   3.213   0.176   4.995 -0.5665  0.0263  0.8156
 2205TIP3   OH2 6620   5.058   2.277   4.475 -0.0787 -0.6304  0.7849
 2205TIP3    H1 6621   5.150   2.289   4.499 -0.1635  0.8028  0.5045
 2205TIP3    H2 6622   5.045   2.335   4.400 -1.0865 -1.1880  0.5105
 2206TIP3   OH2 6623   3.534   1.595   2.677  0.4068  0.4661 -0.4785
 2206TIP3    H1 6624   3.475   1.670   2.670 -0.1121  0.0640 -0.4824
 2206TIP3    H2 6625   3.622   1.633   2.672  0.2293  1.3490  1.7650
 2207TIP3   OH2 6626   5.914   4.573   3.493 -0.2056  0.4753 -0.2994
 2207TIP3    H1 6627   5.890   4.542   3.406 -2.4010  0.6390  0.1945
 2207TIP3    H2 6628   5.831   4.587   3.538  0.8579  0.7670  1.7135
 2208TIP3   OH2 6629   1.418   2.730   3.871 -0.2769 -0.5781  0.2992
 2208TIP3    H1 6630   1.466   2.740   3.953  0.5169 -0.1694 -0.1905
 2208TIP3    H2 6631   1.362   2.808   3.866  1.1655  0.4605 -0.4760
 2209TIP3   OH2 6632   2.442   5.750   3.776  0.2707 -0.6391  0.5528
 2209TIP3    H1 6633   2.535   5.759   3.795  0.0337 -2.0477  2.7671
 2209TIP3    H2 6634   2.420   5.662   3.805 -1.7174 -0.3985 -0.0729
 2210TIP3   OH2 6635   2.831   3.394   4.675  0.3073  0.1078 -0.0183
 2210TIP3    H1 6636   2.906   3.353   4.631 -0.0284  1.4757 -2.0238
 2210TIP3    H2 6637   2.773   3.420   4.603 -0.8043  1.5411  1.3276
 2211TIP3   OH2 6638   2.076   1.635   2.758  0.3253  0.0138 -0.2173
 2211TIP3    H1 6639   2.121   1.641   2.842  0.4020 -1.5421 -0.1125
 2211TIP3    H2 6640   2.006   1.701   2.763  0.8563  0.5140  0.7215
 2212TIP3   OH2 6641   1.766   0.638   3.151 -0.1613  0.3284 -0.3363
 2212TIP3    H1 6642   1.763   0.709   3.086 -0.5805  1.7069  1.1408
 2212TIP3    H2 6643   1.837   0.582   3.121 -0.3480  0.8994 -2.0011
 2213TIP3   OH2 6644   0.068   0.468   1.774  0.2255  0.4663  0.4592
 2213TIP3    H1 6645   0.006   0.396   1.761  0.3446  0.1643  1.4981
 2213TIP3    H2 6646   0.033   0.517   1.848  0.4894  1.1169  0.1611
 2214TIP3   OH2 6647   5.233   2.148   3.515 -0.4424 -0.1134  0.2340
 2214TIP3    H1 6648   5.314   2.194   3.539 -0.9161 -0.0426  1.8569
 2214TIP3    H2 6649   5.243   2.127   3.423  1.5910 -0.4312  0.4880
 2215TIP3   OH2 6650   1.170   4.449   4.825 -0.2844 -0.6235 -0.0466
 2215TIP3    H1 6651   1.168   4.361   4.863 -0.3596 -1.4756 -1.8830
 2215TIP3    H2 6652   1.086   4.488   4.850 -0.9456 -1.6933 -0.5119
 2216TIP3   OH2 6653   5.951   3.211   3.745 -0.2128 -0.2168  0.2196
 2216TIP3    H1 6654   5.963   3.169   3.660 -3.0397 -0.2401 -0.2536
 2216TIP3    H2 6655   5.936   3.303   3.725 -0.6540 -0.1744  0.7213
 2217TIP3   OH2 6656   5.479   1.236   5.034 -0.0924  0.3020  0.4163
 2217TIP3    H1 6657   5.492   1.330   5.033  1.5990  0.1467  2.1405
 2217TIP3    H2 6658   5.464   1.215   5.126  3.8120 -1.5122  0.8648
 2218TIP3   OH2 6659   4.222   1.452   0.159  0.0856  0.2761  0.3952
 2218TIP3    H1 6660   4.201   1.364   0.129  1.0745  0.3343 -0.5232
 2218TIP3    H2 6661   4.182   1.458   0.246  0.3601 -1.2128  0.6525
 2219TIP3   OH2 6662   4.183   5.959   3.179 -0.0390  0.1728  0.3943
 2219TIP3    H1 6663   4.141   5.886   3.224  0.4479  0.4358  1.3003
 2219TIP3    H2 6664   4.217   5.920   3.097  0.6879 -0.7543  1.1081
 2220TIP3   OH2 6665   1.351   1.649   5.077  0.0134  0.4846 -0.0189
 2220TIP3    H1 6666   1.281   1.692   5.027  1.5314 -0.6890 -3.5285
 2220TIP3    H2 6667   1.423   1.712   5.075  0.3437  0.1091 -0.0292
 2221TIP3   OH2 6668   4.471   0.387   1.185 -0.2162 -0.1530  0.2379
 2221TIP3    H1 6669   4.547   0.386   1.126  0.2725  2.1514  0.7457
 2221TIP3    H2 6670   4.492   0.452   1.251 -1.9966 -0.5988  1.3218
 2222TIP3   OH2 6671   4.864   3.989   4.378 -0.4105 -0.2066  0.4358
 2222TIP3    H1 6672   4.819   3.918   4.332 -2.2715  1.4744 -0.5236
 2222TIP3    H2 6673   4.836   4.068   4.332  0.9000  1.2363  1.9926
 2223TIP3   OH2 6674   1.122   3.151   1.419  0.3185 -0.5484 -0.3652
 2223TIP3    H1 6675   1.191   3.215   1.437 -0.3756 -0.2949  1.7450
 2223TIP3    H2 6676   1.043   3.204   1.406 -0.0305 -0.9292  0.1771
 2224TIP3   OH2 6677   3.079   2.372   4.438 -0.3416 -0.0567  0.1118
 2224TIP3    H1 6678   3.109   2.347   4.525  0.0774 -1.0998 -0.3179
 2224TIP3    H2 6679   3.019   2.445   4.454  1.6129  1.4371  1.0845
 2225TIP3   OH2 6680   3.735   0.024   4.080  0.4278 -0.2323  0.0666
 2225TIP3    H1 6681   3.757   0.022   4.173 -1.6659  0.1756  0.6103
 2225TIP3    H2 6682   3.820   0.018   4.035  1.4882 -0.2202  1.9852
 2226TIP3   OH2 6683   2.824   4.495   3.830 -0.1161  0.2857 -0.3661
 2226TIP3    H1 6684   2.750   4.435   3.839  0.8639 -0.9354 -0.3090
 2226TIP3    H2 6685   2.899   4.439   3.813  0.7120  1.5481 -0.9928
 2227TIP3   OH2 6686   1.073   5.680   1.511  0.2493  0.4912  0.3733
 2227TIP3    H1 6687   1.107   5.743   1.447  0.2287  0.6110  0.4800
 2227TIP3    H2 6688   1.006   5.631   1.463 -0.0352  0.8381  0.4117
 2228TIP3   OH2 6689   0.466   4.734   1.404 -0.1688 -0.0002 -0.5892
 2228TIP3    H1 6690   0.414   4.702   1.478 -0.1239  1.4205  0.0830
 2228TIP3    H2 6691   0.415   4.708   1.327 -0.1503 -1.6328 -0.1072
 2229TIP3   OH2 6692   6.306   1.436   4.396 -0.3107 -0.2620 -0.1573
 2229TIP3    H1 6693   6.277   1.504   4.456 -1.5777  0.0373 -1.0666
 2229TIP3    H2 6694   6.402   1.435   4.406 -0.3185  1.1860  0.3580
 2230TIP3   OH2 6695   1.185   4.489  -0.008 -0.0767  0.1412  0.0772
 2230TIP3    H1 6696   1.167   4.583  -0.011 -0.4696  0.3360  3.9391
 2230TIP3    H2 6697   1.164   4.463   0.081  1.2828 -3.3993 -0.4596
 2231TIP3   OH2 6698   0.317   3.331   3.698  0.2370  0.2386  0.4791
 2231TIP3    H1 6699   0.325   3.424   3.720  1.3321  0.6456 -1.4597
 2231TIP3    H2 6700   0.223   3.314   3.704 -0.0925  1.7150 -0.0448
 2232TIP3   OH2 6701   2.778   3.716   1.416  0.5571 -0.3189 -0.2472
 2232TIP3    H1 6702   2.862   3.670   1.420  0.6025 -0.2176 -0.0345
 2232TIP3    H2 6703   2.770   3.745   1.325  0.7957 -0.2473 -0.2441
 2233TIP3   OH2 6704   4.249   0.594   0.973  0.2330  0.3669 -0.1815
 2233TIP3    H1 6705   4.199   0.668   1.008  2.5147  1.5221  0.8612
 2233TIP3    H2 6706   4.261   0.536   1.049 -1.4438 -1.0942 -0.9641
 2234TIP3   OH2 6707   2.138   3.737   3.888 -0.0321  0.0993 -0.1291
 2234TIP3    H1 6708   2.143   3.669   3.821 -3.7289 -0.0442 -0.4301
 2234TIP3    H2 6709   2.127   3.819   3.839  1.9671  0.6902  0.2971
 2235TIP3   OH2 6710   2.087   5.262   4.358 -0.3308  0.0271 -0.2311
 2235TIP3    H1 6711   2.140   5.194   4.399 -0.2827 -0.1928 -0.6559
 2235TIP3    H2 6712   2.058   5.223   4.276 -0.6026  0.3891 -0.3067
 2236TIP3   OH2 6713   5.340   2.100   4.426  0.5292  0.1679 -0.2244
 2236TIP3    H1 6714   5.353   2.101   4.331 -1.7675  0.4747 -0.5842
 2236TIP3    H2 6715   5.343   2.192   4.451 -1.6010  0.3596 -0.4831
 2237TIP3   OH2 6716   0.714   1.452   0.602  0.1130  0.0276  0.7923
 2237TIP3    H1 6717   0.782   1.519   0.601 -0.1786  0.3396  1.1773
 2237TIP3    H2 6718   0.723   1.406   0.519  1.3742 -0.5306  1.2182
 2238TIP3   OH2 6719   1.905   2.269   0.229 -0.4677 -0.0075 -0.5707
 2238TIP3    H1 6720   1.898   2.267   0.324 -1.6689 -0.5518 -0.6499
 2238TIP3    H2 6721   1.862   2.188   0.200 -0.3305  0.2659 -1.5910
 2239TIP3   OH2 6722   0.324   4.433   3.266  0.0814 -0.2813  0.3657
 2239TIP3    H1 6723   0.410   4.410   3.301  0.7306 -0.2824 -1.1434
 2239TIP3    H2 6724   0.280   4.478   3.338  1.2482 -0.5090  1.2542
 2240TIP3   OH2 6725   1.387   3.019   3.700  0.1544 -0.2006 -1.1082
 2240TIP3    H1 6726   1.349   3.038   3.786 -0.2901  0.1707 -1.3836
 2240TIP3    H2 6727   1.482   3.029   3.713  0.3006 -2.3269 -0.1028
 2241TIP3   OH2 6728   5.126   5.749   4.266 -0.1787  0.2772 -0.2665
 2241TIP3    H1 6729   5.183   5.825   4.257  0.4005 -0.1055  0.0860
 2241TIP3    H2 6730   5.179   5.685   4.312  0.2748 -1.2973 -2.7512
 2242TIP3   OH2 6731   5.601   1.053   0.100 -0.6048 -0.2608  0.4687
 2242TIP3    H1 6732   5.675   1.030   0.044  0.6424 -0.7479  2.2632
 2242TIP3    H2 6733   5.620   1.012   0.184 -1.5109  1.9508  1.8385
 2243TIP3   OH2 6734   6.310   1.500   4.805  0.3453  0.0412  0.4688
 2243TIP3    H1 6735   6.344   1.553   4.733  0.7299 -0.3391  0.3707
 2243TIP3    H2 6736   6.347   1.413   4.791  0.3465 -0.0587  1.0744
 2244TIP3   OH2 6737   1.864   5.395   0.979  0.0381  0.0796 -0.4304
 2244TIP3    H1 6738   1.790   5.392   0.918  0.9626  0.6928 -1.6130
 2244TIP3    H2 6739   1.930   5.448   0.935  1.1165 -0.2750  0.6947
 2245TIP3   OH2 6740   3.073   1.292   4.477  0.1010  0.3112 -0.1043
 2245TIP3    H1 6741   3.025   1.335   4.548 -2.2482 -0.4995 -1.1038
 2245TIP3    H2 6742   3.126   1.226   4.521 -1.1692 -0.0534  0.9517
 2246TIP3   OH2 6743   0.804   4.072   0.699 -0.0013  0.4521  0.0907
 2246TIP3    H1 6744   0.852   4.028   0.769  1.1235 -1.2904 -1.6732
 2246TIP3    H2 6745   0.763   4.001   0.649 -0.2214  1.5784 -1.4069
 2247TIP3   OH2 6746   1.625   4.341   1.118  0.2987 -0.0425 -0.0401
 2247TIP3    H1 6747   1.684   4.369   1.188 -2.5928  0.5495  2.3999
 2247TIP3    H2 6748   1.618   4.246   1.128 -0.2799  0.0652  0.6962
 2248TIP3   OH2 6749   1.860   3.113   4.153  0.4594 -0.1739 -0.0845
 2248TIP3    H1 6750   1.923   3.083   4.218 -0.5751 -1.9975  0.1495
 2248TIP3    H2 6751   1.910   3.170   4.095  1.8650 -0.1056  1.1363
 2249TIP3   OH2 6752   3.434   0.312   3.092 -0.5348  0.7817 -0.1669
 2249TIP3    H1 6753   3.404   0.323   3.183 -3.2035 -0.4016 -0.8002
 2249TIP3    H2 6754   3.398   0.388   3.046 -0.0120  0.8800 -0.4144
 2250TIP3   OH2 6755   4.620   1.036   1.763  0.9369  0.3534  0.0312
 2250TIP3    H1 6756   4.594   1.021   1.854 -1.3639 -0.8407 -0.7446
 2250TIP3    H2 6757   4.604   1.129   1.748 -1.5067  0.0040  0.0776
 2251TIP3   OH2 6758   4.663   5.704   3.446  0.0319 -0.2867  0.0468
 2251TIP3    H1 6759   4.603   5.727   3.517  0.0095  0.7371 -0.2956
 2251TIP3    H2 6760   4.696   5.617   3.471 -1.1175 -0.6034  0.5397
 2252TIP3   OH2 6761   1.020   0.596   3.488  0.1410 -0.3776  0.0358
 2252TIP3    H1 6762   0.962   0.626   3.418  0.6357  0.7316  0.0675
 2252TIP3    H2 6763   0.962   0.559   3.554 -0.3941 -0.6990 -0.6090
 2253TIP3   OH2 6764   2.779   5.204   2.186  0.0534  0.2183 -0.2450
 2253TIP3    H1 6765   2.736   5.227   2.269  2.5523  0.6647  1.0495
 2253TIP3    H2 6766   2.826   5.284   2.161  0.8787 -0.4965 -1.0565
 2254TIP3   OH2 6767   2.189   2.227   0.152  0.0895 -0.6613 -0.1414
 2254TIP3    H1 6768   2.098   2.237   0.181  0.0883  2.1727 -0.8261
 2254TIP3    H2 6769   2.185   2.169   0.076 -1.1553 -0.4444 -0.2485
 2255TIP3   OH2 6770   4.270   5.468   0.230 -0.3212  0.1279 -0.4224
 2255TIP3    H1 6771   4.212   5.437   0.300 -0.7006 -1.0061 -1.2264
 2255TIP3    H2 6772   4.333   5.524   0.276 -1.6949  0.9371  0.5494
 2256TIP3   OH2 6773   0.760   3.468   0.963  0.0484  0.4494  0.6022
 2256TIP3    H1 6774   0.827   3.441   1.026 -2.1121 -0.4443  2.6816
 2256TIP3    H2 6775   0.794   3.549   0.926  2.9164 -0.6841  0.4176
 2257TIP3   OH2 6776   0.188   2.312   3.155  0.3271 -0.6951  0.3222
 2257TIP3    H1 6777   0.208   2.233   3.205 -1.7136 -0.3781  1.7709
 2257TIP3    H2 6778   0.240   2.381   3.196  0.1521 -0.8102  0.7397
 2258TIP3   OH2 6779   1.767   5.750   4.281 -0.0102 -0.0460 -0.1373
 2258TIP3    H1 6780   1.781   5.675   4.338 -1.1941  1.5839  2.4752
 2258TIP3    H2 6781   1.851   5.795   4.278 -0.0094 -0.0009  0.5675
 2259TIP3   OH2 6782   2.087   1.360   1.276  0.4800  0.2509 -0.2082
 2259TIP3    H1 6783   2.057   1.384   1.364  0.1873  0.1878 -0.2898
 2259TIP3    H2 6784   2.099   1.265   1.281  2.1366  0.4596  0.2674
 2260TIP3   OH2 6785   4.847   4.780   0.539 -0.2431 -0.1678 -0.1181
 2260TIP3    H1 6786   4.753   4.795   0.534 -0.0803  0.8566 -0.4423
 2260TIP3    H2 6787   4.882   4.863   0.572  0.5398 -0.5504  0.0294
 2261TIP3   OH2 6788   3.214   0.244   3.792  0.3347  0.0594 -0.4835
 2261TIP3    H1 6789   3.212   0.149   3.776  0.2249 -0.0448  0.1179
 2261TIP3    H2 6790   3.241   0.282   3.708  0.5664 -0.5197 -0.6785
 2262TIP3   OH2 6791   3.619   4.340   3.494  0.7230  0.5036 -0.1235
 2262TIP3    H1 6792   3.712   4.352   3.475  1.0327 -0.5047  0.7080
 2262TIP3    H2 6793   3.579   4.322   3.409  2.1360 -4.2941 -0.0572
 2263TIP3   OH2 6794   3.386   2.060   2.744 -0.1772 -0.9082 -0.1820
 2263TIP3    H1 6795   3.475   2.081   2.772 -0.6865  0.4989  0.4875
 2263TIP3    H2 6796   3.367   2.123   2.674 -1.4623  0.4715  1.3282
 2264TIP3   OH2 6797   4.211   1.843   0.502 -0.0477  0.4195  0.1364
 2264TIP3    H1 6798   4.303   1.836   0.476  0.2563  1.7087  0.7657
 2264TIP3    H2 6799   4.169   1.888   0.429 -0.0640  0.2935  0.0691
 2265TIP3   OH2 6800   2.854   2.009   4.313 -0.4590  0.2723  0.5043
 2265TIP3    H1 6801   2.809   1.946   4.370 -0.1406  0.6094  1.1449
 2265TIP3    H2 6802   2.914   1.956   4.261 -2.2673 -0.3282 -1.1013
 2266TIP3   OH2 6803   6.106   3.733   3.203 -0.2905  0.6772 -0.1162
 2266TIP3    H1 6804   6.086   3.684   3.123  0.0155  0.6275 -0.1633
 2266TIP3    H2 6805   6.088   3.824   3.180 -1.6211  0.5131  0.2160
 2267TIP3   OH2 6806   2.384   1.895   0.814  0.1516  0.3313  0.3575
 2267TIP3    H1 6807   2.433   1.856   0.886 -0.4851 -0.3350  0.4378
 2267TIP3    H2 6808   2.332   1.965   0.855  0.1785  0.2943  0.4536
 2268TIP3   OH2 6809   5.411   2.025   0.914  0.1493  0.5286 -0.3088
 2268TIP3    H1 6810   5.333   1.974   0.896  0.3629  0.3521 -0.7208
 2268TIP3    H2 6811   5.483   1.963   0.911  0.4942  0.9688 -1.5133
 2269TIP3   OH2 6812   4.008   3.412   2.623 -0.2598  0.0366  0.1340
 2269TIP3    H1 6813   3.937   3.357   2.592  0.2614 -1.0453  0.8250
 2269TIP3    H2 6814   4.020   3.477   2.553 -1.8639  0.2155 -0.0123
 2270TIP3   OH2 6815   4.397   3.900   0.146 -0.2742 -0.2974 -0.5036
 2270TIP3    H1 6816   4.335   3.911   0.218 -1.0007 -0.7727 -1.0495
 2270TIP3    H2 6817   4.483   3.910   0.187 -0.7116  0.6119  0.2108
 2271TIP3   OH2 6818   4.558   0.720   0.891 -0.3561 -0.4032  0.2526
 2271TIP3    H1 6819   4.493   0.743   0.957  0.2470  0.1936  0.6511
 2271TIP3    H2 6820   4.522   0.755   0.809 -1.3806 -1.6477  0.1348
 2272TIP3   OH2 6821   4.560   5.345   3.361 -0.0999  0.4197  0.0049
 2272TIP3    H1 6822   4.526   5.306   3.441 -1.0989  1.3582  0.0688
 2272TIP3    H2 6823   4.645   5.381   3.385  0.2441 -0.5384  0.2672
 2273TIP3   OH2 6824   4.294   0.669   2.503 -1.2871 -0.0061 -0.0493
 2273TIP3    H1 6825   4.362   0.605   2.527 -2.3510 -1.8268 -1.6000
 2273TIP3    H2 6826   4.232   0.619   2.451 -1.6444  2.5664 -2.2926
 2274TIP3   OH2 6827  -0.034   2.546   0.098 -0.3542  0.0667 -0.0910
 2274TIP3    H1 6828   0.014   2.594   0.165 -0.5145 -0.3092  0.2983
 2274TIP3    H2 6829   0.033   2.503   0.046 -0.2588 -0.2327  0.2807
 2275TIP3   OH2 6830   2.349   5.879   0.059 -0.2046  0.0242 -0.4574
 2275TIP3    H1 6831   2.384   5.812   0.116 -1.0075 -2.2073 -2.4324
 2275TIP3    H2 6832   2.423   5.937   0.041  0.2336  0.3870  2.1418
 2276TIP3   OH2 6833   5.008   2.505   1.304 -0.0519 -0.5864 -0.3057
 2276TIP3    H1 6834   4.978   2.417   1.282  1.1742 -1.0787 -0.1193
 2276TIP3    H2 6835   5.092   2.513   1.259  1.0815 -0.4891  1.7208
 2277TIP3   OH2 6836   1.192   5.549   0.190 -0.3176 -0.0674 -0.2207
 2277TIP3    H1 6837   1.235   5.524   0.272  1.1297  0.0229 -0.9052
 2277TIP3    H2 6838   1.184   5.645   0.195  1.3521  0.1498 -0.8549
 2278TIP3   OH2 6839   2.345   1.624   0.478 -0.0353  0.4622 -0.4253
 2278TIP3    H1 6840   2.358   1.623   0.384 -2.1502  2.9263 -0.8570
 2278TIP3    H2 6841   2.415   1.681   0.512  0.5763 -0.2300 -0.4923
 2279TIP3   OH2 6842   1.876   1.274   1.490  0.6452 -0.0160  0.0083
 2279TIP3    H1 6843   1.918   1.322   1.561 -0.2889  1.7295 -0.5591
 2279TIP3    H2 6844   1.870   1.337   1.418 -0.7677 -0.9188 -0.7214
 2280TIP3   OH2 6845   1.545   5.632   4.938  0.2190 -0.3589 -0.8901
 2280TIP3    H1 6846   1.592   5.561   4.894  0.9920  0.6246 -1.6912
 2280TIP3    H2 6847   1.551   5.706   4.878  1.0029  0.9387  0.7032
 2281TIP3   OH2 6848   5.249   0.373   3.650 -0.2188  0.1345 -0.2593
 2281TIP3    H1 6849   5.254   0.308   3.720 -0.6217  1.5895  1.1854
 2281TIP3    H2 6850   5.223   0.323   3.572 -0.7773 -1.3849  0.8524
 2282TIP3   OH2 6851   1.438   0.805   4.203 -0.0173 -0.5336  0.0581
 2282TIP3    H1 6852   1.494   0.883   4.200 -0.7740  0.0575  0.7033
 2282TIP3    H2 6853   1.408   0.793   4.113 -1.5826  1.2270  0.2683
 2283TIP3   OH2 6854   5.797   1.836   1.877 -0.1571 -0.8825  0.3173
 2283TIP3    H1 6855   5.774   1.928   1.864  2.3249 -0.0763  1.0802
 2283TIP3    H2 6856   5.714   1.789   1.867 -1.4292  1.3783 -0.4661
 2284TIP3   OH2 6857   5.765   2.708   3.465  0.5205 -0.0320  0.1356
 2284TIP3    H1 6858   5.816   2.654   3.525  1.6838  0.8916  0.0016
 2284TIP3    H2 6859   5.686   2.656   3.447 -0.0743 -0.1766  2.7635
 2285TIP3   OH2 6860   2.804   4.055   2.869 -0.6336  0.1639  0.0752
 2285TIP3    H1 6861   2.751   4.018   2.798  1.4860  1.8291 -2.5992
 2285TIP3    H2 6862   2.888   4.010   2.863 -0.3599  0.4443  1.4731
 2286TIP3   OH2 6863   4.774   3.981   3.180 -0.2266  0.3802  0.0708
 2286TIP3    H1 6864   4.870   3.985   3.172 -0.2662  0.4578 -0.3548
 2286TIP3    H2 6865   4.752   3.889   3.162 -0.3524  0.6378 -1.1615
 2287TIP3   OH2 6866   6.232   5.305   2.477  0.1257  0.7778 -0.1861
 2287TIP3    H1 6867   6.157   5.245   2.474  0.2728  0.4976  1.1094
 2287TIP3    H2 6868   6.193   5.392   2.484 -0.0868  0.6328  0.4919
 2288TIP3   OH2 6869   1.880   0.592   4.677 -0.3947  0.8884  0.1381
 2288TIP3    H1 6870   1.900   0.679   4.712 -0.8592  0.6656  0.9879
 2288TIP3    H2 6871   1.837   0.546   4.750  3.0733 -1.3136  1.0027
 2289TIP3   OH2 6872   1.002   4.890   4.432 -0.1510  0.2059 -0.5076
 2289TIP3    H1 6873   1.027   4.805   4.467 -2.0385 -0.2511 -0.1635
 2289TIP3    H2 6874   0.990   4.945   4.509  1.6674  1.0000 -0.7529
 2290TIP3   OH2 6875   0.807   5.075   2.037  0.1286  0.0361  0.4592
 2290TIP3    H1 6876   0.824   5.160   2.077 -2.5265 -0.3849  2.7250
 2290TIP3    H2 6877   0.773   5.095   1.950  0.3939  1.2320  0.6172
 2291TIP3   OH2 6878   2.574   2.719   1.135 -0.1707 -0.1617  0.2991
 2291TIP3    H1 6879   2.655   2.760   1.166 -0.6526  1.2703 -0.2671
 2291TIP3    H2 6880   2.530   2.690   1.215  0.6252 -0.4570  0.6491
 2292TIP3   OH2 6881   3.731   2.168   0.665 -0.3546 -0.3507 -0.2953
 2292TIP3    H1 6882   3.636   2.173   0.676 -0.3160  0.9289 -0.4071
 2292TIP3    H2 6883   3.767   2.220   0.736  0.2870 -1.0631 -0.0821
 2293TIP3   OH2 6884   0.167   0.430   4.608  0.2818  0.2195 -0.5584
 2293TIP3    H1 6885   0.086   0.479   4.598  1.2978  2.0213 -0.2438
 2293TIP3    H2 6886   0.163   0.394   4.697 -0.5817 -0.5487 -0.8863
 2294TIP3   OH2 6887   0.503   3.088   4.145 -0.4500 -0.1801  0.3925
 2294TIP3    H1 6888   0.580   3.035   4.125  0.7257  1.6971 -0.3536
 2294TIP3    H2 6889   0.465   3.108   4.059 -1.0688 -0.0944  0.6807
 2295TIP3   OH2 6890   5.797   3.125   1.548  0.0982  0.5436  0.5937
 2295TIP3    H1 6891   5.707   3.121   1.580  0.3827 -0.1586  1.3456
 2295TIP3    H2 6892   5.826   3.034   1.544  0.8705  0.7761  0.6618
 2296TIP3   OH2 6893   0.368   0.970   1.058 -0.1997 -0.4962 -1.1049
 2296TIP3    H1 6894   0.296   0.938   1.111 -0.3472 -0.8125 -1.4896
 2296TIP3    H2 6895   0.426   1.014   1.120 -1.0919  0.4333 -0.8920
 2297TIP3   OH2 6896   4.669   5.197   3.164  0.0848 -0.4771 -0.2476
 2297TIP3    H1 6897   4.613   5.240   3.229  0.5879 -1.5673  0.9545
 2297TIP3    H2 6898   4.645   5.105   3.169  0.2018 -0.5947 -1.5622
 2298TIP3   OH2 6899   2.129   4.746   3.856 -0.5771  0.3626  0.0245
 2298TIP3    H1 6900   2.211   4.779   3.892 -0.1542 -0.9236  0.2907
 2298TIP3    H2 6901   2.080   4.714   3.931 -0.6802 -0.2256 -0.2847
 2299TIP3   OH2 6902   2.668   2.882   0.843 -0.0333  0.0518  0.7045
 2299TIP3    H1 6903   2.718   2.805   0.868 -0.4152 -0.4122  0.0643
 2299TIP3    H2 6904   2.671   2.938   0.920  0.2339 -0.6095  1.1868
 2300TIP3   OH2 6905   5.729   4.759   2.639  0.2742 -0.2147  0.6657
 2300TIP3    H1 6906   5.792   4.828   2.617 -0.9093  0.4607 -0.7792
 2300TIP3    H2 6907   5.782   4.691   2.681  1.8186  0.6649  0.2391
 2301TIP3   OH2 6908   1.344   5.663   3.861  0.2071  0.0529 -0.3550
 2301TIP3    H1 6909   1.283   5.604   3.816  1.4603 -1.1848 -0.5100
 2301TIP3    H2 6910   1.409   5.604   3.900  1.9817  1.3543 -1.2066
 2302TIP3   OH2 6911   2.429   3.972   2.987 -0.0243 -0.1217 -0.0328
 2302TIP3    H1 6912   2.373   4.014   2.922  1.2084  0.9202 -0.4726
 2302TIP3    H2 6913   2.466   3.896   2.941  0.2772  0.1943 -0.3185
 2303TIP3   OH2 6914   3.873   4.888   3.065 -0.2158  0.0459  0.4022
 2303TIP3    H1 6915   3.795   4.856   3.020 -1.8463  0.8094  2.5649
 2303TIP3    H2 6916   3.882   4.979   3.037  0.8328 -0.4285 -0.9679
 2304TIP3   OH2 6917   0.018   2.855   5.050  0.2486  0.4319  0.1279
 2304TIP3    H1 6918   0.039   2.885   4.961  0.0810 -0.6978 -0.3195
 2304TIP3    H2 6919   0.094   2.879   5.102  0.6612  0.4837 -0.4839
 2305TIP3   OH2 6920   5.773   0.568   3.043  0.1901 -0.6767  0.4905
 2305TIP3    H1 6921   5.681   0.550   3.021  0.2783 -0.1744 -0.3483
 2305TIP3    H2 6922   5.803   0.489   3.086 -0.2381 -1.4200 -0.5299
 2306TIP3   OH2 6923   4.016   2.281   3.783  0.4312 -0.1008 -0.3761
 2306TIP3    H1 6924   4.034   2.257   3.692  1.1272 -0.2929 -0.1944
 2306TIP3    H2 6925   3.922   2.265   3.794  0.7916 -2.5916 -0.3390
 2307TIP3   OH2 6926   3.130   5.038   1.065  0.3925  0.2195  0.2299
 2307TIP3    H1 6927   3.040   5.005   1.066  0.1546  0.6153 -1.8731
 2307TIP3    H2 6928   3.173   4.995   1.139 -1.7823  0.8338  1.9448
 2308TIP3   OH2 6929   2.944   2.309   3.065 -0.4755  0.1028 -0.6562
 2308TIP3    H1 6930   2.943   2.404   3.066  0.2536  0.1336  1.2542
 2308TIP3    H2 6931   2.869   2.284   3.119 -0.4597 -0.3931 -0.8608
 2309TIP3   OH2 6932   5.088   3.630   4.967 -0.2426 -0.1593  0.5789
 2309TIP3    H1 6933   5.161   3.591   4.918  0.0125  2.8474 -1.7639
 2309TIP3    H2 6934   5.013   3.575   4.947  1.0102 -2.4000  1.7340
 2310TIP3   OH2 6935   3.246   0.615   4.096  0.2859 -0.1952 -0.2527
 2310TIP3    H1 6936   3.205   0.686   4.046  1.3916 -0.9593 -2.3889
 2310TIP3    H2 6937   3.202   0.536   4.065  0.1312 -0.5965  0.9592
 2311TIP3   OH2 6938   0.699   2.931   1.093  0.3406 -0.4764  0.3025
 2311TIP3    H1 6939   0.680   2.974   1.010 -0.4365 -1.8386 -0.2589
 2311TIP3    H2 6940   0.674   2.840   1.079  0.2463 -0.7473  2.0146
 2312TIP3   OH2 6941   4.851   0.774   4.948  0.0796 -0.0703  0.3708
 2312TIP3    H1 6942   4.944   0.752   4.938  0.1137  0.6500 -1.2282
 2312TIP3    H2 6943   4.808   0.690   4.963  0.6926 -0.7772 -1.4999
 2313TIP3   OH2 6944   5.768   0.426   1.084  0.2051  0.1335  0.0711
 2313TIP3    H1 6945   5.820   0.365   1.136 -1.1798 -0.0884  1.2488
 2313TIP3    H2 6946   5.679   0.392   1.088 -0.2079  1.0024 -1.1452
 2314TIP3   OH2 6947   4.885   5.285   2.151 -0.2987 -0.4531  0.5040
 2314TIP3    H1 6948   4.852   5.223   2.086 -0.2939 -0.4439  0.4926
 2314TIP3    H2 6949   4.835   5.265   2.231 -2.7670  1.6886 -0.3441
 2315TIP3   OH2 6950   1.912   3.796   0.759  0.0866  0.4622 -0.0989
 2315TIP3    H1 6951   1.866   3.875   0.731  0.7529  0.5964 -0.8579
 2315TIP3    H2 6952   1.956   3.764   0.680  1.3371  0.3769  0.6065
 2316TIP3   OH2 6953   5.151   5.623   4.861 -0.1973 -0.5439 -0.3287
 2316TIP3    H1 6954   5.088   5.639   4.931  1.7377 -0.0861  1.3825
 2316TIP3    H2 6955   5.122   5.681   4.790  0.1636  2.2932  1.6597
 2317TIP3   OH2 6956   2.915   0.621   1.005  0.0068 -0.3180  0.0717
 2317TIP3    H1 6957   2.917   0.711   0.972  0.5205 -0.0829  0.7288
 2317TIP3    H2 6958   2.839   0.619   1.063  0.8782  0.1474  1.2773
 2318TIP3   OH2 6959   0.926   2.701   1.861  0.1474 -0.2447  0.8540
 2318TIP3    H1 6960   0.885   2.623   1.823  0.5506 -0.4285  0.7897
 2318TIP3    H2 6961   0.858   2.768   1.855 -0.5502 -0.8391  1.8063
 2319TIP3   OH2 6962   0.035   0.324   3.150 -0.4210  0.1574 -0.2202
 2319TIP3    H1 6963   0.085   0.405   3.156 -0.8778  0.4933 -0.9071
 2319TIP3    H2 6964   0.100   0.258   3.126 -0.3517  0.6612 -1.4745
 2320TIP3   OH2 6965   1.050   3.994   4.196  0.4148 -0.1476 -0.1581
 2320TIP3    H1 6966   0.967   3.968   4.238  1.8143 -1.4851  1.9939
 2320TIP3    H2 6967   1.071   3.921   4.138  1.7658 -1.5835  1.9895
 2321TIP3   OH2 6968   1.734   5.101   0.139 -0.2035 -0.0625  0.1541
 2321TIP3    H1 6969   1.781   5.095   0.222  0.1051 -0.2422 -0.0347
 2321TIP3    H2 6970   1.667   5.033   0.144  0.9457 -1.2848 -0.4706
 2322TIP3   OH2 6971   3.906   2.438   3.412 -0.1807 -0.1665 -0.4411
 2322TIP3    H1 6972   3.974   2.450   3.478  0.3359 -1.7404 -0.6267
 2322TIP3    H2 6973   3.879   2.526   3.387  0.0778  0.4617  1.3807
 2323TIP3   OH2 6974   1.283   3.387   1.307 -0.4345  0.0513 -0.0195
 2323TIP3    H1 6975   1.370   3.348   1.297 -1.1906 -1.9035  0.5278
 2323TIP3    H2 6976   1.290   3.473   1.266  1.2656 -0.7506 -1.5456
 2324TIP3   OH2 6977   0.773   0.520   4.750 -0.5690  0.7121  0.0024
 2324TIP3    H1 6978   0.778   0.604   4.703  0.0066  0.8280  0.2719
 2324TIP3    H2 6979   0.851   0.472   4.722 -0.5211  0.5530  0.4128
 2325TIP3   OH2 6980   6.062   4.659   1.835 -0.3724  0.4565  0.8456
 2325TIP3    H1 6981   6.010   4.673   1.914 -1.1639 -2.4265  0.9526
 2325TIP3    H2 6982   5.999   4.674   1.763 -0.3641  0.4667  0.8402
 2326TIP3   OH2 6983   1.468   3.996   2.511 -0.3384  0.0296  0.0320
 2326TIP3    H1 6984   1.470   4.052   2.588  0.5971  0.1662 -0.0731
 2326TIP3    H2 6985   1.551   3.947   2.516  0.4196  1.0582 -1.6107
 2327TIP3   OH2 6986   4.956   0.298   2.111  0.3997 -0.3665 -0.2398
 2327TIP3    H1 6987   4.883   0.250   2.072  1.5945 -1.0784 -1.7003
 2327TIP3    H2 6988   4.921   0.386   2.126 -0.7422 -0.6678 -0.9664
 2328TIP3   OH2 6989   4.024   1.646   0.030  0.8131 -0.9828  0.2358
 2328TIP3    H1 6990   4.098   1.705   0.015 -1.1223  1.6369  0.3973
 2328TIP3    H2 6991   4.031   1.622   0.123 -0.2325  1.8950  1.1619
 2329TIP3   OH2 6992   2.824   2.033   3.916  0.4052 -0.2983 -0.5823
 2329TIP3    H1 6993   2.805   2.098   3.848 -1.0729  0.5869  0.5950
 2329TIP3    H2 6994   2.740   1.989   3.931  0.4966  0.0027  1.1032
 2330TIP3   OH2 6995   3.232   3.235   4.830  0.2457 -0.0735  0.6008
 2330TIP3    H1 6996   3.166   3.287   4.875 -2.3203 -0.3796 -2.4540
 2330TIP3    H2 6997   3.207   3.144   4.848  0.0259 -0.1883 -0.2295
 2331TIP3   OH2 6998   6.103   2.024   2.700  0.3770  0.0950 -0.1883
 2331TIP3    H1 6999   6.127   1.952   2.642  0.4142  0.8293 -1.0971
 2331TIP3    H2 7000   6.009   2.011   2.716  0.2887  0.0806 -0.6982
 2332TIP3   OH2 7001   1.171   3.272   0.357 -0.2110 -0.2417  0.0063
 2332TIP3    H1 7002   1.080   3.296   0.375 -0.1473  1.5950 -1.7953
 2332TIP3    H2 7003   1.166   3.214   0.281  0.1320  1.0229 -1.0384
 2333TIP3   OH2 7004   5.848   5.518   5.097  0.2881  0.7622  0.0456
 2333TIP3    H1 7005   5.904   5.501   5.021 -1.0575 -1.0567 -0.6290
 2333TIP3    H2 7006   5.759   5.513   5.063 -0.3351  1.7026  1.4383
 2334TIP3   OH2 7007   4.332   3.964   1.368 -0.4728  0.3734  0.6390
 2334TIP3    H1 7008   4.339   3.967   1.464 -1.3263 -0.5936  0.7520
 2334TIP3    H2 7009   4.268   3.895   1.351  2.2012 -1.9967 -0.7216
 2335TIP3   OH2 7010   5.531   2.159   2.563  0.5081 -0.0970 -0.1683
 2335TIP3    H1 7011   5.447   2.196   2.537  1.4135  0.9720 -1.7864
 2335TIP3    H2 7012   5.536   2.075   2.517  0.9511  0.5595 -1.3788
 2336TIP3   OH2 7013   0.176   2.397   1.308  0.5706  0.2198  0.5334
 2336TIP3    H1 7014   0.125   2.376   1.386 -0.9036 -0.0782 -0.4545
 2336TIP3    H2 7015   0.241   2.461   1.337  0.4036 -0.2993  2.0963
 2337TIP3   OH2 7016   0.685   4.690   2.916 -0.6181 -0.0524  0.0968
 2337TIP3    H1 7017   0.649   4.720   2.832 -0.7114  0.0908  0.1883
 2337TIP3    H2 7018   0.666   4.596   2.918 -1.0194  0.0294  0.1627
 2338TIP3   OH2 7019   3.506   2.669   1.803 -0.2285  0.1974 -0.6592
 2338TIP3    H1 7020   3.459   2.677   1.720 -0.9563 -0.1076 -0.2833
 2338TIP3    H2 7021   3.444   2.700   1.869  0.9638  2.1994 -0.3848
 2339TIP3   OH2 7022   5.440   0.067   3.024 -0.2246  0.2855 -0.0089
 2339TIP3    H1 7023   5.352   0.093   3.053 -0.3184  0.2136 -0.2266
 2339TIP3    H2 7024   5.453  -0.019   3.062 -1.5159 -1.1313 -2.4878
 2340TIP3   OH2 7025   0.454   0.374   1.851  0.4480  0.2046  0.1638
 2340TIP3    H1 7026   0.396   0.299   1.839  1.0068  0.1022 -2.7919
 2340TIP3    H2 7027   0.541   0.342   1.827  1.0924  1.2636  0.9632
 2341TIP3   OH2 7028   0.623   3.859   2.469  0.1479 -0.2104 -0.1614
 2341TIP3    H1 7029   0.538   3.815   2.466 -0.3860  0.7950 -0.1902
 2341TIP3    H2 7030   0.638   3.877   2.562  0.1318 -0.0004 -0.1999
 2342TIP3   OH2 7031   2.208   4.094   1.968 -0.7342  0.2395  0.7621
 2342TIP3    H1 7032   2.122   4.110   1.932 -0.6565  0.6915  0.7796
 2342TIP3    H2 7033   2.225   4.001   1.949 -1.2008  0.1602  0.7242
 2343TIP3   OH2 7034   5.071   2.894   1.844 -0.3030  0.8598 -0.2640
 2343TIP3    H1 7035   5.033   2.861   1.763 -1.1223 -0.4484  0.6130
 2343TIP3    H2 7036   4.998   2.937   1.889 -0.3120  0.0248  0.5582
 2344TIP3   OH2 7037   5.521   2.125   4.661 -0.5418  0.2821 -1.0243
 2344TIP3    H1 7038   5.543   2.038   4.628  0.4741  0.5424 -1.0691
 2344TIP3    H2 7039   5.535   2.119   4.755  1.6910  0.9660 -1.2475
 2345TIP3   OH2 7040   1.246   0.205   3.256  0.2874  0.2111  0.0041
 2345TIP3    H1 7041   1.249   0.254   3.174  0.3135  0.6201  0.2419
 2345TIP3    H2 7042   1.156   0.217   3.288  0.9052  2.0722  1.2126
 2346TIP3   OH2 7043   0.019   5.732   0.541  0.2761 -0.0670  0.1354
 2346TIP3    H1 7044  -0.029   5.707   0.620 -0.4994  0.6471 -0.0946
 2346TIP3    H2 7045   0.029   5.650   0.493 -1.8291 -0.0799 -0.3890
 2347TIP3   OH2 7046   0.566   5.471   4.219 -0.1653  0.0771  0.1552
 2347TIP3    H1 7047   0.565   5.541   4.285 -1.8580  0.5625 -0.3365
 2347TIP3    H2 7048   0.586   5.515   4.137  2.4064 -0.5935  0.3357
 2348TIP3   OH2 7049   6.175   2.483   0.539  0.6124  0.0939  0.4470
 2348TIP3    H1 7050   6.176   2.576   0.564 -2.6282 -0.2160  2.4564
 2348TIP3    H2 7051   6.132   2.482   0.453  1.0905  0.4582  0.1975
 2349TIP3   OH2 7052   3.344   5.909   0.457 -0.1692 -0.2233 -0.1619
 2349TIP3    H1 7053   3.288   5.946   0.389  1.5408 -0.0683 -1.5702
 2349TIP3    H2 7054   3.351   5.979   0.523  1.3376  1.2620 -1.7870
 2350TIP3   OH2 7055   3.686   1.343   1.489  0.2675 -0.0425  0.7036
 2350TIP3    H1 7056   3.679   1.354   1.584 -1.4223 -3.2599  1.0941
 2350TIP3    H2 7057   3.611   1.391   1.454  0.8548  1.0983  0.9606
 2351TIP3   OH2 7058   0.493   4.469   1.705  0.3117  0.6251 -0.4096
 2351TIP3    H1 7059   0.563   4.415   1.666 -1.0487 -0.5499 -1.3357
 2351TIP3    H2 7060   0.503   4.455   1.799  3.5470  3.3612 -0.1539
 2352TIP3   OH2 7061   2.642   1.204   3.094 -0.4193 -0.0023  0.1888
 2352TIP3    H1 7062   2.666   1.160   3.013  0.0819  0.5197  0.0475
 2352TIP3    H2 7063   2.547   1.215   3.088 -0.2477  1.1126 -0.8918
 2353TIP3   OH2 7064   0.353   5.534   5.038  0.4161  0.6560  0.5466
 2353TIP3    H1 7065   0.266   5.574   5.035 -0.3110 -0.8477  0.9683
 2353TIP3    H2 7066   0.363   5.493   4.952  0.5565  0.5109  0.6317
 2354TIP3   OH2 7067   4.500   3.908   2.629  0.1111  0.2002 -0.0074
 2354TIP3    H1 7068   4.559   3.833   2.634  0.9767  0.9154  0.7924
 2354TIP3    H2 7069   4.499   3.932   2.536  2.0998  0.9788  0.1499
 2355TIP3   OH2 7070   5.808   1.680   2.510 -0.0187 -0.1598 -0.0222
 2355TIP3    H1 7071   5.814   1.602   2.566 -1.7984 -1.4291 -1.4741
 2355TIP3    H2 7072   5.867   1.662   2.437 -0.2863 -0.0703 -0.2626
 2356TIP3   OH2 7073   0.197   3.702   2.739 -0.1909  0.1346 -0.0826
 2356TIP3    H1 7074   0.276   3.709   2.793 -0.5432 -0.3203  0.4970
 2356TIP3    H2 7075   0.167   3.612   2.751 -3.4934  1.4271  3.5740
 2357TIP3   OH2 7076   5.464   0.325   2.584 -0.1151 -0.4222  0.6487
 2357TIP3    H1 7077   5.430   0.379   2.655  1.2816  0.0236  1.0091
 2357TIP3    H2 7078   5.465   0.384   2.508 -0.0498 -0.4063  0.6621
 2358TIP3   OH2 7079   0.242   1.378   4.450  0.2183  0.3615 -0.5669
 2358TIP3    H1 7080   0.318   1.417   4.407  1.7090 -2.0681 -0.3247
 2358TIP3    H2 7081   0.276   1.342   4.532 -1.0754 -1.1902 -0.6546
 2359TIP3   OH2 7082   2.785   0.432   1.595 -0.3317 -0.1436 -0.3980
 2359TIP3    H1 7083   2.861   0.378   1.618 -0.8601 -1.1219 -0.8983
 2359TIP3    H2 7084   2.747   0.457   1.679  1.1016  1.2085 -0.1011
 2360TIP3   OH2 7085   3.185   5.339   4.565 -0.0665  0.2064 -0.0445
 2360TIP3    H1 7086   3.151   5.385   4.642 -2.4775  0.5218 -1.2289
 2360TIP3    H2 7087   3.200   5.249   4.595  0.9697  0.7719  1.2659
 2361TIP3   OH2 7088   5.112   5.488   2.152  0.1489 -0.0756 -0.0927
 2361TIP3    H1 7089   5.096   5.582   2.160 -0.1582 -0.0854 -0.5606
 2361TIP3    H2 7090   5.026   5.450   2.135  0.5599 -0.1836 -2.2126
 2362TIP3   OH2 7091   6.291   2.125   1.522  0.6841 -0.3388 -0.1183
 2362TIP3    H1 7092   6.282   2.170   1.438  0.9329  3.4945  1.7284
 2362TIP3    H2 7093   6.213   2.070   1.528  0.5001 -0.4714 -2.6413
 2363TIP3   OH2 7094   0.198   1.231   1.603  0.2113 -0.0324 -0.3019
 2363TIP3    H1 7095   0.112   1.227   1.562  0.6039 -1.1163 -1.0611
 2363TIP3    H2 7096   0.180   1.225   1.697 -0.6031  0.9772 -0.3822
 2364TIP3   OH2 7097   4.316   4.200   5.053 -0.2616 -0.1117  0.6703
 2364TIP3    H1 7098   4.299   4.270   5.117  0.6716  1.6518 -0.8953
 2364TIP3    H2 7099   4.254   4.217   4.982  2.0010  1.1377 -1.1516
 2365TIP3   OH2 7100   3.163   1.266   1.849 -0.1578 -0.1183  0.1857
 2365TIP3    H1 7101   3.095   1.203   1.825 -0.1318 -1.1406  2.5878
 2365TIP3    H2 7102   3.220   1.219   1.909  0.6621  1.7927  0.9760
 2366TIP3   OH2 7103   1.089   5.565   3.470  0.0972  0.1570 -0.2297
 2366TIP3    H1 7104   1.172   5.530   3.438 -0.0852  0.8534 -1.5650
 2366TIP3    H2 7105   1.027   5.548   3.398 -0.5679  0.9488  0.1404
 2367TIP3   OH2 7106   3.964   4.182  -0.010  0.0833  0.0933 -0.1375
 2367TIP3    H1 7107   3.973   4.086  -0.010 -0.6651  0.0159 -0.1539
 2367TIP3    H2 7108   3.944   4.204   0.081 -1.8829 -0.0003 -0.5081
 2368TIP3   OH2 7109   5.229   0.204   4.688  0.7045 -0.1400  0.2163
 2368TIP3    H1 7110   5.197   0.252   4.764 -0.4762 -1.7447  0.8038
 2368TIP3    H2 7111   5.170   0.230   4.617 -0.0774 -0.8159  0.5871
 2369TIP3   OH2 7112   4.177   0.888   4.326  0.2560 -0.1613  0.4586
 2369TIP3    H1 7113   4.205   0.978   4.310  0.9709 -0.5882 -0.8161
 2369TIP3    H2 7114   4.084   0.895   4.344  0.2415  0.8135  0.0896
 2370TIP3   OH2 7115   5.352   0.267   3.908  0.4236 -0.1079  0.2087
 2370TIP3    H1 7116   5.412   0.314   3.966  0.6953 -0.2031  0.0130
 2370TIP3    H2 7117   5.267   0.308   3.921 -0.0069 -1.4927  2.2779
 2371TIP3   OH2 7118   6.254   1.157   2.219 -0.3818 -0.1699  0.1088
 2371TIP3    H1 7119   6.308   1.115   2.152  0.8769  0.7998  0.4917
 2371TIP3    H2 7120   6.202   1.085   2.256  0.4676 -1.0898 -0.4340
 2372TIP3   OH2 7121   0.274   3.127   4.618  0.0316 -0.4461  0.2181
 2372TIP3    H1 7122   0.204   3.118   4.553  0.3870 -1.8015 -0.0145
 2372TIP3    H2 7123   0.351   3.091   4.575  0.2100 -1.6549  1.4518
 2373TIP3   OH2 7124   6.162   1.497   4.168  0.1544 -0.3681  0.1057
 2373TIP3    H1 7125   6.215   1.478   4.246  1.1322  1.8801  0.0794
 2373TIP3    H2 7126   6.211   1.565   4.122 -1.0597 -0.7060 -1.8094
 2374TIP3   OH2 7127   0.100   3.673   1.061 -0.2228  0.6215 -0.5934
 2374TIP3    H1 7128   0.171   3.612   1.083 -0.8343  0.1724  0.1717
 2374TIP3    H2 7129   0.143   3.758   1.051  0.9386 -0.1542 -3.3632
 2375TIP3   OH2 7130   2.206   1.743   4.348  0.5215  0.5496 -0.1564
 2375TIP3    H1 7131   2.259   1.664   4.355  0.6089  0.4210 -1.9161
 2375TIP3    H2 7132   2.168   1.754   4.435  1.2700 -0.8807  0.3792
 2376TIP3   OH2 7133   4.179   3.764   1.341 -0.1190  0.2882  0.1209
 2376TIP3    H1 7134   4.190   3.669   1.346  2.0702  0.3309 -2.3663
 2376TIP3    H2 7135   4.103   3.776   1.284 -2.3700  0.1451  2.8384
 2377TIP3   OH2 7136   0.840   2.425   3.329  0.5381 -0.0876 -0.0212
 2377TIP3    H1 7137   0.758   2.378   3.317  0.1909  0.7519 -0.9721
 2377TIP3    H2 7138   0.870   2.397   3.416  0.1980 -1.8198 -0.4178
 2378TIP3   OH2 7139   3.882   1.116   0.832  0.1820 -0.0918  0.4613
 2378TIP3    H1 7140   3.795   1.113   0.793 -0.7357 -1.2410  2.4124
 2378TIP3    H2 7141   3.915   1.026   0.827  0.4623 -0.0535  1.3521
 2379TIP3   OH2 7142   2.468   0.757   0.593  0.1724  0.3462 -0.2975
 2379TIP3    H1 7143   2.495   0.847   0.612  1.8777 -0.1589 -0.1051
 2379TIP3    H2 7144   2.479   0.748   0.499 -0.5259  0.4836 -0.3984
 2380TIP3   OH2 7145   0.185   0.825   2.261  0.1187 -0.1026  0.5971
 2380TIP3    H1 7146   0.102   0.827   2.214  0.1536 -0.5094  0.5094
 2380TIP3    H2 7147   0.217   0.915   2.258 -0.1117 -0.0296  0.2572
 2381TIP3   OH2 7148   3.112   2.641   0.874  0.1858 -0.7312  0.3222
 2381TIP3    H1 7149   3.204   2.648   0.898  0.3536 -0.0522 -0.4540
 2381TIP3    H2 7150   3.077   2.730   0.884 -0.5332 -1.0877  1.1378
 2382TIP3   OH2 7151   2.013   0.330   4.903 -0.2014  0.9152  0.0186
 2382TIP3    H1 7152   2.008   0.235   4.893  0.4338  0.8141  0.6478
 2382TIP3    H2 7153   2.044   0.361   4.818 -0.0344  0.5270 -0.0654
 2383TIP3   OH2 7154   2.717   0.802   2.479  0.1522 -0.2773 -0.0813
 2383TIP3    H1 7155   2.787   0.770   2.536  1.0406  0.1779 -0.8896
 2383TIP3    H2 7156   2.643   0.743   2.496  1.1447 -1.5772 -0.1541
 2384TIP3   OH2 7157   4.591   0.221   2.947  0.4310  0.3667  0.5609
 2384TIP3    H1 7158   4.662   0.245   2.887 -0.1247  0.0390 -0.2618
 2384TIP3    H2 7159   4.524   0.289   2.933  0.3104  0.3039  0.8288
 2385TIP3   OH2 7160   1.797   1.739   2.792 -0.0991 -0.6506 -0.0598
 2385TIP3    H1 7161   1.770   1.740   2.700 -0.4739 -0.7914  0.0479
 2385TIP3    H2 7162   1.722   1.702   2.839 -0.1498 -0.0153  0.3772
 2386TIP3   OH2 7163   0.628   0.131   2.726  0.4714  0.2411 -0.7064
 2386TIP3    H1 7164   0.643   0.044   2.691  0.1311 -0.1906  0.1949
 2386TIP3    H2 7165   0.570   0.173   2.662  1.9959  0.4444 -2.0208
 2387TIP3   OH2 7166   5.008   3.803   4.105 -0.3307  0.6418  0.0888
 2387TIP3    H1 7167   4.955   3.813   4.184 -0.3234  0.3377  0.1367
 2387TIP3    H2 7168   5.082   3.862   4.118  0.1994 -0.1329  0.7760
 2388TIP3   OH2 7169   2.937   2.600   1.268  0.1999 -0.4164  0.3521
 2388TIP3    H1 7170   3.030   2.592   1.247  0.1797  1.1481 -0.4177
 2388TIP3    H2 7171   2.920   2.525   1.326  2.1141 -0.3028  1.1538
 2389TIP3   OH2 7172   3.330   2.967   4.247 -0.4726 -0.0593  0.1037
 2389TIP3    H1 7173   3.368   2.951   4.160 -1.0797 -1.3777  0.0475
 2389TIP3    H2 7174   3.403   2.955   4.307 -0.5198 -1.4536 -0.0830
 2390TIP3   OH2 7175   2.128   0.009   4.209 -0.2120 -0.0463  0.1589
 2390TIP3    H1 7176   2.078   0.071   4.262 -0.2805  1.6051 -1.7091
 2390TIP3    H2 7177   2.074  -0.005   4.131  1.4972  0.6134 -1.2105
 2391TIP3   OH2 7178   2.334   4.191   1.211 -0.3818  0.8424  0.2480
 2391TIP3    H1 7179   2.387   4.118   1.242 -1.7157  0.0260  0.6722
 2391TIP3    H2 7180   2.304   4.235   1.290 -2.0499  0.0211  0.1221
 2392TIP3   OH2 7181   2.829   0.809   3.655 -0.6177 -0.0997  0.5544
 2392TIP3    H1 7182   2.791   0.869   3.591 -0.2497 -0.0206  0.4093
 2392TIP3    H2 7183   2.922   0.804   3.631 -0.5560 -0.3638  0.8493
 2393TIP3   OH2 7184   5.157   4.310   4.106 -0.2375  0.2546  0.5248
 2393TIP3    H1 7185   5.130   4.331   4.196 -0.5933 -0.7503  0.6674
 2393TIP3    H2 7186   5.182   4.394   4.069 -2.5438  1.1246  0.7414
 2394TIP3   OH2 7187   3.260   2.447   4.204 -0.3334  0.5871 -0.3596
 2394TIP3    H1 7188   3.203   2.388   4.252  1.0499  0.1023  0.7580
 2394TIP3    H2 7189   3.290   2.510   4.270  0.3778  0.8610 -0.9337
 2395TIP3   OH2 7190   5.553   4.922   4.116  0.6725  0.0182 -0.6606
 2395TIP3    H1 7191   5.555   4.837   4.159  1.7871  0.8170  0.9864
 2395TIP3    H2 7192   5.643   4.937   4.089  0.0509 -0.3224 -3.1142
 2396TIP3   OH2 7193   2.659   0.892   1.000  0.0951 -0.3142  0.1842
 2396TIP3    H1 7194   2.687   0.812   1.045 -0.9249 -0.4698  0.5548
 2396TIP3    H2 7195   2.577   0.917   1.042  0.7666  1.3707  0.6133
 2397TIP3   OH2 7196   2.597   3.661   3.237 -0.0777 -0.1412 -0.0276
 2397TIP3    H1 7197   2.688   3.642   3.258 -0.0013 -2.0475 -1.7407
 2397TIP3    H2 7198   2.597   3.684   3.144 -1.3902 -0.9093 -0.2595
 2398TIP3   OH2 7199   6.286   0.597   3.779  0.1168 -0.2204  0.4542
 2398TIP3    H1 7200   6.345   0.540   3.730  0.7247 -0.2677  1.2115
 2398TIP3    H2 7201   6.201   0.553   3.777  0.2933 -0.5395  0.0009
 2399TIP3   OH2 7202   0.406   5.752   1.364  0.1804 -0.1150  0.0580
 2399TIP3    H1 7203   0.418   5.660   1.343  1.7931  0.3060 -1.0981
 2399TIP3    H2 7204   0.415   5.797   1.280  0.3067  1.1679  0.7335
 2400TIP3   OH2 7205   0.969   4.510   2.270 -0.3859  0.3539 -0.1564
 2400TIP3    H1 7206   0.977   4.579   2.336 -1.8360 -0.9280  1.4615
 2400TIP3    H2 7207   1.002   4.431   2.313  0.3432 -0.1781 -1.6289
 2401TIP3   OH2 7208   2.165   2.334   2.678 -0.2087  0.0850 -0.2121
 2401TIP3    H1 7209   2.245   2.335   2.731 -2.0703 -0.5605  2.8762
 2401TIP3    H2 7210   2.098   2.297   2.737 -2.6466 -0.0261 -2.8526
 2402TIP3   OH2 7211   0.757   1.046   3.624  0.8701 -0.2204 -0.8548
 2402TIP3    H1 7212   0.684   0.996   3.589 -1.5002  0.1408  3.0437
 2402TIP3    H2 7213   0.731   1.138   3.613  1.7280 -0.0156 -1.2732
 2403TIP3   OH2 7214   5.855   1.582   0.800 -0.0828 -0.7742  0.2672
 2403TIP3    H1 7215   5.875   1.673   0.778 -0.4613 -1.1630 -1.9307
 2403TIP3    H2 7216   5.939   1.545   0.827  0.1215  0.1446  0.9404
 2404TIP3   OH2 7217   6.158   0.648   2.428  0.0155  0.4494  0.2736
 2404TIP3    H1 7218   6.071   0.632   2.393  0.3269  0.4387 -0.5246
 2404TIP3    H2 7219   6.148   0.639   2.523 -0.8370  0.4137  0.1877
 2405TIP3   OH2 7220   3.894   3.279   2.223 -0.3186  0.3501  0.0293
 2405TIP3    H1 7221   3.892   3.195   2.177  1.0469  0.7043 -0.7518
 2405TIP3    H2 7222   3.866   3.258   2.312 -0.0400 -0.9376 -0.1601
 2406TIP3   OH2 7223   4.893   3.192   1.029 -0.5090  0.1842 -0.0212
 2406TIP3    H1 7224   4.847   3.234   1.102  1.2776  1.4238  0.4471
 2406TIP3    H2 7225   4.929   3.265   0.978 -0.6795 -0.7008 -1.4619
 2407TIP3   OH2 7226   1.350   2.552   5.031  0.0797 -0.2096  0.2877
 2407TIP3    H1 7227   1.398   2.508   5.101  1.1970  2.3332  1.2004
 2407TIP3    H2 7228   1.266   2.576   5.071 -0.1632 -0.6598  0.0620
 2408TIP3   OH2 7229   6.119   2.965   3.870 -0.2324 -0.1405  0.2683
 2408TIP3    H1 7230   6.114   3.039   3.809  1.1857  0.2171  0.5596
 2408TIP3    H2 7231   6.032   2.926   3.867 -0.5363  0.5900 -1.0869
 2409TIP3   OH2 7232   2.398   4.393   0.239  0.0959 -0.0126  0.0935
 2409TIP3    H1 7233   2.434   4.380   0.151 -0.3308  2.4114 -0.5064
 2409TIP3    H2 7234   2.474   4.417   0.292  0.4127 -1.8277  0.5204
 2410TIP3   OH2 7235   0.636   0.831   2.873 -0.0838 -0.3089  0.6559
 2410TIP3    H1 7236   0.611   0.798   2.787  1.2725 -0.8847  0.4595
 2410TIP3    H2 7237   0.579   0.783   2.934  1.6588 -3.0064  0.3684
 2411TIP3   OH2 7238   5.421   2.018   2.885  0.5251 -0.2058 -0.0245
 2411TIP3    H1 7239   5.376   1.983   2.808 -1.1807 -0.1909  0.9155
 2411TIP3    H2 7240   5.361   2.001   2.958  1.2295  1.4654  1.0155
 2412TIP3   OH2 7241   3.203   0.810   5.103 -0.2100 -0.2105 -0.1084
 2412TIP3    H1 7242   3.223   0.718   5.089 -1.1100 -0.4710  0.2801
 2412TIP3    H2 7243   3.289   0.852   5.111  0.2212 -1.3017  1.5541
 2413TIP3   OH2 7244   2.265   2.902   3.726 -0.1678 -0.0814  0.3860
 2413TIP3    H1 7245   2.192   2.841   3.713 -1.2188  0.6851  2.3426
 2413TIP3    H2 7246   2.224   2.982   3.759  1.3115  1.3282 -1.0068
 2414TIP3   OH2 7247   4.734   2.291   4.597  0.1321 -0.2156  0.5738
 2414TIP3    H1 7248   4.753   2.243   4.678  0.2911  0.2593  0.8215
 2414TIP3    H2 7249   4.708   2.378   4.627  1.8277  0.5039  0.0653
 2415TIP3   OH2 7250   2.494   0.316   5.132 -0.6615 -0.1859  0.4742
 2415TIP3    H1 7251   2.548   0.346   5.059 -1.5305  1.3565  0.4192
 2415TIP3    H2 7252   2.536   0.354   5.210 -1.2953  0.4993  0.4910
 2416TIP3   OH2 7253   4.563   4.846   0.589 -0.4140  0.1391  0.4191
 2416TIP3    H1 7254   4.553   4.756   0.619  1.2371 -0.4218 -0.5801
 2416TIP3    H2 7255   4.505   4.897   0.646 -0.1758 -1.3343  2.0819
 2417TIP3   OH2 7256   2.164   2.482   2.452 -0.2617  0.0084 -0.2942
 2417TIP3    H1 7257   2.235   2.443   2.402  2.2131  2.3044  1.1565
 2417TIP3    H2 7258   2.147   2.420   2.523  0.4961 -0.4686 -0.5248
 2418TIP3   OH2 7259   5.422   5.131   0.798 -0.0924  0.1078 -0.6745
 2418TIP3    H1 7260   5.496   5.104   0.744 -0.9027  0.6762 -2.1487
 2418TIP3    H2 7261   5.458   5.196   0.858  1.1545 -1.6646  0.5657
 2419TIP3   OH2 7262   5.678   3.342   3.803  0.6837  0.4513  0.3392
 2419TIP3    H1 7263   5.763   3.299   3.796  0.0969 -0.6735 -0.2396
 2419TIP3    H2 7264   5.650   3.354   3.712  0.2761  0.9099  0.5226
 2420TIP3   OH2 7265   4.324   4.719   3.585  0.1300  0.0183 -0.0991
 2420TIP3    H1 7266   4.268   4.796   3.589  0.2827  0.0911  0.7715
 2420TIP3    H2 7267   4.272   4.649   3.625  1.5055  0.6373  3.0614
 2421TIP3   OH2 7268   3.785   1.410   0.422  0.1222  0.4819  0.3284
 2421TIP3    H1 7269   3.691   1.413   0.441  0.1105 -0.4328  0.4623
 2421TIP3    H2 7270   3.827   1.417   0.508  0.0846 -2.7382  0.7269
 2422TIP3   OH2 7271   2.277   4.592   0.405  0.1978 -0.4170  0.1444
 2422TIP3    H1 7272   2.296   4.568   0.314 -1.7918  0.3862 -0.5264
 2422TIP3    H2 7273   2.305   4.683   0.411 -0.4639 -0.2051  0.0720
 2423TIP3   OH2 7274   5.183   5.245   4.462  0.2436  0.0029  0.5200
 2423TIP3    H1 7275   5.190   5.238   4.557 -1.9407 -1.0938  0.6786
 2423TIP3    H2 7276   5.270   5.224   4.429  0.9235 -0.0531  2.2505
 2424TIP3   OH2 7277   1.663   2.951   2.020  0.1849 -0.5067 -0.5952
 2424TIP3    H1 7278   1.699   3.040   2.018  1.1169 -0.8178  0.8667
 2424TIP3    H2 7279   1.740   2.895   2.030 -0.4431 -1.4588 -0.9496
 2425TIP3   OH2 7280   0.220   2.929   4.040 -0.2479 -0.3128  1.1526
 2425TIP3    H1 7281   0.281   2.872   3.995  0.7474  1.5696 -0.0054
 2425TIP3    H2 7282   0.244   3.018   4.012 -2.3695  0.6289  2.0507
 2426TIP3   OH2 7283   1.260   4.098   3.385 -0.5257 -0.2066  0.3380
 2426TIP3    H1 7284   1.191   4.158   3.356 -1.6617 -1.4212  0.4427
 2426TIP3    H2 7285   1.337   4.124   3.334 -1.5638 -0.0423 -1.2083
 2427TIP3   OH2 7286   2.419   0.329   4.468 -0.3035  0.1962 -0.5417
 2427TIP3    H1 7287   2.343   0.335   4.410  0.5269  1.6598 -1.5322
 2427TIP3    H2 7288   2.436   0.420   4.495  1.3592 -0.0405 -0.6942
 2428TIP3   OH2 7289   2.117   2.290   3.100 -0.1599  0.1443 -0.1019
 2428TIP3    H1 7290   2.191   2.318   3.154 -0.9045  0.5457  0.7525
 2428TIP3    H2 7291   2.131   2.196   3.087 -0.3808 -0.1591  1.5398
 2429TIP3   OH2 7292   4.229   2.249   0.428 -0.1668 -0.3128  0.0480
 2429TIP3    H1 7293   4.286   2.183   0.389 -1.9725 -2.3810  0.7396
 2429TIP3    H2 7294   4.160   2.263   0.363 -1.4882 -1.4819  1.1346
 2430TIP3   OH2 7295   1.444   5.847   2.273 -0.3019 -0.4289 -0.3549
 2430TIP3    H1 7296   1.455   5.935   2.239 -0.6263 -1.4889 -3.5377
 2430TIP3    H2 7297   1.418   5.794   2.197 -4.1451 -2.5616  2.0556
 2431TIP3   OH2 7298   4.057   4.158   3.591 -0.3270  0.2400 -0.1575
 2431TIP3    H1 7299   3.977   4.166   3.540 -0.5420 -0.6480  0.0287
 2431TIP3    H2 7300   4.027   4.141   3.680  0.0630  0.5758  0.0406
 2432TIP3   OH2 7301   4.312   4.520   1.238  0.2769 -0.1143  0.2545
 2432TIP3    H1 7302   4.290   4.430   1.212  0.3319  0.1630 -0.7984
 2432TIP3    H2 7303   4.292   4.523   1.332 -0.4015 -1.0200  0.1590
 2433TIP3   OH2 7304   5.837   2.780   2.117  0.0414  0.1327 -0.0849
 2433TIP3    H1 7305   5.788   2.772   2.036  2.4489 -0.1895 -1.6019
 2433TIP3    H2 7306   5.879   2.866   2.113 -1.7477  1.2191  2.0598
 2434TIP3   OH2 7307   1.092   3.504   0.534 -0.0996  0.3353 -0.0457
 2434TIP3    H1 7308   1.035   3.481   0.461 -0.3322  2.4595 -0.5848
 2434TIP3    H2 7309   1.055   3.458   0.610 -1.7211  0.6088 -0.6451
 2435TIP3   OH2 7310   2.647   1.350   4.696  0.7607 -0.1110 -0.8891
 2435TIP3    H1 7311   2.572   1.331   4.639 -0.7945 -1.6318  1.4624
 2435TIP3    H2 7312   2.608   1.365   4.782  3.1561 -0.8365  0.4189
 2436TIP3   OH2 7313   5.055   3.433   3.623  0.6316  0.2150  0.3164
 2436TIP3    H1 7314   5.104   3.449   3.543  1.5612 -1.1095  0.5833
 2436TIP3    H2 7315   5.105   3.480   3.691  1.9642 -1.6294  0.6918
 2437TIP3   OH2 7316   1.866   3.002   2.794 -0.3300  0.4433  0.4527
 2437TIP3    H1 7317   1.895   2.911   2.799  0.7786  0.6802 -0.9221
 2437TIP3    H2 7318   1.946   3.053   2.785 -0.9651  1.4983  0.5183
 2438TIP3   OH2 7319   5.517   2.195   3.157  0.0832 -0.2786  0.2289
 2438TIP3    H1 7320   5.562   2.203   3.073  1.2801 -0.0158  0.8732
 2438TIP3    H2 7321   5.587   2.196   3.222 -0.8671  0.2631  1.2814
 2439TIP3   OH2 7322   4.931   0.553   1.912 -0.0254  0.3985  0.0898
 2439TIP3    H1 7323   4.937   0.622   1.846 -0.4531  0.1694 -0.1976
 2439TIP3    H2 7324   4.921   0.472   1.861  0.5270  0.1169  0.4201
 2440TIP3   OH2 7325   6.356   4.177   1.024 -0.1352 -0.4782 -0.0874
 2440TIP3    H1 7326   6.294   4.109   1.048  0.1449 -0.3758  0.9890
 2440TIP3    H2 7327   6.332   4.252   1.078  0.8336 -0.3973  0.2611
 2441TIP3   OH2 7328   3.021   3.753   5.002  0.4710 -0.0576  0.3262
 2441TIP3    H1 7329   3.088   3.690   5.028  1.7092  0.6980 -0.8953
 2441TIP3    H2 7330   2.938   3.708   5.018  1.0836 -0.1193  4.3094
 2442TIP3   OH2 7331   5.863   3.691   2.158 -0.7601  0.1254  0.0384
 2442TIP3    H1 7332   5.793   3.740   2.115 -0.6912  0.1500 -0.0465
 2442TIP3    H2 7333   5.823   3.608   2.184 -0.4471 -0.4921 -1.3583
 2443TIP3   OH2 7334   0.363   0.073   4.984  0.0011  0.7255  0.1145
 2443TIP3    H1 7335   0.433   0.108   5.039 -0.1379  0.2394  0.6121
 2443TIP3    H2 7336   0.375   0.116   4.899 -1.1364  3.1864  1.1244
 2444TIP3   OH2 7337   5.584   1.642   1.904 -0.1044  0.3303  0.2925
 2444TIP3    H1 7338   5.504   1.621   1.953 -0.1149 -0.2122  0.0472
 2444TIP3    H2 7339   5.642   1.567   1.920 -0.3595 -0.1933 -1.0728
 2445TIP3   OH2 7340   0.299   2.286   0.441 -0.5750 -0.0660  0.2018
 2445TIP3    H1 7341   0.254   2.209   0.408  0.4951 -1.0786  0.9869
 2445TIP3    H2 7342   0.251   2.311   0.519 -2.2427  1.4526 -1.2336
 2446TIP3   OH2 7343   4.303   3.380   1.871 -0.1052  0.1385 -0.2032
 2446TIP3    H1 7344   4.300   3.304   1.814  1.0147 -0.3039  0.3018
 2446TIP3    H2 7345   4.236   3.363   1.938 -1.1548  0.4845 -1.1306
 2447TIP3   OH2 7346   0.309   5.614   3.017  0.3809 -0.2697 -0.1770
 2447TIP3    H1 7347   0.358   5.691   2.989 -0.5631  1.4135  2.3911
 2447TIP3    H2 7348   0.217   5.637   3.000  0.0096 -0.3489  1.5610
 2448TIP3   OH2 7349   5.782   0.088   1.370  0.1056  0.0504 -0.5842
 2448TIP3    H1 7350   5.741   0.052   1.292  1.2030 -0.2559 -1.0416
 2448TIP3    H2 7351   5.785   0.014   1.431  1.1807 -0.3162 -1.0509
 2449TIP3   OH2 7352   2.941   5.851   2.582 -0.0337  0.2732 -0.0462
 2449TIP3    H1 7353   2.905   5.932   2.617 -0.3950  0.3450 -0.5822
 2449TIP3    H2 7354   3.003   5.879   2.514 -0.7914  0.0849 -0.8285
 2450TIP3   OH2 7355   3.044   4.265   3.929  0.3319  0.2267  0.0764
 2450TIP3    H1 7356   3.105   4.192   3.925  0.0051 -0.0905  0.7226
 2450TIP3    H2 7357   2.973   4.234   3.987 -0.9456  0.2017 -1.4220
 2451TIP3   OH2 7358   4.596   3.528   4.357  0.2146 -0.1380 -0.0109
 2451TIP3    H1 7359   4.530   3.597   4.353 -0.5962 -0.9542 -1.5970
 2451TIP3    H2 7360   4.550   3.453   4.394  0.6479 -0.3202  0.1620
 2452TIP3   OH2 7361   0.989   5.061   0.076 -0.3739  0.2016 -0.3346
 2452TIP3    H1 7362   1.009   5.153   0.095  0.7737 -0.3697  1.5270
 2452TIP3    H2 7363   0.915   5.040   0.133  0.3405 -0.4000  0.4028
 2453TIP3   OH2 7364   5.377   5.882   1.171 -0.1585 -0.5732  0.0930
 2453TIP3    H1 7365   5.401   5.826   1.245 -0.0385 -2.4097 -1.2761
 2453TIP3    H2 7366   5.284   5.900   1.185 -0.0995 -0.7514  0.7741
 2454TIP3   OH2 7367   0.486   3.287   3.225 -0.4194 -0.1104  0.4701
 2454TIP3    H1 7368   0.474   3.192   3.222 -0.4780 -0.1854  2.1080
 2454TIP3    H2 7369   0.397   3.323   3.217 -0.5173 -0.2459  0.9001
 2455TIP3   OH2 7370   4.436   0.141   4.485  0.7474 -0.0565  0.0535
 2455TIP3    H1 7371   4.344   0.122   4.506  0.8959  1.3498  2.2335
 2455TIP3    H2 7372   4.432   0.187   4.401 -0.5821  0.4260  0.3532
 2456TIP3   OH2 7373   0.769   4.785   0.121 -0.0874  0.7424 -0.1054
 2456TIP3    H1 7374   0.780   4.833   0.203  0.3355  0.4422  0.0167
 2456TIP3    H2 7375   0.683   4.743   0.129  0.1386  0.3660  0.3648
 2457TIP3   OH2 7376   4.134   2.182   0.846  0.3144 -0.1192 -0.5466
 2457TIP3    H1 7377   4.130   2.138   0.931 -0.3465  3.1773  1.2912
 2457TIP3    H2 7378   4.194   2.128   0.794  0.7663 -2.2534  1.9560
 2458TIP3   OH2 7379   3.848   1.713   0.523 -0.7624 -0.4831 -0.0007
 2458TIP3    H1 7380   3.770   1.667   0.554 -1.3499  0.8006  0.5430
 2458TIP3    H2 7381   3.817   1.766   0.449 -0.1759 -0.7435 -0.4392
 2459TIP3   OH2 7382   5.071   3.485   2.348  0.1511 -0.0761 -0.6678
 2459TIP3    H1 7383   5.045   3.537   2.272  0.1680  1.9588  0.6400
 2459TIP3    H2 7384   5.167   3.480   2.341  0.3238  1.6578  0.1274
 2460TIP3   OH2 7385   0.876   1.668   2.522 -0.2616  0.1229  0.1122
 2460TIP3    H1 7386   0.803   1.663   2.460  0.3995  0.0146 -0.6668
 2460TIP3    H2 7387   0.910   1.757   2.513 -0.2563  0.1551  0.4328
 2461TIP3   OH2 7388   1.925   0.317   0.943 -0.5059 -0.0513  0.1865
 2461TIP3    H1 7389   2.013   0.354   0.937 -0.9839  1.4370  1.6978
 2461TIP3    H2 7390   1.935   0.241   1.000 -0.1403 -0.1714 -0.0302
 2462TIP3   OH2 7391   5.759   1.324   1.348 -0.0621 -0.6560 -0.7035
 2462TIP3    H1 7392   5.773   1.412   1.384 -0.5127 -0.3692 -1.2191
 2462TIP3    H2 7393   5.775   1.333   1.254 -1.5602 -0.7776 -0.9986
 2463TIP3   OH2 7394   1.389   4.244   2.716  0.2123 -0.1561  0.0263
 2463TIP3    H1 7395   1.367   4.337   2.710 -0.9714 -0.4502 -0.6566
 2463TIP3    H2 7396   1.483   4.241   2.697  0.2536  0.8871 -0.0385
 2464TIP3   OH2 7397   0.838   4.569   0.317 -0.0522  0.3800 -0.4303
 2464TIP3    H1 7398   0.859   4.486   0.361 -2.5014  0.7275  1.6562
 2464TIP3    H2 7399   0.826   4.545   0.225 -1.7565 -1.8516  0.2799
 2465TIP3   OH2 7400   6.311   1.097   4.112  0.2924 -0.1929 -0.0310
 2465TIP3    H1 7401   6.350   1.036   4.050 -0.2593 -0.1466 -0.4264
 2465TIP3    H2 7402   6.381   1.116   4.174  0.9861  0.1064 -0.8924
 2466TIP3   OH2 7403   2.054   4.570   0.990 -0.7042 -1.0544 -0.1439
 2466TIP3    H1 7404   2.059   4.567   0.895  0.2046  0.4848 -0.1680
 2466TIP3    H2 7405   2.145   4.569   1.020 -0.8572  0.8705  0.5655
 2467TIP3   OH2 7406   3.481   4.188   4.366 -0.5360 -0.2257  0.2104
 2467TIP3    H1 7407   3.396   4.153   4.339  0.1435 -1.5309 -0.3441
 2467TIP3    H2 7408   3.544   4.150   4.304  0.3202  1.7828 -0.2383
 2468TIP3   OH2 7409   3.550   3.364   2.466  0.0520 -0.0921  0.3909
 2468TIP3    H1 7410   3.480   3.378   2.402  0.3903  1.6199  0.3477
 2468TIP3    H2 7411   3.506   3.371   2.551 -0.1044 -0.6876  0.3637
 2469TIP3   OH2 7412   1.111   5.227   4.224 -0.1554  0.0103 -0.2354
 2469TIP3    H1 7413   1.068   5.144   4.245 -0.0213  0.4268  2.0021
 2469TIP3    H2 7414   1.127   5.224   4.130  1.7537 -3.3897  0.0610
 2470TIP3   OH2 7415   0.063   3.288   0.989  0.5094  0.2100 -0.0638
 2470TIP3    H1 7416   0.007   3.329   1.055  1.3170  0.0024  0.7729
 2470TIP3    H2 7417   0.092   3.361   0.934  0.3512  0.4822  0.2107
 2471TIP3   OH2 7418   6.104   3.272   0.742 -0.1455 -0.0875 -0.2325
 2471TIP3    H1 7419   6.029   3.227   0.782  1.0091 -0.0136  2.1911
 2471TIP3    H2 7420   6.139   3.209   0.679 -2.1839 -0.1256 -1.4122
 2472TIP3   OH2 7421   0.620   1.986   2.542 -0.6590  0.4794  0.0327
 2472TIP3    H1 7422   0.715   1.999   2.535 -0.4291 -1.3342 -0.6205
 2472TIP3    H2 7423   0.594   2.044   2.614  0.9049  1.1273  0.1307
 2473TIP3   OH2 7424   2.019   1.990   0.473  0.3371  0.2524 -0.1442
 2473TIP3    H1 7425   2.054   1.901   0.464  0.0883 -0.0356  1.3630
 2473TIP3    H2 7426   2.094   2.042   0.505 -0.1451 -0.0130  1.5094
 2474TIP3   OH2 7427   5.721   2.441   3.722 -0.3714 -0.3908  0.0814
 2474TIP3    H1 7428   5.732   2.490   3.804 -1.3045  4.1932 -2.2082
 2474TIP3    H2 7429   5.805   2.450   3.677 -0.8171 -0.1971 -0.7321
 2475TIP3   OH2 7430   5.981   2.799   4.780 -0.2294  0.1959  0.2969
 2475TIP3    H1 7431   5.910   2.807   4.843 -0.7772 -0.9172 -0.1531
 2475TIP3    H2 7432   6.008   2.707   4.786 -0.6406 -0.0691 -1.4442
 2476TIP3   OH2 7433   6.033   0.668   4.572 -0.8602 -0.1775 -0.1601
 2476TIP3    H1 7434   5.987   0.637   4.493 -0.9807  0.1573 -0.2217
 2476TIP3    H2 7435   6.040   0.762   4.560  1.8394 -0.4450 -1.2281
 2477TIP3   OH2 7436   3.649   2.447   2.123  0.1448 -0.2512 -0.9208
 2477TIP3    H1 7437   3.717   2.495   2.076  0.7504 -2.3616 -2.3375
 2477TIP3    H2 7438   3.579   2.434   2.059 -0.0885 -1.0627 -0.5234
 2478TIP3   OH2 7439   5.831   2.695   4.573 -0.0188  0.3990 -0.1003
 2478TIP3    H1 7440   5.872   2.609   4.568 -0.9455 -0.2244  1.8107
 2478TIP3    H2 7441   5.899   2.752   4.607  0.2690  0.1662 -0.2794
 2479TIP3   OH2 7442   0.765   5.374   1.595  0.4604 -0.5213  0.3457
 2479TIP3    H1 7443   0.805   5.346   1.512  0.2099  0.5429 -0.1461
 2479TIP3    H2 7444   0.758   5.469   1.587 -0.5573 -0.5149  1.1514
 2480TIP3   OH2 7445   1.802   0.668   2.313  0.7610  0.0033 -0.1007
 2480TIP3    H1 7446   1.793   0.759   2.287  1.0930 -0.5180 -2.3378
 2480TIP3    H2 7447   1.896   0.651   2.308  0.6450 -0.6111 -0.3566
 2481TIP3   OH2 7448   6.124   1.127   2.494 -0.1460  0.0372  0.1981
 2481TIP3    H1 7449   6.133   1.053   2.434 -0.3102 -1.1131  1.5415
 2481TIP3    H2 7450   6.114   1.087   2.580  0.7229  1.6471  1.0953
 2482TIP3   OH2 7451   5.348   0.690   0.023 -0.1242  0.4738 -0.5212
 2482TIP3    H1 7452   5.383   0.766  -0.025  0.6355  0.2058 -0.3965
 2482TIP3    H2 7453   5.425   0.644   0.055 -0.5967 -0.1008 -0.1932
 2483TIP3   OH2 7454   2.394   1.493   3.207 -0.6159 -0.3854  0.1914
 2483TIP3    H1 7455   2.418   1.411   3.163 -0.2244 -1.0681  1.5923
 2483TIP3    H2 7456   2.318   1.470   3.260 -0.6496  0.2275  0.4121
 2484TIP3   OH2 7457   4.311   1.320   1.172  0.0974  0.0554  0.0819
 2484TIP3    H1 7458   4.317   1.316   1.268 -1.8604 -0.2082  0.2340
 2484TIP3    H2 7459   4.282   1.232   1.147  3.1971 -0.7553 -1.0542
 2485TIP3   OH2 7460   4.876   3.851   0.539  0.0220 -0.2323 -0.2609
 2485TIP3    H1 7461   4.956   3.853   0.486 -0.4200  0.0426 -0.9357
 2485TIP3    H2 7462   4.905   3.819   0.625  1.3459  2.5222  0.4166
 2486TIP3   OH2 7463   2.374   5.319   2.768 -0.2598  0.4012 -0.2660
 2486TIP3    H1 7464   2.378   5.276   2.853 -0.3390  1.6809  0.4060
 2486TIP3    H2 7465   2.318   5.262   2.715  0.0990 -0.5981  0.4166
 2487TIP3   OH2 7466   6.059   3.243   1.179  0.2141  0.1570  0.4349
 2487TIP3    H1 7467   6.129   3.184   1.206  0.6738  0.5825  0.1808
 2487TIP3    H2 7468   6.091   3.284   1.099 -0.1183  0.7238  0.5827
 2488TIP3   OH2 7469   1.260   1.033   0.051 -0.2882  0.4262 -0.1869
 2488TIP3    H1 7470   1.312   1.086  -0.010 -1.6819  0.6590 -1.2022
 2488TIP3    H2 7471   1.286   1.064   0.137  2.4688 -0.5886 -0.5467
 2489TIP3   OH2 7472   4.586   2.437   4.109  0.1144  0.3114 -0.2199
 2489TIP3    H1 7473   4.590   2.469   4.199  1.8340 -1.9389  0.5897
 2489TIP3    H2 7474   4.517   2.490   4.068 -0.6094  1.5150  2.3435
 2490TIP3   OH2 7475   4.435   5.731   3.755  0.1828 -0.4018 -0.2534
 2490TIP3    H1 7476   4.441   5.812   3.704 -0.8753 -1.0552 -1.4655
 2490TIP3    H2 7477   4.382   5.754   3.831  0.4054  0.1822 -0.2691
 2491TIP3   OH2 7478   4.404   0.416   2.261 -0.0672 -0.1804  0.4647
 2491TIP3    H1 7479   4.335   0.471   2.225 -0.1610  0.6469  1.8392
 2491TIP3    H2 7480   4.481   0.435   2.208 -0.3008  0.6926  0.4326
 2492TIP3   OH2 7481   4.136   0.318   0.972  0.7895  0.0073 -0.4044
 2492TIP3    H1 7482   4.137   0.406   0.933 -1.7226 -0.1191 -0.9269
 2492TIP3    H2 7483   4.070   0.324   1.041  0.3708 -1.5276 -0.6388
 2493TIP3   OH2 7484   2.439   2.155   2.136  0.3370  0.6583 -0.4408
 2493TIP3    H1 7485   2.387   2.233   2.153  0.5288  0.7123 -0.1050
 2493TIP3    H2 7486   2.461   2.121   2.223  0.9516  0.6944 -0.5813
 2494TIP3   OH2 7487   2.456   4.109   2.040  0.2908 -0.0389  0.0214
 2494TIP3    H1 7488   2.446   4.058   2.120  1.7928  0.2627  0.4384
 2494TIP3    H2 7489   2.370   4.107   1.999 -0.4762 -0.3002  1.5796
 2495TIP3   OH2 7490   0.311   3.512   1.199 -0.3967 -0.5509 -0.5687
 2495TIP3    H1 7491   0.386   3.512   1.259  0.2583 -1.9945 -1.3132
 2495TIP3    H2 7492   0.345   3.472   1.119 -1.8150 -0.6710 -1.1428
 2496TIP3   OH2 7493   1.566   4.550   5.163 -0.9448  0.8636 -0.5268
 2496TIP3    H1 7494   1.516   4.573   5.084 -0.7700  0.3672 -0.7885
 2496TIP3    H2 7495   1.657   4.560   5.136 -0.8860  2.3664  0.1290
 2497TIP3   OH2 7496   4.438   1.192   0.817 -0.1005  0.2295  0.5671
 2497TIP3    H1 7497   4.425   1.274   0.865 -1.1521 -0.0919  0.8450
 2497TIP3    H2 7498   4.411   1.123   0.878 -1.7416 -0.1731 -0.5522
 2498TIP3   OH2 7499   2.038   5.584   4.316 -0.4113 -0.5575 -0.2465
 2498TIP3    H1 7500   1.989   5.546   4.242  0.1601 -1.0155 -0.3937
 2498TIP3    H2 7501   2.080   5.509   4.357  1.5304 -0.0036 -1.1206
 2499TIP3   OH2 7502   0.655   5.749   2.922 -0.4878  0.2023  0.0227
 2499TIP3    H1 7503   0.685   5.769   3.011  0.4285  1.2941 -0.5032
 2499TIP3    H2 7504   0.698   5.666   2.900 -0.9476 -0.2220  0.6954
 2500TIP3   OH2 7505   5.806   2.451   1.950  0.3680 -0.2421 -0.1449
 2500TIP3    H1 7506   5.842   2.390   2.014  0.1159  0.7135  0.9469
 2500TIP3    H2 7507   5.721   2.476   1.985  0.6985  1.1501 -0.2616
 2501TIP3   OH2 7508   0.413   0.438   4.517 -0.4939 -0.0024  0.3516
 2501TIP3    H1 7509   0.325   0.414   4.544 -1.4446  1.7462 -0.9788
 2501TIP3    H2 7510   0.439   0.371   4.454 -1.1632 -0.1335  0.2144
 2502TIP3   OH2 7511   0.531   3.360   0.093 -0.4540 -0.1580  0.5879
 2502TIP3    H1 7512   0.563   3.450   0.095  0.3716 -0.4431  3.1527
 2502TIP3    H2 7513   0.610   3.307   0.106 -1.0229 -1.2372 -0.2447
 2503TIP3   OH2 7514   4.060   0.304   0.187  0.0631  0.1258 -0.0486
 2503TIP3    H1 7515   4.110   0.317   0.106  2.9471 -1.9202  1.2320
 2503TIP3    H2 7516   4.069   0.386   0.235  0.4662  0.4893 -0.7307
 2504TIP3   OH2 7517   2.734   1.137   3.767 -0.3284 -0.0485 -0.6350
 2504TIP3    H1 7518   2.757   1.070   3.831 -0.0941  3.0953  2.9613
 2504TIP3    H2 7519   2.817   1.167   3.731  0.3190  2.2740  2.4003
 2505TIP3   OH2 7520   0.455   4.822   4.944  0.1950 -0.2857  0.4195
 2505TIP3    H1 7521   0.439   4.835   4.851 -1.6506 -1.7502  0.4900
 2505TIP3    H2 7522   0.477   4.729   4.952 -3.1005 -1.0853  1.7728
 2506TIP3   OH2 7523   5.408   4.865   1.395  0.3529 -0.2882  0.1982
 2506TIP3    H1 7524   5.366   4.786   1.431 -1.0596  0.3512  0.0132
 2506TIP3    H2 7525   5.385   4.864   1.302  0.7974  0.0534  0.0829
 2507TIP3   OH2 7526   0.915   0.388   0.353 -0.4377 -0.2387  0.5143
 2507TIP3    H1 7527   0.894   0.478   0.380 -0.2888  0.0307 -0.2170
 2507TIP3    H2 7528   0.968   0.400   0.274 -1.8658 -0.9958 -0.5973
 2508TIP3   OH2 7529   5.229   5.513   4.420 -0.0983  0.7084 -0.0772
 2508TIP3    H1 7530   5.287   5.523   4.495  0.4519  1.0320 -0.5417
 2508TIP3    H2 7531   5.205   5.420   4.421 -0.8637  0.9104  1.0524
 2509TIP3   OH2 7532   1.046   0.391   1.642 -0.4343  0.5708  0.3292
 2509TIP3    H1 7533   1.015   0.473   1.603 -1.0878 -1.4496 -3.8817
 2509TIP3    H2 7534   1.086   0.343   1.570  0.0465 -2.8184  2.6214
 2510TIP3   OH2 7535   1.578   4.451   2.437 -0.2246 -0.0243 -0.1025
 2510TIP3    H1 7536   1.576   4.507   2.515 -0.3461 -1.5610  1.0388
 2510TIP3    H2 7537   1.660   4.402   2.445  0.3849  0.6819 -1.6186
 2511TIP3   OH2 7538   4.952   1.946   1.552  0.5921 -0.0424  0.2052
 2511TIP3    H1 7539   5.027   1.916   1.603  1.0091  1.5442  0.5837
 2511TIP3    H2 7540   4.878   1.896   1.586  1.6175 -2.5310 -1.0018
 2512TIP3   OH2 7541   0.247   4.701   2.995  0.1621  0.3557  0.2206
 2512TIP3    H1 7542   0.281   4.611   2.996  1.7018  0.8883 -1.0670
 2512TIP3    H2 7543   0.152   4.690   2.989  0.4170 -1.2424 -2.4700
 2513TIP3   OH2 7544   5.952   3.677   1.260  0.0241 -0.0518 -0.2407
 2513TIP3    H1 7545   6.001   3.718   1.188  1.0282  0.5959  0.7601
 2513TIP3    H2 7546   5.983   3.724   1.338 -2.8429  0.9925  0.3869
 2514TIP3   OH2 7547   3.086   0.902   3.542  0.5950 -0.1921 -0.4052
 2514TIP3    H1 7548   3.073   0.817   3.585  0.2089  1.2522  2.6259
 2514TIP3    H2 7549   3.131   0.955   3.608 -0.5409  2.4395 -1.6036
 2515TIP3   OH2 7550   4.874   1.402   0.308 -1.2152  0.7956 -0.2834
 2515TIP3    H1 7551   4.939   1.386   0.376  0.5211  2.1947 -1.5252
 2515TIP3    H2 7552   4.911   1.364   0.228 -1.3656  2.5306 -1.2359
 2516TIP3   OH2 7553   0.210   2.860   2.172 -0.0551 -0.0221 -0.1134
 2516TIP3    H1 7554   0.224   2.767   2.189 -0.3926  0.2177  1.6357
 2516TIP3    H2 7555   0.248   2.905   2.248  1.3009  1.3756 -1.5366
 2517TIP3   OH2 7556   5.686   0.816   2.172 -0.1345 -0.4207 -0.2590
 2517TIP3    H1 7557   5.634   0.761   2.113  1.0306 -0.2322 -1.5217
 2517TIP3    H2 7558   5.622   0.864   2.223 -1.1961 -0.6846 -1.2961
 2518TIP3   OH2 7559   0.593   4.158   3.086  0.1243  0.4209  0.2732
 2518TIP3    H1 7560   0.537   4.196   3.019 -0.1484  1.1321  0.8876
 2518TIP3    H2 7561   0.660   4.109   3.037 -1.5755 -1.2744 -0.4545
 2519TIP3   OH2 7562   2.612   0.017   1.199  0.0469 -0.3650  0.2588
 2519TIP3    H1 7563   2.678  -0.019   1.140 -0.3736 -1.7706  0.5966
 2519TIP3    H2 7564   2.541   0.045   1.141 -0.3203 -1.6421  0.0522
 2520TIP3   OH2 7565   1.500   3.933   2.811  0.1826 -0.2524 -0.1997
 2520TIP3    H1 7566   1.418   3.943   2.859  0.0238 -0.1845 -0.4817
 2520TIP3    H2 7567   1.564   3.980   2.865 -0.0994  0.2861 -0.3173
 2521TIP3   OH2 7568   5.814   1.816   3.174 -0.1287  0.8647 -0.4372
 2521TIP3    H1 7569   5.882   1.789   3.113 -0.1184  2.1085 -1.0037
 2521TIP3    H2 7570   5.794   1.737   3.224  0.8574  0.1783 -1.0914
 2522TIP3   OH2 7571   4.498   3.492   0.309 -0.8104 -0.2540  0.0372
 2522TIP3    H1 7572   4.469   3.493   0.218 -1.9155  1.0254  0.3838
 2522TIP3    H2 7573   4.564   3.423   0.311 -0.9881 -0.5322 -1.6577
 2523TIP3   OH2 7574   4.518   0.477   1.551 -0.3053 -0.1780  0.0178
 2523TIP3    H1 7575   4.496   0.545   1.487 -0.1011  0.4812  0.6389
 2523TIP3    H2 7576   4.562   0.523   1.622 -0.1259 -0.9666  0.4372
 2524TIP3   OH2 7577   5.062   2.822   0.489  0.3791  0.5906  0.8421
 2524TIP3    H1 7578   5.000   2.780   0.548  0.9799  1.0855  1.8442
 2524TIP3    H2 7579   5.115   2.878   0.545 -0.5928  2.9712 -0.4827
 2525TIP3   OH2 7580   2.125   0.910   2.945  0.8344 -0.0736 -0.5570
 2525TIP3    H1 7581   2.068   0.974   2.902  2.3790  2.7894  1.3667
 2525TIP3    H2 7582   2.087   0.901   3.033  0.8952 -1.5530 -0.6592
 2526TIP3   OH2 7583   4.734   3.478   4.592 -0.3316 -0.1486  0.0186
 2526TIP3    H1 7584   4.722   3.563   4.634  0.7052  0.2178 -0.3809
 2526TIP3    H2 7585   4.698   3.490   4.504  0.2372  0.0347 -0.1951
 2527TIP3   OH2 7586   2.847   0.300   3.120  0.3712  0.0594  0.1412
 2527TIP3    H1 7587   2.854   0.382   3.071  0.9922  0.3658  0.7338
 2527TIP3    H2 7588   2.757   0.298   3.151  0.3632  0.5365  0.1548
 2528TIP3   OH2 7589   4.690   0.192   0.535 -0.0971 -0.1254 -0.4780
 2528TIP3    H1 7590   4.778   0.164   0.508 -0.1179 -0.3219 -0.3472
 2528TIP3    H2 7591   4.633   0.166   0.464 -0.0111  0.2624 -0.6958
 2529TIP3   OH2 7592   1.500   3.736   2.254  0.2145  0.2083 -0.0731
 2529TIP3    H1 7593   1.498   3.798   2.181 -0.1100  1.1483  0.7116
 2529TIP3    H2 7594   1.593   3.729   2.277  0.3621 -0.4016 -0.8168
 2530TIP3   OH2 7595   6.237   5.087   4.731  0.5850  0.3151 -0.4292
 2530TIP3    H1 7596   6.270   5.176   4.714  0.9264 -0.1489 -2.4064
 2530TIP3    H2 7597   6.312   5.030   4.713  0.6410 -0.3923  1.6656
 2531TIP3   OH2 7598   3.439   2.906   0.399  0.2963  0.3462 -0.1690
 2531TIP3    H1 7599   3.492   2.830   0.425 -0.4451 -0.4585 -0.9442
 2531TIP3    H2 7600   3.361   2.900   0.453  0.2852  0.6206 -0.1544
 2532TIP3   OH2 7601   4.695   2.164   1.644  0.3037 -0.3329 -0.2507
 2532TIP3    H1 7602   4.696   2.160   1.549 -0.1327 -1.0375 -0.2360
 2532TIP3    H2 7603   4.784   2.188   1.669  0.7627 -1.4037 -0.7974
 2533TIP3   OH2 7604   5.649   5.552   4.747 -0.0818  0.2422  0.1296
 2533TIP3    H1 7605   5.684   5.640   4.737 -3.2323  1.4666 -1.3112
 2533TIP3    H2 7606   5.681   5.504   4.671  1.9608 -0.0987  1.1134
 2534TIP3   OH2 7607   6.265   2.828   3.230  0.5386  0.7248  0.2670
 2534TIP3    H1 7608   6.318   2.774   3.171 -0.4155  0.9395 -0.8448
 2534TIP3    H2 7609   6.283   2.794   3.317  1.5324 -0.0208 -0.2048
 2535TIP3   OH2 7610   1.123   5.603   2.462 -0.3794  0.0886 -0.1338
 2535TIP3    H1 7611   1.081   5.673   2.412  0.5440  0.9556  0.2575
 2535TIP3    H2 7612   1.217   5.618   2.449 -0.1638 -0.9139  0.1942
 2536TIP3   OH2 7613   1.245   2.394   4.264 -0.5614  0.4464  0.1120
 2536TIP3    H1 7614   1.310   2.324   4.272  0.3637  1.4336  1.7002
 2536TIP3    H2 7615   1.267   2.456   4.334  0.0023  3.4463 -2.4753
 2537TIP3   OH2 7616   3.683   0.878   1.079  0.6065  0.2457 -0.7803
 2537TIP3    H1 7617   3.592   0.907   1.084  0.0633 -1.4102 -0.3331
 2537TIP3    H2 7618   3.693   0.842   0.991  0.2563 -1.2348 -0.2473
 2538TIP3   OH2 7619   0.426   2.581   1.830 -0.5668  0.2000 -0.5352
 2538TIP3    H1 7620   0.455   2.659   1.782 -2.7980  0.7751 -1.0577
 2538TIP3    H2 7621   0.443   2.602   1.922  0.5826  0.5097 -0.8037
 2539TIP3   OH2 7622   5.186   3.233   0.162 -0.4240  0.0221  0.2265
 2539TIP3    H1 7623   5.106   3.205   0.206 -1.5326  2.1845 -0.2482
 2539TIP3    H2 7624   5.156   3.260   0.075  1.1317 -0.7236 -0.5793
 2540TIP3   OH2 7625   6.189   4.867   2.361  0.3374 -0.2879  0.5006
 2540TIP3    H1 7626   6.271   4.828   2.388  0.4186  0.2759  1.1032
 2540TIP3    H2 7627   6.210   4.915   2.281  1.2154  1.9412  1.9644
 2541TIP3   OH2 7628   1.235   0.683   0.898  0.1182  0.2636  0.1696
 2541TIP3    H1 7629   1.216   0.590   0.915 -0.8808  0.1839 -1.2043
 2541TIP3    H2 7630   1.150   0.721   0.877  0.9173  0.6540 -2.9046
 2542TIP3   OH2 7631   0.640   2.721   0.249  0.3975  0.0050 -0.3509
 2542TIP3    H1 7632   0.680   2.712   0.336 -0.3513 -0.2725 -0.0308
 2542TIP3    H2 7633   0.623   2.631   0.221  0.3762  0.1062 -0.6640
 2543TIP3   OH2 7634   3.783   3.256   2.473  0.7316  0.0619  0.9467
 2543TIP3    H1 7635   3.749   3.186   2.529 -0.6335  0.1657  0.2903
 2543TIP3    H2 7636   3.710   3.318   2.464  0.5534 -0.3794 -1.6245
 2544TIP3   OH2 7637   2.958   1.808   5.129 -0.0719 -0.4794 -0.1803
 2544TIP3    H1 7638   2.894   1.824   5.059 -0.8678 -2.3221  0.0727
 2544TIP3    H2 7639   2.921   1.851   5.206 -0.7062 -1.0112 -0.1832
 2545TIP3   OH2 7640   2.781   1.850   4.868  0.4641 -0.3900  0.2539
 2545TIP3    H1 7641   2.814   1.863   4.779  2.5088 -1.1182  0.8362
 2545TIP3    H2 7642   2.713   1.783   4.858  0.1451  0.0711 -0.8455
 2546TIP3   OH2 7643   2.899   3.939   2.457 -0.6651 -0.3472  0.3002
 2546TIP3    H1 7644   2.824   3.883   2.435 -1.9822  1.5837 -0.4465
 2546TIP3    H2 7645   2.932   3.903   2.539 -1.3916 -2.2285 -0.1665
 2547TIP3   OH2 7646   5.465   0.181   2.049 -0.4383  0.6560  0.3113
 2547TIP3    H1 7647   5.461   0.131   2.130 -0.7960  1.8369  1.0422
 2547TIP3    H2 7648   5.514   0.260   2.071 -0.0372  0.7338 -0.7738
 2548TIP3   OH2 7649   2.811   1.304   1.660 -0.1845  0.1335  0.1110
 2548TIP3    H1 7650   2.859   1.223   1.673 -0.5781 -0.3567 -1.3442
 2548TIP3    H2 7651   2.812   1.319   1.565 -1.8606  0.7296  0.1358
 2549TIP3   OH2 7652   4.572   2.982   1.278  0.1397 -0.5231 -0.6528
 2549TIP3    H1 7653   4.501   2.981   1.342 -1.7885 -2.5559 -2.6445
 2549TIP3    H2 7654   4.556   3.060   1.225 -0.7576 -1.0213 -1.1534
 2550TIP3   OH2 7655   4.138   2.432   4.449 -0.1089  0.0456  0.3513
 2550TIP3    H1 7656   4.224   2.413   4.489 -0.5837 -1.6705  0.6201
 2550TIP3    H2 7657   4.152   2.514   4.401  1.4607  0.2363  1.0563
 2551TIP3   OH2 7658   2.471   0.694   1.773  0.3384 -0.1840 -0.3937
 2551TIP3    H1 7659   2.403   0.736   1.827  1.5968  1.7286 -0.2079
 2551TIP3    H2 7660   2.521   0.641   1.835  0.4599  0.2960 -0.0749
 2552TIP3   OH2 7661   3.647   4.724   3.690  0.3144  0.6456  0.1479
 2552TIP3    H1 7662   3.671   4.761   3.775  0.8910 -0.0340  0.2906
 2552TIP3    H2 7663   3.693   4.779   3.626  1.4961 -0.0349  0.3766
 2553TIP3   OH2 7664   2.907   5.813   1.113 -0.2448 -0.1031 -0.0262
 2553TIP3    H1 7665   2.813   5.811   1.096 -0.1492 -1.5177 -0.5629
 2553TIP3    H2 7666   2.942   5.741   1.060  1.1701  0.5458 -0.0127
 2554TIP3   OH2 7667   0.514   4.792   4.354  0.6743  0.8487  0.4900
 2554TIP3    H1 7668   0.544   4.876   4.388 -0.7279  0.1394  3.9642
 2554TIP3    H2 7669   0.586   4.732   4.371  0.4096  0.7289  1.2534
 2555TIP3   OH2 7670   0.770   0.963   1.489 -0.0434 -0.2505 -0.2227
 2555TIP3    H1 7671   0.728   0.888   1.447 -1.8758 -0.1621  1.3226
 2555TIP3    H2 7672   0.841   0.988   1.429  0.4797 -3.0336 -0.9026
 2556TIP3   OH2 7673   4.887   0.077   4.440  0.0331 -0.5342 -0.0887
 2556TIP3    H1 7674   4.920  -0.008   4.467  0.2070 -0.2832  0.5145
 2556TIP3    H2 7675   4.858   0.118   4.522 -2.2228 -0.9192 -0.6430
 2557TIP3   OH2 7676   5.877   0.491   0.372  0.0155  0.2951 -0.0494
 2557TIP3    H1 7677   5.851   0.426   0.438  0.8038 -0.6368 -0.6289
 2557TIP3    H2 7678   5.971   0.503   0.385 -0.2631  1.9711  0.5879
 2558TIP3   OH2 7679   1.123   0.810   1.831 -0.3177  0.0440 -0.1770
 2558TIP3    H1 7680   1.064   0.751   1.878  1.1808 -0.7446  0.7965
 2558TIP3    H2 7681   1.119   0.782   1.740 -0.9133 -0.4551  0.0027
 2559TIP3   OH2 7682   3.852   1.394   4.544  0.1592 -0.8227 -0.3107
 2559TIP3    H1 7683   3.821   1.482   4.564  0.0666 -0.2279 -2.7862
 2559TIP3    H2 7684   3.855   1.390   4.449  3.3466 -2.3669 -0.2884
 2560TIP3   OH2 7685   5.535   3.693   2.317 -0.0067  0.2687  0.1925
 2560TIP3    H1 7686   5.548   3.733   2.231  0.2105 -0.7227 -0.2455
 2560TIP3    H2 7687   5.605   3.629   2.324 -0.5581 -0.2833  0.7444
 2561TIP3   OH2 7688   6.230   2.146   0.641  0.0092  0.4063 -0.8384
 2561TIP3    H1 7689   6.147   2.194   0.639  0.4248  1.3284  1.2809
 2561TIP3    H2 7690   6.212   2.065   0.594 -2.1357  0.5674 -0.3919
 2562TIP3   OH2 7691   0.506   3.606   3.110  0.8706  0.3167 -0.5024
 2562TIP3    H1 7692   0.413   3.611   3.087  0.6613  3.4399  0.4618
 2562TIP3    H2 7693   0.542   3.541   3.051 -2.0627 -1.6805 -0.3081
 2563TIP3   OH2 7694   3.091   2.731   2.770  0.4486  0.3235 -0.2653
 2563TIP3    H1 7695   3.108   2.728   2.675  1.6866  1.5264 -0.1071
 2563TIP3    H2 7696   3.178   2.720   2.809 -0.1723 -1.1399  0.7730
 2564TIP3   OH2 7697   5.935   0.395   0.829 -0.2918  0.3503 -0.3233
 2564TIP3    H1 7698   5.925   0.480   0.785  1.9325  1.9790  2.0173
 2564TIP3    H2 7699   5.902   0.410   0.917 -2.3279 -2.0974 -0.5577
 2565TIP3   OH2 7700   4.485   0.418   4.976 -0.2379  0.1107  0.3234
 2565TIP3    H1 7701   4.470   0.482   4.907 -2.6188 -0.6720  0.0166
 2565TIP3    H2 7702   4.401   0.410   5.020  0.8061 -0.5801  2.3344
 2566TIP3   OH2 7703   0.555   1.477   4.856  0.0113 -0.2927  0.2335
 2566TIP3    H1 7704   0.474   1.426   4.854  0.4816 -1.0325 -0.8329
 2566TIP3    H2 7705   0.574   1.488   4.949 -0.4134 -1.5965  0.5016
 2567TIP3   OH2 7706   2.134   2.269   2.050  0.0278 -0.3241  0.0520
 2567TIP3    H1 7707   2.078   2.200   2.086  0.5689  0.6563  3.1024
 2567TIP3    H2 7708   2.084   2.306   1.978 -1.8603 -1.5389  0.6722
 2568TIP3   OH2 7709   5.046   4.195   0.337  0.0860 -0.2960 -0.0093
 2568TIP3    H1 7710   4.980   4.256   0.368  0.0121  0.0567 -0.8460
 2568TIP3    H2 7711   5.109   4.249   0.290  0.5783 -0.7278  0.1413
 2569TIP3   OH2 7712   6.167   0.992   3.555  0.4093 -0.2070 -0.1246
 2569TIP3    H1 7713   6.160   0.945   3.473  1.5294 -1.2944  0.3684
 2569TIP3    H2 7714   6.079   1.025   3.572 -0.5495 -2.5898 -0.2356
 2570TIP3   OH2 7715   3.841   1.412   0.687  0.1612 -0.4698  0.0469
 2570TIP3    H1 7716   3.779   1.482   0.708  2.6833  1.0298  3.4682
 2570TIP3    H2 7717   3.823   1.343   0.751  1.9288  0.0217  1.1470
 2571TIP3   OH2 7718   2.943   0.712   2.624 -0.2349 -0.4022 -0.5708
 2571TIP3    H1 7719   3.008   0.645   2.602  1.8067  1.8249 -1.9352
 2571TIP3    H2 7720   2.992   0.777   2.675 -1.1620  1.6001 -2.0701
 2572TIP3   OH2 7721   4.566   2.527   4.369  0.2056  0.2075 -0.2491
 2572TIP3    H1 7722   4.498   2.495   4.428  2.3631 -1.9633  1.3013
 2572TIP3    H2 7723   4.574   2.620   4.388 -0.6233 -0.0208  1.3553
 2573TIP3   OH2 7724   5.920  -0.008   4.249 -0.3368 -0.0235  0.1333
 2573TIP3    H1 7725   5.840  -0.007   4.301 -2.0029  2.6583 -2.2030
 2573TIP3    H2 7726   5.983   0.043   4.300 -0.7302 -0.4454  1.0708
 2574TIP3   OH2 7727   0.204   2.254   1.897  0.1470  0.1883  0.4066
 2574TIP3    H1 7728   0.165   2.339   1.875 -0.2493  0.8475  3.2021
 2574TIP3    H2 7729   0.273   2.276   1.960  2.5723 -1.3067 -1.5435
 2575TIP3   OH2 7730   3.300   1.885   4.294  0.3004  0.2795  0.5150
 2575TIP3    H1 7731   3.222   1.885   4.350  0.5177  0.2160  0.8241
 2575TIP3    H2 7732   3.311   1.794   4.267 -0.2474  0.4410 -0.2619
 2576TIP3   OH2 7733   4.843   1.061   4.132  0.6779  0.0507  0.3446
 2576TIP3    H1 7734   4.883   1.148   4.130  1.4261 -0.2920 -1.1529
 2576TIP3    H2 7735   4.753   1.077   4.162  0.6901  1.3964 -0.2580
 2577TIP3   OH2 7736   0.354   3.281   1.439 -0.3360 -0.5395 -0.7067
 2577TIP3    H1 7737   0.268   3.293   1.398 -0.7332 -0.3453  0.1566
 2577TIP3    H2 7738   0.379   3.191   1.417 -0.7737 -0.6022 -0.9519
 2578TIP3   OH2 7739   4.078   3.006   1.202 -0.0434  0.3226  0.7102
 2578TIP3    H1 7740   4.131   2.960   1.137  0.3341 -0.7964  1.7743
 2578TIP3    H2 7741   4.134   3.077   1.233 -1.1738  2.6339 -2.0566
 2579TIP3   OH2 7742   2.265   0.771   4.750 -0.2023  0.2684  0.0279
 2579TIP3    H1 7743   2.320   0.714   4.804  0.2783  0.4020 -0.3111
 2579TIP3    H2 7744   2.252   0.849   4.804 -0.4318  0.0525  0.2872
 2580TIP3   OH2 7745   3.886   3.203   4.485 -0.7508  0.3041 -0.0956
 2580TIP3    H1 7746   3.883   3.264   4.411  0.0903 -1.2578 -1.4783
 2580TIP3    H2 7747   3.794   3.193   4.511 -0.9151  2.0276  0.0799
 2581TIP3   OH2 7748   2.459   2.105   1.841  0.1532 -0.5136  0.1306
 2581TIP3    H1 7749   2.464   2.111   1.937 -0.6530 -0.3628  0.1649
 2581TIP3    H2 7750   2.423   2.189   1.814  1.4169 -0.1220 -0.4003
 2582TIP3   OH2 7751   4.644   0.254   3.648  0.9491 -0.3957  0.4995
 2582TIP3    H1 7752   4.697   0.264   3.568 -0.2406  0.7303 -0.1834
 2582TIP3    H2 7753   4.672   0.171   3.685  0.9276 -1.3811 -1.5695
 2583TIP3   OH2 7754   5.312   5.066   2.169  0.4440  0.0697 -0.1091
 2583TIP3    H1 7755   5.307   5.145   2.115 -2.2022 -0.3382 -0.6258
 2583TIP3    H2 7756   5.222   5.052   2.199  0.9931 -2.2687  0.6624
 2584TIP3   OH2 7757   4.787   3.041   3.431 -0.0899 -0.0675  0.0956
 2584TIP3    H1 7758   4.768   3.127   3.393 -2.0848 -1.2431 -1.7743
 2584TIP3    H2 7759   4.855   3.004   3.375 -0.5513 -0.4252 -0.2350
 2585TIP3   OH2 7760   3.623   3.304   1.440 -0.3052  0.5551 -0.1291
 2585TIP3    H1 7761   3.700   3.302   1.383  1.3609 -0.3787  2.0495
 2585TIP3    H2 7762   3.557   3.352   1.389  1.2146  0.1555 -2.6360
 2586TIP3   OH2 7763   5.599   5.226   4.623  0.3686 -0.7793 -0.6512
 2586TIP3    H1 7764   5.618   5.191   4.536  0.9759 -1.6156 -0.1972
 2586TIP3    H2 7765   5.509   5.199   4.641  0.1422 -0.3480 -1.1428
 2587TIP3   OH2 7766   4.155   1.533   0.918  0.2710  0.0182 -0.2214
 2587TIP3    H1 7767   4.112   1.536   0.833 -0.9175 -0.7967  0.3418
 2587TIP3    H2 7768   4.101   1.475   0.971  0.7486  0.8508  1.2294
 2588TIP3   OH2 7769   3.282   3.844   3.075 -0.3276  0.0975 -0.4464
 2588TIP3    H1 7770   3.366   3.833   3.029 -0.1094 -1.0271  0.1781
 2588TIP3    H2 7771   3.305   3.837   3.168 -1.1223 -0.3135 -0.2724
 2589TIP3   OH2 7772   2.534   5.041   5.040  0.1511  0.1147  0.3217
 2589TIP3    H1 7773   2.497   5.120   5.000 -1.9449 -1.0842 -0.2539
 2589TIP3    H2 7774   2.542   4.979   4.967  0.4088 -0.6743  1.0068
 2590TIP3   OH2 7775   3.436   0.996   1.171  0.5683  0.0584  0.3037
 2590TIP3    H1 7776   3.498   1.024   1.239  1.1475 -1.1348  0.2850
 2590TIP3    H2 7777   3.377   0.935   1.216 -0.9904  1.5886  0.4638
 2591TIP3   OH2 7778   5.096   2.195   4.906  0.0611  0.0888  0.9336
 2591TIP3    H1 7779   5.181   2.237   4.919  0.5976 -1.0927  1.4278
 2591TIP3    H2 7780   5.043   2.260   4.861  1.4191  0.6399  0.0897
 2592TIP3   OH2 7781   1.464   3.332   0.701  0.5590  0.2364 -0.2144
 2592TIP3    H1 7782   1.390   3.351   0.759 -0.9149 -1.0915 -1.5609
 2592TIP3    H2 7783   1.537   3.316   0.761 -1.0428 -1.7296  1.3985
 2593TIP3   OH2 7784   2.919   0.818   3.064 -0.2338 -0.4429 -0.0460
 2593TIP3    H1 7785   2.862   0.741   3.057  0.3391 -0.8267 -0.6638
 2593TIP3    H2 7786   2.869   0.888   3.024  0.0718 -0.9956 -1.4885
 2594TIP3   OH2 7787   4.091   1.914   4.143  0.1655 -0.4201  0.3619
 2594TIP3    H1 7788   4.046   1.896   4.060 -1.8821  1.5649  0.9628
 2594TIP3    H2 7789   4.021   1.921   4.207  1.5767 -0.0769  1.9268
 2595TIP3   OH2 7790   4.511   1.689   4.644 -0.2609 -0.2017  0.1301
 2595TIP3    H1 7791   4.578   1.730   4.589  0.8388 -0.6401  1.0997
 2595TIP3    H2 7792   4.428   1.720   4.608  0.4891  2.1125  0.2104
 2596TIP3   OH2 7793   4.490   1.326   2.471  0.0090 -0.6191  0.7700
 2596TIP3    H1 7794   4.404   1.285   2.479 -0.3208 -0.7021 -2.0949
 2596TIP3    H2 7795   4.550   1.253   2.455  0.0035 -0.3485 -0.6594
 2597TIP3   OH2 7796   1.986   4.425   1.470  0.4097 -0.3606 -0.1394
 2597TIP3    H1 7797   2.010   4.449   1.559  0.0429  2.7095 -0.7626
 2597TIP3    H2 7798   1.908   4.370   1.480  0.8469 -0.7492  1.4268
 2598TIP3   OH2 7799   5.160   1.422   3.891  0.0842 -0.4936  0.3605
 2598TIP3    H1 7800   5.217   1.345   3.885 -0.5582 -1.0230  0.9023
 2598TIP3    H2 7801   5.131   1.423   3.982  1.0455  1.1115  0.6840
 2599TIP3   OH2 7802   3.925   5.541   1.102  0.0268  0.1802  0.3570
 2599TIP3    H1 7803   3.880   5.535   1.186  0.9264  0.7627  0.9073
 2599TIP3    H2 7804   3.858   5.523   1.036 -1.7196  3.6627  0.9619
 2600TIP3   OH2 7805   1.636   0.271   4.876 -0.5432  0.0080 -0.0712
 2600TIP3    H1 7806   1.707   0.235   4.929  2.7219  0.6528 -3.5317
 2600TIP3    H2 7807   1.619   0.358   4.913  0.3838 -0.2037  0.8870
 2601TIP3   OH2 7808   4.000   1.775   3.908 -0.5565  0.1518  0.0680
 2601TIP3    H1 7809   3.968   1.820   3.829 -1.7062  1.4287  1.2123
 2601TIP3    H2 7810   3.921   1.758   3.959  0.0081 -2.0710  0.2698
 2602TIP3   OH2 7811   1.081   3.634   3.793  0.3495 -0.5821 -0.2335
 2602TIP3    H1 7812   1.166   3.611   3.754  1.1371  0.5335  0.7627
 2602TIP3    H2 7813   1.036   3.550   3.802  1.4227 -1.2184 -0.6127
 2603TIP3   OH2 7814   6.063   4.604   1.371  0.1245 -0.2770 -0.4204
 2603TIP3    H1 7815   6.058   4.672   1.438  1.3869  0.9960 -1.5438
 2603TIP3    H2 7816   6.045   4.523   1.417 -1.4350  0.7926  0.9823
 2604TIP3   OH2 7817   6.020   3.596   0.697 -0.1816 -0.1977 -0.3760
 2604TIP3    H1 7818   6.071   3.532   0.648 -2.0525 -1.7376 -0.4666
 2604TIP3    H2 7819   5.977   3.649   0.630 -0.7671 -0.6729 -0.3946
 2605TIP3   OH2 7820   0.909   4.907   1.120 -0.2208  0.0978  0.0758
 2605TIP3    H1 7821   0.838   4.853   1.084  1.1138 -1.2397 -0.6511
 2605TIP3    H2 7822   0.944   4.953   1.044  1.0950 -0.9526  0.0061
 2606TIP3   OH2 7823   1.561   2.539   1.808  0.1128  0.5828 -0.2171
 2606TIP3    H1 7824   1.637   2.598   1.801 -1.2501  2.6078  0.9141
 2606TIP3    H2 7825   1.536   2.544   1.900  0.8484 -3.1171  0.3253
 2607TIP3   OH2 7826   3.884   1.019   1.296 -0.3569  0.5424  0.1185
 2607TIP3    H1 7827   3.931   0.937   1.305 -1.9364 -0.7193 -2.0908
 2607TIP3    H2 7828   3.936   1.071   1.235  0.6518  1.2442  1.5315
 2608TIP3   OH2 7829   1.918   0.928   3.670  0.2878 -0.0197  0.0718
 2608TIP3    H1 7830   1.831   0.931   3.711  0.1831  1.8406 -0.1766
 2608TIP3    H2 7831   1.905   0.882   3.587  0.2073 -2.5221  1.4072
 2609TIP3   OH2 7832   4.041   5.358   3.600  0.0621 -0.2140  0.4257
 2609TIP3    H1 7833   4.044   5.294   3.670  0.0586 -0.3151  0.3335
 2609TIP3    H2 7834   4.123   5.407   3.608  0.9892 -1.5075 -0.7125
 2610TIP3   OH2 7835   6.243   3.738   4.758  0.3835  0.2002  0.0720
 2610TIP3    H1 7836   6.252   3.645   4.739  0.4383  0.4889 -1.4725
 2610TIP3    H2 7837   6.173   3.744   4.823 -1.1871 -0.7843 -1.4383
 2611TIP3   OH2 7838   5.849   2.223   1.767 -0.2484 -0.5137 -0.5809
 2611TIP3    H1 7839   5.818   2.275   1.841 -1.2536 -2.7183  0.6457
 2611TIP3    H2 7840   5.831   2.277   1.690 -0.3682  1.2993  0.6670
 2612TIP3   OH2 7841   4.135   2.919   5.086  0.1255  0.0785 -0.2639
 2612TIP3    H1 7842   4.051   2.893   5.123  0.4181 -1.4942 -0.6319
 2612TIP3    H2 7843   4.200   2.889   5.149  0.4791  0.1302 -0.5968
 2613TIP3   OH2 7844   1.650   1.743   3.562  0.3657 -0.1172  0.4610
 2613TIP3    H1 7845   1.557   1.720   3.561  0.7132 -1.6758  0.6171
 2613TIP3    H2 7846   1.659   1.804   3.635 -0.4445 -0.3758  0.7904
 2614TIP3   OH2 7847   2.750   2.278   3.279  0.1593 -0.0939 -0.1844
 2614TIP3    H1 7848   2.819   2.291   3.344 -1.6197 -3.1515  2.6821
 2614TIP3    H2 7849   2.669   2.303   3.325 -1.1213 -1.7541 -1.3918
 2615TIP3   OH2 7850   1.963   4.685   3.630 -0.1500 -0.1233  0.5526
 2615TIP3    H1 7851   2.024   4.701   3.702  0.8532 -1.1761 -0.0407
 2615TIP3    H2 7852   1.907   4.763   3.629  1.0809  0.8027  1.2026
 2616TIP3   OH2 7853   2.359   3.298   4.318  0.0822 -0.0443 -0.5533
 2616TIP3    H1 7854   2.450   3.313   4.290  0.6256  0.2391  1.2055
 2616TIP3    H2 7855   2.357   3.206   4.343 -0.1928 -0.1167 -0.8410
 2617TIP3   OH2 7856   1.118   3.702   4.817  0.8633 -0.2823 -0.0378
 2617TIP3    H1 7857   1.195   3.726   4.869  1.2909  0.5876 -1.0451
 2617TIP3    H2 7858   1.124   3.607   4.808  0.7931 -0.4577  1.4526
 2618TIP3   OH2 7859   5.227   3.935   2.243 -0.1791  0.0992  0.2518
 2618TIP3    H1 7860   5.197   4.014   2.288 -1.2362  0.0254 -0.2645
 2618TIP3    H2 7861   5.159   3.870   2.262 -0.6787  0.0757 -1.4203
 2619TIP3   OH2 7862   3.721   3.093   4.175 -0.0606  0.4685  0.1517
 2619TIP3    H1 7863   3.682   3.050   4.251  0.5591 -1.3910 -0.5270
 2619TIP3    H2 7864   3.658   3.079   4.105 -0.5981  2.1174  0.2588
 2620TIP3   OH2 7865   2.056   0.896   0.180  0.2576 -0.0734 -0.4683
 2620TIP3    H1 7866   2.079   0.840   0.106  2.5243  0.0872  0.0641
 2620TIP3    H2 7867   2.110   0.974   0.169 -2.2906  1.7998 -0.7967
 2621TIP3   OH2 7868   2.590   4.759   4.835 -0.0079 -0.0347 -0.3040
 2621TIP3    H1 7869   2.617   4.679   4.880  0.4004  1.2338  1.8330
 2621TIP3    H2 7870   2.617   4.746   4.744 -1.3186 -2.9062 -0.3705
 2622TIP3   OH2 7871   5.605   2.664   1.767 -0.1642  0.1999  0.5724
 2622TIP3    H1 7872   5.560   2.639   1.686  1.1603  0.5395 -0.3078
 2622TIP3    H2 7873   5.630   2.581   1.808  0.4092  0.0177 -0.1172
 2623TIP3   OH2 7874   1.644   5.503   0.413 -0.3429  0.1248  0.1350
 2623TIP3    H1 7875   1.732   5.513   0.376  1.0214 -0.9991  2.7714
 2623TIP3    H2 7876   1.597   5.451   0.349  1.4659 -0.6674 -0.6319
 2624TIP3   OH2 7877   5.086   4.269   3.104  0.4609 -0.3622  0.4376
 2624TIP3    H1 7878   5.121   4.345   3.058  0.7538 -0.1442  1.0055
 2624TIP3    H2 7879   5.116   4.194   3.054 -0.6864 -0.0896 -0.7287
 2625TIP3   OH2 7880   3.585   0.158   2.290  0.3252  0.7982 -0.4175
 2625TIP3    H1 7881   3.542   0.118   2.365  0.5998  2.9970  0.9876
 2625TIP3    H2 7882   3.514   0.176   2.228 -0.0140 -0.2604 -0.3672
 2626TIP3   OH2 7883   3.786   2.932   0.432  0.2062 -0.2237 -0.4090
 2626TIP3    H1 7884   3.848   2.899   0.367  0.5458  1.2414 -0.8595
 2626TIP3    H2 7885   3.829   3.008   0.470 -1.0377  0.4415 -0.2690
 2627TIP3   OH2 7886   6.258   0.433   1.345  0.1263 -0.3447  0.0051
 2627TIP3    H1 7887   6.348   0.465   1.356 -0.3282  1.5019 -1.1019
 2627TIP3    H2 7888   6.234   0.460   1.256 -1.6409 -0.4915  0.4071
 2628TIP3   OH2 7889   4.822   4.890   1.355  0.3456  0.7231  0.3046
 2628TIP3    H1 7890   4.905   4.896   1.403  0.2454 -2.8040  1.2208
 2628TIP3    H2 7891   4.847   4.855   1.269 -0.0566  0.8738  0.1281
 2629TIP3   OH2 7892   4.334   4.652   0.090  0.3702  0.0547  0.0967
 2629TIP3    H1 7893   4.391   4.598   0.146  0.7843  0.9195  0.5209
 2629TIP3    H2 7894   4.372   4.739   0.094 -0.7108  0.5440  0.0045
 2630TIP3   OH2 7895   0.110   3.612   3.781  0.3774 -0.0297 -0.3900
 2630TIP3    H1 7896   0.023   3.573   3.785 -0.4071  1.6253 -0.5478
 2630TIP3    H2 7897   0.131   3.615   3.687  0.0533  0.6945 -0.4471
 2631TIP3   OH2 7898   0.920   0.538   2.367 -0.1468  0.5257 -0.6340
 2631TIP3    H1 7899   0.932   0.510   2.276 -0.2751  0.1832 -0.5481
 2631TIP3    H2 7900   0.908   0.456   2.415  0.7263  0.6442 -0.1880
 2632TIP3   OH2 7901   3.654   0.905   3.705  0.1067 -0.2828 -0.3460
 2632TIP3    H1 7902   3.708   0.857   3.767  0.0019  0.5117  0.3777
 2632TIP3    H2 7903   3.570   0.916   3.749  0.0991  0.4740 -0.5253
 2633TIP3   OH2 7904   5.186   6.016   1.864  0.2436  0.1256  0.1265
 2633TIP3    H1 7905   5.226   6.009   1.778 -0.7833 -0.7728 -0.2972
 2633TIP3    H2 7906   5.139   5.933   1.875  0.4819  0.1608  1.6140
 2634TIP3   OH2 7907   2.553   3.125   4.719 -0.6252  0.5668 -0.2739
 2634TIP3    H1 7908   2.544   3.029   4.717  1.0416  0.3735  0.3176
 2634TIP3    H2 7909   2.606   3.143   4.796 -0.3507  1.9236 -0.7494
 2635TIP3   OH2 7910   0.118   0.989   0.502 -0.1562  0.1962  0.0718
 2635TIP3    H1 7911   0.058   1.053   0.540 -0.1607  1.0311 -1.2568
 2635TIP3    H2 7912   0.092   0.905   0.540 -1.6800  0.6508  0.0992
 2636TIP3   OH2 7913   3.941   4.769   0.615 -0.4643 -0.1673  0.4863
 2636TIP3    H1 7914   3.959   4.860   0.595  0.1749 -0.6189 -1.1448
 2636TIP3    H2 7915   3.992   4.751   0.695  2.2433  0.0289 -1.0709
 2637TIP3   OH2 7916   1.801   2.486   3.331 -0.3041  0.0474 -0.8072
 2637TIP3    H1 7917   1.894   2.477   3.348 -0.2732 -0.0737 -1.0271
 2637TIP3    H2 7918   1.796   2.530   3.246 -0.4519  0.8915 -0.3711
 2638TIP3   OH2 7919   4.969   5.492   1.060  0.1699  0.1332 -0.5168
 2638TIP3    H1 7920   5.038   5.544   1.100 -0.4722  1.8459 -1.5483
 2638TIP3    H2 7921   5.002   5.472   0.973  0.8447 -2.1542  0.1845
 2639TIP3   OH2 7922   0.999   5.539   1.096 -0.2679 -0.2302 -0.1343
 2639TIP3    H1 7923   0.977   5.566   1.007 -0.1570  1.4773  0.3070
 2639TIP3    H2 7924   1.007   5.444   1.092 -1.8540 -0.3434 -1.5913
 2640TIP3   OH2 7925   0.374   5.453   4.786  0.6842 -0.3399  0.2634
 2640TIP3    H1 7926   0.466   5.440   4.762  0.7484  0.5168 -0.0056
 2640TIP3    H2 7927   0.324   5.410   4.716  0.8633  2.2805 -1.6586
 2641TIP3   OH2 7928   3.406   4.487   1.359  0.2428  0.9826  0.7002
 2641TIP3    H1 7929   3.427   4.411   1.413  0.7851  0.7807  0.2084
 2641TIP3    H2 7930   3.353   4.451   1.287 -0.8416  1.3123  1.3048
 2642TIP3   OH2 7931   0.098   3.207   0.593  0.7511  0.2161 -0.1180
 2642TIP3    H1 7932   0.086   3.115   0.570 -0.2904  0.5168 -0.8646
 2642TIP3    H2 7933   0.191   3.224   0.577  0.5252 -0.1646 -2.0563
 2643TIP3   OH2 7934   2.826   5.462   0.439  0.6594  0.6642  0.4897
 2643TIP3    H1 7935   2.760   5.466   0.509  0.6196 -2.0368  0.6883
 2643TIP3    H2 7936   2.779   5.428   0.363  1.3967  0.6235  0.0372
 2644TIP3   OH2 7937   4.477   4.921   2.823  0.1209 -0.1648  0.2667
 2644TIP3    H1 7938   4.558   4.957   2.787 -0.7109 -0.4454 -2.1086
 2644TIP3    H2 7939   4.411   4.989   2.806 -0.5207 -0.7825  0.2328
 2645TIP3   OH2 7940   4.443   2.371   2.627 -0.3677 -0.4045 -0.3361
 2645TIP3    H1 7941   4.471   2.444   2.571  0.0495  0.2427  0.6826
 2645TIP3    H2 7942   4.477   2.293   2.583  0.7250  0.1548 -0.5426
 2646TIP3   OH2 7943   2.777   0.725   4.884  0.1739 -0.1886 -0.4053
 2646TIP3    H1 7944   2.845   0.793   4.891 -0.1852  0.1373 -0.0215
 2646TIP3    H2 7945   2.742   0.736   4.795 -0.9553  1.1900  0.1590
 2647TIP3   OH2 7946   5.708   0.647   3.504  0.6051  0.1420 -0.5687
 2647TIP3    H1 7947   5.687   0.556   3.487  0.3498  0.1894 -0.5288
 2647TIP3    H2 7948   5.760   0.646   3.584 -0.3758  0.1136  0.0868
 2648TIP3   OH2 7949   1.098   5.944   4.463  0.8390 -0.1500  0.2910
 2648TIP3    H1 7950   1.113   5.945   4.558  1.2939  0.1990  0.2186
 2648TIP3    H2 7951   1.173   5.991   4.427 -0.0850  1.0373 -0.1282
 2649TIP3   OH2 7952   4.835   0.108   0.148 -0.0824  0.0560  0.1016
 2649TIP3    H1 7953   4.896   0.176   0.117  0.4821 -0.5153 -0.0792
 2649TIP3    H2 7954   4.874   0.077   0.230 -0.9028  0.6787  0.7408
 2650TIP3   OH2 7955   5.980   1.958   1.041  0.4430  0.7726  0.8347
 2650TIP3    H1 7956   5.913   2.020   1.015  0.6455  1.3124  1.5605
 2650TIP3    H2 7957   5.960   1.938   1.133  0.0151 -0.7158  0.4532
 2651TIP3   OH2 7958   4.529   0.847   0.399 -0.0364  0.5299  0.2937
 2651TIP3    H1 7959   4.587   0.779   0.365  0.5722  0.3551  1.6001
 2651TIP3    H2 7960   4.573   0.929   0.376 -1.6780  0.6600 -2.9332
 2652TIP3   OH2 7961   2.644   0.472   4.925  0.2054 -0.0045  0.6220
 2652TIP3    H1 7962   2.693   0.395   4.953  1.5407  0.6737  0.2034
 2652TIP3    H2 7963   2.708   0.543   4.927 -0.1979  0.5152 -1.9519
 2653TIP3   OH2 7964   5.571   3.539   2.757  0.2970  0.2503  0.0704
 2653TIP3    H1 7965   5.595   3.535   2.850  1.9388  0.5751 -0.3029
 2653TIP3    H2 7966   5.610   3.620   2.726 -0.3428  0.2009 -0.8854
 2654TIP3   OH2 7967   1.653   2.944   3.955 -0.0228 -0.2548  0.4840
 2654TIP3    H1 7968   1.603   3.024   3.937  2.2775  1.0329 -0.5050
 2654TIP3    H2 7969   1.660   2.900   3.870  1.0819 -0.0635  0.4642
 2655TIP3   OH2 7970   3.978   0.469   1.453  0.1640  0.0390 -0.3397
 2655TIP3    H1 7971   3.887   0.483   1.426 -0.4556 -0.1222  1.4656
 2655TIP3    H2 7972   3.997   0.543   1.512  1.4346  0.4181 -1.1815
 2656TIP3   OH2 7973   2.703   4.510   0.799 -0.6238  0.4232 -0.7814
 2656TIP3    H1 7974   2.716   4.568   0.875  0.8282 -0.3624 -0.3857
 2656TIP3    H2 7975   2.614   4.478   0.808 -1.1337  1.8402 -0.4808
 2657TIP3   OH2 7976   1.771   2.184   2.382  0.1936 -0.5308 -0.0683
 2657TIP3    H1 7977   1.717   2.255   2.417  0.1116 -1.0816  0.9660
 2657TIP3    H2 7978   1.828   2.160   2.455  0.1319 -1.6060 -0.3659
 2658TIP3   OH2 7979   2.667   1.834   1.518  0.2717  0.0087  0.9355
 2658TIP3    H1 7980   2.714   1.871   1.593 -0.9302  0.2350  1.6064
 2658TIP3    H2 7981   2.710   1.750   1.503  1.2316  0.4481  1.1825
 2659TIP3   OH2 7982   5.882   0.474   4.747  0.2928  0.0013  0.3096
 2659TIP3    H1 7983   5.929   0.548   4.710  1.2838 -0.4997  0.5408
 2659TIP3    H2 7984   5.808   0.460   4.688  1.0336  0.1194 -0.6562
 2660TIP3   OH2 7985   0.832   1.708   0.655 -0.6893 -0.6971 -0.0973
 2660TIP3    H1 7986   0.913   1.742   0.617 -0.6669 -1.7285 -1.0357
 2660TIP3    H2 7987   0.766   1.724   0.588 -1.1149 -0.5842  0.3397
 2661TIP3   OH2 7988   0.969   2.188   2.082  0.1302  0.4345  0.3021
 2661TIP3    H1 7989   0.918   2.195   2.163 -0.2483 -1.1393  0.2214
 2661TIP3    H2 7990   0.917   2.132   2.025  1.6327 -0.6857 -0.0370
 2662TIP3   OH2 7991   1.108   1.763   5.032  0.1144  0.0411 -0.0288
 2662TIP3    H1 7992   1.106   1.858   5.039 -0.6715  0.1733 -1.5607
 2662TIP3    H2 7993   1.016   1.738   5.026  0.0634 -1.1591  3.4986
 2663TIP3   OH2 7994   3.482   1.884   0.116 -0.2229 -0.6291  0.2806
 2663TIP3    H1 7995   3.514   1.975   0.118  0.0452 -0.6558 -1.4959
 2663TIP3    H2 7996   3.403   1.888   0.063 -0.5634 -1.3606  0.7212
 2664TIP3   OH2 7997   3.128   3.651   4.105  0.4520 -0.4640 -0.0586
 2664TIP3    H1 7998   3.070   3.720   4.071 -0.1450 -1.0899 -0.3395
 2664TIP3    H2 7999   3.190   3.698   4.161 -0.5999  0.1727  0.6044
 2665TIP3   OH2 8000   5.354   4.405   4.466 -0.2497  0.0872  0.0009
 2665TIP3    H1 8001   5.276   4.366   4.506 -1.9085  1.8695 -1.2950
 2665TIP3    H2 8002   5.383   4.341   4.401 -0.9036 -0.4279  0.2114
 2666TIP3   OH2 8003   3.119   4.330   2.232  0.4473  0.2803 -0.3129
 2666TIP3    H1 8004   3.178   4.278   2.178  0.8391  0.3957  0.0045
 2666TIP3    H2 8005   3.121   4.287   2.317  1.7160  1.5118  0.3047
 2667TIP3   OH2 8006   4.096   4.993   4.301  0.0455  0.0936  0.5666
 2667TIP3    H1 8007   4.035   4.967   4.232  0.7944 -0.3320  0.0607
 2667TIP3    H2 8008   4.118   5.084   4.280 -1.1508  0.5815  1.3026
 2668TIP3   OH2 8009   0.885   5.015   4.657 -0.0607  0.3402  0.3102
 2668TIP3    H1 8010   0.794   5.019   4.629 -0.2415  0.9453  0.9637
 2668TIP3    H2 8011   0.882   5.016   4.752  0.5965 -0.5609  0.3512
 2669TIP3   OH2 8012   1.862   5.257   0.647  0.0137 -0.0038 -0.1892
 2669TIP3    H1 8013   1.810   5.177   0.641 -1.0037  0.6088  0.2484
 2669TIP3    H2 8014   1.952   5.226   0.659 -0.6400 -1.1214  2.5978
 2670TIP3   OH2 8015   4.831   1.768   0.851 -0.3949  0.7044 -0.1782
 2670TIP3    H1 8016   4.787   1.683   0.850 -1.5638  1.2747 -2.3100
 2670TIP3    H2 8017   4.876   1.773   0.767 -0.1880  2.1150 -0.0019
 2671TIP3   OH2 8018   2.999   2.966   1.567 -0.5783 -0.5342 -0.5076
 2671TIP3    H1 8019   3.060   2.911   1.616 -0.3138 -0.8454 -1.1784
 2671TIP3    H2 8020   2.922   2.911   1.553 -1.3963  0.1452  1.1016
 2672TIP3   OH2 8021   4.428   0.117   1.492  0.0094  0.1670  0.0139
 2672TIP3    H1 8022   4.376   0.046   1.529  0.2652  0.7456  1.5572
 2672TIP3    H2 8023   4.365   0.171   1.444 -0.7708  0.6221  1.4962
 2673TIP3   OH2 8024   2.864   0.320   4.060  0.2547 -0.6189 -0.0433
 2673TIP3    H1 8025   2.929   0.390   4.054 -1.1377  0.7163 -0.2855
 2673TIP3    H2 8026   2.915   0.240   4.065  1.9141  0.4222  0.3994
 2674TIP3   OH2 8027   5.075   5.413   1.727  0.4960 -0.7380 -0.1892
 2674TIP3    H1 8028   5.013   5.347   1.697 -1.6671  0.2207  1.8711
 2674TIP3    H2 8029   5.063   5.487   1.668 -0.7217 -0.3964  0.4506
 2675TIP3   OH2 8030   0.303   2.773   4.717 -0.0447 -0.2190 -0.6447
 2675TIP3    H1 8031   0.235   2.838   4.733 -0.8589 -1.0711 -0.5856
 2675TIP3    H2 8032   0.291   2.707   4.785  1.6009  0.1973  0.0971
 2676TIP3   OH2 8033   0.378   1.386   1.964  0.0977  0.1709  0.1562
 2676TIP3    H1 8034   0.449   1.325   1.945 -0.0847  0.3902 -1.3775
 2676TIP3    H2 8035   0.329   1.391   1.882 -0.9821  0.9437  0.8334
 2677TIP3   OH2 8036   2.030   3.587   2.016 -0.1497  0.0813 -0.2411
 2677TIP3    H1 8037   2.098   3.654   2.013  0.2020 -0.2252  0.5635
 2677TIP3    H2 8038   2.071   3.514   2.062 -0.9207 -0.2340 -0.0441
 2678TIP3   OH2 8039   5.769   2.744   4.225 -0.2053  0.4604 -0.0411
 2678TIP3    H1 8040   5.735   2.830   4.202 -1.2867 -0.0061 -0.2781
 2678TIP3    H2 8041   5.733   2.726   4.312 -0.4183  0.0373 -0.2129
 2679TIP3   OH2 8042   0.091   1.298   1.892 -0.8119 -0.3779 -0.6150
 2679TIP3    H1 8043   0.102   1.392   1.903 -1.2555 -0.4406  0.5372
 2679TIP3    H2 8044  -0.004   1.285   1.893 -0.7608 -0.8205 -1.0128
 2680TIP3   OH2 8045   5.317   1.045   0.055  0.5732  0.3009  0.0594
 2680TIP3    H1 8046   5.282   1.007   0.136 -0.5227  1.7782  0.3264
 2680TIP3    H2 8047   5.412   1.034   0.062  0.4882  0.2766  1.4907
 2681TIP3   OH2 8048   1.178   1.033   1.144  0.1159 -0.3437 -0.2143
 2681TIP3    H1 8049   1.146   1.070   1.062  0.9671  0.3395 -0.2450
 2681TIP3    H2 8050   1.271   1.019   1.129 -0.1191 -2.3026 -0.1291
 2682TIP3   OH2 8051   0.576   2.703   0.999 -0.4112 -0.4582  0.6800
 2682TIP3    H1 8052   0.607   2.621   0.960  0.4830  1.1583 -2.3103
 2682TIP3    H2 8053   0.505   2.731   0.941  1.5198  2.4916 -0.5078
 2683TIP3   OH2 8054   1.500   3.160   3.905  0.1529 -0.0736 -0.2165
 2683TIP3    H1 8055   1.571   3.221   3.882  0.9936 -0.6759  0.7019
 2683TIP3    H2 8056   1.441   3.211   3.960  1.2299 -0.2318  1.1619
 2684TIP3   OH2 8057   2.549   0.661   3.969 -0.1456 -0.1990 -0.6230
 2684TIP3    H1 8058   2.503   0.580   3.951 -0.7678 -0.0948  0.3869
 2684TIP3    H2 8059   2.480   0.725   3.986  0.2158 -0.6292  3.5639
 2685TIP3   OH2 8060   4.341   3.952   4.686  0.3078 -0.7962  0.3131
 2685TIP3    H1 8061   4.421   3.973   4.638  0.3830 -3.1988 -0.7213
 2685TIP3    H2 8062   4.313   3.868   4.651 -1.9100 -0.6971  1.6636
 2686TIP3   OH2 8063   3.880   4.922   1.861 -0.6169  0.2273  0.2223
 2686TIP3    H1 8064   3.958   4.867   1.858 -0.7303  0.0551  0.4252
 2686TIP3    H2 8065   3.808   4.860   1.873 -0.7314  0.4336  0.5960
 2687TIP3   OH2 8066   1.461   1.057   3.162  0.3587  0.0605 -0.3253
 2687TIP3    H1 8067   1.398   1.128   3.150  0.1808 -0.1424 -0.6010
 2687TIP3    H2 8068   1.491   1.036   3.074  0.8545  0.1924 -0.1920
 2688TIP3   OH2 8069   3.600   0.379   2.068  0.5602  0.6197  0.4194
 2688TIP3    H1 8070   3.593   0.311   2.136  1.0374  0.9104  0.7633
 2688TIP3    H2 8071   3.533   0.355   2.004  0.6296 -0.1037  0.6042
 2689TIP3   OH2 8072   4.283   4.187   3.919  0.4679 -0.2818 -0.3656
 2689TIP3    H1 8073   4.196   4.222   3.902  0.3997 -0.1712  0.1864
 2689TIP3    H2 8074   4.338   4.264   3.936  0.8781 -0.2883 -1.5472
 2690TIP3   OH2 8075   3.236   5.253   0.936  0.6720  0.1057 -0.2021
 2690TIP3    H1 8076   3.206   5.185   0.997  5.0814  0.0436  2.2920
 2690TIP3    H2 8077   3.231   5.334   0.986  0.8286  0.6828 -1.1077
 2691TIP3   OH2 8078   0.911   3.424   3.846  0.6614 -0.9562 -0.3739
 2691TIP3    H1 8079   0.870   3.341   3.870 -0.3005 -0.5933 -0.7337
 2691TIP3    H2 8080   0.877   3.444   3.759 -1.1393  1.0573  0.6849
 2692TIP3   OH2 8081   1.094   4.376   2.008  0.3293 -0.4198  0.3943
 2692TIP3    H1 8082   1.091   4.290   2.050  1.0071 -0.7658 -0.2439
 2692TIP3    H2 8083   1.042   4.432   2.065  1.9193 -0.6674  2.2226
 2693TIP3   OH2 8084   1.633   5.607   4.495  0.4259  0.0029 -0.0714
 2693TIP3    H1 8085   1.560   5.545   4.493  0.3335  0.1378 -1.1196
 2693TIP3    H2 8086   1.702   5.561   4.545  0.5914 -1.2087 -1.3514
 2694TIP3   OH2 8087   2.182   3.136   3.821 -0.2435  0.0162  0.0810
 2694TIP3    H1 8088   2.251   3.174   3.766 -1.7112 -1.1604 -2.7634
 2694TIP3    H2 8089   2.140   3.212   3.862  1.4629  0.8647  0.3473
 2695TIP3   OH2 8090   5.983   1.906   0.005 -0.6359  0.2593 -0.0521
 2695TIP3    H1 8091   5.987   1.822  -0.042 -1.0268 -0.2403  0.7719
 2695TIP3    H2 8092   5.995   1.882   0.097  2.1532  1.4312 -0.0158
 2696TIP3   OH2 8093   0.665   3.447   2.261  0.1273 -0.1065  0.2367
 2696TIP3    H1 8094   0.714   3.498   2.325 -0.9708  0.5902  0.5353
 2696TIP3    H2 8095   0.612   3.511   2.214  0.5784 -0.6606 -1.0785
 2697TIP3   OH2 8096   3.438   1.331   0.138  0.0006  0.3248 -0.2984
 2697TIP3    H1 8097   3.441   1.307   0.230  2.6331 -0.1802 -0.4350
 2697TIP3    H2 8098   3.502   1.402   0.129 -1.8698  1.9948 -1.3795
 2698TIP3   OH2 8099   5.615   3.990   1.830  0.1292 -0.0047  0.0088
 2698TIP3    H1 8100   5.555   3.943   1.772 -0.9508 -2.5237  2.9454
 2698TIP3    H2 8101   5.700   3.949   1.814 -0.5942 -2.3935  1.7101
 2699TIP3   OH2 8102   2.662   1.242   0.758 -0.2146  0.3417 -0.2049
 2699TIP3    H1 8103   2.727   1.268   0.692 -1.8016 -1.4004 -2.6339
 2699TIP3    H2 8104   2.599   1.314   0.759 -0.8359 -0.1445 -1.5946
 2700TIP3   OH2 8105   2.557   5.281   1.407 -0.0552  0.0715 -0.2456
 2700TIP3    H1 8106   2.490   5.220   1.439  1.2641  0.5085  3.9454
 2700TIP3    H2 8107   2.529   5.303   1.318 -4.1839 -1.5080  0.4454
 2701TIP3   OH2 8108   2.322   5.208   0.451 -0.0646  0.2153  0.3466
 2701TIP3    H1 8109   2.359   5.124   0.478  0.7206  0.3251 -0.3461
 2701TIP3    H2 8110   2.237   5.212   0.495 -0.0317 -0.8562  0.5362
 2702TIP3   OH2 8111   2.847   3.723   4.290 -0.3846  0.2961 -0.6011
 2702TIP3    H1 8112   2.774   3.680   4.333 -1.1505  1.4626 -0.6873
 2702TIP3    H2 8113   2.913   3.732   4.359 -0.7671  0.2457 -0.2198
 2703TIP3   OH2 8114   6.362   2.645   1.526  0.0400 -0.1342  0.1841
 2703TIP3    H1 8115   6.400   2.558   1.535 -0.1263 -0.1125  1.2122
 2703TIP3    H2 8116   6.272   2.629   1.498 -0.0405 -0.3139  0.5294
 2704TIP3   OH2 8117   1.367   5.403   2.188 -0.4088  0.3089  0.1726
 2704TIP3    H1 8118   1.440   5.437   2.137  0.9656 -0.7612  1.3376
 2704TIP3    H2 8119   1.327   5.480   2.228  0.0095  0.9207 -0.5745
 2705TIP3   OH2 8120   5.800   3.854   0.990 -0.2925 -0.3265  0.0145
 2705TIP3    H1 8121   5.817   3.945   1.014 -1.4656 -0.3668  1.1022
 2705TIP3    H2 8122   5.859   3.802   1.045 -0.9829 -0.2938  0.7993
 2706TIP3   OH2 8123   3.742   2.663   5.076 -0.0436 -0.0321 -0.8763
 2706TIP3    H1 8124   3.799   2.735   5.102 -1.8804  1.1126  0.2261
 2706TIP3    H2 8125   3.773   2.588   5.126 -0.5953  1.0097  1.1061
 2707TIP3   OH2 8126   3.273   2.423   4.843 -0.0050  0.2633  0.1635
 2707TIP3    H1 8127   3.220   2.400   4.920  0.9426 -2.0085  0.2276
 2707TIP3    H2 8128   3.349   2.469   4.878  0.8824 -1.5619  0.7629
 2708TIP3   OH2 8129   0.564   3.585   4.618 -0.1921 -0.4034  0.0263
 2708TIP3    H1 8130   0.521   3.502   4.602 -1.7993  0.5658 -0.8728
 2708TIP3    H2 8131   0.626   3.567   4.689  0.6035 -2.6985 -1.1693
 2709TIP3   OH2 8132   4.262   4.935   0.268  0.2173  0.0579  0.9465
 2709TIP3    H1 8133   4.267   4.852   0.315  0.3568 -0.8598 -0.6509
 2709TIP3    H2 8134   4.176   4.936   0.228  1.5432 -1.1844 -2.2617
 2710TIP3   OH2 8135   0.195   4.287   1.717  0.5170 -0.4015  0.2421
 2710TIP3    H1 8136   0.246   4.219   1.759 -1.4854 -1.0577  1.7818
 2710TIP3    H2 8137   0.189   4.357   1.783  0.2414  0.0737 -0.2754
 2711TIP3   OH2 8138   5.272   3.667   4.096  0.1439 -0.1925 -0.2428
 2711TIP3    H1 8139   5.362   3.651   4.125 -0.2989 -2.5525 -0.0288
 2711TIP3    H2 8140   5.241   3.736   4.154  1.6072  0.2471  0.0795
 2712TIP3   OH2 8141   5.933   5.437   4.286  0.6426  0.2913  0.5635
 2712TIP3    H1 8142   5.975   5.359   4.250 -0.2334  0.2384 -0.3839
 2712TIP3    H2 8143   6.005   5.490   4.318  1.2663 -0.8437  1.1145
 2713TIP3   OH2 8144   4.268   5.134   2.484  0.2316 -0.3110  0.1542
 2713TIP3    H1 8145   4.206   5.155   2.414 -0.1178  4.0389  1.4361
 2713TIP3    H2 8146   4.214   5.120   2.561  0.7376 -0.8335  0.4252
 2714TIP3   OH2 8147   5.700   5.785   2.912 -0.6297  0.0040  0.1262
 2714TIP3    H1 8148   5.625   5.762   2.857 -0.6412 -1.0460  0.5580
 2714TIP3    H2 8149   5.719   5.876   2.890 -2.8743  0.7466  0.9764
 2715TIP3   OH2 8150   5.865   1.907   3.961  0.1058 -0.2490  0.0888
 2715TIP3    H1 8151   5.896   1.881   3.874  0.8354 -2.3820  0.9202
 2715TIP3    H2 8152   5.774   1.880   3.963  0.3500 -1.0965  0.2883
 2716TIP3   OH2 8153   2.770   2.324   1.875  0.4102  0.0308  0.3882
 2716TIP3    H1 8154   2.750   2.240   1.833  2.7499  0.3365 -1.5774
 2716TIP3    H2 8155   2.857   2.311   1.914  0.0246  1.0303  1.6606
 2717TIP3   OH2 8156   0.733   2.419   4.808  0.0944 -0.1453 -0.2912
 2717TIP3    H1 8157   0.691   2.396   4.725  0.5571 -2.6732  0.0982
 2717TIP3    H2 8158   0.691   2.502   4.834 -1.6472 -0.4445 -1.9447
 2718TIP3   OH2 8159   6.139   4.968   4.041 -0.1651 -0.9668 -0.1426
 2718TIP3    H1 8160   6.085   4.975   3.963 -0.4963 -0.7526  0.1056
 2718TIP3    H2 8161   6.193   4.890   4.026  2.2733  0.9644 -2.1215
 2719TIP3   OH2 8162   3.869   5.455   4.522 -0.0530  0.1052  0.2934
 2719TIP3    H1 8163   3.946   5.403   4.547  1.2300  0.8146 -1.8688
 2719TIP3    H2 8164   3.796   5.394   4.528  0.6998 -0.7246  1.9760
 2720TIP3   OH2 8165   5.387   0.037   3.426  0.5141  0.2618 -0.2814
 2720TIP3    H1 8166   5.397   0.007   3.516  0.7141  1.3337  0.0584
 2720TIP3    H2 8167   5.334   0.117   3.433  0.0933  0.0695 -1.1610
 2721TIP3   OH2 8168   2.978   3.424   2.133  0.5099 -0.7888 -0.3903
 2721TIP3    H1 8169   3.008   3.477   2.207  1.3204 -0.6003 -0.8436
 2721TIP3    H2 8170   3.004   3.474   2.056 -0.7276 -0.7619 -0.8124
 2722TIP3   OH2 8171   5.055   5.861   2.926  0.2590  0.1925 -0.5631
 2722TIP3    H1 8172   5.119   5.930   2.909 -0.3597  0.4246 -2.0669
 2722TIP3    H2 8173   5.021   5.881   3.013  1.7423  0.4380 -0.0079
 2723TIP3   OH2 8174   2.106   2.697   1.812 -0.0576 -0.0620 -0.0539
 2723TIP3    H1 8175   2.159   2.672   1.887  0.2612 -1.5801 -0.7519
 2723TIP3    H2 8176   2.030   2.638   1.815 -1.0568  1.1859  0.1797
 2724TIP3   OH2 8177   1.435   2.362   1.387  0.3074 -0.2853 -0.5314
 2724TIP3    H1 8178   1.456   2.269   1.399  0.1215 -0.5561 -2.0863
 2724TIP3    H2 8179   1.416   2.371   1.293 -1.9130  0.8749 -0.0586
 2725TIP3   OH2 8180   3.026   0.754   2.104 -0.6095 -0.5269  0.0929
 2725TIP3    H1 8181   2.975   0.745   2.185  0.5511 -1.5327  0.7358
 2725TIP3    H2 8182   3.094   0.818   2.126 -0.4898 -0.5583 -0.1837
 2726TIP3   OH2 8183   3.722   3.213   3.106  0.0624  0.1599 -0.0445
 2726TIP3    H1 8184   3.649   3.190   3.163 -0.5324 -0.0511 -0.8691
 2726TIP3    H2 8185   3.762   3.129   3.083  0.2505  0.2373  0.0009
 2727TIP3   OH2 8186   1.813   3.333   3.730  0.0483  0.2481  0.4156
 2727TIP3    H1 8187   1.790   3.252   3.686  2.5477 -0.3380  0.0408
 2727TIP3    H2 8188   1.752   3.339   3.803 -1.1241 -1.2009 -0.3976
 2728TIP3   OH2 8189   6.175   5.814   4.461  0.0902  0.2745 -0.0783
 2728TIP3    H1 8190   6.255   5.850   4.422 -0.2290  1.5258  0.3859
 2728TIP3    H2 8191   6.122   5.788   4.386 -0.1949  1.9528 -0.4932
 2729TIP3   OH2 8192   1.723   4.828   1.169 -0.0564 -0.2126 -0.0299
 2729TIP3    H1 8193   1.713   4.738   1.199  1.2386 -0.0943  0.8729
 2729TIP3    H2 8194   1.655   4.840   1.103  0.0988 -2.0080 -0.5487
 2730TIP3   OH2 8195   4.848   5.367   2.791  0.2736 -0.2469  0.1020
 2730TIP3    H1 8196   4.885   5.328   2.871  0.1555 -2.3031 -0.7912
 2730TIP3    H2 8197   4.924   5.387   2.736  0.2339 -1.9673 -0.6235
 2731TIP3   OH2 8198   5.874   2.836   3.777  0.3151  0.4465  0.0456
 2731TIP3    H1 8199   5.812   2.904   3.803 -0.8079 -0.6807  0.4543
 2731TIP3    H2 8200   5.835   2.755   3.810  0.0582 -0.8049 -2.9924
 2732TIP3   OH2 8201   0.326   0.496   1.025 -0.5638  0.4519 -0.0428
 2732TIP3    H1 8202   0.242   0.533   1.054 -0.1627  0.4029  1.2362
 2732TIP3    H2 8203   0.318   0.403   1.044 -0.5065  0.3178 -0.6559
 2733TIP3   OH2 8204   0.533   2.880   5.096 -0.2318 -0.1901  0.2691
 2733TIP3    H1 8205   0.473   2.936   5.047 -0.3993 -1.5620 -1.1524
 2733TIP3    H2 8206   0.604   2.939   5.123 -0.3682  0.7065 -1.2174
 2734TIP3   OH2 8207   4.729   1.640   0.348 -0.2687  0.6208 -0.2557
 2734TIP3    H1 8208   4.641   1.612   0.372 -0.1176  0.8610  0.6068
 2734TIP3    H2 8209   4.773   1.559   0.322 -0.6175  0.4417 -0.2921
 2735TIP3   OH2 8210   3.513   0.375   0.887 -0.5085  0.0272 -0.4552
 2735TIP3    H1 8211   3.595   0.328   0.895 -0.9110 -0.5716  0.2879
 2735TIP3    H2 8212   3.538   0.462   0.856  0.5011  0.1516  0.6455
 2736TIP3   OH2 8213   0.356   2.869   2.902 -0.2319  0.1187 -0.6508
 2736TIP3    H1 8214   0.384   2.914   2.982  0.8299  0.3038 -1.1041
 2736TIP3    H2 8215   0.342   2.778   2.929  2.0703 -0.2793 -0.6270
 2737TIP3   OH2 8216   5.596   5.490   5.003 -0.1608  0.6811 -0.5623
 2737TIP3    H1 8217   5.502   5.480   5.017 -0.3409  1.2651 -1.3017
 2737TIP3    H2 8218   5.606   5.499   4.908  0.7344 -0.2762 -0.5792
 2738TIP3   OH2 8219   3.310   2.730   2.000  0.1478 -0.4259 -0.0795
 2738TIP3    H1 8220   3.222   2.726   2.037  0.5083 -0.1399  0.8418
 2738TIP3    H2 8221   3.362   2.778   2.066  0.8907 -0.2099 -0.7982
 2739TIP3   OH2 8222   0.723   5.881   0.809 -0.2764 -0.1297  0.6102
 2739TIP3    H1 8223   0.784   5.850   0.743  0.7948 -0.7768  1.8675
 2739TIP3    H2 8224   0.725   5.976   0.801  2.1986 -0.0300  1.7124
 2740TIP3   OH2 8225   0.346   5.968   0.283  1.0028 -0.1469 -0.3699
 2740TIP3    H1 8226   0.317   5.921   0.361  1.8769  1.0413  0.7170
 2740TIP3    H2 8227   0.331   6.061   0.303  1.6245  0.2117 -1.4387
 2741TIP3   OH2 8228   1.692   5.594   1.948  0.4658 -0.2156 -0.0121
 2741TIP3    H1 8229   1.786   5.615   1.951  0.4546 -0.1788  0.1240
 2741TIP3    H2 8230   1.650   5.669   1.992  0.5277 -1.1108  1.6787
 2742TIP3   OH2 8231   2.475   4.481   1.737 -0.0966 -0.3680 -0.0386
 2742TIP3    H1 8232   2.497   4.396   1.698  0.3500  0.8868 -2.7125
 2742TIP3    H2 8233   2.554   4.507   1.785  0.0928 -1.0272  0.0177
 2743TIP3   OH2 8234   4.789   2.402   3.626 -0.6280 -0.1592  0.0075
 2743TIP3    H1 8235   4.845   2.325   3.615  0.2159  0.7246 -2.6494
 2743TIP3    H2 8236   4.837   2.458   3.687  0.2396 -0.4354 -0.4075
 2744TIP3   OH2 8237   2.074   4.610   3.377 -0.4311  0.0650  0.0015
 2744TIP3    H1 8238   2.062   4.699   3.343 -1.3053  0.6054  1.6095
 2744TIP3    H2 8239   2.037   4.613   3.465  1.3670 -1.3628  0.8811
 2745TIP3   OH2 8240   4.810   1.351   0.626 -0.0874  0.4422 -0.3628
 2745TIP3    H1 8241   4.735   1.307   0.585  1.0244 -0.8725 -1.0899
 2745TIP3    H2 8242   4.810   1.318   0.716  0.0344 -0.1347 -0.5687
 2746TIP3   OH2 8243   5.103   2.447   1.734 -0.4852  0.0082 -0.1431
 2746TIP3    H1 8244   5.059   2.399   1.663 -0.2009 -0.9894  0.3410
 2746TIP3    H2 8245   5.164   2.504   1.688  1.6711 -2.5425 -0.7191
 2747TIP3   OH2 8246   5.377   2.051   2.032 -0.6072  0.7576  0.7956
 2747TIP3    H1 8247   5.411   1.965   2.057  0.5251  0.2814 -2.0210
 2747TIP3    H2 8248   5.293   2.032   1.990 -0.5371  1.0625  0.5129
 2748TIP3   OH2 8249   3.512   3.471   0.428  0.2064  0.5158  0.5179
 2748TIP3    H1 8250   3.566   3.404   0.470 -0.8567  0.8016  2.4109
 2748TIP3    H2 8251   3.423   3.435   0.428  0.1047  0.6489 -1.2921
 2749TIP3   OH2 8252   3.425   3.225   0.955 -0.3930 -0.1968 -0.3232
 2749TIP3    H1 8253   3.430   3.229   1.050 -1.3591  0.9776 -0.2982
 2749TIP3    H2 8254   3.348   3.277   0.933 -1.6472 -2.4417 -1.6049
 2750TIP3   OH2 8255   2.094   4.857   0.745 -0.5393 -0.2594 -0.0977
 2750TIP3    H1 8256   2.013   4.885   0.790 -0.8536 -1.0225 -0.1744
 2750TIP3    H2 8257   2.084   4.762   0.735 -0.3684 -0.1307 -1.5894
 2751TIP3   OH2 8258   1.147   3.436   4.772 -0.1103  0.1553  0.3019
 2751TIP3    H1 8259   1.076   3.405   4.716 -0.0117 -0.0799  0.3075
 2751TIP3    H2 8260   1.227   3.413   4.724 -0.0267 -0.0136  0.5214
 2752TIP3   OH2 8261   2.367   2.242   0.981 -0.0467  0.0211  0.5014
 2752TIP3    H1 8262   2.295   2.182   0.966  0.5858 -0.6080 -0.0985
 2752TIP3    H2 8263   2.332   2.328   0.959 -0.9160 -0.1330  1.2264
 2753TIP3   OH2 8264   0.077   0.262   2.823 -0.3831  0.0269 -0.1427
 2753TIP3    H1 8265   0.114   0.198   2.884 -0.0127 -0.5462 -0.9390
 2753TIP3    H2 8266   0.039   0.330   2.879 -1.4715 -1.2687  0.7478
 2754TIP3   OH2 8267   3.175   5.738   0.583  0.5969 -0.2633  0.2561
 2754TIP3    H1 8268   3.183   5.652   0.541  0.7955  0.0131 -0.2682
 2754TIP3    H2 8269   3.222   5.798   0.526 -0.3672  0.3767  0.1196
 2755TIP3   OH2 8270   0.220   2.571   2.138  0.0285  0.1299  0.2176
 2755TIP3    H1 8271   0.174   2.528   2.065  0.3986 -0.6384  0.4255
 2755TIP3    H2 8272   0.312   2.572   2.111  0.1001  0.2824  0.4646
 2756TIP3   OH2 8273   4.414   0.351   3.170  0.1142 -0.5431 -0.3220
 2756TIP3    H1 8274   4.339   0.375   3.116  0.1816 -0.9411 -0.5917
 2756TIP3    H2 8275   4.408   0.256   3.180  0.6766 -0.5980 -0.4904
 2757TIP3   OH2 8276   2.669   0.904   1.691 -0.0799  0.3657 -0.1310
 2757TIP3    H1 8277   2.620   0.825   1.712  0.5471  0.0498  0.2019
 2757TIP3    H2 8278   2.620   0.975   1.733 -0.5830  0.1367 -0.3323
 2758TIP3   OH2 8279   4.631   0.780   4.795 -0.1268  0.6328  0.0352
 2758TIP3    H1 8280   4.596   0.869   4.801 -1.0488  0.3065 -0.3158
 2758TIP3    H2 8281   4.714   0.784   4.842 -0.6306  1.4387  0.9136
 2759TIP3   OH2 8282   0.508   4.351   4.509  0.2250 -0.1602  0.4772
 2759TIP3    H1 8283   0.462   4.333   4.591  1.2553 -0.9055  0.9032
 2759TIP3    H2 8284   0.541   4.440   4.520 -1.5952  0.6388 -0.0889
 2760TIP3   OH2 8285   3.801   3.210   5.061 -0.2675  0.1622  0.7635
 2760TIP3    H1 8286   3.795   3.294   5.107 -0.6965 -0.0011  1.0064
 2760TIP3    H2 8287   3.803   3.234   4.969  2.1173  0.5984  0.8402
 2761TIP3   OH2 8288   0.633   5.845   0.457 -0.1099  0.1321 -0.2361
 2761TIP3    H1 8289   0.613   5.752   0.461 -0.1808  0.1782  1.1277
 2761TIP3    H2 8290   0.727   5.849   0.444 -0.0459 -0.1457  0.1131
 2762TIP3   OH2 8291   4.569   0.695   1.720 -0.5378  0.1199  0.5849
 2762TIP3    H1 8292   4.518   0.769   1.754  0.1621  1.2848 -0.7848
 2762TIP3    H2 8293   4.655   0.732   1.702 -0.4604 -0.7710 -1.0773
 2763TIP3   OH2 8294   5.253   1.212   2.088  0.4494 -0.0999 -0.7275
 2763TIP3    H1 8295   5.326   1.160   2.055  0.6355  0.3536 -1.0419
 2763TIP3    H2 8296   5.274   1.228   2.180  0.9542  0.3838 -0.9250
 2764TIP3   OH2 8297   4.097   1.500   4.291  0.4606 -0.3227  0.3295
 2764TIP3    H1 8298   4.139   1.428   4.338  1.2993 -1.3091 -1.7662
 2764TIP3    H2 8299   4.167   1.562   4.274  0.0778  0.2298  0.7304
 2765TIP3   OH2 8300   2.499   4.660   0.144 -0.0868 -0.4899  0.4109
 2765TIP3    H1 8301   2.541   4.665   0.230  0.6045  0.2211  0.0402
 2765TIP3    H2 8302   2.476   4.750   0.123 -0.9686 -0.7609  0.1942
 2766TIP3   OH2 8303   0.245   0.029   1.330 -0.1166  0.8902  0.0488
 2766TIP3    H1 8304   0.181  -0.022   1.280 -0.5829 -1.2253  2.5811
 2766TIP3    H2 8305   0.218   0.018   1.421  1.9138  2.7925  0.9635
 2767TIP3   OH2 8306   2.865   1.617   2.649  0.1560 -0.4921 -0.1107
 2767TIP3    H1 8307   2.867   1.662   2.564  1.4724 -1.2963 -0.5380
 2767TIP3    H2 8308   2.876   1.686   2.714  1.6172 -0.1214 -0.7244
 2768TIP3   OH2 8309   6.237   5.761   3.453  0.1663 -0.4212 -0.0075
 2768TIP3    H1 8310   6.178   5.698   3.495  1.2293 -1.2787  0.2309
 2768TIP3    H2 8311   6.235   5.837   3.511  0.5424 -1.0649  0.8636
 2769TIP3   OH2 8312   0.797   3.232   4.031  0.3603 -0.0876  0.2099
 2769TIP3    H1 8313   0.771   3.310   4.080 -2.3983 -0.2664 -0.7364
 2769TIP3    H2 8314   0.715   3.183   4.019  1.7211 -2.3336 -0.6175
 2770TIP3   OH2 8315   0.943   0.751   2.044  0.2551 -0.4519  0.1698
 2770TIP3    H1 8316   0.927   0.774   2.135  2.1742 -0.0883  0.4510
 2770TIP3    H2 8317   0.934   0.833   1.996  2.6770  0.1074  0.5569
 2771TIP3   OH2 8318   0.529   1.660   0.645 -0.8750 -0.5565  0.2579
 2771TIP3    H1 8319   0.497   1.723   0.709 -0.4807 -0.0217 -0.0695
 2771TIP3    H2 8320   0.577   1.712   0.581 -0.0388 -1.2477  0.3008
 2772TIP3   OH2 8321   0.472   2.404   2.846 -0.0182  0.2371 -1.1081
 2772TIP3    H1 8322   0.392   2.351   2.841 -1.7463  2.6665 -1.1899
 2772TIP3    H2 8323   0.493   2.407   2.940 -0.0668 -0.3431 -1.0769
 2773TIP3   OH2 8324   1.101   4.351   3.284  0.1576 -0.7056 -0.1530
 2773TIP3    H1 8325   1.147   4.334   3.202 -0.3882 -0.3353 -0.5412
 2773TIP3    H2 8326   1.016   4.308   3.273  0.1754 -0.8642  0.3168
 2774TIP3   OH2 8327   6.200   5.302   1.943 -0.2951  0.8982  0.1748
 2774TIP3    H1 8328   6.132   5.347   1.992  0.1968 -2.4292  4.4945
 2774TIP3    H2 8329   6.157   5.222   1.911  1.0505 -0.5019  1.6623
 2775TIP3   OH2 8330   3.012   4.911   1.586  0.0109 -0.1149  0.9922
 2775TIP3    H1 8331   3.003   4.827   1.631 -0.2904 -1.0089 -0.6567
 2775TIP3    H2 8332   2.956   4.971   1.636  0.9150 -0.6460  2.7022
 2776TIP3   OH2 8333   0.954   3.162   4.320 -0.0466 -0.1139  0.0136
 2776TIP3    H1 8334   0.926   3.179   4.230 -1.1342 -0.6890  0.2284
 2776TIP3    H2 8335   0.983   3.070   4.319 -0.3181 -0.2070  0.2995
 2777TIP3   OH2 8336   3.389   4.271   1.090  0.0646 -0.3562 -0.0829
 2777TIP3    H1 8337   3.294   4.284   1.097  0.1639  0.5804 -0.3864
 2777TIP3    H2 8338   3.408   4.275   0.997  0.4461 -0.1740 -0.0018
 2778TIP3   OH2 8339   3.131   1.598   4.100 -0.4174  0.4308  0.6909
 2778TIP3    H1 8340   3.118   1.504   4.110 -0.2480  0.4458  1.0798
 2778TIP3    H2 8341   3.210   1.617   4.151  0.7033  0.4656 -1.0021
 2779TIP3   OH2 8342   1.069   5.896   1.838 -0.4226  0.5304 -0.1439
 2779TIP3    H1 8343   0.998   5.904   1.775 -0.9541  3.1970  0.6916
 2779TIP3    H2 8344   1.048   5.959   1.907  3.4336  2.5665 -0.5554
 2780TIP3   OH2 8345   4.583   3.974   4.555  0.3012  0.0188 -0.0882
 2780TIP3    H1 8346   4.673   3.980   4.585  0.7261 -3.5853 -0.1160
 2780TIP3    H2 8347   4.589   3.966   4.460 -0.1381  0.6813 -0.1782
 2781TIP3   OH2 8348   5.663   2.937   0.369 -0.5527  0.0865  0.4561
 2781TIP3    H1 8349   5.705   2.930   0.283 -0.6004 -0.5403  0.4773
 2781TIP3    H2 8350   5.574   2.906   0.355 -0.6201  0.1686  0.6923
 2782TIP3   OH2 8351   3.394   3.541   3.261 -0.7617  0.1876 -0.6950
 2782TIP3    H1 8352   3.423   3.523   3.172 -2.9609 -0.2981 -1.3635
 2782TIP3    H2 8353   3.309   3.497   3.269 -1.2800  1.3877  1.1675
 2783TIP3   OH2 8354   6.271   4.663   2.856 -0.0939  0.1367 -0.2485
 2783TIP3    H1 8355   6.211   4.699   2.791 -1.2903  0.4899  0.9970
 2783TIP3    H2 8356   6.283   4.734   2.919  2.1830  0.3052 -0.7723
 2784TIP3   OH2 8357   1.555   1.280   2.860  0.5909 -0.8216 -0.9471
 2784TIP3    H1 8358   1.634   1.262   2.911  0.0226 -0.9531 -0.0859
 2784TIP3    H2 8359   1.583   1.345   2.795  1.3420 -0.6539 -0.4733
 2785TIP3   OH2 8360   5.869   3.230   3.234  0.0908 -0.0698 -0.0194
 2785TIP3    H1 8361   5.842   3.170   3.164 -0.2188  1.1763 -0.9831
 2785TIP3    H2 8362   5.885   3.313   3.191 -1.0535  1.0103  1.5274
 2786TIP3   OH2 8363   0.682   0.081   3.583 -0.3953  0.0786 -0.0070
 2786TIP3    H1 8364   0.632   0.151   3.625 -1.3701  0.6843 -2.0522
 2786TIP3    H2 8365   0.638   0.001   3.611 -1.0876  0.4638  0.0419
 2787TIP3   OH2 8366   3.928   1.917   2.607  0.3218  0.1725 -0.4038
 2787TIP3    H1 8367   3.909   2.010   2.594  1.1250  0.4456  0.2867
 2787TIP3    H2 8368   4.022   1.909   2.592  0.4107 -0.3711  0.3479
 2788TIP3   OH2 8369   5.535   1.826   2.109 -0.1652 -0.2571  0.1975
 2788TIP3    H1 8370   5.473   1.791   2.172  0.2212  0.0040  0.7283
 2788TIP3    H2 8371   5.556   1.751   2.052 -0.0871 -0.6377  0.7203
 2789TIP3   OH2 8372   3.408   3.763   2.346  0.0053  0.1936 -0.8851
 2789TIP3    H1 8373   3.419   3.750   2.440  0.2807 -0.3426 -0.9864
 2789TIP3    H2 8374   3.330   3.817   2.338  0.5499  1.0966 -0.3025
 2790TIP3   OH2 8375   4.135   4.927   3.626 -0.0503  0.8575 -0.4423
 2790TIP3    H1 8376   4.109   4.931   3.718  1.4709  2.7490 -0.0276
 2790TIP3    H2 8377   4.081   4.993   3.583  1.0357  1.8205 -0.3728
 2791TIP3   OH2 8378   1.839   4.659   2.839  0.0660 -0.4132  0.2614
 2791TIP3    H1 8379   1.906   4.715   2.802 -0.4217  0.4814  0.7023
 2791TIP3    H2 8380   1.800   4.711   2.909 -1.5415 -0.6416 -0.4217
 2792TIP3   OH2 8381   3.221   3.383   4.403 -0.0620 -0.4720  0.7736
 2792TIP3    H1 8382   3.190   3.469   4.376 -1.3799 -0.2710  2.7617
 2792TIP3    H2 8383   3.292   3.363   4.341 -0.7686  1.3120 -0.7130
 2793TIP3   OH2 8384   2.239   0.074   2.379  0.1368 -0.2258  0.1656
 2793TIP3    H1 8385   2.296   0.148   2.401 -0.6763  0.2499  0.7648
 2793TIP3    H2 8386   2.294  -0.003   2.389  1.0643  0.2975 -0.6711
 2794TIP3   OH2 8387   1.787   1.517   3.374 -0.1175 -0.4115  0.0163
 2794TIP3    H1 8388   1.841   1.484   3.445 -0.3056  0.5655  0.6414
 2794TIP3    H2 8389   1.736   1.588   3.414 -1.0754 -0.6103 -0.8120
 2795TIP3   OH2 8390   4.857   1.085   4.931 -0.2916 -0.4051 -0.1580
 2795TIP3    H1 8391   4.888   1.075   4.841 -1.3943  1.7473 -0.8765
 2795TIP3    H2 8392   4.792   1.015   4.942  0.3136 -1.0848 -0.8000
 2796TIP3   OH2 8393   4.045   5.557   0.717 -0.3622 -0.6638 -0.1314
 2796TIP3    H1 8394   3.997   5.633   0.750  0.7570 -0.4692  1.1454
 2796TIP3    H2 8395   3.980   5.486   0.715 -1.5576  0.4103 -1.8615
 2797TIP3   OH2 8396   3.472   3.975   4.914 -0.1558 -0.1478 -0.4173
 2797TIP3    H1 8397   3.526   4.028   4.856 -0.2096  0.8369  0.3991
 2797TIP3    H2 8398   3.530   3.908   4.948 -0.3141 -1.2396 -2.2021
 2798TIP3   OH2 8399   2.623   0.203   3.474 -0.0442 -0.0074  0.3588
 2798TIP3    H1 8400   2.671   0.128   3.438  0.1019  0.0373  0.4544
 2798TIP3    H2 8401   2.534   0.194   3.440  0.4493  0.8896 -1.2885
 2799TIP3   OH2 8402   1.569   3.437   2.207  0.4014 -0.0799 -0.5222
 2799TIP3    H1 8403   1.642   3.390   2.167  0.8227  1.1698 -1.2758
 2799TIP3    H2 8404   1.583   3.528   2.183 -0.4107  0.4430  0.8830
 2800TIP3   OH2 8405   4.863   0.374   2.903 -0.1872  0.7466  0.4196
 2800TIP3    H1 8406   4.923   0.302   2.881  0.6459  1.8339 -1.1429
 2800TIP3    H2 8407   4.851   0.368   2.998 -0.6776 -1.8094  0.2637
 2801TIP3   OH2 8408   3.268   2.097   3.324  0.4889  0.1054 -1.0813
 2801TIP3    H1 8409   3.310   2.182   3.310  1.1457 -0.2815 -1.5496
 2801TIP3    H2 8410   3.334   2.044   3.369 -0.7748  0.5830  1.4912
 2802TIP3   OH2 8411   3.790   5.309   0.376  0.0138  0.0131  0.0211
 2802TIP3    H1 8412   3.709   5.321   0.426  0.0603  1.0573 -0.1440
 2802TIP3    H2 8413   3.771   5.237   0.316 -1.2761  1.1754 -1.0114
 2803TIP3   OH2 8414   3.996   0.209   4.624 -0.4271 -0.3695  0.7233
 2803TIP3    H1 8415   3.914   0.257   4.639  0.8662  1.4395  2.7658
 2803TIP3    H2 8416   3.993   0.136   4.686 -1.6723 -2.0456 -1.2185
 2804TIP3   OH2 8417   1.571   1.362   3.291 -0.5405  0.0521 -0.3521
 2804TIP3    H1 8418   1.561   1.267   3.301 -1.3694  0.1809  0.0962
 2804TIP3    H2 8419   1.662   1.379   3.317 -0.4967 -0.5751 -0.0703
 2805TIP3   OH2 8420   5.017   4.613   4.461 -0.5538  0.3540  0.4193
 2805TIP3    H1 8421   5.112   4.625   4.461 -0.5588  0.5219 -0.6194
 2805TIP3    H2 8422   4.982   4.702   4.464 -0.6426  0.4064 -1.2791
 2806TIP3   OH2 8423   2.930   0.478   4.594  0.1621  0.5509 -0.3453
 2806TIP3    H1 8424   2.980   0.421   4.536  0.8098 -2.3512  2.6971
 2806TIP3    H2 8425   2.849   0.429   4.612  0.2840  0.9819  1.6191
 2807TIP3   OH2 8426   1.581   5.126   2.699 -0.1024  0.0222  0.0124
 2807TIP3    H1 8427   1.539   5.179   2.631  0.0376  0.6925  0.4364
 2807TIP3    H2 8428   1.515   5.061   2.723  0.6324 -1.7469 -2.3720
 2808TIP3   OH2 8429   4.402   3.186   0.059 -0.1781 -0.3545  0.0877
 2808TIP3    H1 8430   4.462   3.238   0.006 -0.6215  0.2677  0.1860
 2808TIP3    H2 8431   4.412   3.097   0.026 -0.1910 -0.0289 -0.8206
 2809TIP3   OH2 8432   0.043   3.858   2.261  0.6644 -0.2955 -0.6800
 2809TIP3    H1 8433   0.031   3.786   2.323  0.1057  0.1935 -0.2032
 2809TIP3    H2 8434  -0.041   3.866   2.217  1.0876 -0.6987 -1.5777
 2810TIP3   OH2 8435   5.626   5.568   1.608  0.5003  0.2148 -0.2571
 2810TIP3    H1 8436   5.535   5.570   1.639  0.1867 -2.4074 -0.7898
 2810TIP3    H2 8437   5.656   5.658   1.616 -1.5205  0.7890  1.7921
 2811TIP3   OH2 8438   4.675   4.383   3.318  0.3223 -0.5431  0.2422
 2811TIP3    H1 8439   4.605   4.321   3.334 -0.2801  0.0341 -0.1069
 2811TIP3    H2 8440   4.650   4.462   3.367 -1.4267  1.1657 -3.0503
 2812TIP3   OH2 8441   4.792   5.139   1.957 -0.1373  0.3441 -1.0530
 2812TIP3    H1 8442   4.709   5.140   1.910 -1.0473 -0.1538  0.4872
 2812TIP3    H2 8443   4.830   5.054   1.937 -1.2891 -0.5306  0.3804
 2813TIP3   OH2 8444   2.013   3.483   3.462 -0.3216  0.4295 -0.6974
 2813TIP3    H1 8445   2.102   3.455   3.440  0.0785  1.7977 -0.8894
 2813TIP3    H2 8446   2.017   3.506   3.555 -0.0685  1.9492 -1.0649
 2814TIP3   OH2 8447   0.354   0.566   3.476 -0.5649  0.0618  0.4852
 2814TIP3    H1 8448   0.423   0.583   3.540 -0.6191 -0.1024  0.5893
 2814TIP3    H2 8449   0.274   0.557   3.528 -0.5837 -0.2251  0.4107
 2815TIP3   OH2 8450   0.978   2.758   3.540 -0.3040  0.6642  0.3300
 2815TIP3    H1 8451   1.069   2.776   3.518 -0.4527  1.2552  0.1691
 2815TIP3    H2 8452   0.950   2.834   3.591 -0.6520  0.4008  0.5399
 2816TIP3   OH2 8453   4.904   5.009   3.406 -0.0620  0.8046  0.3207
 2816TIP3    H1 8454   4.981   5.030   3.353  0.6786  1.0943  1.4817
 2816TIP3    H2 8455   4.878   4.921   3.377 -0.4481  1.4449 -1.3943
 2817TIP3   OH2 8456   2.935   1.004   0.284 -0.1677  0.4799  0.2752
 2817TIP3    H1 8457   2.921   0.913   0.308 -0.1794  0.4801  0.2687
 2817TIP3    H2 8458   2.991   1.039   0.353  2.7948 -0.4457 -1.4698
 2818TIP3   OH2 8459   5.025   3.522   1.743 -0.2874 -0.2951 -0.2634
 2818TIP3    H1 8460   4.972   3.595   1.710 -3.1910 -3.0077 -2.1906
 2818TIP3    H2 8461   4.990   3.504   1.830 -0.9011 -0.5408 -0.5534
 2819TIP3   OH2 8462   1.663   0.277   2.877 -0.2047  0.4864 -0.1173
 2819TIP3    H1 8463   1.724   0.350   2.874 -0.3153  0.6508  1.0219
 2819TIP3    H2 8464   1.607   0.296   2.953 -1.3419  0.0915 -0.8340
 2820TIP3   OH2 8465   2.412   1.011   2.673  0.3830  0.9032  0.1822
 2820TIP3    H1 8466   2.415   1.022   2.578 -1.1048 -0.2791 -0.0381
 2820TIP3    H2 8467   2.376   0.923   2.686 -0.3340  1.4023  1.8347
 2821TIP3   OH2 8468   4.370   0.398   2.804 -0.0691  0.0789 -0.1777
 2821TIP3    H1 8469   4.314   0.325   2.832 -1.0754  1.1826  0.7626
 2821TIP3    H2 8470   4.389   0.379   2.712 -0.6326 -1.1658 -0.0616
 2822TIP3   OH2 8471   2.544   4.587   4.426  0.0511  0.1408 -0.3707
 2822TIP3    H1 8472   2.519   4.506   4.380 -3.8275  1.2385 -0.5749
 2822TIP3    H2 8473   2.547   4.561   4.518  1.1778 -0.6546 -0.6008
 2823TIP3   OH2 8474   4.991   2.819   2.834  0.2762 -0.5297 -0.0138
 2823TIP3    H1 8475   5.074   2.773   2.820 -0.1368 -1.8240  1.4960
 2823TIP3    H2 8476   4.995   2.848   2.925 -0.5770  0.1607 -0.1836
 2824TIP3   OH2 8477   4.105   1.820   3.542  0.0399  0.3733 -0.8000
 2824TIP3    H1 8478   4.151   1.767   3.607 -0.7438  0.1035 -0.4509
 2824TIP3    H2 8479   4.030   1.856   3.590  0.2099  1.2886 -1.1988
 2825TIP3   OH2 8480   5.579   0.535   0.063  0.1403  0.4035 -0.5121
 2825TIP3    H1 8481   5.575   0.514  -0.030  0.8437 -1.7756 -0.0934
 2825TIP3    H2 8482   5.672   0.543   0.082 -0.0071  0.9985 -0.0113
 2826TIP3   OH2 8483   1.764   1.648   0.114  0.3836 -0.0573 -0.0881
 2826TIP3    H1 8484   1.687   1.697   0.083  0.6754 -0.2090 -1.1024
 2826TIP3    H2 8485   1.832   1.669   0.050  0.6983 -1.2559 -0.1620
 2827TIP3   OH2 8486   2.381   1.207   3.010  0.5609 -0.0289  0.0426
 2827TIP3    H1 8487   2.375   1.116   3.040  1.5262  0.0290  0.4562
 2827TIP3    H2 8488   2.292   1.241   3.018  0.4712 -0.5079  1.2947
 2828TIP3   OH2 8489   4.128   1.267   0.489  0.4116  0.3252 -0.5622
 2828TIP3    H1 8490   4.140   1.356   0.521  0.1311 -0.2792  1.3654
 2828TIP3    H2 8491   4.206   1.248   0.438  1.2577  1.1168  0.4047
 2829TIP3   OH2 8492   0.939   4.078   3.272  0.1666 -0.2658 -0.1130
 2829TIP3    H1 8493   0.961   4.016   3.202  1.4061  0.1846 -0.1422
 2829TIP3    H2 8494   0.879   4.030   3.328 -0.8265 -0.6515 -1.4600
 2830TIP3   OH2 8495   0.582   3.141   1.240  0.0528 -0.0760 -0.3000
 2830TIP3    H1 8496   0.593   3.051   1.211  1.2237  0.0415 -0.2367
 2830TIP3    H2 8497   0.658   3.159   1.295 -0.5830  0.6925  0.3496
 2831TIP3   OH2 8498   3.887   4.605   1.122  0.0018  0.0260 -0.3593
 2831TIP3    H1 8499   3.962   4.545   1.126  1.2466  1.4072 -1.5000
 2831TIP3    H2 8500   3.891   4.654   1.205 -1.5645 -1.9806  0.9916
 2832TIP3   OH2 8501   0.112   2.418   2.720  0.2775  0.4537  0.7339
 2832TIP3    H1 8502   0.019   2.437   2.734  0.6182  1.5721  1.7002
 2832TIP3    H2 8503   0.113   2.340   2.664 -1.2514  1.6534 -1.0996
 2833TIP3   OH2 8504   0.759   2.233   4.094 -0.2417  0.0473  0.6395
 2833TIP3    H1 8505   0.799   2.181   4.163  1.0598  2.1825  1.5819
 2833TIP3    H2 8506   0.696   2.289   4.139  0.0226  0.8817  0.0012
 2834TIP3   OH2 8507   0.535   0.584   0.707 -0.1804 -0.1329 -0.8714
 2834TIP3    H1 8508   0.461   0.536   0.744  0.0747 -0.4043 -0.7052
 2834TIP3    H2 8509   0.496   0.641   0.641 -0.5501 -0.1966 -0.7128
 2835TIP3   OH2 8510   4.051   3.819   1.670 -0.5849 -0.4598 -0.4187
 2835TIP3    H1 8511   4.019   3.798   1.583 -1.9056 -1.8005  0.3293
 2835TIP3    H2 8512   4.078   3.734   1.707  0.6149  0.1702  0.2451
 2836TIP3   OH2 8513   0.165   2.505   1.799  0.4840 -0.0755 -0.5897
 2836TIP3    H1 8514   0.113   2.585   1.810  0.9337  0.2797 -0.9988
 2836TIP3    H2 8515   0.253   2.536   1.780  0.4675 -0.6516 -1.7068
 2837TIP3   OH2 8516   0.263   2.772   1.285 -0.1930  0.3334  0.2883
 2837TIP3    H1 8517   0.334   2.714   1.259 -0.4833  0.3275 -0.5385
 2837TIP3    H2 8518   0.183   2.722   1.267 -0.4347  0.8241 -0.0358
 2838TIP3   OH2 8519   5.023   2.625   0.079  0.5867  0.3088  0.0879
 2838TIP3    H1 8520   4.948   2.676   0.046 -2.3743 -2.9967  1.1482
 2838TIP3    H2 8521   5.060   2.584   0.001  0.0860  0.4918 -0.2537
 2839TIP3   OH2 8522   1.547   3.130   1.544  0.0814 -0.1457  0.1155
 2839TIP3    H1 8523   1.548   3.036   1.563  2.4774 -0.2050  0.0735
 2839TIP3    H2 8524   1.517   3.170   1.626  3.5975 -0.7931  1.9624
 2840TIP3   OH2 8525   1.789   5.254   2.784  0.1822 -0.3356  0.0428
 2840TIP3    H1 8526   1.758   5.310   2.855  2.3173  0.8546  0.1447
 2840TIP3    H2 8527   1.710   5.218   2.744 -1.2708  2.2544  0.4017
 2841TIP3   OH2 8528   2.636   2.175   4.248  0.5769  0.2331  0.5962
 2841TIP3    H1 8529   2.672   2.256   4.212 -0.1198  0.0383 -0.5927
 2841TIP3    H2 8530   2.711   2.117   4.258  0.7103  0.0281 -1.2930
 2842TIP3   OH2 8531   5.879   3.557   3.249 -0.5154 -0.6636 -0.5213
 2842TIP3    H1 8532   5.958   3.559   3.304 -0.9182  0.7651  0.0534
 2842TIP3    H2 8533   5.897   3.618   3.178 -1.1688 -0.1947 -0.2905
 2843TIP3   OH2 8534   3.708   1.513   0.163 -0.1339  0.6872  0.0086
 2843TIP3    H1 8535   3.689   1.607   0.164 -1.4040  0.4437  0.2211
 2843TIP3    H2 8536   3.733   1.492   0.253 -1.0954  0.5866  0.2557
 2844TIP3   OH2 8537   0.121   5.122   1.882  0.2159  0.3521 -0.3461
 2844TIP3    H1 8538   0.027   5.140   1.889 -0.2458 -1.5042 -1.3124
 2844TIP3    H2 8539   0.128   5.027   1.892  1.7017  0.1410 -2.6794
 2845TIP3   OH2 8540   0.973   1.273   4.499 -0.0972  0.0886 -0.3743
 2845TIP3    H1 8541   0.920   1.196   4.480 -0.6219  0.2236  0.5193
 2845TIP3    H2 8542   0.911   1.339   4.529  0.0118  1.6108 -3.0640
 2846TIP3   OH2 8543   4.415   5.499   4.030  0.4703 -0.1725 -0.0753
 2846TIP3    H1 8544   4.445   5.587   4.053  0.1714 -0.0166 -0.2700
 2846TIP3    H2 8545   4.383   5.508   3.941 -1.0441 -0.1017  0.4445
 2847TIP3   OH2 8546   5.332   2.338   4.953 -0.8339  0.5169 -0.3100
 2847TIP3    H1 8547   5.392   2.264   4.942 -1.3556  0.3070 -1.9017
 2847TIP3    H2 8548   5.376   2.411   4.910 -0.7487  0.9210  0.4378
 2848TIP3   OH2 8549   6.128   1.230   5.025  0.1427  0.1022 -0.0777
 2848TIP3    H1 8550   6.121   1.237   4.930 -1.8541 -1.3167 -0.0932
 2848TIP3    H2 8551   6.080   1.306   5.058  0.2413  0.2175 -0.1966
 2849TIP3   OH2 8552   3.967   4.611   0.378 -0.4609  0.0720 -0.4309
 2849TIP3    H1 8553   3.996   4.702   0.379 -0.9789  0.2775 -1.6254
 2849TIP3    H2 8554   3.969   4.583   0.469 -0.8337  1.4547  0.0147
 2850TIP3   OH2 8555   0.235   2.039   3.968 -0.2567  0.0888  0.2275
 2850TIP3    H1 8556   0.218   2.020   4.060  2.4318 -0.3181  0.7211
 2850TIP3    H2 8557   0.232   2.134   3.962 -1.1391  0.0878  0.5606
 2851TIP3   OH2 8558   5.165   1.405   0.365 -0.2646 -0.1401  0.1435
 2851TIP3    H1 8559   5.199   1.369   0.283  0.2417 -0.2830  0.4065
 2851TIP3    H2 8560   5.186   1.338   0.431 -1.6890 -0.5466  0.2118
 2852TIP3   OH2 8561   2.598   1.572   3.632 -0.2805  0.3455 -0.4763
 2852TIP3    H1 8562   2.584   1.479   3.650  0.2056  0.1419 -1.1091
 2852TIP3    H2 8563   2.600   1.579   3.537  0.1146  0.9390 -0.4335
 2853TIP3   OH2 8564   5.290   1.528   3.298 -0.1036 -0.3995  0.0479
 2853TIP3    H1 8565   5.352   1.481   3.242  1.1466  1.2607 -0.0698
 2853TIP3    H2 8566   5.345   1.591   3.345 -1.8079  1.8392 -0.7965
 2854TIP3   OH2 8567   5.671   1.487   4.096 -0.7883  0.0835 -0.1554
 2854TIP3    H1 8568   5.750   1.541   4.096 -1.8264  1.6714  0.0745
 2854TIP3    H2 8569   5.690   1.418   4.160  0.5583  0.1752 -0.4169
 2855TIP3   OH2 8570   5.547   5.213   0.171 -0.1062  0.2033 -0.1562
 2855TIP3    H1 8571   5.494   5.145   0.130  0.6957  0.0650 -1.0086
 2855TIP3    H2 8572   5.582   5.264   0.097  0.0484  0.9719  0.4331
 2856TIP3   OH2 8573   2.642   3.967   3.301 -0.3950 -0.0414 -0.1249
 2856TIP3    H1 8574   2.717   3.943   3.247 -0.6718  1.2003 -1.0969
 2856TIP3    H2 8575   2.585   3.890   3.297  1.3019 -1.4828  1.6049
 2857TIP3   OH2 8576   1.212   5.475   4.281  0.0831  0.1827  0.5632
 2857TIP3    H1 8577   1.161   5.398   4.254 -0.2698  0.9875 -1.2062
 2857TIP3    H2 8578   1.257   5.503   4.202  3.3662 -0.4570  2.0358
 2858TIP3   OH2 8579   5.115   2.955   3.076  0.3805  0.4138 -0.6281
 2858TIP3    H1 8580   5.203   2.989   3.093 -0.5392  1.8675  1.7749
 2858TIP3    H2 8581   5.096   2.899   3.151 -1.3028  1.4478 -0.2052
 2859TIP3   OH2 8582   3.026   5.000   2.267 -0.4340 -0.5324 -0.1443
 2859TIP3    H1 8583   3.072   5.057   2.329  0.4299  0.1608 -1.3763
 2859TIP3    H2 8584   2.935   5.004   2.296 -0.4341  1.6113 -0.2327
 2860TIP3   OH2 8585   2.689   2.715   0.078  0.8347  0.3246  0.0187
 2860TIP3    H1 8586   2.606   2.673   0.057  0.4476  0.6424  0.8758
 2860TIP3    H2 8587   2.713   2.680   0.164  0.9355  1.1884  0.3565
 2861TIP3   OH2 8588   1.521   0.303   1.313 -0.1990 -0.4647 -0.9406
 2861TIP3    H1 8589   1.603   0.294   1.266  0.0523 -0.6622 -0.4689
 2861TIP3    H2 8590   1.488   0.390   1.288  1.1795  0.5102  0.4407
 2862TIP3   OH2 8591   5.182   3.038   3.670  0.2791  0.1923  0.0569
 2862TIP3    H1 8592   5.191   2.979   3.745 -1.8806 -1.0616 -0.5870
 2862TIP3    H2 8593   5.267   3.083   3.664  1.0516 -0.8530  2.2325
 2863TIP3   OH2 8594   1.465   3.242   1.803 -0.2603 -0.2654 -0.4165
 2863TIP3    H1 8595   1.446   3.199   1.886  0.4869  0.2178  0.0104
 2863TIP3    H2 8596   1.529   3.310   1.824  1.4967 -1.4061 -1.6604
 2864TIP3   OH2 8597   1.198   0.007   0.455  0.1624  0.7763 -0.0168
 2864TIP3    H1 8598   1.105   0.004   0.434  0.5843 -0.4397 -2.0199
 2864TIP3    H2 8599   1.238   0.054   0.381  1.2990 -0.2728 -0.1144
 2865TIP3   OH2 8600   2.544   0.538   4.662  0.5632  0.2664 -0.0427
 2865TIP3    H1 8601   2.533   0.515   4.754  2.6218  0.9804  0.4506
 2865TIP3    H2 8602   2.576   0.629   4.664 -1.5239  1.1315 -1.6074
 2866TIP3   OH2 8603   1.142   1.383   4.151  0.3221  0.7230  0.4409
 2866TIP3    H1 8604   1.061   1.414   4.110 -1.6872 -1.3369  2.5589
 2866TIP3    H2 8605   1.139   1.288   4.142  3.4835  0.6309 -0.9764
 2867TIP3   OH2 8606   0.468   4.731   1.874 -0.1436 -0.2002  0.4520
 2867TIP3    H1 8607   0.484   4.640   1.847 -0.7587 -1.2405  3.2765
 2867TIP3    H2 8608   0.502   4.736   1.963 -2.8710  1.4502  1.5157
 2868TIP3   OH2 8609   1.538   5.308   0.209 -0.0711 -0.2182 -0.2163
 2868TIP3    H1 8610   1.488   5.301   0.128 -1.2209  1.5150  0.2860
 2868TIP3    H2 8611   1.621   5.264   0.190 -0.6819 -0.6851 -2.0053
 2869TIP3   OH2 8612   1.489   0.104   2.541 -0.3857  0.2325  0.0533
 2869TIP3    H1 8613   1.574   0.068   2.516 -0.0079  0.7005  0.6303
 2869TIP3    H2 8614   1.425   0.045   2.502  0.2197 -1.1041  1.0198
 2870TIP3   OH2 8615   4.560   2.029   4.986 -0.1312 -0.3585  0.1611
 2870TIP3    H1 8616   4.589   2.103   4.932 -0.7518  0.0301  0.3469
 2870TIP3    H2 8617   4.485   2.064   5.035 -1.9809 -1.7802 -1.5016
 2871TIP3   OH2 8618   1.029   2.201   0.722 -0.0933  0.1905  0.3225
 2871TIP3    H1 8619   1.055   2.255   0.647 -0.5190  0.7433  0.5687
 2871TIP3    H2 8620   1.088   2.228   0.793 -1.2105  1.3611  0.8482
 2872TIP3   OH2 8621   1.502   3.396   2.724 -0.0159  0.1945 -0.2809
 2872TIP3    H1 8622   1.515   3.433   2.637  0.1755 -1.4607 -0.9910
 2872TIP3    H2 8623   1.433   3.331   2.713  2.5176 -2.7540 -0.1006
 2873TIP3   OH2 8624   3.666   1.838   0.813  0.0694 -0.2530 -0.3276
 2873TIP3    H1 8625   3.629   1.874   0.732 -0.5829  0.3083  0.1996
 2873TIP3    H2 8626   3.648   1.906   0.879 -2.5753 -2.0993  1.0537
 2874TIP3   OH2 8627   1.045   2.850   4.800  0.8629 -0.3831 -0.1712
 2874TIP3    H1 8628   0.977   2.839   4.733 -0.1819  0.9833  0.6251
 2874TIP3    H2 8629   1.125   2.821   4.757 -0.2315 -2.3679 -1.0432
 2875TIP3   OH2 8630   4.725   0.023   1.764  0.3474 -0.1867 -0.0031
 2875TIP3    H1 8631   4.705   0.079   1.839  2.8026  0.2357  0.4206
 2875TIP3    H2 8632   4.689   0.070   1.689 -1.3730 -0.1841  0.7901
 2876TIP3   OH2 8633   4.740   4.339   4.614  0.6012  0.1258 -0.4896
 2876TIP3    H1 8634   4.805   4.339   4.543  1.1444  0.8306 -0.0020
 2876TIP3    H2 8635   4.747   4.426   4.653 -0.7555  0.2689 -0.5286
 2877TIP3   OH2 8636   1.792   5.211   1.172  0.5619  0.1771  0.2278
 2877TIP3    H1 8637   1.810   5.289   1.119  3.0637  0.0493  0.7510
 2877TIP3    H2 8638   1.876   5.165   1.176 -0.1923 -1.1759  2.1183
 2878TIP3   OH2 8639   4.608   5.071   1.072  0.0411 -0.5412 -0.4538
 2878TIP3    H1 8640   4.579   5.020   1.148  2.7650 -1.1639  0.2694
 2878TIP3    H2 8641   4.672   5.132   1.108  0.8025 -0.3030 -2.1538
 2879TIP3   OH2 8642   5.617   4.499   0.576 -0.4197 -0.2723  0.3452
 2879TIP3    H1 8643   5.527   4.490   0.545 -0.6066  1.0509  0.4506
 2879TIP3    H2 8644   5.618   4.583   0.622  0.6791 -0.6421  1.0259
 2880TIP3   OH2 8645   3.604   1.619   1.002 -0.7134 -0.5196 -0.5792
 2880TIP3    H1 8646   3.650   1.695   0.965 -1.6940  0.4226  0.0448
 2880TIP3    H2 8647   3.673   1.559   1.029  0.2197  1.1110  0.8806
 2881TIP3   OH2 8648   5.966   3.308   2.421  0.0722 -0.4555 -0.6731
 2881TIP3    H1 8649   5.889   3.364   2.434 -0.1410 -1.0053  0.5644
 2881TIP3    H2 8650   6.001   3.294   2.509  0.3401 -1.9532 -0.9862
 2882TIP3   OH2 8651   1.091   5.652   4.456 -0.3346  0.2395 -0.4826
 2882TIP3    H1 8652   1.149   5.602   4.399 -1.5998 -1.6018 -0.2576
 2882TIP3    H2 8653   1.128   5.740   4.458  2.5426 -0.8609 -0.2176
 2883TIP3   OH2 8654   3.447   2.619   3.710  0.1815  0.0061  0.1854
 2883TIP3    H1 8655   3.462   2.623   3.805 -1.2881 -0.6085  0.4630
 2883TIP3    H2 8656   3.496   2.542   3.682  0.6422  0.2022  0.4309
 2884TIP3   OH2 8657   0.909   1.749   1.647  0.1700 -0.2534  0.4822
 2884TIP3    H1 8658   0.814   1.762   1.653  0.1199  0.1359 -0.7481
 2884TIP3    H2 8659   0.940   1.826   1.599  1.0800 -0.4969  0.6644
 2885TIP3   OH2 8660   0.714   0.361   0.633  0.0975  0.0109 -0.3235
 2885TIP3    H1 8661   0.653   0.425   0.670  0.1695  0.8548 -1.5922
 2885TIP3    H2 8662   0.691   0.356   0.540  1.0659 -0.6958 -0.5471
 2886TIP3   OH2 8663   4.456   3.512   3.052  0.9770 -0.5345  0.0284
 2886TIP3    H1 8664   4.448   3.535   2.960 -0.2867 -1.0635 -0.0116
 2886TIP3    H2 8665   4.374   3.543   3.092  2.1682  1.1518  1.3048
 2887TIP3   OH2 8666   4.427   3.526   0.732  0.3963  0.0069  0.1258
 2887TIP3    H1 8667   4.361   3.564   0.790 -0.0761  0.8867 -0.9657
 2887TIP3    H2 8668   4.428   3.583   0.655  0.5467 -1.4842 -1.0263
 2888TIP3   OH2 8669   5.846   1.950   2.553 -0.1078 -0.3449 -0.0987
 2888TIP3    H1 8670   5.883   1.967   2.467  2.4663  0.4237  1.0326
 2888TIP3    H2 8671   5.821   1.858   2.551  0.3259 -0.4518 -1.5230
 2889TIP3   OH2 8672   2.847   1.767   0.978 -0.1830 -0.5353 -0.0181
 2889TIP3    H1 8673   2.932   1.724   0.985  0.4386  0.6208 -0.2991
 2889TIP3    H2 8674   2.853   1.821   0.900 -0.7688  0.4270  0.5797
 2890TIP3   OH2 8675   0.621   0.772   4.924 -0.1010  0.1489 -0.3589
 2890TIP3    H1 8676   0.584   0.690   4.893  1.2825 -0.5303 -0.3164
 2890TIP3    H2 8677   0.674   0.747   4.999  0.2192  1.0997 -0.2569
 2891TIP3   OH2 8678   1.284   4.477   2.436 -0.2763  0.0218 -0.0556
 2891TIP3    H1 8679   1.375   4.469   2.464 -0.2838 -0.5419 -0.1901
 2891TIP3    H2 8680   1.288   4.536   2.360  0.2698 -1.6695 -1.4231
 2892TIP3   OH2 8681   0.877   4.349   0.571 -0.3900  0.0777  0.3217
 2892TIP3    H1 8682   0.852   4.263   0.605 -1.5023 -1.3022 -3.5314
 2892TIP3    H2 8683   0.802   4.405   0.592 -0.2891 -0.2077  1.5575
 2893TIP3   OH2 8684   0.486   1.206   4.381  0.1572 -0.0418 -0.5331
 2893TIP3    H1 8685   0.548   1.277   4.366 -0.8573  1.4766  1.8229
 2893TIP3    H2 8686   0.412   1.227   4.324  0.4559 -0.0693 -0.9424
 2894TIP3   OH2 8687   6.071   3.995   3.073 -0.2089  0.2110  0.1610
 2894TIP3    H1 8688   6.145   4.054   3.058  0.1674  0.0521  1.3147
 2894TIP3    H2 8689   6.019   4.001   2.993  0.3739  1.3100 -0.1497
 2895TIP3   OH2 8690   4.021   3.528   5.094  0.0546 -0.1906  0.0906
 2895TIP3    H1 8691   4.028   3.512   5.000  0.2441  0.5021 -0.0153
 2895TIP3    H2 8692   3.931   3.502   5.116  0.6273 -2.3365  0.1261
 2896TIP3   OH2 8693   1.313   1.656   4.298 -0.1157 -0.5088  0.4850
 2896TIP3    H1 8694   1.253   1.601   4.349 -1.3472  1.4105  1.2161
 2896TIP3    H2 8695   1.386   1.598   4.276 -0.9539 -2.1926  1.9092
 2897TIP3   OH2 8696   3.927   1.568   3.143  0.0262  0.4798  0.1214
 2897TIP3    H1 8697   3.965   1.549   3.057 -0.6858 -2.2860  0.3154
 2897TIP3    H2 8698   3.997   1.610   3.192  1.7145 -1.2566 -0.6741
 2898TIP3   OH2 8699   2.881   5.785   3.517 -0.7570  0.4359 -0.5154
 2898TIP3    H1 8700   2.913   5.755   3.602 -0.6026 -0.1825 -0.7877
 2898TIP3    H2 8701   2.811   5.725   3.495 -1.2341  0.9908 -0.5346
 2899TIP3   OH2 8702   1.533   3.276   1.297  0.1320 -0.1398  0.2494
 2899TIP3    H1 8703   1.604   3.271   1.233  0.2153  0.0744  0.3240
 2899TIP3    H2 8704   1.527   3.187   1.333  1.4483  0.1952  1.4010
 2900TIP3   OH2 8705   6.055   0.865   3.865  0.1081 -0.0294 -0.4911
 2900TIP3    H1 8706   6.145   0.848   3.839  0.8843 -0.4160  2.1854
 2900TIP3    H2 8707   6.052   0.959   3.881  0.5459 -0.2489  1.0234
 2901TIP3   OH2 8708   5.668   1.400   3.805  0.6791 -0.4066  0.2806
 2901TIP3    H1 8709   5.584   1.446   3.805  0.4658 -0.6788 -1.8332
 2901TIP3    H2 8710   5.690   1.391   3.897 -1.7428 -0.5619  0.9293
 2902TIP3   OH2 8711   3.835   1.204   3.660 -0.0505  0.3166  0.0940
 2902TIP3    H1 8712   3.745   1.223   3.631 -0.1276 -0.8145 -0.4812
 2902TIP3    H2 8713   3.869   1.288   3.690 -0.6557  1.1604 -1.4775
 2903TIP3   OH2 8714   5.832   3.510   0.446 -0.5104  0.3368  0.1009
 2903TIP3    H1 8715   5.886   3.589   0.441  0.8391 -0.5559  0.1693
 2903TIP3    H2 8716   5.786   3.508   0.362 -0.0133  0.8216 -0.1900
 2904TIP3   OH2 8717   1.872   3.353   2.754  0.0525 -0.6260 -0.2296
 2904TIP3    H1 8718   1.906   3.275   2.711 -0.6838 -2.0294  1.5870
 2904TIP3    H2 8719   1.816   3.319   2.824  1.2415  1.5043  1.8924
 2905TIP3   OH2 8720   2.248   3.404   1.760  0.4722  0.1328 -0.1862
 2905TIP3    H1 8721   2.318   3.354   1.718 -1.7547 -2.4625 -1.0590
 2905TIP3    H2 8722   2.190   3.430   1.689 -0.4672  0.5662  0.7041
 2906TIP3   OH2 8723   1.461   2.757   0.359 -0.1232 -0.2384 -0.1522
 2906TIP3    H1 8724   1.479   2.839   0.315  0.3876  1.5069  2.9766
 2906TIP3    H2 8725   1.388   2.777   0.418 -0.0178 -2.0330  0.6695
 2907TIP3   OH2 8726   0.570   5.770   1.003  0.5041  0.0379 -0.0897
 2907TIP3    H1 8727   0.616   5.791   0.921  1.7695  0.8495  0.7869
 2907TIP3    H2 8728   0.584   5.676   1.015  1.2762  0.1248 -0.2437
 2908TIP3   OH2 8729   4.085   0.901   0.317  1.1003 -0.0503  0.1370
 2908TIP3    H1 8730   4.152   0.841   0.350 -0.1646 -1.1019  0.9403
 2908TIP3    H2 8731   4.060   0.954   0.393 -1.9611 -2.6074  1.1541
 2909TIP3   OH2 8732   0.298   2.695   4.435  0.4140  0.0931 -0.4378
 2909TIP3    H1 8733   0.277   2.781   4.398 -1.4960  0.1464  0.6157
 2909TIP3    H2 8734   0.331   2.713   4.523  1.2366 -0.2057 -0.6759
 2910TIP3   OH2 8735   2.686   5.778   4.311 -0.1168  0.3647  0.6052
 2910TIP3    H1 8736   2.738   5.798   4.389 -0.9261  1.5951  0.8509
 2910TIP3    H2 8737   2.716   5.691   4.284  1.5772  0.7511  1.1241
 2911TIP3   OH2 8738   4.608   2.241   2.316  0.3637 -0.9393 -0.4838
 2911TIP3    H1 8739   4.517   2.263   2.335  0.8217  1.0104 -0.3359
 2911TIP3    H2 8740   4.634   2.301   2.246  1.9244 -0.4628  0.4361
 2912TIP3   OH2 8741   2.233   2.051   2.853 -0.0298  0.0688 -0.5758
 2912TIP3    H1 8742   2.286   2.126   2.879  1.1456 -0.6448 -0.8204
 2912TIP3    H2 8743   2.206   2.011   2.936  0.7513 -0.1857 -0.4348
 2913TIP3   OH2 8744   0.235   2.299   2.264 -0.1082  0.0478 -0.6286
 2913TIP3    H1 8745   0.199   2.380   2.301  1.6427  0.5722  0.0473
 2913TIP3    H2 8746   0.158   2.245   2.243 -1.3723  2.1900 -1.8748
 2914TIP3   OH2 8747   2.852   5.211   0.562  0.2322 -0.1869  0.4193
 2914TIP3    H1 8748   2.841   5.255   0.646 -2.6953 -1.5723  0.9075
 2914TIP3    H2 8749   2.875   5.280   0.501  0.8429  1.1134  2.0649
 2915TIP3   OH2 8750   1.632   2.809   3.705 -0.3934 -0.3851  0.0804
 2915TIP3    H1 8751   1.564   2.759   3.750  0.6977  0.2530  2.6091
 2915TIP3    H2 8752   1.589   2.841   3.625 -2.2666 -2.0583  0.3385
 2916TIP3   OH2 8753   1.766   1.987   0.553 -0.0786  0.2561  0.4926
 2916TIP3    H1 8754   1.759   1.940   0.636 -0.2956 -0.4240  0.0951
 2916TIP3    H2 8755   1.853   1.965   0.520  0.4147  1.3334  1.0085
 2917TIP3   OH2 8756   0.566   0.858   2.551 -0.7047  0.2197  0.4602
 2917TIP3    H1 8757   0.524   0.773   2.557  0.3746 -0.3557  0.1099
 2917TIP3    H2 8758   0.494   0.920   2.535 -1.2585 -0.9483 -2.1041
 2918TIP3   OH2 8759   1.300   3.396   3.431  0.3693  0.3803 -0.4575
 2918TIP3    H1 8760   1.214   3.388   3.473  0.6831 -0.7125  0.0087
 2918TIP3    H2 8761   1.284   3.379   3.338  0.1381 -0.2028 -0.3132
 2919TIP3   OH2 8762   4.359   3.930   3.866  0.5915  0.0031 -0.5482
 2919TIP3    H1 8763   4.443   3.912   3.907  0.6688  0.6566 -0.4037
 2919TIP3    H2 8764   4.323   4.003   3.917 -1.1910 -1.8270  0.9630
 2920TIP3   OH2 8765   5.671   3.420   0.674  0.3754 -0.2000  0.2670
 2920TIP3    H1 8766   5.703   3.462   0.754  1.3698 -1.5623  0.6248
 2920TIP3    H2 8767   5.723   3.459   0.604 -0.3506  0.8447  0.2931
 2921TIP3   OH2 8768   4.483   2.150   2.025 -0.7076 -0.2173 -0.1311
 2921TIP3    H1 8769   4.560   2.207   2.029  0.1453 -1.3127 -0.3207
 2921TIP3    H2 8770   4.456   2.152   1.933 -0.9757  0.2427 -0.0464
 2922TIP3   OH2 8771   1.210   3.024   2.432 -0.0879  0.5585  0.0299
 2922TIP3    H1 8772   1.120   2.994   2.417 -0.2510  0.4742  1.1342
 2922TIP3    H2 8773   1.209   3.117   2.411 -0.8025  0.8941  1.4592
 2923TIP3   OH2 8774   2.664   1.209   2.440 -0.4312 -0.1004  0.3046
 2923TIP3    H1 8775   2.590   1.266   2.418 -2.9905 -2.8773  1.0151
 2923TIP3    H2 8776   2.686   1.230   2.531  0.1011  1.1513 -0.1005
 2924TIP3   OH2 8777   1.547   3.282   5.133  0.7434  0.5471  0.0134
 2924TIP3    H1 8778   1.491   3.334   5.076 -0.5448 -1.1000 -0.3112
 2924TIP3    H2 8779   1.568   3.205   5.081  1.8189  0.2976  0.8030
 2925TIP3   OH2 8780   0.924   5.742   2.671 -0.6178  0.0501 -0.6260
 2925TIP3    H1 8781   0.995   5.695   2.628 -1.1829  0.0783 -1.6208
 2925TIP3    H2 8782   0.903   5.688   2.748  0.1315 -0.2243 -0.6101
 2926TIP3   OH2 8783   6.181   2.551   2.584 -0.0517  0.5432 -0.0049
 2926TIP3    H1 8784   6.113   2.492   2.616  0.7067 -0.7374 -0.6940
 2926TIP3    H2 8785   6.142   2.638   2.592 -0.9723  0.0365  1.6209
 2927TIP3   OH2 8786   2.073   3.150   2.676  0.2456  0.2199 -0.4297
 2927TIP3    H1 8787   2.169   3.148   2.676  0.2576  0.7036 -0.2369
 2927TIP3    H2 8788   2.048   3.096   2.601  0.6996  1.3645 -1.4394
 2928TIP3   OH2 8789   3.740   4.999   2.116 -0.2963  0.1995 -0.6992
 2928TIP3    H1 8790   3.807   4.973   2.053 -0.1977  0.4404 -0.6953
 2928TIP3    H2 8791   3.766   5.086   2.145  1.2140 -0.9652  1.7646
 2929TIP3   OH2 8792   2.526   2.310   1.217  0.2989 -0.1684 -0.0799
 2929TIP3    H1 8793   2.466   2.269   1.154 -1.6179  2.3159 -0.0381
 2929TIP3    H2 8794   2.517   2.256   1.296  2.1297 -2.8449 -1.5317
 2930TIP3   OH2 8795   4.922   2.161   3.556  0.2682 -0.1305 -0.3602
 2930TIP3    H1 8796   5.013   2.145   3.581  0.4430 -1.0676 -1.5031
 2930TIP3    H2 8797   4.927   2.193   3.466 -0.3579  2.8746  0.5716
 2931TIP3   OH2 8798   1.189   3.625   1.917 -0.1334 -0.3132 -0.6244
 2931TIP3    H1 8799   1.145   3.543   1.898 -0.9002  0.1599 -0.9514
 2931TIP3    H2 8800   1.191   3.631   2.012 -1.6946  0.1192 -0.5890
 2932TIP3   OH2 8801   0.860   4.858   3.118  0.5912 -0.5169 -1.0429
 2932TIP3    H1 8802   0.906   4.775   3.133 -0.7179 -0.8357  1.7868
 2932TIP3    H2 8803   0.773   4.832   3.089  0.2988 -0.1381 -0.5193
 2933TIP3   OH2 8804   4.064   1.133   3.529  0.3070 -0.3176 -0.0862
 2933TIP3    H1 8805   3.982   1.178   3.548 -0.8262 -2.6589  0.8472
 2933TIP3    H2 8806   4.113   1.138   3.611  0.7164  0.2599 -0.3589
 2934TIP3   OH2 8807   5.455   1.118   3.033  0.2315  0.0261  0.4151
 2934TIP3    H1 8808   5.457   1.048   3.098 -0.1838 -0.3690  0.0158
 2934TIP3    H2 8809   5.382   1.095   2.976 -2.0969  2.4602  2.1369
 2935TIP3   OH2 8810   0.509   2.414   3.118 -0.2417  0.1987  0.0233
 2935TIP3    H1 8811   0.531   2.330   3.157 -1.0036 -0.4132 -0.8004
 2935TIP3    H2 8812   0.510   2.476   3.191  1.1881 -0.3401  0.4941
 2936TIP3   OH2 8813   2.861   3.953   0.097 -0.3757 -0.1074 -1.2169
 2936TIP3    H1 8814   2.793   3.885   0.090 -1.6810  0.8945  0.7936
 2936TIP3    H2 8815   2.854   4.002   0.015 -0.2459 -1.6330 -2.1720
 2937TIP3   OH2 8816   3.119   4.259   4.730 -0.1317 -0.2590 -0.1604
 2937TIP3    H1 8817   3.177   4.228   4.800 -0.3472 -0.5337 -0.1034
 2937TIP3    H2 8818   3.065   4.183   4.708  1.0474 -0.6952 -1.7943
 2938TIP3   OH2 8819   5.420   4.350   1.910 -0.1678 -0.4845 -0.4966
 2938TIP3    H1 8820   5.432   4.277   1.970 -0.0539  0.3200  0.4718
 2938TIP3    H2 8821   5.373   4.416   1.960 -0.0919  0.1995 -1.2912
 2939TIP3   OH2 8822   2.233   3.008   0.159  0.6443 -0.0011  0.0642
 2939TIP3    H1 8823   2.242   2.968   0.245  1.2678  0.0524  0.0314
 2939TIP3    H2 8824   2.219   3.101   0.176 -2.5743 -0.4139  0.2011
 2940TIP3   OH2 8825   5.788   2.968   0.104  0.3319  0.4377  0.2119
 2940TIP3    H1 8826   5.814   2.879   0.084 -3.2476 -0.6658 -0.2179
 2940TIP3    H2 8827   5.721   2.989   0.039 -0.4026  2.6680  1.5615
 2941TIP3   OH2 8828   0.858   2.970   2.145 -0.0846  0.2101 -0.1764
 2941TIP3    H1 8829   0.938   3.020   2.126  0.2939 -0.2491  0.2084
 2941TIP3    H2 8830   0.787   3.034   2.132  0.3533  0.6877 -0.2783
 2942TIP3   OH2 8831   4.942   4.600   5.040 -0.2454 -0.1305  0.5105
 2942TIP3    H1 8832   4.889   4.522   5.056  1.1374 -1.3342 -0.4909
 2942TIP3    H2 8833   4.936   4.613   4.945  0.1072  0.5635  0.5812
 2943TIP3   OH2 8834   1.995   4.773   0.380  0.1109 -0.4014  0.1916
 2943TIP3    H1 8835   2.004   4.697   0.322  1.5947  0.0417 -0.2001
 2943TIP3    H2 8836   2.055   4.757   0.452 -0.4526 -0.1399  0.7389
 2944TIP3   OH2 8837   6.188   2.183   4.332 -0.0913 -0.3505 -0.5935
 2944TIP3    H1 8838   6.202   2.094   4.299 -0.7583 -0.1062 -1.6006
 2944TIP3    H2 8839   6.240   2.188   4.412 -1.5335 -2.2754  0.5614
 2945TIP3   OH2 8840   5.383   1.253   3.431  0.0279  0.3470  0.2304
 2945TIP3    H1 8841   5.358   1.327   3.487  1.7663 -0.4900  2.2385
 2945TIP3    H2 8842   5.307   1.194   3.433 -1.4846  2.0674 -1.5958
 2946TIP3   OH2 8843   1.579   3.584   2.511 -0.2448 -0.0025 -0.3066
 2946TIP3    H1 8844   1.674   3.571   2.511 -0.3129 -1.0004  2.2859
 2946TIP3    H2 8845   1.566   3.661   2.456  2.1095  0.4922 -0.2817
 2947TIP3   OH2 8846   0.955   5.307   0.809  0.7484  0.1097  0.4601
 2947TIP3    H1 8847   1.027   5.361   0.842  1.3278 -0.8081  0.7266
 2947TIP3    H2 8848   0.921   5.356   0.735  1.8130  0.4555  0.1735
 2948TIP3   OH2 8849   2.762   1.572   1.478 -0.3345 -0.2018  0.3513
 2948TIP3    H1 8850   2.704   1.505   1.441  1.7524 -1.5934 -0.6212
 2948TIP3    H2 8851   2.797   1.532   1.558 -0.1215  0.2681  0.4929
 2949TIP3   OH2 8852   2.056   4.920   2.289 -0.1348  0.6787 -0.6001
 2949TIP3    H1 8853   2.087   4.877   2.368 -0.6983 -2.1153 -1.7905
 2949TIP3    H2 8854   2.094   4.870   2.217 -1.0108  2.0803 -2.1274
 2950TIP3   OH2 8855   2.068   3.733   0.534  0.4751  0.4757 -0.1120
 2950TIP3    H1 8856   2.121   3.802   0.495 -0.4115  0.4892 -1.3408
 2950TIP3    H2 8857   2.117   3.652   0.518 -0.4181  0.3150 -2.4027
 2951TIP3   OH2 8858   3.818   3.437   2.983 -0.0326  0.9638 -0.5269
 2951TIP3    H1 8859   3.769   3.488   3.048 -1.9789  0.1353 -1.2581
 2951TIP3    H2 8860   3.822   3.349   3.020  0.4987  0.9180 -0.6925
 2952TIP3   OH2 8861   2.111   0.723   3.905 -0.1136  0.9957 -0.2988
 2952TIP3    H1 8862   2.077   0.802   3.946 -3.4270 -0.6090  0.3089
 2952TIP3    H2 8863   2.108   0.742   3.811  0.6622  2.0922 -0.1260
 2953TIP3   OH2 8864   3.256   5.139   4.119 -0.1808 -0.3409  0.2817
 2953TIP3    H1 8865   3.198   5.076   4.076 -1.0059  1.2028 -0.9616
 2953TIP3    H2 8866   3.197   5.193   4.172  0.3026  0.3726  0.1011
 2954TIP3   OH2 8867   4.573   2.393   1.092 -0.2629 -0.5423  0.0372
 2954TIP3    H1 8868   4.483   2.371   1.069  0.0254  0.0555 -1.8299
 2954TIP3    H2 8869   4.565   2.448   1.170 -1.5616  0.0615 -0.4908
 2955TIP3   OH2 8870   0.079   4.357   4.980  0.5153 -0.4495  0.0918
 2955TIP3    H1 8871   0.065   4.263   4.965 -0.8935 -0.3402  0.5593
 2955TIP3    H2 8872  -0.004   4.388   5.015  1.4080  0.6988  1.2996
 2956TIP3   OH2 8873   3.502   3.009   4.046  0.1365 -0.0930 -0.3196
 2956TIP3    H1 8874   3.518   2.945   3.976  0.4926  0.2531 -0.5603
 2956TIP3    H2 8875   3.474   3.088   4.000 -0.5508 -0.1434 -0.0068
 2957TIP3   OH2 8876   0.336   5.629   3.457 -0.5635  0.3810 -0.4374
 2957TIP3    H1 8877   0.300   5.703   3.409 -0.7969  0.1576 -0.6101
 2957TIP3    H2 8878   0.414   5.605   3.408 -1.1813 -0.2926 -1.1253
 2958TIP3   OH2 8879   4.101   2.596   5.034  0.2115  0.5511 -0.0193
 2958TIP3    H1 8880   4.172   2.613   5.095 -0.3415  3.1542  0.0076
 2958TIP3    H2 8881   4.026   2.575   5.090  0.4067  0.0385  0.0523
 2959TIP3   OH2 8882   1.173   1.915   1.056  0.0050 -0.2599  0.0515
 2959TIP3    H1 8883   1.089   1.900   1.099 -0.4352  0.7406 -0.4147
 2959TIP3    H2 8884   1.182   2.010   1.052  0.3573 -0.3162 -1.4174
 2960TIP3   OH2 8885   4.473   4.037   4.235 -0.2979 -0.0508 -0.0361
 2960TIP3    H1 8886   4.417   4.114   4.244 -1.0339 -0.3781 -1.5064
 2960TIP3    H2 8887   4.539   4.061   4.170  0.9214  0.1107  1.2200
 2961TIP3   OH2 8888   3.521   1.609   2.189  0.7509 -0.0892  0.8564
 2961TIP3    H1 8889   3.550   1.617   2.098  0.8750 -0.5944  0.8504
 2961TIP3    H2 8890   3.592   1.648   2.240  0.4035  0.7647  0.7054
 2962TIP3   OH2 8891   1.944   4.460   0.511  0.2882 -0.2102  0.2390
 2962TIP3    H1 8892   1.858   4.501   0.504  0.5033  0.6855  2.0746
 2962TIP3    H2 8893   1.943   4.391   0.445 -1.5362  0.2779 -0.3176
 2963TIP3   OH2 8894   2.417   0.206   0.435 -0.3356 -0.3806 -0.1509
 2963TIP3    H1 8895   2.371   0.158   0.504 -0.0494 -2.0639 -1.0838
 2963TIP3    H2 8896   2.510   0.192   0.453 -0.1232  2.0688  1.0705
 2964TIP3   OH2 8897   4.035   4.707   1.971 -0.6535  0.0862  0.0902
 2964TIP3    H1 8898   3.996   4.639   1.915 -1.7109  0.4006  0.4182
 2964TIP3    H2 8899   4.128   4.704   1.950 -0.9435 -0.1539 -1.3073
 2965TIP3   OH2 8900   0.325   5.374   4.219 -0.1697 -0.3021  0.0124
 2965TIP3    H1 8901   0.294   5.406   4.304  1.4046 -0.2097  0.5934
 2965TIP3    H2 8902   0.420   5.385   4.223  0.2050 -2.7439 -0.7311
 2966TIP3   OH2 8903   3.546   0.626   2.640  0.4895 -0.2164  0.3700
 2966TIP3    H1 8904   3.476   0.561   2.643  0.0795  0.1800 -0.2979
 2966TIP3    H2 8905   3.523   0.688   2.709 -0.2609  0.3409 -0.3661
 2967TIP3   OH2 8906   4.448   2.221   1.759  0.0828  0.1645 -0.1259
 2967TIP3    H1 8907   4.524   2.192   1.709  1.1777  1.1702  0.9188
 2967TIP3    H2 8908   4.416   2.298   1.711 -1.4317 -1.2982 -1.5942
 2968TIP3   OH2 8909   5.420   3.700   1.039 -0.7327  0.1845 -0.0066
 2968TIP3    H1 8910   5.512   3.698   1.065 -0.3856  0.1447 -1.1720
 2968TIP3    H2 8911   5.379   3.758   1.102  0.4817  1.7634 -0.5911
 2969TIP3   OH2 8912   6.370   4.674   0.903  0.4605  0.6461 -0.2847
 2969TIP3    H1 8913   6.343   4.672   0.995 -0.6237  1.6049 -0.5516
 2969TIP3    H2 8914   6.305   4.619   0.858  0.5493  0.7777 -0.5762
 2970TIP3   OH2 8915   2.016   2.288   1.276 -0.4689 -0.1014  0.2355
 2970TIP3    H1 8916   1.987   2.246   1.357 -2.0520 -1.8386 -1.1232
 2970TIP3    H2 8917   2.104   2.252   1.260 -0.0086  0.5080  1.3007
 2971TIP3   OH2 8918   5.486   0.420   2.912  0.4558  0.3659 -0.4340
 2971TIP3    H1 8919   5.515   0.352   2.973  0.6610  1.9188  1.2914
 2971TIP3    H2 8920   5.407   0.456   2.953 -0.0296  0.7341 -1.6513
 2972TIP3   OH2 8921   1.489   4.503   0.615  0.1342  0.0804 -0.0524
 2972TIP3    H1 8922   1.502   4.515   0.709  0.4480  1.4642 -0.2479
 2972TIP3    H2 8923   1.419   4.439   0.608  1.0037 -1.0555  1.1066
 2973TIP3   OH2 8924   4.352   5.904   2.066  0.0546  0.4281  0.0544
 2973TIP3    H1 8925   4.309   5.985   2.094 -0.2846  0.4956 -0.6384
 2973TIP3    H2 8926   4.359   5.852   2.146 -1.4455  0.3613  0.1816
 2974TIP3   OH2 8927   0.885   4.777   0.614 -0.0846  0.2956  0.2722
 2974TIP3    H1 8928   0.898   4.770   0.708  1.2143 -0.8542  0.0202
 2974TIP3    H2 8929   0.860   4.689   0.586  2.2929 -0.0832 -0.8404
 2975TIP3   OH2 8930   5.596   4.875   3.470  0.0563 -0.6465  0.4319
 2975TIP3    H1 8931   5.577   4.789   3.507 -1.6588  0.3896  2.1384
 2975TIP3    H2 8932   5.510   4.914   3.454  0.7851  0.9140  0.1129
 2976TIP3   OH2 8933   1.735   5.916   5.000 -0.1463  0.8627  0.1990
 2976TIP3    H1 8934   1.793   5.852   5.041  0.4144  2.0482  1.3096
 2976TIP3    H2 8935   1.664   5.928   5.063 -1.7169 -0.6331 -1.1786
 2977TIP3   OH2 8936   1.275   0.198   0.287 -0.0129  0.2481  0.6989
 2977TIP3    H1 8937   1.245   0.215   0.198 -0.9321  1.2721  1.1755
 2977TIP3    H2 8938   1.326   0.275   0.311  1.1276 -0.4920  0.6957
 2978TIP3   OH2 8939   0.834   1.750   5.012  0.2717  0.1727 -0.4517
 2978TIP3    H1 8940   0.826   1.718   5.102 -0.2367 -0.7788 -0.8138
 2978TIP3    H2 8941   0.756   1.804   4.998  1.1141  1.6023  0.1508
 2979TIP3   OH2 8942   5.100   1.619   3.593  0.2379  0.0368  0.2581
 2979TIP3    H1 8943   5.030   1.673   3.555  1.2848  1.3938  0.1679
 2979TIP3    H2 8944   5.108   1.651   3.683  0.2379 -0.6269  0.4968
 2980TIP3   OH2 8945   0.011   0.402   2.339 -0.1956  0.0663  0.1352
 2980TIP3    H1 8946   0.034   0.380   2.249  1.9940  1.0918  0.3654
 2980TIP3    H2 8947  -0.004   0.497   2.337  2.2407  0.5625  1.1846
 2981TIP3   OH2 8948   1.827   2.448   0.028  0.0482  0.1391 -0.5224
 2981TIP3    H1 8949   1.903   2.500   0.001 -0.4888  1.5327  0.4927
 2981TIP3    H2 8950   1.863   2.379   0.083  0.7390 -0.2797 -1.4898
 2982TIP3   OH2 8951   4.367   4.755   4.625  0.1447 -0.1940  0.0657
 2982TIP3    H1 8952   4.369   4.805   4.706  0.6623 -0.0887 -0.0111
 2982TIP3    H2 8953   4.274   4.744   4.606  0.0189 -0.2814  0.7090
 2983TIP3   OH2 8954   3.227   4.977   0.802 -0.2916 -0.0566  0.3378
 2983TIP3    H1 8955   3.227   5.011   0.892 -1.1880 -1.1509  0.7726
 2983TIP3    H2 8956   3.136   4.953   0.786 -0.4644  1.6059 -1.4621
 2984TIP3   OH2 8957   4.310   0.178   0.531  0.2436 -0.6025 -0.1931
 2984TIP3    H1 8958   4.396   0.165   0.492 -0.3793 -0.5614 -1.6133
 2984TIP3    H2 8959   4.321   0.150   0.622  1.9830  0.2553 -0.0905
 2985TIP3   OH2 8960   3.403   0.974   1.483  0.3254  0.7549 -0.0135
 2985TIP3    H1 8961   3.439   0.958   1.570  1.2535 -0.5561 -0.6021
 2985TIP3    H2 8962   3.467   1.031   1.441  0.2159  0.8446 -0.0585
 2986TIP3   OH2 8963   3.175   2.460   5.128 -0.2831  0.1975 -0.1125
 2986TIP3    H1 8964   3.265   2.487   5.110  0.0043 -1.3883 -1.3052
 2986TIP3    H2 8965   3.159   2.486   5.219  1.0138  1.4090 -0.2115
 2987TIP3   OH2 8966   0.324   1.508   2.204 -0.0942  0.1032  0.0538
 2987TIP3    H1 8967   0.355   1.417   2.206  2.5314  0.8076 -2.4321
 2987TIP3    H2 8968   0.295   1.521   2.113 -0.2553  1.8028  0.3266
 2988TIP3   OH2 8969   5.954   3.119   3.470 -0.4334 -0.0046 -0.0273
 2988TIP3    H1 8970   5.917   3.159   3.392  1.1754 -0.3169 -0.9921
 2988TIP3    H2 8971   5.973   3.029   3.445  0.5407  0.0224  0.5438
 2989TIP3   OH2 8972   2.968   5.033   0.247 -0.3198  0.1581 -0.2362
 2989TIP3    H1 8973   3.042   5.051   0.189  1.1248 -1.1585  1.1252
 2989TIP3    H2 8974   2.922   5.117   0.254  0.5377  0.8009 -1.7629
 2990TIP3   OH2 8975   1.815   5.869   2.509  0.5842  0.1959  0.3347
 2990TIP3    H1 8976   1.761   5.939   2.474 -0.4491 -0.3796  0.7303
 2990TIP3    H2 8977   1.833   5.812   2.434 -2.4838 -1.5906  0.7786
 2991TIP3   OH2 8978   0.785   4.305   0.092 -0.1153  0.6227  0.1501
 2991TIP3    H1 8979   0.694   4.295   0.118 -0.1992 -2.1486 -0.8852
 2991TIP3    H2 8980   0.835   4.273   0.167 -0.1215 -0.5734 -0.3386
 2992TIP3   OH2 8981   3.256   5.418   5.196 -0.4897 -0.2370  0.1306
 2992TIP3    H1 8982   3.197   5.383   5.130 -0.1514 -0.5054 -0.0283
 2992TIP3    H2 8983   3.224   5.507   5.211  0.2702  0.3424 -1.4242
 2993TIP3   OH2 8984   2.115   3.344   2.916 -0.0103 -0.1331 -0.3381
 2993TIP3    H1 8985   2.176   3.308   2.851 -1.1372 -0.8275 -1.0412
 2993TIP3    H2 8986   2.038   3.370   2.865 -0.3845  0.5889  0.5536
 2994TIP3   OH2 8987   6.367   0.459   4.849  0.3662 -0.5012 -0.1489
 2994TIP3    H1 8988   6.271   0.457   4.850  0.3791 -1.8297  0.4605
 2994TIP3    H2 8989   6.392   0.450   4.941  1.0851  0.1256 -0.2717
 2995TIP3   OH2 8990   1.997   0.304   1.926  0.0893  0.0274  0.2107
 2995TIP3    H1 8991   2.066   0.287   1.862 -1.4017  1.6451 -2.0061
 2995TIP3    H2 8992   2.043   0.317   2.009  2.7237  2.9893 -1.4903
 2996TIP3   OH2 8993   0.632   2.350   1.292 -0.8449  0.2437  0.2259
 2996TIP3    H1 8994   0.694   2.281   1.313  0.3758  0.5799 -1.9554
 2996TIP3    H2 8995   0.548   2.317   1.322 -0.4337 -2.5340 -1.3559
 2997TIP3   OH2 8996   3.602   4.456   3.732 -0.6806 -0.2849  0.0898
 2997TIP3    H1 8997   3.608   4.549   3.710 -1.9222  0.5016  2.5942
 2997TIP3    H2 8998   3.603   4.411   3.648 -2.9005  2.1873 -1.4301
 2998TIP3   OH2 8999   4.844   1.566   3.454 -0.1581  0.0094 -0.1387
 2998TIP3    H1 9000   4.894   1.647   3.445 -0.0912 -0.0996 -0.7904
 2998TIP3    H2 9001   4.761   1.592   3.493  0.7499  0.0694  1.8350
 2999TIP3   OH2 9002   3.719   4.434   4.586  0.3974 -0.4261 -0.5370
 2999TIP3    H1 9003   3.704   4.340   4.590 -0.2831 -0.2842  1.2755
 2999TIP3    H2 9004   3.633   4.471   4.566  0.5785 -0.1691 -0.8532
 3000TIP3   OH2 9005   5.663   0.057   3.817  0.1065 -0.0877 -0.0411
 3000TIP3    H1 9006   5.693   0.108   3.741 -0.1039  0.4639  0.2414
 3000TIP3    H2 9007   5.591   0.003   3.782 -2.4290  2.6927  0.4458
 3001TIP3   OH2 9008   0.795   3.002   5.080 -0.0493 -0.2328 -0.3934
 3001TIP3    H1 9009   0.787   2.982   4.987 -2.6338 -0.0348 -0.2910
 3001TIP3    H2 9010   0.768   3.094   5.087  0.3718 -0.1653  0.5364
 3002TIP3   OH2 9011   6.018   2.999   4.562 -0.0843 -0.4927  0.0103
 3002TIP3    H1 9012   6.012   2.936   4.635  1.6512 -0.2447  0.3978
 3002TIP3    H2 9013   6.084   3.062   4.590  0.7031 -0.4416 -1.8210
 3003TIP3   OH2 9014   2.795   4.906   2.379 -0.6723  0.0233  0.1949
 3003TIP3    H1 9015   2.704   4.893   2.407 -0.1219  0.3279  2.2710
 3003TIP3    H2 9016   2.848   4.869   2.449  0.8645 -1.1009 -1.4534
 3004TIP3   OH2 9017   2.238   2.734   3.464 -0.1443  0.5674  0.2597
 3004TIP3    H1 9018   2.327   2.712   3.493  0.2578  0.2887 -1.1205
 3004TIP3    H2 9019   2.249   2.762   3.373 -1.6316 -0.7264 -0.3530
 3005TIP3   OH2 9020   5.747   5.364   0.908  0.2179 -0.3196  0.6613
 3005TIP3    H1 9021   5.732   5.454   0.881 -0.0350 -0.2094  1.1573
 3005TIP3    H2 9022   5.814   5.371   0.976  1.6408 -0.6885 -0.6420
 3006TIP3   OH2 9023   1.493   0.634   2.921  0.0601 -0.0238  0.3152
 3006TIP3    H1 9024   1.561   0.577   2.957  0.5883  0.6582  0.4007
 3006TIP3    H2 9025   1.424   0.634   2.988  0.0000 -0.6562  0.2577
 3007TIP3   OH2 9026   3.343   4.453   0.112 -0.4387 -0.7448  0.0049
 3007TIP3    H1 9027   3.273   4.396   0.080 -1.6461  1.2812 -1.1878
 3007TIP3    H2 9028   3.380   4.492   0.033 -0.0084  0.5084  0.7981
 3008TIP3   OH2 9029   4.314   4.829   4.314 -0.2989  0.4354  0.3640
 3008TIP3    H1 9030   4.396   4.868   4.342 -0.5638  2.5206 -1.4422
 3008TIP3    H2 9031   4.250   4.900   4.321 -1.2210 -0.1601 -1.3542
 3009TIP3   OH2 9032   0.258   1.278   3.900  0.0745 -0.2205  0.0749
 3009TIP3    H1 9033   0.226   1.227   3.975 -0.4405  0.5258  0.3675
 3009TIP3    H2 9034   0.264   1.368   3.933  0.1446  0.0582 -0.6900
 3010TIP3   OH2 9035   2.083   3.212   0.622 -0.3406 -0.7942  0.6235
 3010TIP3    H1 9036   2.004   3.247   0.664 -0.4004 -0.9071  0.6055
 3010TIP3    H2 9037   2.058   3.125   0.593 -0.5128 -0.4555 -0.2679
 3011TIP3   OH2 9038   2.269   3.723   4.130 -0.0995 -0.1559  0.4943
 3011TIP3    H1 9039   2.224   3.722   4.046  0.0925 -1.0509  0.3882
 3011TIP3    H2 9040   2.350   3.771   4.114  0.9200 -2.0659 -0.3897
 3012TIP3   OH2 9041   0.056   3.861   3.085 -0.4643 -0.6186  0.3858
 3012TIP3    H1 9042  -0.037   3.872   3.102 -0.6113  0.0551 -0.7293
 3012TIP3    H2 9043   0.096   3.944   3.111 -0.3947 -0.3742 -0.4510
 3013TIP3   OH2 9044   6.292   5.227   1.419 -0.3317  0.0274 -0.3168
 3013TIP3    H1 9045   6.215   5.221   1.476 -0.9749 -2.5673 -1.3131
 3013TIP3    H2 9046   6.354   5.280   1.468 -1.6181 -0.3714  1.8929
 3014TIP3   OH2 9047   2.020   5.788   4.696 -0.0643 -0.2798 -0.1440
 3014TIP3    H1 9048   2.015   5.694   4.714 -0.2169 -0.0010  1.4077
 3014TIP3    H2 9049   2.086   5.820   4.757 -1.1915  0.8696  0.5161
 3015TIP3   OH2 9050   5.197   3.022   0.643 -0.0300 -0.3102  0.1157
 3015TIP3    H1 9051   5.126   3.086   0.633 -0.0024 -0.5430 -2.1576
 3015TIP3    H2 9052   5.248   3.031   0.562  1.3924 -1.5205  0.8389
 3016TIP3   OH2 9053   0.530   2.986   2.714  0.1151 -0.3837 -0.1977
 3016TIP3    H1 9054   0.455   2.969   2.771  0.1993 -0.5134 -0.1257
 3016TIP3    H2 9055   0.600   2.931   2.748  0.2745 -0.1864 -0.2025
 3017TIP3   OH2 9056   6.291   2.999   4.088 -0.6901  0.0941  0.0943
 3017TIP3    H1 9057   6.240   2.985   4.009 -1.2328 -0.8378  0.5901
 3017TIP3    H2 9058   6.381   3.007   4.058 -0.7075 -1.6214 -0.5306
 3018TIP3   OH2 9059   0.337   3.064   0.334 -0.3351  0.4621  0.1149
 3018TIP3    H1 9060   0.275   3.027   0.397  0.3294 -1.2954 -0.2273
 3018TIP3    H2 9061   0.408   3.099   0.389 -0.7398  0.8345  0.4137
 3019TIP3   OH2 9062   3.140   2.733   4.607  0.3214  0.2336  0.0288
 3019TIP3    H1 9063   3.174   2.776   4.685  4.5911 -1.8252 -0.4032
 3019TIP3    H2 9064   3.082   2.664   4.641 -1.0822  1.8388  1.0407
 3020TIP3   OH2 9065   3.377   0.115   2.486 -0.3303  0.9272  0.1009
 3020TIP3    H1 9066   3.295   0.162   2.499  0.7716  2.7662  0.8339
 3020TIP3    H2 9067   3.373   0.040   2.545 -1.6096  0.7771 -0.1530
 3021TIP3   OH2 9068   2.380   5.522   0.500 -0.4453  0.5048 -0.3436
 3021TIP3    H1 9069   2.318   5.451   0.483 -0.0108  0.2582 -0.9343
 3021TIP3    H2 9070   2.334   5.579   0.561 -1.3352  0.4321 -0.9247
 3022TIP3   OH2 9071   5.769   3.807   4.116  0.2199 -0.6620  0.5601
 3022TIP3    H1 9072   5.833   3.868   4.152 -0.8911  0.5944  0.4857
 3022TIP3    H2 9073   5.811   3.770   4.038  0.8992  0.0156  0.6012
 3023TIP3   OH2 9074   3.466   2.597   2.305 -0.4023 -0.2201  0.1518
 3023TIP3    H1 9075   3.461   2.522   2.245  0.1031 -0.1455  0.0188
 3023TIP3    H2 9076   3.494   2.670   2.251 -1.5989  0.2423  0.1329
 3024TIP3   OH2 9077   2.940   1.435   0.878  0.9267  0.2149 -0.1592
 3024TIP3    H1 9078   2.953   1.438   0.972 -0.4423 -0.4324  0.0738
 3024TIP3    H2 9079   2.979   1.353   0.850  0.5623 -0.0099 -0.0150
 3025TIP3   OH2 9080   4.968   5.259   3.922 -0.2367  0.5078  0.6623
 3025TIP3    H1 9081   4.887   5.308   3.908 -0.1997  0.2297 -0.6714
 3025TIP3    H2 9082   4.941   5.179   3.966 -0.4287  1.2575  1.9440
 3026TIP3   OH2 9083   3.707   5.743   2.465 -0.3679  0.6886 -0.1324
 3026TIP3    H1 9084   3.686   5.793   2.544 -1.0255  0.3698 -0.0983
 3026TIP3    H2 9085   3.774   5.681   2.493  0.2562  1.3600 -0.1105
 3027TIP3   OH2 9086   1.407   1.247   4.095  0.1648 -0.1614 -0.0079
 3027TIP3    H1 9087   1.313   1.238   4.109  0.2765  0.7675  1.7207
 3027TIP3    H2 9088   1.425   1.339   4.117  1.4030 -0.2106 -0.7490
 3028TIP3   OH2 9089   5.031   0.023   3.357 -0.2350  0.2332  0.1842
 3028TIP3    H1 9090   5.028  -0.022   3.441  0.7577  0.0760  0.1471
 3028TIP3    H2 9091   4.939   0.031   3.330 -0.6154  0.9042  1.5995
 3029TIP3   OH2 9092   5.277   1.901   0.136  0.0277  0.3395  0.1651
 3029TIP3    H1 9093   5.349   1.957   0.108 -1.0822  1.2063 -1.0619
 3029TIP3    H2 9094   5.250   1.936   0.221  1.6139 -0.5720  1.0871
 3030TIP3   OH2 9095   2.378   0.066   1.484  0.1845  0.7357  0.0489
 3030TIP3    H1 9096   2.443   0.121   1.530  1.1464 -1.0904  0.9662
 3030TIP3    H2 9097   2.401   0.076   1.392  0.2023  2.0145  0.1617
 3031TIP3   OH2 9098   2.338   3.719   0.776 -0.8071 -0.3588 -0.4501
 3031TIP3    H1 9099   2.330   3.800   0.827 -0.8986 -0.2432 -0.6457
 3031TIP3    H2 9100   2.319   3.649   0.838  1.0022 -0.3492  0.1812
 3032TIP3   OH2 9101   4.299   4.721   1.018  0.4800 -0.0066  0.0264
 3032TIP3    H1 9102   4.220   4.774   1.012  0.2404 -0.4950 -2.0359
 3032TIP3    H2 9103   4.283   4.661   1.091 -0.2540  1.1293  0.8164
 3033TIP3   OH2 9104   2.414   5.839   1.828 -0.1312  1.0529  0.5866
 3033TIP3    H1 9105   2.439   5.800   1.912 -0.7579 -2.2523 -0.6210
 3033TIP3    H2 9106   2.495   5.878   1.794  1.2618 -1.4238  0.8358
 3034TIP3   OH2 9107   5.807   5.248   4.838  0.6948 -0.0600 -0.2695
 3034TIP3    H1 9108   5.733   5.307   4.853  1.3055  0.6395  0.0904
 3034TIP3    H2 9109   5.809   5.236   4.744 -1.0102 -1.6116 -0.1615
 3035TIP3   OH2 9110   2.057   0.512   1.627  0.1578  0.3379 -0.1221
 3035TIP3    H1 9111   1.968   0.514   1.664  0.0827  1.9797 -0.3112
 3035TIP3    H2 9112   2.057   0.436   1.569 -1.6195  1.1392 -1.2560
 3036TIP3   OH2 9113   6.257   1.006   5.156  0.1528  0.7201  0.2590
 3036TIP3    H1 9114   6.263   0.928   5.101  0.1988  0.6816  0.3192
 3036TIP3    H2 9115   6.197   1.064   5.109  1.4680  1.3696 -0.6881
 3037TIP3   OH2 9116   5.614   2.331   2.253  0.7464  0.2030  0.4765
 3037TIP3    H1 9117   5.705   2.355   2.232  1.1404 -1.6617 -0.1462
 3037TIP3    H2 9118   5.608   2.343   2.348  1.3786  1.1258  0.4163
 3038TIP3   OH2 9119   3.475   3.881   3.291 -0.2260  0.3275 -0.0967
 3038TIP3    H1 9120   3.531   3.824   3.344  0.6431  1.0779 -0.1828
 3038TIP3    H2 9121   3.510   3.874   3.202 -0.9436 -0.0147 -0.3640
 3039TIP3   OH2 9122   3.292   3.651   1.043  0.0925  0.3134  0.4799
 3039TIP3    H1 9123   3.200   3.664   1.065  0.3570  0.6094  1.4745
 3039TIP3    H2 9124   3.302   3.691   0.957 -0.6044  0.7022  0.5691
 3040TIP3   OH2 9125   5.862   2.356   0.149  0.0285 -0.2792  0.0857
 3040TIP3    H1 9126   5.778   2.397   0.170  0.3290  0.5693 -0.2926
 3040TIP3    H2 9127   5.841   2.263   0.136 -0.2830 -0.7670  3.3385
 3041TIP3   OH2 9128   3.266   0.590   4.394 -0.3682  0.2918 -0.2820
 3041TIP3    H1 9129   3.248   0.505   4.353  0.2610  0.1901 -0.3526
 3041TIP3    H2 9130   3.288   0.648   4.321 -0.1719  0.3545 -0.1740
 3042TIP3   OH2 9131   0.884   1.872   3.991  0.9912  0.2468  0.2877
 3042TIP3    H1 9132   0.973   1.895   3.963  1.4928 -0.0766  1.5811
 3042TIP3    H2 9133   0.895   1.830   4.076 -0.4978  1.3417  1.0739
 3043TIP3   OH2 9134   1.540   3.729   0.613  0.0729 -0.8395 -0.1868
 3043TIP3    H1 9135   1.585   3.768   0.538 -3.1536  1.7536 -1.0404
 3043TIP3    H2 9136   1.469   3.678   0.574 -1.2879  0.0501  1.0320
 3044TIP3   OH2 9137   3.123   2.089   2.870 -0.3352  0.2477  0.5484
 3044TIP3    H1 9138   3.080   2.092   2.784 -0.8456  0.2566  0.8035
 3044TIP3    H2 9139   3.213   2.061   2.850 -1.0467 -2.0024  0.2247
 3045TIP3   OH2 9140   5.280   4.120   0.086 -0.5079 -0.0048  0.3318
 3045TIP3    H1 9141   5.241   4.181   0.149  2.2210 -0.0106  2.2180
 3045TIP3    H2 9142   5.369   4.152   0.074  0.6164 -2.8279  0.3871
 3046TIP3   OH2 9143   3.800   5.583   3.315  0.2312 -0.1202  0.4720
 3046TIP3    H1 9144   3.859   5.525   3.268  0.7876 -1.1032  2.2672
 3046TIP3    H2 9145   3.713   5.544   3.303  0.2512  0.0641 -0.3204
 3047TIP3   OH2 9146   3.132   3.054   1.835  0.8871  0.2523  0.3339
 3047TIP3    H1 9147   3.093   2.967   1.847  0.5148  0.3569 -0.0947
 3047TIP3    H2 9148   3.077   3.096   1.770  0.8566  0.9454  0.8005
 3048TIP3   OH2 9149   2.581   1.672   4.756 -0.3046  0.1616  0.3364
 3048TIP3    H1 9150   2.488   1.649   4.754 -0.2934  0.0967  0.5277
 3048TIP3    H2 9151   2.614   1.646   4.670 -0.3470 -0.3127  0.4592
 3049TIP3   OH2 9152   0.212   0.400   3.856  0.0370 -0.2141  0.0610
 3049TIP3    H1 9153   0.302   0.419   3.882  0.1334 -1.4036  0.6674
 3049TIP3    H2 9154   0.191   0.467   3.792  2.5694 -1.9686 -2.8596
 3050TIP3   OH2 9155   5.512   0.289   3.178  0.1098  0.1025 -0.4500
 3050TIP3    H1 9156   5.440   0.280   3.241  0.0878 -1.2239 -0.6438
 3050TIP3    H2 9157   5.509   0.209   3.127  0.2309  1.0864 -2.0551
 3051TIP3   OH2 9158   2.496   4.623   5.184  0.4472 -1.1001 -0.0844
 3051TIP3    H1 9159   2.430   4.674   5.136  0.1107 -0.7485  0.7186
 3051TIP3    H2 9160   2.517   4.549   5.126  1.5745  0.3684 -1.6574
 3052TIP3   OH2 9161   4.587   5.400   0.241  0.6073 -0.1915  0.4627
 3052TIP3    H1 9162   4.543   5.484   0.229  0.1689 -0.5501 -0.5425
 3052TIP3    H2 9163   4.527   5.350   0.297 -1.6923 -1.6079 -2.8892
 3053TIP3   OH2 9164   4.688   5.794   4.919  0.1247  0.1407 -0.9122
 3053TIP3    H1 9165   4.694   5.867   4.981  0.5919 -0.2578 -0.4773
 3053TIP3    H2 9166   4.658   5.834   4.838  0.3359  0.8126 -0.6683
 3054TIP3   OH2 9167   2.750   5.732   2.414 -0.2097  0.0916  0.3196
 3054TIP3    H1 9168   2.662   5.735   2.453 -0.8388  0.2054 -1.0330
 3054TIP3    H2 9169   2.809   5.754   2.486 -1.3144  0.3344  1.1889
 3055TIP3   OH2 9170   2.459   3.165   5.154  0.5370 -0.0349  0.2472
 3055TIP3    H1 9171   2.426   3.093   5.100 -0.3551 -0.8368  1.7840
 3055TIP3    H2 9172   2.411   3.242   5.124  0.2534 -0.4014 -0.2611
 3056TIP3   OH2 9173   1.315   1.456   0.634 -0.4559  0.5087 -0.5759
 3056TIP3    H1 9174   1.251   1.463   0.704  0.4618  0.9883  0.2372
 3056TIP3    H2 9175   1.280   1.512   0.564 -0.3675  1.7090  0.3081
 3057TIP3   OH2 9176   2.852   0.347   0.908 -0.1859  0.1811 -0.1514
 3057TIP3    H1 9177   2.884   0.436   0.923  0.3486 -0.0307  0.0059
 3057TIP3    H2 9178   2.879   0.299   0.986 -0.5602 -0.0964 -0.1919
 3058TIP3   OH2 9179   5.192   5.903   0.333  0.2724  0.5211 -0.0589
 3058TIP3    H1 9180   5.113   5.946   0.366  0.7845  1.6836 -0.3264
 3058TIP3    H2 9181   5.201   5.935   0.243  0.3180 -0.6491 -0.4979
 3059TIP3   OH2 9182   4.855   2.977   1.977  0.2637 -0.0381 -0.4679
 3059TIP3    H1 9183   4.791   2.908   1.998  0.4391 -0.5698 -1.5936
 3059TIP3    H2 9184   4.801   3.052   1.954  0.0543 -0.1470 -0.3437
 3060TIP3   OH2 9185   6.183   3.813   1.102 -0.6734  0.0016 -0.2104
 3060TIP3    H1 9186   6.149   3.821   1.013 -1.3446 -0.9199 -0.0462
 3060TIP3    H2 9187   6.263   3.762   1.093 -1.6216 -1.5718 -0.1201
 3061TIP3   OH2 9188   4.601   1.635   3.817  0.0705 -0.3269  0.0407
 3061TIP3    H1 9189   4.585   1.648   3.724 -0.6548 -1.1001  0.0499
 3061TIP3    H2 9190   4.691   1.665   3.830  0.1289 -0.0797 -0.8722
 3062TIP3   OH2 9191   5.127   1.079   4.757  0.1500  0.1072 -0.8087
 3062TIP3    H1 9192   5.048   1.109   4.711  0.2494 -1.6681 -2.2018
 3062TIP3    H2 9193   5.110   0.987   4.776  1.6711 -0.1492 -0.6097
 3063TIP3   OH2 9194   5.107   1.718   2.639 -0.2788 -0.1007 -0.2392
 3063TIP3    H1 9195   5.032   1.683   2.688 -0.9631  2.1571  0.4419
 3063TIP3    H2 9196   5.173   1.649   2.645 -1.9167 -1.7543  0.0086
 3064TIP3   OH2 9197   1.767   5.211   2.366  0.0721 -0.1175 -0.0660
 3064TIP3    H1 9198   1.808   5.170   2.289  1.6285  0.3163  0.4906
 3064TIP3    H2 9199   1.814   5.174   2.441 -2.0449 -1.2482  0.7956
 3065TIP3   OH2 9200   2.608   4.335   1.104  0.2436 -0.5428 -0.1952
 3065TIP3    H1 9201   2.636   4.263   1.160 -1.9617 -1.3627 -0.0447
 3065TIP3    H2 9202   2.588   4.407   1.164 -0.0878 -0.7167 -0.0913
 3066TIP3   OH2 9203   1.954   0.209   1.207  0.1240  0.2635 -0.0554
 3066TIP3    H1 9204   2.041   0.232   1.239 -0.3598  2.7555 -0.2673
 3066TIP3    H2 9205   1.894   0.256   1.265 -0.9701  0.2276 -1.1078
 3067TIP3   OH2 9206   3.156   5.676   1.536 -0.4277 -0.0114  0.3821
 3067TIP3    H1 9207   3.094   5.608   1.561  0.5554 -2.0256 -2.1562
 3067TIP3    H2 9208   3.103   5.746   1.497 -1.2333 -1.2713 -0.8618
 3068TIP3   OH2 9209   0.424   1.711   3.650  0.4940 -0.2780 -0.2440
 3068TIP3    H1 9210   0.341   1.698   3.603  0.5668  1.3837 -0.9112
 3068TIP3    H2 9211   0.481   1.641   3.618  0.0410 -0.1160 -1.4697
 3069TIP3   OH2 9212   3.539   0.659   1.811 -0.1680  0.5657 -0.1019
 3069TIP3    H1 9213   3.629   0.631   1.827 -0.7461 -1.4772 -0.1504
 3069TIP3    H2 9214   3.486   0.601   1.865 -1.6076 -0.2486 -2.2504
 3070TIP3   OH2 9215   0.920   0.200   1.271  0.0032  0.1397  0.2420
 3070TIP3    H1 9216   0.835   0.228   1.305 -0.7490  0.8283 -1.9883
 3070TIP3    H2 9217   0.984   0.236   1.333 -1.1583  3.2017 -0.1380
 3071TIP3   OH2 9218   0.533   1.512   5.126  0.1308  0.1304 -0.8716
 3071TIP3    H1 9219   0.484   1.432   5.108  0.0739  0.1994 -1.0252
 3071TIP3    H2 9220   0.489   1.550   5.202 -0.3744  0.4542 -1.3179
 3072TIP3   OH2 9221   5.407   0.215   0.985  0.6169  0.1797 -0.0304
 3072TIP3    H1 9222   5.353   0.277   0.937  0.6334  0.3532  0.1743
 3072TIP3    H2 9223   5.456   0.269   1.047  0.8327 -0.0057 -0.0376
 3073TIP3   OH2 9224   3.812   5.690   5.192 -0.0863 -0.2040 -0.0315
 3073TIP3    H1 9225   3.863   5.613   5.217 -0.7622 -1.0906 -1.2634
 3073TIP3    H2 9226   3.874   5.746   5.144 -0.0564 -0.9150 -0.8454
 3074TIP3   OH2 9227   2.155   3.350   1.503 -0.1599  0.3107 -0.0896
 3074TIP3    H1 9228   2.139   3.367   1.410 -0.8989  2.1043  0.3122
 3074TIP3    H2 9229   2.112   3.266   1.520  0.5196 -0.3539 -1.4812
 3075TIP3   OH2 9230   5.326   3.886   3.856  0.2674 -0.1793  0.3552
 3075TIP3    H1 9231   5.350   3.954   3.919  1.2706  1.4633 -1.6822
 3075TIP3    H2 9232   5.400   3.824   3.858  1.5599  1.2168 -0.9254
 3076TIP3   OH2 9233   4.868   4.089   0.669 -0.2210  0.6615  0.1782
 3076TIP3    H1 9234   4.917   4.101   0.588  0.6595  2.2959  0.9196
 3076TIP3    H2 9235   4.891   4.001   0.699  1.5433  1.0538  0.0309
 3077TIP3   OH2 9236   3.398   0.483   0.340 -0.0701 -0.2857 -0.0816
 3077TIP3    H1 9237   3.485   0.475   0.301  0.6097 -0.0715  1.2921
 3077TIP3    H2 9238   3.349   0.408   0.308  0.4212 -0.0729 -1.3645
 3078TIP3   OH2 9239   2.303   2.685   0.599  0.2646 -0.1136 -0.3884
 3078TIP3    H1 9240   2.366   2.649   0.537  1.4759  0.7801  0.2832
 3078TIP3    H2 9241   2.354   2.699   0.679 -0.7496  0.7882  0.1150
 3079TIP3   OH2 9242   2.911   2.367   0.212 -0.0748 -0.1735 -0.4061
 3079TIP3    H1 9243   2.882   2.276   0.208  1.7298 -0.8034 -0.4618
 3079TIP3    H2 9244   2.997   2.363   0.254 -0.6409  1.7116  1.0589
 3080TIP3   OH2 9245   3.675   2.044   5.137 -0.8653  0.1725 -0.1995
 3080TIP3    H1 9246   3.723   2.007   5.063 -0.9043 -1.0877  0.3805
 3080TIP3    H2 9247   3.584   2.046   5.108 -0.8613 -0.1886 -0.2380
 3081TIP3   OH2 9248   4.358   0.575   3.738 -0.4254 -0.3327  0.3925
 3081TIP3    H1 9249   4.429   0.558   3.799 -0.3578  2.2732  1.1509
 3081TIP3    H2 9250   4.374   0.515   3.665  0.7709 -1.9355  1.8865
 3082TIP3   OH2 9251   4.270   0.781   1.822  0.4929  0.1825  0.5697
 3082TIP3    H1 9252   4.219   0.856   1.792  0.5000  0.4310  1.1755
 3082TIP3    H2 9253   4.303   0.741   1.741  0.2864  0.6836  0.2326
 3083TIP3   OH2 9254   4.688   1.018   0.260  0.1506 -0.2614 -0.7400
 3083TIP3    H1 9255   4.701   1.110   0.233  0.1539 -0.3937 -1.2086
 3083TIP3    H2 9256   4.752   1.004   0.330 -1.8022  0.9382  1.4164
 3084TIP3   OH2 9257   1.963   2.911   4.486 -0.4964 -0.2184 -0.4325
 3084TIP3    H1 9258   2.010   2.939   4.408  0.1225 -2.8354 -1.0922
 3084TIP3    H2 9259   1.933   2.992   4.527  1.0763  1.3218 -2.1799
 3085TIP3   OH2 9260   1.847   1.975   2.952 -0.6194  0.2653  0.1649
 3085TIP3    H1 9261   1.822   1.954   3.042 -0.2226  2.2126  0.7932
 3085TIP3    H2 9262   1.847   1.891   2.906 -0.7409 -0.7873  2.0022
 3086TIP3   OH2 9263   1.238   5.307   0.933 -0.1985  0.1377  0.1627
 3086TIP3    H1 9264   1.300   5.237   0.955  0.7248  0.9019  0.0388
 3086TIP3    H2 9265   1.220   5.294   0.840 -1.6331 -1.1606  0.5833
 3087TIP3   OH2 9266   2.665   0.420   4.266  0.1188  0.7008 -0.4091
 3087TIP3    H1 9267   2.644   0.361   4.339  0.8011  0.8782 -0.0613
 3087TIP3    H2 9268   2.681   0.362   4.192 -1.0670  0.5385 -0.5566
 3088TIP3   OH2 9269   0.731   4.039   2.882  0.0738  0.3514 -0.0810
 3088TIP3    H1 9270   0.708   3.957   2.839  1.9248 -0.3225  0.1463
 3088TIP3    H2 9271   0.763   4.095   2.812 -2.2869  1.3732 -0.4341
 3089TIP3   OH2 9272   1.023   2.366   5.058 -0.5350 -0.3317 -0.4022
 3089TIP3    H1 9273   0.937   2.326   5.071 -1.0591  0.8579  0.0358
 3089TIP3    H2 9274   1.029   2.380   4.963 -0.3356 -1.4346 -0.5550
 3090TIP3   OH2 9275   3.870   5.594   3.741 -0.4794 -0.3487 -0.1976
 3090TIP3    H1 9276   3.851   5.531   3.671  1.8923 -0.3409 -0.9233
 3090TIP3    H2 9277   3.901   5.672   3.695 -0.1030  0.1085  0.8194
 3091TIP3   OH2 9278   6.071   2.103   3.976  0.1511  0.0226 -0.1816
 3091TIP3    H1 9279   6.018   2.179   3.999  0.6121  0.5733 -0.8983
 3091TIP3    H2 9280   6.008   2.033   3.961 -0.5000  1.0030 -2.3609
 3092TIP3   OH2 9281   4.852   5.709   4.375  0.3141  0.2668 -0.0080
 3092TIP3    H1 9282   4.946   5.705   4.356  0.2628 -0.1639 -0.1660
 3092TIP3    H2 9283   4.841   5.654   4.452  0.1667  0.1860 -0.0871
 3093TIP3   OH2 9284   0.164   3.983   2.024 -0.3983  0.5554  0.0268
 3093TIP3    H1 9285   0.086   4.038   2.020 -0.4383  0.6071  1.0825
 3093TIP3    H2 9286   0.132   3.898   2.053  0.0133  0.8042  1.3023
 3094TIP3   OH2 9287   0.912   0.981   0.309 -0.5220  0.2053  0.2212
 3094TIP3    H1 9288   0.984   0.953   0.366 -0.4157 -1.7669 -0.7791
 3094TIP3    H2 9289   0.833   0.948   0.352 -0.4647 -1.0402 -0.5712
 3095TIP3   OH2 9290   1.725   1.639   0.628 -0.0827  0.3133 -0.1479
 3095TIP3    H1 9291   1.775   1.628   0.709 -0.1152 -0.3093 -0.2053
 3095TIP3    H2 9292   1.702   1.549   0.602 -0.0403  0.5061 -0.8682
 3096TIP3   OH2 9293   1.653   2.197   4.771  0.2622  0.2452 -0.5988
 3096TIP3    H1 9294   1.703   2.274   4.798  1.7996 -0.8080 -0.2982
 3096TIP3    H2 9295   1.600   2.228   4.697 -0.0884  1.8685  0.2935
 3097TIP3   OH2 9296   4.503   4.783   3.960 -0.4684 -0.1737  0.0736
 3097TIP3    H1 9297   4.554   4.821   4.031 -0.7372 -1.7344  1.1618
 3097TIP3    H2 9298   4.466   4.703   3.998  1.5755 -2.5536 -2.5990
 3098TIP3   OH2 9299   4.800   3.347   3.650 -0.2477  0.7207  0.1905
 3098TIP3    H1 9300   4.806   3.256   3.677 -2.2278  0.0041 -1.5132
 3098TIP3    H2 9301   4.890   3.375   3.637  0.5077 -0.3378  2.6358
 3099TIP3   OH2 9302   1.551   0.218   1.030  0.0731  0.4634 -0.0633
 3099TIP3    H1 9303   1.474   0.173   1.065 -0.2351  1.8509  1.1308
 3099TIP3    H2 9304   1.535   0.223   0.936 -1.6614  1.3593  0.2414
 3100TIP3   OH2 9305   2.900   2.671   4.345 -0.0183  0.2928  0.1895
 3100TIP3    H1 9306   2.947   2.744   4.386  0.3232 -0.5296  1.3053
 3100TIP3    H2 9307   2.923   2.677   4.252  2.8405 -0.4366  0.7623
 3101TIP3   OH2 9308   5.899   4.496   4.828 -0.2956  0.3064  0.2564
 3101TIP3    H1 9309   5.842   4.427   4.862  2.8897 -2.2828  0.8219
 3101TIP3    H2 9310   5.912   4.555   4.902 -1.9652  0.8315  0.1770
 3102TIP3   OH2 9311   0.894   2.252   3.838  0.5187 -0.6075  0.0461
 3102TIP3    H1 9312   0.876   2.341   3.807 -1.5186 -1.2556 -0.8321
 3102TIP3    H2 9313   0.863   2.250   3.928 -0.0725 -0.6116 -0.1576
 3103TIP3   OH2 9314   2.333   0.047   3.396  0.6420  0.4065 -0.1585
 3103TIP3    H1 9315   2.316  -0.048   3.394 -0.4185  0.4969  1.8427
 3103TIP3    H2 9316   2.248   0.086   3.376  0.9755  0.9288 -0.5401
 3104TIP3   OH2 9317   4.671   3.100   2.268 -0.0540 -0.3258 -0.0838
 3104TIP3    H1 9318   4.688   3.185   2.308  1.7568 -0.4676 -0.4774
 3104TIP3    H2 9319   4.758   3.063   2.251 -0.7571 -2.8538  1.2943
 3105TIP3   OH2 9320   1.475   0.767   4.499  0.2959  0.3364 -0.0113
 3105TIP3    H1 9321   1.389   0.744   4.532  0.0599  0.0306 -0.8073
 3105TIP3    H2 9322   1.468   0.758   4.404  0.8270  1.6001 -0.1894
 3106TIP3   OH2 9323   5.029   5.801   4.680  0.3883  0.3500 -0.0541
 3106TIP3    H1 9324   5.027   5.828   4.589 -0.7310 -0.3951 -0.2659
 3106TIP3    H2 9325   4.991   5.875   4.728 -0.3550  0.1700 -0.3576
 3107TIP3   OH2 9326   1.489   4.416   4.171  0.3105  0.1101 -0.2805
 3107TIP3    H1 9327   1.417   4.409   4.233  0.8662 -0.1898  0.3389
 3107TIP3    H2 9328   1.473   4.346   4.108  0.6902 -0.7238  0.5220
 3108TIP3   OH2 9329   0.292   3.248   0.121 -0.1645  0.0669 -0.7072
 3108TIP3    H1 9330   0.372   3.288   0.087 -0.2311  1.3711  0.6047
 3108TIP3    H2 9331   0.322   3.180   0.181  0.0149  1.4811  0.8636
 3109TIP3   OH2 9332   0.315   1.660   2.437  0.6012 -0.2632 -0.2068
 3109TIP3    H1 9333   0.312   1.622   2.349  1.9738 -1.2168  0.1200
 3109TIP3    H2 9334   0.331   1.585   2.495  1.7029  0.5805  0.6403
 3110TIP3   OH2 9335   0.747   3.784   4.528 -0.5740  0.4504 -0.1347
 3110TIP3    H1 9336   0.797   3.771   4.608 -1.5802 -0.1847  0.4106
 3110TIP3    H2 9337   0.672   3.724   4.536 -0.9610  0.7424 -1.3164
 3111TIP3   OH2 9338   5.577   3.371   4.058 -0.1046  0.9011 -0.2474
 3111TIP3    H1 9339   5.485   3.396   4.070 -0.4475 -0.7848  1.1516
 3111TIP3    H2 9340   5.594   3.386   3.965 -1.0301  3.5035 -0.0924
 3112TIP3   OH2 9341   0.336   1.861   0.193  0.3809 -0.0895  0.3320
 3112TIP3    H1 9342   0.241   1.844   0.191  0.4967 -0.8035  0.5451
 3112TIP3    H2 9343   0.375   1.778   0.164  0.9749 -0.1100  1.1772
 3113TIP3   OH2 9344   3.750   0.172   3.589 -0.0249 -1.0373 -0.1420
 3113TIP3    H1 9345   3.783   0.192   3.677 -1.2035 -2.1232  0.5881
 3113TIP3    H2 9346   3.663   0.134   3.605 -0.1560 -1.4667 -1.7752
 3114TIP3   OH2 9347   4.834   5.007   3.761  0.0921  0.1876 -0.1178
 3114TIP3    H1 9348   4.861   5.011   3.853 -0.2254  0.0142 -0.0154
 3114TIP3    H2 9349   4.801   4.918   3.749  0.6183  0.0452 -0.5403
 3115TIP3   OH2 9350   6.196   4.954   1.778  0.3784  0.4680 -0.3197
 3115TIP3    H1 9351   6.226   4.878   1.828  0.5495  0.8664  0.1851
 3115TIP3    H2 9352   6.229   4.939   1.689  0.1956 -0.1692 -0.2884
 3116TIP3   OH2 9353   2.324   5.741   0.734  0.3007 -1.0331 -0.0449
 3116TIP3    H1 9354   2.237   5.773   0.709  0.2003 -1.1598  0.1385
 3116TIP3    H2 9355   2.384   5.811   0.709  0.1204 -0.8507  0.0347
 3117TIP3   OH2 9356   5.260   0.529   3.000 -0.0324  0.0671 -0.6310
 3117TIP3    H1 9357   5.202   0.484   3.061  0.4315 -0.2787 -0.4315
 3117TIP3    H2 9358   5.223   0.617   2.990 -0.9716 -0.3606 -1.0431
 3118TIP3   OH2 9359   1.431   3.626   0.137 -0.3046  0.0280 -0.0081
 3118TIP3    H1 9360   1.515   3.581   0.143  0.5902  1.3991 -1.4759
 3118TIP3    H2 9361   1.370   3.560   0.103  0.5417 -0.5678 -0.3803
 3119TIP3   OH2 9362   2.533   3.702   2.943  0.3981 -0.3204  0.3073
 3119TIP3    H1 9363   2.446   3.702   2.905  0.4889  1.6059  0.0045
 3119TIP3    H2 9364   2.587   3.657   2.878 -0.3831 -1.7210  0.5983
 3120TIP3   OH2 9365   2.108   1.147   2.753 -0.5414 -0.0823  0.6930
 3120TIP3    H1 9366   2.198   1.120   2.731 -0.2868  0.4149  1.1160
 3120TIP3    H2 9367   2.099   1.233   2.713 -0.7364 -0.0120  0.8909
 3121TIP3   OH2 9368   3.835   2.151   1.781 -0.4129  0.1788  0.1945
 3121TIP3    H1 9369   3.768   2.136   1.847  1.0248  0.1829  1.7163
 3121TIP3    H2 9370   3.880   2.067   1.772 -0.2632  0.3184 -0.4118
 3122TIP3   OH2 9371   1.026   5.816   5.085 -0.3436 -0.2537 -0.0368
 3122TIP3    H1 9372   1.066   5.743   5.132 -1.6206 -0.0931  1.3553
 3122TIP3    H2 9373   0.950   5.778   5.042 -2.0560  0.5311  2.1472
 3123TIP3   OH2 9374   5.258   0.849   2.067  0.1420  0.2362  0.7299
 3123TIP3    H1 9375   5.249   0.763   2.026  0.4004  0.4457  0.2316
 3123TIP3    H2 9376   5.333   0.889   2.024 -0.3072  0.9275  0.5620
 3124TIP3   OH2 9377   2.513   4.783   3.509  0.3365 -0.1429 -0.4143
 3124TIP3    H1 9378   2.534   4.803   3.601 -0.0110 -2.3960  0.2233
 3124TIP3    H2 9379   2.434   4.834   3.491 -0.1034 -0.3377  0.8417
 3125TIP3   OH2 9380   2.120   0.926   5.087  0.1104 -0.6551 -0.5897
 3125TIP3    H1 9381   2.147   0.999   5.031  0.8950 -0.8790 -0.5120
 3125TIP3    H2 9382   2.186   0.923   5.156 -0.1748 -1.1519 -0.3356
 3126TIP3   OH2 9383   5.067   1.275   1.715  0.4630 -0.6927 -0.1205
 3126TIP3    H1 9384   5.097   1.326   1.639  3.7834 -1.0846  0.7833
 3126TIP3    H2 9385   5.061   1.185   1.682  0.3152 -0.6247 -0.2851
 3127TIP3   OH2 9386   6.361   1.461   3.699 -0.1961 -0.1637  0.0360
 3127TIP3    H1 9387   6.387   1.372   3.675 -0.6486 -0.2253 -0.2357
 3127TIP3    H2 9388   6.269   1.453   3.725 -0.2201  0.2164  0.0753
 3128TIP3   OH2 9389   6.126   4.321   3.436 -0.4041 -0.1108 -0.0599
 3128TIP3    H1 9390   6.161   4.408   3.420 -1.0831  0.2542  0.4012
 3128TIP3    H2 9391   6.177   4.287   3.510 -0.2787 -0.0203 -0.1060
 3129TIP3   OH2 9392   6.073   5.766   3.221 -0.3392 -0.2816 -0.4447
 3129TIP3    H1 9393   6.014   5.841   3.231  0.4792  0.3461 -0.1065
 3129TIP3    H2 9394   6.129   5.770   3.299  0.6036 -0.4266 -1.0994
 3130TIP3   OH2 9395   0.339   3.656   4.962  0.3201 -0.1148  0.3986
 3130TIP3    H1 9396   0.289   3.717   4.907 -0.4664 -0.6203  0.5349
 3130TIP3    H2 9397   0.273   3.614   5.017  0.8503 -1.1354  0.2713
 3131TIP3   OH2 9398   1.187   2.859   1.821  0.1243  0.0548  0.1830
 3131TIP3    H1 9399   1.275   2.883   1.849  0.2775  0.4984 -0.6624
 3131TIP3    H2 9400   1.193   2.851   1.726  0.2122 -3.8622  0.3760
 3132TIP3   OH2 9401   0.300   1.631   1.444  0.7600  0.1539  0.8879
 3132TIP3    H1 9402   0.274   1.722   1.460  0.6103  0.5052 -1.1184
 3132TIP3    H2 9403   0.393   1.636   1.424  1.0010 -0.3004  1.8277
 3133TIP3   OH2 9404   0.280   5.746   3.691 -0.2916  0.0906  0.1952
 3133TIP3    H1 9405   0.219   5.701   3.749 -1.3181  0.4094 -0.5959
 3133TIP3    H2 9406   0.291   5.686   3.617 -1.3899  0.9580 -0.6998
 3134TIP3   OH2 9407   1.520   2.894   0.113  0.0101  0.2066 -0.3932
 3134TIP3    H1 9408   1.558   2.973   0.152  0.8440  0.9743 -2.6102
 3134TIP3    H2 9409   1.595   2.836   0.097 -0.6191 -1.1977  1.4249
 3135TIP3   OH2 9410   1.851   2.056   1.166  0.0394  0.1192 -0.1973
 3135TIP3    H1 9411   1.852   1.971   1.123  0.6425  0.6816 -1.3526
 3135TIP3    H2 9412   1.919   2.050   1.233 -0.9137 -0.7715  0.7301
 3136TIP3   OH2 9413   2.744   4.445   4.681  0.2026 -0.2137  0.0441
 3136TIP3    H1 9414   2.656   4.483   4.677 -1.1629 -3.1893 -0.8154
 3136TIP3    H2 9415   2.732   4.361   4.725  2.2583 -1.5203 -1.6718
 3137TIP3   OH2 9416   1.086   5.171   3.946  0.0025 -0.2150  0.3980
 3137TIP3    H1 9417   1.139   5.248   3.925  2.2988 -1.8385 -0.2001
 3137TIP3    H2 9418   1.033   5.156   3.868  0.1980  0.2460  0.1708
 3138TIP3   OH2 9419   5.032   4.165   1.523  0.6145 -0.5484  0.3366
 3138TIP3    H1 9420   4.946   4.127   1.542  1.4734 -3.0086 -0.3248
 3138TIP3    H2 9421   5.078   4.097   1.474  2.4556  1.2595 -0.5839
 3139TIP3   OH2 9422   6.099   3.694   0.110  0.9641 -0.0683 -0.5396
 3139TIP3    H1 9423   6.169   3.758   0.126  1.0467 -0.6023  1.4312
 3139TIP3    H2 9424   6.135   3.611   0.141 -0.8103 -0.1940  1.3907
 3140TIP3   OH2 9425   0.918   3.375   0.340  0.2173 -0.9893 -0.3201
 3140TIP3    H1 9426   0.929   3.451   0.283  0.0480 -1.8960 -1.6091
 3140TIP3    H2 9427   0.842   3.329   0.305  0.3578 -1.8008  0.3898
 3141TIP3   OH2 9428   3.269   5.895   2.016 -0.4288  0.0241  0.1107
 3141TIP3    H1 9429   3.306   5.983   2.011 -1.1080  0.3908  1.1755
 3141TIP3    H2 9430   3.334   5.845   2.065 -0.6401  0.2822  0.6634
 3142TIP3   OH2 9431   0.404   5.963   0.869  0.1679 -0.2858 -0.0886
 3142TIP3    H1 9432   0.481   6.001   0.827 -0.0063 -0.0063 -0.1570
 3142TIP3    H2 9433   0.438   5.887   0.917  0.7563  0.7301  1.1704
 3143TIP3   OH2 9434   3.106   0.049   0.736 -0.2575  0.2737 -0.5424
 3143TIP3    H1 9435   3.098   0.030   0.829  1.9788 -1.3377 -0.5688
 3143TIP3    H2 9436   3.087  -0.035   0.693  1.1615  0.3007 -1.3146
 3144TIP3   OH2 9437   2.097   1.547   0.419  0.1032 -0.2886  0.6009
 3144TIP3    H1 9438   2.061   1.624   0.374  1.2828 -0.0281  0.0502
 3144TIP3    H2 9439   2.172   1.581   0.467  1.0070 -1.1768 -0.1294
 3145TIP3   OH2 9440   1.765   1.077   0.236  0.4027 -0.1205  0.2157
 3145TIP3    H1 9441   1.837   1.121   0.192  0.9652 -1.2304  0.0047
 3145TIP3    H2 9442   1.803   0.998   0.273 -0.1207  0.6218  2.4739
 3146TIP3   OH2 9443   0.248   4.452   0.152  0.0683  0.8142  0.2376
 3146TIP3    H1 9444   0.315   4.519   0.169  1.2772 -0.5089  0.9688
 3146TIP3    H2 9445   0.176   4.499   0.111  0.8659  2.5546  0.7528
 3147TIP3   OH2 9446   2.088   0.262   1.482  0.2054  0.3038 -0.1421
 3147TIP3    H1 9447   2.099   0.190   1.544  1.7265  0.2362 -0.4617
 3147TIP3    H2 9448   2.159   0.251   1.419 -3.0016 -1.5027 -3.8726
 3148TIP3   OH2 9449   1.300   4.598   2.966  0.0762 -0.0289 -0.4307
 3148TIP3    H1 9450   1.216   4.623   3.006  0.4477  1.3375 -0.4643
 3148TIP3    H2 9451   1.325   4.518   3.012  0.4147  1.3920  2.0265
 3149TIP3   OH2 9452   1.659   3.555   2.934  0.0728 -0.2930  0.2551
 3149TIP3    H1 9453   1.606   3.523   2.860 -0.0677 -0.9520  0.6387
 3149TIP3    H2 9454   1.599   3.610   2.985  0.0774 -0.1165  0.0744
 3150TIP3   OH2 9455   3.734   3.575   3.227  0.0564  0.2550  0.5746
 3150TIP3    H1 9456   3.649   3.599   3.262 -0.1833  2.3924 -1.2293
 3150TIP3    H2 9457   3.783   3.541   3.302 -2.0266 -0.1253  1.8360
 3151TIP3   OH2 9458   0.432   1.459   4.223 -0.1997  0.0791 -0.5987
 3151TIP3    H1 9459   0.517   1.463   4.181  0.5996  2.2056  1.0534
 3151TIP3    H2 9460   0.379   1.525   4.178  0.5078  2.0088  1.2288
 3152TIP3   OH2 9461   0.832   3.505   3.589 -0.2322 -0.0395  0.0099
 3152TIP3    H1 9462   0.754   3.459   3.557 -0.6803  0.3343  0.5563
 3152TIP3    H2 9463   0.800   3.591   3.616  0.7558  1.0548 -2.0206
 3153TIP3   OH2 9464   5.434   0.067   4.573 -0.4469 -0.5842  0.1944
 3153TIP3    H1 9465   5.503   0.059   4.639 -0.3978  0.8016  0.3298
 3153TIP3    H2 9466   5.363   0.114   4.617 -1.0786 -1.0904 -0.2565
 3154TIP3   OH2 9467   5.414   2.766   1.315 -0.6222  0.2898  0.0472
 3154TIP3    H1 9468   5.430   2.735   1.404  1.4269  1.3408  0.1198
 3154TIP3    H2 9469   5.494   2.742   1.267 -1.7457 -0.4033 -1.5863
 3155TIP3   OH2 9470   5.409   0.903   0.765  0.3428 -0.3343 -0.2319
 3155TIP3    H1 9471   5.334   0.848   0.745 -0.3730  0.5800 -0.1302
 3155TIP3    H2 9472   5.371   0.987   0.791  1.4233  0.3707 -0.8696
 3156TIP3   OH2 9473   2.242   1.634   1.058  0.2807 -0.1792 -0.3764
 3156TIP3    H1 9474   2.242   1.577   0.981 -1.5772  0.6498 -1.0574
 3156TIP3    H2 9475   2.293   1.586   1.124 -1.3113 -2.7257 -0.8562
 3157TIP3   OH2 9476   5.838   3.114   2.205  0.5181  0.3140 -0.0046
 3157TIP3    H1 9477   5.754   3.159   2.207 -0.7651 -1.9133 -0.5953
 3157TIP3    H2 9478   5.872   3.130   2.117  0.7755  1.2460  0.2478
 3158TIP3   OH2 9479   4.431   3.135   4.836  0.0505 -0.0368  0.7561
 3158TIP3    H1 9480   4.340   3.144   4.865  0.1866  2.7327  0.5642
 3158TIP3    H2 9481   4.457   3.223   4.811  2.1936 -1.1165 -1.1323
 3159TIP3   OH2 9482   1.492   1.207   0.178  0.1775 -0.6343  0.2628
 3159TIP3    H1 9483   1.503   1.288   0.228  0.0684  0.8067 -1.8959
 3159TIP3    H2 9484   1.500   1.138   0.243 -0.8819  1.1071  2.4188
 3160TIP3   OH2 9485   2.441   2.598   0.075 -0.1060  0.0928 -0.7004
 3160TIP3    H1 9486   2.379   2.671   0.080  1.6795  1.6131  1.8050
 3160TIP3    H2 9487   2.399   2.527   0.123 -1.0665  0.0844 -1.5129
 3161TIP3   OH2 9488   5.062   4.689   1.246 -0.1999  0.3680 -0.3076
 3161TIP3    H1 9489   4.995   4.674   1.179 -2.4175 -0.2154  1.9344
 3161TIP3    H2 9490   5.142   4.705   1.195 -1.9040  0.7638 -3.1034
 3162TIP3   OH2 9491   5.013   0.384   2.517 -0.0698  0.4281  0.5105
 3162TIP3    H1 9492   5.063   0.440   2.458 -1.3784  3.1887  1.8493
 3162TIP3    H2 9493   5.035   0.414   2.605 -1.8098 -0.2409  1.2311
 3163TIP3   OH2 9494   0.477   0.575   1.646  0.0032  0.5555 -0.2719
 3163TIP3    H1 9495   0.452   0.494   1.690  0.1863 -0.4676 -1.9484
 3163TIP3    H2 9496   0.394   0.613   1.618 -0.0048 -1.0798 -2.8211
 3164TIP3   OH2 9497   5.815   5.690   4.530  0.7183  0.0261  0.1379
 3164TIP3    H1 9498   5.780   5.682   4.441 -0.2054 -1.6584  0.6000
 3164TIP3    H2 9499   5.895   5.638   4.530 -0.5251 -2.0004  0.8440
 3165TIP3   OH2 9500   2.723   1.533   1.824 -1.0186 -0.2574 -0.4199
 3165TIP3    H1 9501   2.804   1.541   1.874 -1.8997 -2.7623  1.6550
 3165TIP3    H2 9502   2.736   1.456   1.769 -1.9710 -0.7467  0.0046
 3166TIP3   OH2 9503   6.155   1.291   4.001  0.0540 -0.1129 -0.2470
 3166TIP3    H1 9504   6.165   1.367   4.058 -2.1626 -0.3377  0.5189
 3166TIP3    H2 9505   6.210   1.224   4.042 -0.5865  0.0897  0.9846
 3167TIP3   OH2 9506   5.479   3.779   2.967 -0.8968  0.2718  0.3961
 3167TIP3    H1 9507   5.506   3.690   2.990 -0.9233  0.0812 -0.2797
 3167TIP3    H2 9508   5.560   3.823   2.941 -0.9466  0.3110  0.3047
 3168TIP3   OH2 9509   2.769   5.223   1.873 -0.7412 -0.4184 -0.2411
 3168TIP3    H1 9510   2.741   5.191   1.787 -1.4194 -2.6383  0.7405
 3168TIP3    H2 9511   2.723   5.168   1.936  0.7150  0.2912  1.5540
 3169TIP3   OH2 9512   1.549   0.718   0.767 -0.0623  0.6965  0.4760
 3169TIP3    H1 9513   1.464   0.717   0.723 -0.2119 -0.2032  0.7678
 3169TIP3    H2 9514   1.613   0.719   0.696 -0.3063 -0.5986  0.2116
 3170TIP3   OH2 9515   0.886   2.220   4.748  0.4806 -0.5143 -0.3158
 3170TIP3    H1 9516   0.878   2.259   4.661 -1.0774  0.5400  0.2623
 3170TIP3    H2 9517   0.847   2.284   4.807 -1.7494 -2.6953  0.7469
 3171TIP3   OH2 9518   1.445   4.609   4.512 -0.0112  0.2123 -0.1939
 3171TIP3    H1 9519   1.539   4.589   4.507  0.0328  0.5697 -1.0145
 3171TIP3    H2 9520   1.441   4.704   4.503 -0.5821  0.0187 -3.0041
 3172TIP3   OH2 9521   1.280   1.755   3.141 -0.4634 -0.3376  0.0355
 3172TIP3    H1 9522   1.332   1.835   3.128 -0.2544 -0.5859 -0.7413
 3172TIP3    H2 9523   1.341   1.694   3.182 -0.3024 -0.4372 -0.3418
 3173TIP3   OH2 9524   0.860   4.253   1.398  0.0608 -0.1491 -0.0064
 3173TIP3    H1 9525   0.767   4.274   1.387  0.2115  0.1819 -0.7421
 3173TIP3    H2 9526   0.896   4.256   1.309  0.5622 -1.3205  0.1430
 3174TIP3   OH2 9527   2.301   3.973   0.888 -0.1555 -0.0796  0.7179
 3174TIP3    H1 9528   2.266   4.044   0.834 -2.0531 -1.3409  0.2089
 3174TIP3    H2 9529   2.385   4.007   0.920  0.1330  1.4693 -1.4293
 3175TIP3   OH2 9530   5.123   2.735   2.065 -0.3898  0.2051 -0.0351
 3175TIP3    H1 9531   5.107   2.801   1.998  0.4704  0.2358 -0.2342
 3175TIP3    H2 9532   5.090   2.653   2.026  0.2413  0.1945 -0.5784
 3176TIP3   OH2 9533   0.763   4.454   3.244 -0.0505 -0.0851  0.5701
 3176TIP3    H1 9534   0.705   4.520   3.281 -0.5523 -0.5888  0.7094
 3176TIP3    H2 9535   0.758   4.381   3.305  0.3452 -0.3223  0.3212
 3177TIP3   OH2 9536   2.143   0.892   4.142  0.2498  0.1590 -0.5806
 3177TIP3    H1 9537   2.225   0.907   4.095  1.4727 -1.1759  1.0178
 3177TIP3    H2 9538   2.151   0.803   4.176 -0.9041  0.7729  1.4516
 3178TIP3   OH2 9539   2.441   0.246   2.267  0.1052  0.2923  0.7307
 3178TIP3    H1 9540   2.440   0.306   2.341  0.3417 -1.5200  2.2863
 3178TIP3    H2 9541   2.534   0.230   2.251  0.0716  0.9947 -0.2799
 3179TIP3   OH2 9542   5.000   5.768   0.586  0.3527 -0.5031  0.0564
 3179TIP3    H1 9543   4.967   5.827   0.654 -0.1266 -0.9698  0.2387
 3179TIP3    H2 9544   4.943   5.784   0.511  0.6765 -0.2199 -0.1273
 3180TIP3   OH2 9545   1.812   2.697   3.531  0.0481 -0.2083 -0.1724
 3180TIP3    H1 9546   1.785   2.605   3.536 -0.7615  0.0408  0.3160
 3180TIP3    H2 9547   1.766   2.739   3.604  2.4423  0.1226  1.2426
 3181TIP3   OH2 9548   5.512   4.627   3.572  0.5352  0.1479  0.1884
 3181TIP3    H1 9549   5.565   4.563   3.525  0.7636  0.5537 -0.1089
 3181TIP3    H2 9550   5.542   4.621   3.663  1.3119  0.5973 -0.0365
 3182TIP3   OH2 9551   4.192   2.606   1.179 -0.0516  0.8698 -0.4024
 3182TIP3    H1 9552   4.153   2.549   1.112  1.0847 -0.3668 -0.0620
 3182TIP3    H2 9553   4.127   2.609   1.249 -1.1690  2.0153 -1.4494
 3183TIP3   OH2 9554   1.483   3.618   1.816 -0.0098 -0.0313  0.3417
 3183TIP3    H1 9555   1.473   3.709   1.788 -3.2590 -0.5854 -0.6613
 3183TIP3    H2 9556   1.421   3.607   1.888 -1.3739 -1.9639 -1.0353
 3184TIP3   OH2 9557   0.618   1.175   4.043  0.5023 -0.2818 -0.1534
 3184TIP3    H1 9558   0.606   1.270   4.042  0.3640 -0.3007 -0.3511
 3184TIP3    H2 9559   0.537   1.141   4.082 -0.3180 -0.4367 -1.8836
 3185TIP3   OH2 9560   1.805   3.925   5.024 -0.4708 -0.5969  0.7419
 3185TIP3    H1 9561   1.866   3.886   4.962 -1.7682 -1.0807 -0.2715
 3185TIP3    H2 9562   1.861   3.974   5.085  0.8744 -0.4863 -0.5169
 3186TIP3   OH2 9563   0.085   0.645   3.195  0.5277  0.6306  0.1460
 3186TIP3    H1 9564   0.002   0.614   3.160  0.1680 -0.3155  1.7460
 3186TIP3    H2 9565   0.145   0.644   3.120 -0.2003 -1.2992 -0.4721
 3187TIP3   OH2 9566   4.280   0.710   0.383  0.1311  0.3805 -0.1585
 3187TIP3    H1 9567   4.363   0.748   0.412 -0.2704 -0.4033  2.2275
 3187TIP3    H2 9568   4.301   0.619   0.364  0.3995  0.8909 -2.6197
 3188TIP3   OH2 9569   3.504   5.688   4.552  0.0267 -0.1981  0.4868
 3188TIP3    H1 9570   3.440   5.627   4.515  1.1833 -2.8566  2.5641
 3188TIP3    H2 9571   3.460   5.726   4.628  0.6943 -1.8252  1.7560
 3189TIP3   OH2 9572   5.415   2.852   0.765  0.6678  0.4825  0.2239
 3189TIP3    H1 9573   5.429   2.909   0.840  1.5815  0.5605  0.0150
 3189TIP3    H2 9574   5.373   2.908   0.700  1.1382  0.8048  0.1877
 3190TIP3   OH2 9575   5.018   4.559   0.474 -0.1167  0.8333  0.2042
 3190TIP3    H1 9576   4.953   4.614   0.517 -0.6848 -0.8177  1.5721
 3190TIP3    H2 9577   4.974   4.475   0.461  0.6633  0.6856 -1.9552
 3191TIP3   OH2 9578   4.777   1.009   3.318 -0.4232 -0.0814  0.2655
 3191TIP3    H1 9579   4.718   1.083   3.303  0.3060  0.5440  0.4313
 3191TIP3    H2 9580   4.779   0.999   3.413 -1.3750 -1.0338  0.2051
 3192TIP3   OH2 9581   3.743   1.304   4.256  0.1829 -0.2311 -0.0855
 3192TIP3    H1 9582   3.658   1.260   4.248  0.6324 -1.0071 -0.6691
 3192TIP3    H2 9583   3.808   1.235   4.247  0.9011  0.5165 -0.8487
 3193TIP3   OH2 9584   3.954   5.582   4.851  0.6576  0.2133 -0.1938
 3193TIP3    H1 9585   3.865   5.577   4.815 -0.2320 -0.8173  1.9271
 3193TIP3    H2 9586   3.981   5.490   4.858  0.6113  0.3108  1.9755
 3194TIP3   OH2 9587   3.529   4.403   4.864 -0.6345  0.1301 -0.0025
 3194TIP3    H1 9588   3.515   4.349   4.786  0.8561 -1.1965  0.5949
 3194TIP3    H2 9589   3.520   4.343   4.938 -1.3829  1.2244  0.8397
 3195TIP3   OH2 9590   4.018   1.592   0.335 -0.2880 -0.3210  0.1498
 3195TIP3    H1 9591   3.943   1.533   0.338  0.2493 -1.0626 -0.5542
 3195TIP3    H2 9592   4.005   1.651   0.409 -3.6740  2.1697 -2.1237
 3196TIP3   OH2 9593   0.815   3.191   2.402  0.1136  0.7519 -0.0197
 3196TIP3    H1 9594   0.731   3.176   2.360 -0.0355 -0.2130  0.5932
 3196TIP3    H2 9595   0.792   3.218   2.492  0.4553 -0.0450  0.3133
 3197TIP3   OH2 9596   0.705   2.088   4.417 -0.0488  0.8562  0.6366
 3197TIP3    H1 9597   0.704   2.048   4.504 -0.2860  2.6212  1.5141
 3197TIP3    H2 9598   0.796   2.086   4.390  0.3701  2.0694  1.8540
 3198TIP3   OH2 9599   2.852   2.993   0.563 -0.5127  0.3580 -0.0349
 3198TIP3    H1 9600   2.925   3.055   0.563 -0.3991  0.3537  2.7135
 3198TIP3    H2 9601   2.783   3.038   0.611 -1.1453 -0.8940  0.2699
 3199TIP3   OH2 9602   1.300   1.411   4.937 -0.0031  0.2791  0.2064
 3199TIP3    H1 9603   1.308   1.497   4.979  2.1539  0.7948 -1.1242
 3199TIP3    H2 9604   1.335   1.424   4.849 -1.2967 -1.5710 -0.6530
 3200TIP3   OH2 9605   5.063   4.180   4.379 -0.9479 -0.2605 -0.2435
 3200TIP3    H1 9606   5.140   4.161   4.433 -0.5048  1.3630 -0.2599
 3200TIP3    H2 9607   5.013   4.098   4.379  1.6569 -1.9631 -1.7723
 3201TIP3   OH2 9608   0.729   2.015   4.665  0.5880  0.0444  0.1647
 3201TIP3    H1 9609   0.699   1.965   4.740  2.0810 -1.3627 -0.1168
 3201TIP3    H2 9610   0.790   2.079   4.702  0.6092 -0.0267  0.2532
 3202TIP3   OH2 9611   5.682   3.372   2.528  0.3609 -0.3308 -0.0500
 3202TIP3    H1 9612   5.617   3.308   2.556  1.2724 -0.8407  0.9788
 3202TIP3    H2 9613   5.680   3.439   2.596 -0.1777  0.4595 -0.8228
 3203TIP3   OH2 9614   4.504   5.081   1.552 -0.4518 -0.1955 -0.2385
 3203TIP3    H1 9615   4.583   5.134   1.544  0.7547 -1.9747 -0.6930
 3203TIP3    H2 9616   4.496   5.063   1.646 -1.8984  2.1576  0.1873
 3204TIP3   OH2 9617   4.511   2.584   2.440  0.2817  0.3967  0.1980
 3204TIP3    H1 9618   4.589   2.635   2.418  0.6616 -0.6449 -0.8998
 3204TIP3    H2 9619   4.465   2.639   2.504  1.7814  1.1295  0.7010
 3205TIP3   OH2 9620   1.650   5.157   4.978 -0.1349  0.0902  0.0535
 3205TIP3    H1 9621   1.716   5.089   4.985  0.6361  0.7907 -0.1628
 3205TIP3    H2 9622   1.568   5.115   5.003 -0.0409 -1.4560 -2.0178
 3206TIP3   OH2 9623   4.289   4.811   2.631  0.4816  0.6643  0.0756
 3206TIP3    H1 9624   4.217   4.870   2.653  0.7688  1.1249 -0.1989
 3206TIP3    H2 9625   4.354   4.825   2.700  0.4751  0.5431  0.1059
 3207TIP3   OH2 9626   4.312   4.755   2.158 -0.1079  0.8614 -0.6292
 3207TIP3    H1 9627   4.331   4.711   2.240 -0.6019  0.7239 -0.5858
 3207TIP3    H2 9628   4.387   4.734   2.101 -0.3850 -0.1177 -0.6479
 3208TIP3   OH2 9629   1.075   1.494   3.319 -0.1269  0.3168  0.0082
 3208TIP3    H1 9630   1.048   1.572   3.368  1.1488  0.4573  0.5089
 3208TIP3    H2 9631   1.044   1.510   3.230  0.7038  1.7161 -0.0599
 3209TIP3   OH2 9632   4.670   1.179   3.945  0.4223 -0.2249 -0.1333
 3209TIP3    H1 9633   4.741   1.137   3.994 -0.6118 -0.8263  0.9088
 3209TIP3    H2 9634   4.705   1.264   3.919  1.5230 -0.5135  0.3489
 3210TIP3   OH2 9635   2.071   0.070   4.804  0.3375  0.1353  0.1932
 3210TIP3    H1 9636   2.127   0.090   4.729  1.1235  0.9546  0.9636
 3210TIP3    H2 9637   2.127   0.022   4.865 -0.0395  0.2097  0.6102
 3211TIP3   OH2 9638   0.722   1.173   0.483 -0.3330 -0.0265  0.6419
 3211TIP3    H1 9639   0.708   1.101   0.421 -1.2640  0.4693  0.2572
 3211TIP3    H2 9640   0.691   1.138   0.567 -3.0090  0.6345  0.0364
 3212TIP3   OH2 9641   3.615   3.594   4.407  0.4362  0.6571  0.3292
 3212TIP3    H1 9642   3.566   3.540   4.345 -2.6993  1.1025  2.2406
 3212TIP3    H2 9643   3.640   3.672   4.357 -0.3302  0.1869 -0.8319
 3213TIP3   OH2 9644   5.699   5.181   2.553 -0.1101  0.3076  0.0622
 3213TIP3    H1 9645   5.680   5.125   2.629 -0.2550  0.5085  0.1750
 3213TIP3    H2 9646   5.613   5.199   2.514 -0.0603  0.4174  0.0016
 3214TIP3   OH2 9647   3.930   5.847   4.991 -0.0871  0.1732 -0.6287
 3214TIP3    H1 9648   3.946   5.766   4.942  0.7756  1.1650 -2.0264
 3214TIP3    H2 9649   3.997   5.908   4.961 -0.1850  1.1752  1.0225
 3215TIP3   OH2 9650   5.875   5.443   1.701  0.5532 -0.0232 -0.0645
 3215TIP3    H1 9651   5.824   5.409   1.628  1.8035 -2.2210  0.0086
 3215TIP3    H2 9652   5.927   5.514   1.662 -0.7806  0.6750 -0.6370
 3216TIP3   OH2 9653   1.144   5.157   4.768  0.2576  0.1582  0.1808
 3216TIP3    H1 9654   1.057   5.145   4.729  0.7887 -1.0186 -0.7163
 3216TIP3    H2 9655   1.135   5.234   4.824 -0.9317  1.0405 -1.1497
 3217TIP3   OH2 9656   5.099   0.802   4.797  0.0237  0.1662  0.0780
 3217TIP3    H1 9657   5.041   0.764   4.731  0.5905 -0.6917  0.0690
 3217TIP3    H2 9658   5.156   0.730   4.824 -0.6681  0.2994  2.0463
 3218TIP3   OH2 9659   0.777   5.384   0.609 -0.0002 -0.5863 -0.0963
 3218TIP3    H1 9660   0.739   5.450   0.551  1.0360 -0.2139 -0.3633
 3218TIP3    H2 9661   0.705   5.361   0.669  0.1277  2.3019  1.3528
 3219TIP3   OH2 9662   2.337   3.395   1.230 -0.1496  0.1960 -0.3570
 3219TIP3    H1 9663   2.311   3.304   1.244  0.9830 -0.4177 -1.9803
 3219TIP3    H2 9664   2.367   3.425   1.315  0.1015 -1.1737  0.0563
 3220TIP3   OH2 9665   5.628   2.253   2.916 -0.6359 -0.6222  0.3032
 3220TIP3    H1 9666   5.683   2.256   2.837 -0.5477 -0.1938  0.3785
 3220TIP3    H2 9667   5.547   2.211   2.887 -0.2005 -1.4553  0.2362
 3221TIP3   OH2 9668   4.528   1.453   2.944 -0.0415 -0.6051 -0.0034
 3221TIP3    H1 9669   4.493   1.464   2.856  0.2114 -1.1976 -0.1868
 3221TIP3    H2 9670   4.559   1.540   2.969 -0.3120 -0.3906 -0.4141
 3222TIP3   OH2 9671   5.316   2.980   1.417  0.5046 -0.5435 -0.4902
 3222TIP3    H1 9672   5.330   2.900   1.366 -1.7353 -1.0922 -0.3308
 3222TIP3    H2 9673   5.230   3.012   1.389  0.8522  1.1856  0.2874
 3223TIP3   OH2 9674   5.389   0.054   1.240  0.0806  0.4570  0.0736
 3223TIP3    H1 9675   5.397   0.102   1.322  1.4414  0.6204 -0.1322
 3223TIP3    H2 9676   5.389   0.121   1.172 -1.4195  0.3480 -0.0772
 3224TIP3   OH2 9677   2.008   4.782   4.113  0.1696 -0.0460  0.3212
 3224TIP3    H1 9678   1.918   4.814   4.118 -0.0673 -0.8817  1.8937
 3224TIP3    H2 9679   2.003   4.691   4.141  1.4334 -0.2659 -0.1059
 3225TIP3   OH2 9680   6.212   2.458   4.557  0.1303  0.8413  0.4817
 3225TIP3    H1 9681   6.261   2.533   4.522  0.5305  0.4211  0.1303
 3225TIP3    H2 9682   6.268   2.383   4.540 -0.0099  0.5289  1.3712
 3226TIP3   OH2 9683   4.520   4.479   2.318 -0.6355  0.4823  0.0568
 3226TIP3    H1 9684   4.544   4.388   2.302  1.1065  0.9062  0.0388
 3226TIP3    H2 9685   4.428   4.485   2.291 -0.2063 -0.7848 -1.9033
 3227TIP3   OH2 9686   1.260   0.893   2.912 -0.8152  0.1845  0.1993
 3227TIP3    H1 9687   1.197   0.959   2.943  0.5702  0.4570  2.7068
 3227TIP3    H2 9688   1.228   0.811   2.949  0.0623  0.2706  1.1868
 3228TIP3   OH2 9689   6.203   5.303   2.959  0.0613 -0.1869  0.3376
 3228TIP3    H1 9690   6.127   5.270   2.913 -0.3607 -1.3644  1.7866
 3228TIP3    H2 9691   6.166   5.355   3.031  0.6615  0.5841  0.0961
 3229TIP3   OH2 9692   3.003   3.711   0.162  0.1735  0.1609  0.1552
 3229TIP3    H1 9693   2.955   3.693   0.081 -0.4312 -0.4635  0.6322
 3229TIP3    H2 9694   3.024   3.804   0.158  1.5222 -0.1440 -1.4349
 3230TIP3   OH2 9695   2.129   5.442   0.390  0.0725  0.0195  0.2117
 3230TIP3    H1 9696   2.150   5.523   0.343 -0.1586  0.5044  0.9191
 3230TIP3    H2 9697   2.034   5.434   0.383 -0.0655  0.5344  1.2590
 3231TIP3   OH2 9698   2.341   3.047   2.085 -0.6960 -0.3169 -0.4716
 3231TIP3    H1 9699   2.410   3.010   2.030  0.0130 -1.5518  1.1647
 3231TIP3    H2 9700   2.387   3.110   2.141 -1.4518  1.1242 -1.4105
 3232TIP3   OH2 9701   1.737   4.663   0.563 -0.5102  0.5840 -0.1512
 3232TIP3    H1 9702   1.790   4.644   0.640  0.4988  1.1950 -0.6711
 3232TIP3    H2 9703   1.652   4.623   0.581 -0.5773  1.4514  1.6475
 3233TIP3   OH2 9704   4.343   0.235   1.735  0.3163 -0.2042  0.0598
 3233TIP3    H1 9705   4.365   0.223   1.828  1.8512  1.5580 -0.0344
 3233TIP3    H2 9706   4.408   0.181   1.689  0.3106 -0.1282 -0.0351
 3234TIP3   OH2 9707   2.683   3.434   2.156  0.1558  0.1378 -0.2717
 3234TIP3    H1 9708   2.657   3.405   2.068  0.2168  0.2417 -0.3247
 3234TIP3    H2 9709   2.762   3.383   2.175 -0.2376 -0.3712 -0.0005
 3235TIP3   OH2 9710   0.255   1.602   0.385  0.0062  0.1620  0.2443
 3235TIP3    H1 9711   0.283   1.665   0.451 -1.3881 -1.2844  2.3588
 3235TIP3    H2 9712   0.164   1.626   0.364 -0.0441 -0.2584 -0.0542
 3236TIP3   OH2 9713   1.949   4.083   1.323 -0.2614  0.1396 -0.2397
 3236TIP3    H1 9714   2.009   4.114   1.254 -0.8130 -1.1097 -1.3469
 3236TIP3    H2 9715   1.964   3.988   1.325 -1.3694 -0.0329  0.2869
 3237TIP3   OH2 9716   5.853   4.732   3.861  0.1395 -0.4065 -0.7388
 3237TIP3    H1 9717   5.890   4.717   3.948 -0.3684 -0.0731 -0.4602
 3237TIP3    H2 9718   5.921   4.781   3.814  0.5309 -0.8396 -0.6263
 3238TIP3   OH2 9719   2.738   2.078   3.629  0.0214  0.2162  0.2062
 3238TIP3    H1 9720   2.827   2.067   3.594  0.5323  0.5157  1.3806
 3238TIP3    H2 9721   2.716   1.993   3.667  0.5530  0.6529  1.5549
 3239TIP3   OH2 9722   2.345   4.814   4.432  0.1100  0.0352  0.2014
 3239TIP3    H1 9723   2.406   4.740   4.438  0.6197  0.4023 -0.3124
 3239TIP3    H2 9724   2.400   4.891   4.449 -0.1143  0.4056 -0.6980
 3240TIP3   OH2 9725   0.946   3.365   1.571  0.8963 -0.2421  0.2521
 3240TIP3    H1 9726   0.947   3.443   1.626 -0.6313  0.1407 -0.2251
 3240TIP3    H2 9727   1.036   3.356   1.541  1.3548  0.6144  1.3093
 3241TIP3   OH2 9728   0.033   2.377   4.134 -0.0608 -0.1386  0.1226
 3241TIP3    H1 9729  -0.005   2.327   4.206 -0.9747  0.6267  0.1857
 3241TIP3    H2 9730   0.032   2.316   4.060  0.0584 -0.6331  0.5164
 3242TIP3   OH2 9731   3.523   0.948   4.645  0.2193 -0.2304 -0.8697
 3242TIP3    H1 9732   3.544   1.041   4.655  0.2405 -0.3472  0.4239
 3242TIP3    H2 9733   3.434   0.939   4.680  0.1544 -0.6651 -1.1363
 3243TIP3   OH2 9734   1.338   3.452   0.975 -0.5583 -0.4004  0.5376
 3243TIP3    H1 9735   1.327   3.366   1.014  0.5482  0.3025  2.5170
 3243TIP3    H2 9736   1.309   3.513   1.042  2.8012  0.9302  0.9607
 3244TIP3   OH2 9737   2.751   5.024   0.850 -0.0832  0.2225  0.1997
 3244TIP3    H1 9738   2.682   4.962   0.874 -1.0591  1.7631  1.5324
 3244TIP3    H2 9739   2.826   4.968   0.827 -0.7473 -1.4509  1.8491
 3245TIP3   OH2 9740   4.983   3.068   0.290  0.5637 -0.3176  0.5645
 3245TIP3    H1 9741   5.063   3.043   0.336  0.7666 -1.6026 -0.3996
 3245TIP3    H2 9742   4.915   3.013   0.328  0.2629  0.2874  0.9152
 3246TIP3   OH2 9743   6.330   1.727   2.572 -0.1346 -0.0915 -0.1535
 3246TIP3    H1 9744   6.394   1.785   2.613  0.4373 -0.2573 -0.7866
 3246TIP3    H2 9745   6.250   1.737   2.625  0.1834  0.6908  0.1888
 3247TIP3   OH2 9746   2.499   0.916   4.291  0.3289  0.6976 -0.0094
 3247TIP3    H1 9747   2.489   0.824   4.317  0.9113  0.4699 -0.5398
 3247TIP3    H2 9748   2.483   0.915   4.196  1.4095  0.9448 -0.2154
 3248TIP3   OH2 9749   3.187   1.616   2.258 -0.1994  0.0792  0.0459
 3248TIP3    H1 9750   3.162   1.696   2.210  2.4875  0.1149 -1.4401
 3248TIP3    H2 9751   3.146   1.545   2.208 -0.4624  0.3482 -0.1294
 3249TIP3   OH2 9752   5.298   4.648   0.371 -0.6507  0.0728 -0.7282
 3249TIP3    H1 9753   5.212   4.609   0.357 -0.7432  0.2420 -0.6327
 3249TIP3    H2 9754   5.299   4.724   0.313 -0.4877 -0.0451 -0.8806
 3250TIP3   OH2 9755   1.462   0.176   4.681  0.2882  0.4040 -0.9701
 3250TIP3    H1 9756   1.531   0.170   4.746 -0.5724 -0.1545 -0.0886
 3250TIP3    H2 9757   1.380   0.170   4.731 -0.3875 -0.2517 -2.1040
 3251TIP3   OH2 9758   1.339   3.311   2.289  0.3286  0.3403 -0.0737
 3251TIP3    H1 9759   1.276   3.347   2.351  0.4436  0.5984 -0.1069
 3251TIP3    H2 9760   1.416   3.368   2.296  0.8329 -0.3924  0.4801
 3252TIP3   OH2 9761   1.018   0.917   0.583 -0.7442 -0.0101  0.1872
 3252TIP3    H1 9762   1.005   1.001   0.628  3.7893  1.7284 -1.1889
 3252TIP3    H2 9763   1.110   0.896   0.597 -0.8025 -2.8561 -2.5790
 3253TIP3   OH2 9764   3.790   5.446   0.801  0.0440 -0.3637  0.3553
 3253TIP3    H1 9765   3.763   5.360   0.835 -0.7818  0.3402  1.5687
 3253TIP3    H2 9766   3.709   5.497   0.797  0.5813  0.4894  0.0377
 3254TIP3   OH2 9767   6.116   0.893   1.479  0.3608  0.1128 -0.0636
 3254TIP3    H1 9768   6.151   0.821   1.532 -1.4337 -0.6507  0.1852
 3254TIP3    H2 9769   6.033   0.858   1.444 -1.0389  2.3419  0.8096
 3255TIP3   OH2 9770   6.172   0.905   2.318  0.2372 -0.1169  0.0251
 3255TIP3    H1 9771   6.163   0.822   2.364 -0.3831 -0.9036 -1.4693
 3255TIP3    H2 9772   6.226   0.885   2.242  1.8629  1.3192  0.7406
 3256TIP3   OH2 9773   3.030   3.200   0.569  0.0011 -0.4642 -0.4290
 3256TIP3    H1 9774   3.117   3.223   0.536 -0.0199  2.1821  1.0525
 3256TIP3    H2 9775   2.974   3.273   0.541 -1.3174 -1.2013  0.2221
 3257TIP3   OH2 9776   1.355   3.113   4.199 -0.0478  0.6164  0.3457
 3257TIP3    H1 9777   1.441   3.082   4.229 -0.7041  0.7335  2.5499
 3257TIP3    H2 9778   1.293   3.053   4.241 -1.0514  0.1142 -1.7516
 3258TIP3   OH2 9779   1.622   1.174   1.546  0.2264  0.2864  0.1074
 3258TIP3    H1 9780   1.597   1.089   1.510  0.6981  0.7338 -1.3567
 3258TIP3    H2 9781   1.713   1.185   1.520  0.1948  1.2009  0.3529
 3259TIP3   OH2 9782   4.230   5.235   3.987 -0.1930  0.3136  0.2535
 3259TIP3    H1 9783   4.290   5.161   3.985 -1.4960 -0.8111  1.3554
 3259TIP3    H2 9784   4.255   5.284   4.065  0.1500  0.6134 -0.0384
 3260TIP3   OH2 9785   4.437   0.897   2.533  0.1384  0.5990 -0.2602
 3260TIP3    H1 9786   4.361   0.874   2.587 -1.2901 -0.9597 -2.7692
 3260TIP3    H2 9787   4.506   0.836   2.561 -0.4896 -0.0052 -0.0093
 3261TIP3   OH2 9788   1.310   1.966   4.203  0.8636  0.3685  0.2618
 3261TIP3    H1 9789   1.253   1.954   4.278  0.0777  1.0850 -0.2056
 3261TIP3    H2 9790   1.372   2.033   4.230  0.6183  0.5830  0.2902
 3262TIP3   OH2 9791   4.240   1.712   3.769  0.2315  0.5448  0.6388
 3262TIP3    H1 9792   4.269   1.627   3.802  0.4095  0.1199 -0.5469
 3262TIP3    H2 9793   4.171   1.739   3.829  0.0113 -0.5445  0.8983
 3263TIP3   OH2 9794   0.223   4.220   1.450 -0.1289 -0.1868  0.1578
 3263TIP3    H1 9795   0.224   4.231   1.545 -3.1980 -0.2910  0.2878
 3263TIP3    H2 9796   0.159   4.284   1.419 -1.0882 -1.8829 -1.5562
 3264TIP3   OH2 9797   2.354   0.435   2.712  0.4121  0.2997 -1.0512
 3264TIP3    H1 9798   2.273   0.445   2.763  0.1018  0.6981 -1.6143
 3264TIP3    H2 9799   2.359   0.342   2.692  1.7968 -0.3382  1.7568
 3265TIP3   OH2 9800   3.763   4.727   0.051  0.1194  0.5424 -0.0067
 3265TIP3    H1 9801   3.719   4.766   0.127 -1.5056 -0.4244 -0.4028
 3265TIP3    H2 9802   3.778   4.636   0.076 -1.3854 -0.0707 -1.1817
 3266TIP3   OH2 9803   3.455   0.897   3.083 -0.1881  0.0382 -0.0056
 3266TIP3    H1 9804   3.479   0.824   3.141  1.9318 -0.3799 -1.2885
 3266TIP3    H2 9805   3.372   0.929   3.118  0.6587 -0.5741  2.8624
 3267TIP3   OH2 9806   1.713   1.671   2.120 -0.0592 -0.0072  0.6458
 3267TIP3    H1 9807   1.674   1.757   2.134 -1.0745 -0.6176  1.6998
 3267TIP3    H2 9808   1.675   1.615   2.188  2.1802 -0.7982  1.3514
 3268TIP3   OH2 9809   2.133   4.995   0.297  0.1388 -0.0308  0.1770
 3268TIP3    H1 9810   2.163   4.932   0.232  0.9312  0.7393 -0.2267
 3268TIP3    H2 9811   2.152   5.081   0.258 -0.9763  0.4692  0.6828
 3269TIP3   OH2 9812   5.940   0.004   3.681 -0.7580  0.2017  0.1582
 3269TIP3    H1 9813   5.934   0.090   3.639  3.4401  1.2430  1.2678
 3269TIP3    H2 9814   5.917  -0.058   3.611 -2.1192  2.0843 -1.1874
 3270TIP3   OH2 9815   4.815   0.186   2.377  0.1761 -0.1207  0.6695
 3270TIP3    H1 9816   4.745   0.213   2.317 -0.1337 -2.7451 -0.2862
 3270TIP3    H2 9817   4.890   0.238   2.351 -0.5072  0.2403 -0.6811
 3271TIP3   OH2 9818   5.775   0.940   0.845 -0.1692  0.3580  0.0543
 3271TIP3    H1 9819   5.864   0.963   0.872 -0.0207  1.2340 -1.1249
 3271TIP3    H2 9820   5.779   0.936   0.750 -1.4029  0.4310 -0.0190
 3272TIP3   OH2 9821   3.561   5.329   0.541  0.0818  0.1208 -0.0328
 3272TIP3    H1 9822   3.589   5.403   0.595 -0.1283 -0.8465  1.4418
 3272TIP3    H2 9823   3.466   5.326   0.552  0.1450 -0.6675  0.3327
 3273TIP3   OH2 9824   4.836   1.533   1.426  0.2968 -0.7908 -0.1166
 3273TIP3    H1 9825   4.775   1.607   1.437  0.5250 -0.6556  0.2380
 3273TIP3    H2 9826   4.875   1.521   1.512  0.8501 -0.8114 -0.3671
 3274TIP3   OH2 9827   1.498   0.037   5.042 -0.2723  0.4848  0.5100
 3274TIP3    H1 9828   1.570   0.097   5.060 -1.2960  1.9866 -0.1534
 3274TIP3    H2 9829   1.464   0.012   5.128  2.0714 -1.6723  0.9228
 3275TIP3   OH2 9830   4.654   0.067   3.839 -0.4584 -0.0096  0.0687
 3275TIP3    H1 9831   4.561   0.077   3.859 -0.5759 -1.3448  0.2705
 3275TIP3    H2 9832   4.676  -0.021   3.868  1.2674  0.8242  1.4521
 3276TIP3   OH2 9833   6.123   5.675   1.839 -0.2838 -0.3067 -0.7237
 3276TIP3    H1 9834   6.036   5.693   1.877 -0.3054  0.5711 -1.1699
 3276TIP3    H2 9835   6.174   5.753   1.860  1.0289 -1.5980  1.2475
 3277TIP3   OH2 9836   3.919   4.246   2.692 -0.1375 -0.0254  0.0043
 3277TIP3    H1 9837   3.868   4.167   2.675 -1.0202  0.8542 -1.6777
 3277TIP3    H2 9838   3.955   4.270   2.607 -1.7208  2.6143 -0.0123
 3278TIP3   OH2 9839   5.369   1.626   4.111 -0.3362 -0.4124 -0.4903
 3278TIP3    H1 9840   5.442   1.589   4.061 -0.9718 -0.1781 -1.6359
 3278TIP3    H2 9841   5.370   1.579   4.194  0.9655 -0.5747 -0.5755
 3279TIP3   OH2 9842   4.995   2.391   4.733 -0.8356 -0.7670 -0.3865
 3279TIP3    H1 9843   4.982   2.336   4.655 -1.3589 -1.8591  0.4394
 3279TIP3    H2 9844   5.026   2.474   4.698  0.0555 -1.5951 -1.6874
 3280TIP3   OH2 9845   1.816   5.370   3.823  0.3593  0.4949 -0.4528
 3280TIP3    H1 9846   1.909   5.361   3.843  1.0769  2.8809 -2.2520
 3280TIP3    H2 9847   1.797   5.463   3.834 -1.6161  0.2016 -0.9054
 3281TIP3   OH2 9848   4.462   0.449   2.551  0.8634  0.5441  0.2232
 3281TIP3    H1 9849   4.453   0.430   2.458 -1.0587 -0.5412  0.5674
 3281TIP3    H2 9850   4.556   0.439   2.569  1.3398  1.2689 -1.6637
 3282TIP3   OH2 9851   3.445   4.776   1.695  0.5223  0.3500 -0.2826
 3282TIP3    H1 9852   3.513   4.780   1.762  2.5726 -0.8603 -2.1450
 3282TIP3    H2 9853   3.384   4.846   1.718  2.9353  2.1836  0.9608
 3283TIP3   OH2 9854   2.646   5.956   3.372  0.2106  0.7329  0.1803
 3283TIP3    H1 9855   2.674   5.865   3.370 -0.0381  0.6470  0.4629
 3283TIP3    H2 9856   2.586   5.961   3.447  0.1153  1.0953  0.0832
 3284TIP3   OH2 9857   4.195   5.567   2.794 -0.5139  0.7627  0.8003
 3284TIP3    H1 9858   4.254   5.638   2.766  1.4492 -0.6320  1.2217
 3284TIP3    H2 9859   4.203   5.565   2.889 -0.0766 -0.4216  0.7421
 3285TIP3   OH2 9860   5.419   5.069   1.193 -0.5317  0.3933  0.2269
 3285TIP3    H1 9861   5.480   5.044   1.263 -1.4959  1.7307  1.6153
 3285TIP3    H2 9862   5.476   5.106   1.125  0.4427 -1.0689  0.1902
 3286TIP3   OH2 9863   1.094   4.307   2.403 -0.1460  0.0090  0.6686
 3286TIP3    H1 9864   1.093   4.252   2.481  0.3696 -0.8522  0.0866
 3286TIP3    H2 9865   1.172   4.361   2.413  0.3896 -0.6855  0.3783
 3287TIP3   OH2 9866   3.362   5.269   1.867 -0.4780  0.1329 -0.0156
 3287TIP3    H1 9867   3.322   5.274   1.780 -0.4058 -0.1302 -0.0650
 3287TIP3    H2 9868   3.396   5.357   1.882  1.4722 -0.3334 -1.2116
 3288TIP3   OH2 9869   5.435   4.069   1.423 -0.3807 -0.3043 -0.0245
 3288TIP3    H1 9870   5.521   4.111   1.410  0.0430 -1.3148 -0.5767
 3288TIP3    H2 9871   5.410   4.094   1.512  0.7100 -0.3719  0.3199
 3289TIP3   OH2 9872   0.553   0.586   0.071  0.1488  0.2369 -0.7484
 3289TIP3    H1 9873   0.618   0.529   0.031  1.1262  0.7238  0.1210
 3289TIP3    H2 9874   0.495   0.526   0.119  1.6655  0.0043  0.8647
 3290TIP3   OH2 9875   1.756   5.819   0.369  0.8334 -0.6362 -0.3751
 3290TIP3    H1 9876   1.730   5.804   0.460  2.2683  0.2857  0.2194
 3290TIP3    H2 9877   1.764   5.914   0.361  0.9299 -0.7153 -1.4054
 3291TIP3   OH2 9878   5.133   4.605   3.877 -0.2894  0.7348 -0.2125
 3291TIP3    H1 9879   5.220   4.645   3.879  0.0841 -0.0806  1.3228
 3291TIP3    H2 9880   5.134   4.549   3.800  1.4403 -1.1000  1.0290
 3292TIP3   OH2 9881   5.590   1.292   4.647  0.2828  0.0206 -0.0069
 3292TIP3    H1 9882   5.646   1.364   4.675  0.8429 -0.8969  1.3085
 3292TIP3    H2 9883   5.501   1.326   4.656  0.5240  0.4193  0.9490
 3293TIP3   OH2 9884   0.721   3.794   3.103 -0.2228 -0.1376  0.3697
 3293TIP3    H1 9885   0.682   3.709   3.124  1.3077 -0.6024  1.4819
 3293TIP3    H2 9886   0.660   3.833   3.040 -2.0113 -1.1725  1.3770
 3294TIP3   OH2 9887   1.574   0.710   0.191  0.2704 -0.2238  0.0914
 3294TIP3    H1 9888   1.643   0.668   0.243  0.6197  1.8046  1.3882
 3294TIP3    H2 9889   1.553   0.790   0.239 -0.8248  0.7585 -1.8877
 3295TIP3   OH2 9890   0.197   2.562   0.263 -0.4161  0.1949  0.3666
 3295TIP3    H1 9891   0.223   2.483   0.310  0.0024 -0.1433 -0.4086
 3295TIP3    H2 9892   0.146   2.613   0.327  2.6227  1.2072  2.1621
 3296TIP3   OH2 9893   6.293   5.649   0.224 -0.0536  0.1892  0.5649
 3296TIP3    H1 9894   6.296   5.744   0.210 -0.8392  0.2479  0.7843
 3296TIP3    H2 9895   6.340   5.613   0.148  1.8621  0.8139  1.3825
 3297TIP3   OH2 9896   2.701   0.348   4.558 -0.3775 -0.0370  0.3281
 3297TIP3    H1 9897   2.626   0.407   4.565 -1.9537 -1.5348 -2.3049
 3297TIP3    H2 9898   2.672   0.267   4.601 -0.1667 -0.5098 -0.4029
 3298TIP3   OH2 9899   4.496   2.387   3.712 -0.0472 -0.2144  0.0146
 3298TIP3    H1 9900   4.493   2.319   3.779  1.9135  1.8015  2.3607
 3298TIP3    H2 9901   4.588   2.396   3.691 -0.2691  1.5090 -0.4030
 3299TIP3   OH2 9902   5.319   5.448   4.991  0.5941 -0.1705 -0.2160
 3299TIP3    H1 9903   5.270   5.437   5.073  1.4917 -1.5872  0.1527
 3299TIP3    H2 9904   5.286   5.530   4.955 -0.2181  0.2021  1.2904
 3300TIP3   OH2 9905   1.140   1.338   1.659 -0.8567  0.3259  0.4577
 3300TIP3    H1 9906   1.209   1.385   1.706 -2.3451  2.1600  0.9540
 3300TIP3    H2 9907   1.185   1.267   1.613  1.1616  0.7464  1.6880
 3301TIP3   OH2 9908   2.515   1.232   2.791 -0.2109 -0.2016  0.2757
 3301TIP3    H1 9909   2.473   1.226   2.877  1.4262 -1.2064  1.0550
 3301TIP3    H2 9910   2.484   1.154   2.744  1.8258 -1.7788  1.3946
 3302TIP3   OH2 9911   6.258   1.055   2.757  0.1737  0.0665  0.2908
 3302TIP3    H1 9912   6.338   1.034   2.710 -0.3061 -0.7338 -0.1897
 3302TIP3    H2 9913   6.194   0.991   2.726 -0.9794  1.4008 -0.1961
 3303TIP3   OH2 9914   6.197   0.130   2.274  0.1996  0.1547 -0.2488
 3303TIP3    H1 9915   6.134   0.157   2.341  1.0946  0.1555  0.6213
 3303TIP3    H2 9916   6.247   0.210   2.255  0.2330  0.0510 -0.6143
 3304TIP3   OH2 9917   0.704   5.225   1.807  0.6323  0.4756 -0.2125
 3304TIP3    H1 9918   0.645   5.276   1.863  0.1652  0.8681 -1.0441
 3304TIP3    H2 9919   0.720   5.281   1.731  0.1403 -0.5772 -1.1213
 3305TIP3   OH2 9920   5.756   3.842   0.542  0.1533 -0.2679 -0.1428
 3305TIP3    H1 9921   5.678   3.812   0.495  0.7973 -0.9714 -0.7880
 3305TIP3    H2 9922   5.813   3.876   0.473  0.9726 -1.0117  0.1517
 3306TIP3   OH2 9923   2.181   1.964   3.683 -0.5374  0.1749 -0.4818
 3306TIP3    H1 9924   2.163   1.925   3.769 -0.8430 -0.6498 -0.9064
 3306TIP3    H2 9925   2.272   1.942   3.665 -0.5449  0.1379 -0.4745
 3307TIP3   OH2 9926   1.793   2.065   1.661  0.5241  0.3119 -0.0064
 3307TIP3    H1 9927   1.752   1.980   1.647 -1.2819  1.3354 -1.4081
 3307TIP3    H2 9928   1.725   2.117   1.706  0.2757  1.9693 -2.1322
 3308TIP3   OH2 9929   0.705   1.133   0.099 -0.0509  0.2072  0.2753
 3308TIP3    H1 9930   0.793   1.117   0.131  0.4726  1.6535 -0.3474
 3308TIP3    H2 9931   0.676   1.050   0.063  2.1242  0.3293 -2.0255
 3309TIP3   OH2 9932   3.375   2.771   2.846 -0.0898  0.1501 -0.4404
 3309TIP3    H1 9933   3.447   2.828   2.819 -0.4123  1.9629  2.1099
 3309TIP3    H2 9934   3.401   2.740   2.933 -0.6654 -2.4498 -1.0933
 3310TIP3   OH2 9935   3.336   1.764   3.929 -0.1674 -0.0539  0.2728
 3310TIP3    H1 9936   3.323   1.858   3.926 -0.0084  0.1043  2.6471
 3310TIP3    H2 9937   3.248   1.727   3.926 -0.2548  0.1877 -0.1433
 3311TIP3   OH2 9938   2.030   4.310   4.897  0.8044 -0.0873 -0.2171
 3311TIP3    H1 9939   2.096   4.254   4.938 -0.8817 -0.4789  2.1438
 3311TIP3    H2 9940   2.009   4.375   4.964 -0.6389  0.5201 -1.2105
 3312TIP3   OH2 9941   2.998   3.629   1.164 -0.4454  0.5542  0.1770
 3312TIP3    H1 9942   3.053   3.632   1.243 -0.2499  0.6726  0.0374
 3312TIP3    H2 9943   2.920   3.580   1.191 -0.2300  0.3028  0.3535
 3313TIP3   OH2 9944   4.593   4.238   3.766 -0.0892 -0.2713  0.3405
 3313TIP3    H1 9945   4.513   4.217   3.718 -1.2693  1.1857  1.5929
 3313TIP3    H2 9946   4.648   4.160   3.754 -1.6574 -1.3057 -0.5764
 3314TIP3   OH2 9947   1.736   5.006   0.667  0.1929  0.0949  0.0624
 3314TIP3    H1 9948   1.717   4.998   0.760  3.7906 -1.1255  0.8360
 3314TIP3    H2 9949   1.739   4.915   0.635  2.6870  0.2539 -0.3088
 3315TIP3   OH2 9950   4.276   1.719   1.080  0.6398 -0.0357  0.9458
 3315TIP3    H1 9951   4.211   1.698   1.013 -2.2432  2.5055  2.6698
 3315TIP3    H2 9952   4.327   1.791   1.042  1.1055 -0.6474  0.3802
 3316TIP3   OH2 9953   3.928   0.372   3.769  0.1611  0.2042 -0.5117
 3316TIP3    H1 9954   3.953   0.312   3.838  1.1460 -2.7283 -3.1597
 3316TIP3    H2 9955   3.991   0.444   3.774 -0.2155  0.4386  1.9316
 3317TIP3   OH2 9956   6.111   1.444   0.867  0.1931  0.7871 -0.0165
 3317TIP3    H1 9957   6.163   1.505   0.919 -0.5579  0.8793  0.6399
 3317TIP3    H2 9958   6.093   1.371   0.925  0.8859  0.0259 -0.7303
 3318TIP3   OH2 9959   2.812   0.164   2.879 -0.0148 -0.0531 -0.1007
 3318TIP3    H1 9960   2.822   0.193   2.969 -0.1378  1.9450 -0.6912
 3318TIP3    H2 9961   2.901   0.142   2.851 -0.1889 -2.6660  1.0526
 3319TIP3   OH2 9962   3.365   4.924   4.835  0.8588 -0.7448 -0.1863
 3319TIP3    H1 9963   3.428   4.866   4.793  1.3547 -1.3994  1.3917
 3319TIP3    H2 9964   3.391   4.926   4.927 -0.3320  0.4324  0.1654
 3320TIP3   OH2 9965   5.468   5.789   4.665 -0.2852  0.3046 -0.3088
 3320TIP3    H1 9966   5.433   5.702   4.688  1.7980 -1.0127 -1.7961
 3320TIP3    H2 9967   5.541   5.801   4.725  0.3581  0.3446 -1.0933
 3321TIP3   OH2 9968   4.851   4.761   2.103 -0.2601 -0.2413  0.5242
 3321TIP3    H1 9969   4.835   4.675   2.064  1.1726 -0.1956 -0.2144
 3321TIP3    H2 9970   4.763   4.799   2.113 -0.7910 -0.9577 -1.0390
 3322TIP3   OH2 9971   1.398   4.956   1.639  0.0774  0.2833  0.0605
 3322TIP3    H1 9972   1.318   4.987   1.597 -1.0252 -2.1222  0.1926
 3322TIP3    H2 9973   1.453   4.925   1.567  0.6532  1.4073  0.0105
 3323TIP3   OH2 9974   3.984   5.915   2.136 -0.4913  0.1837 -0.1365
 3323TIP3    H1 9975   4.029   5.961   2.208 -3.3165 -0.0691  1.9662
 3323TIP3    H2 9976   3.920   5.979   2.104 -1.2014 -0.6819 -0.4658
 3324TIP3   OH2 9977   0.806   3.695   0.795 -0.6928  0.8220 -0.6935
 3324TIP3    H1 9978   0.896   3.718   0.821 -0.3192  0.0088 -1.2248
 3324TIP3    H2 9979   0.751   3.759   0.840  0.0905  0.7582  0.3971
 3325TIP3   OH2 9980   5.375   5.073   3.134  0.2965  0.2878 -0.1879
 3325TIP3    H1 9981   5.347   5.053   3.224 -0.7379  0.0302 -0.5544
 3325TIP3    H2 9982   5.464   5.108   3.144  0.8306 -1.2544  0.7902
 3326TIP3   OH2 9983   0.777   1.257   4.271 -0.6430  0.2979  0.0137
 3326TIP3    H1 9984   0.737   1.202   4.205 -1.3103  1.3419 -0.4852
 3326TIP3    H2 9985   0.805   1.335   4.223  0.2340  0.4241  0.7010
 3327TIP3   OH2 9986   4.318   2.878   4.340  0.2436  0.0285  0.4405
 3327TIP3    H1 9987   4.354   2.951   4.289  0.4672  0.7561  1.5923
 3327TIP3    H2 9988   4.263   2.920   4.407  0.7593 -0.8130  1.4270
 3328TIP3   OH2 9989   3.123   0.952   4.429  0.0393  0.2751  0.4663
 3328TIP3    H1 9990   3.112   0.857   4.422  0.7663  0.0717  1.8764
 3328TIP3    H2 9991   3.122   0.982   4.338 -0.9300 -0.9815  0.0241
 3329TIP3   OH2 9992   5.247   5.468   0.241 -0.2182  1.4430  0.1270
 3329TIP3    H1 9993   5.166   5.418   0.249  1.0978 -1.3230 -2.1139
 3329TIP3    H2 9994   5.307   5.427   0.304  0.1767  1.8009 -0.0103
 3330TIP3   OH2 9995   3.581   2.431   1.412 -0.1675  0.3158 -0.1501
 3330TIP3    H1 9996   3.668   2.408   1.380 -0.2701  0.3566 -0.4580
 3330TIP3    H2 9997   3.573   2.384   1.495  0.4834  0.9987  0.3141
 3331TIP3   OH2 9998   5.201   5.933   3.293 -0.4841 -0.6347  0.5381
 3331TIP3    H1 9999   5.162   5.878   3.361  0.3864 -0.4748  1.1923
 3331TIP3    H210000   5.209   6.020   3.334  2.7865 -1.2104  1.3692
 3332TIP3   OH210001   6.016   4.027   3.524 -0.4186  0.2979 -0.0974
 3332TIP3    H110002   6.070   4.025   3.603 -0.4287  1.5483 -0.0412
 3332TIP3    H210003   6.079   4.033   3.453 -0.2699 -3.2482 -0.4243
 3333TIP3   OH210004   5.713   3.549   4.422 -0.1688  0.0951  0.6997
 3333TIP3    H110005   5.660   3.607   4.476 -0.8587  0.5536 -0.4505
 3333TIP3    H210006   5.804   3.574   4.442 -0.4297  0.6259  1.2318
 3334TIP3   OH210007   4.482   1.973   1.479 -0.1362  0.4296 -0.1578
 3334TIP3    H110008   4.405   1.930   1.441  0.1485  0.0145 -0.2717
 3334TIP3    H210009   4.451   2.006   1.564  0.0243 -1.3377  0.6305
 3335TIP3   OH210010   5.196   3.749   3.252 -0.0704 -0.3545 -0.0722
 3335TIP3    H110011   5.176   3.656   3.261 -0.4699 -0.1358  1.6670
 3335TIP3    H210012   5.285   3.751   3.217 -0.1032 -1.3925 -0.2342
 3336TIP3   OH210013   3.847   5.294   4.989 -0.1744 -0.5920 -0.5495
 3336TIP3    H110014   3.939   5.295   4.964 -0.2832  0.1207 -0.9606
 3336TIP3    H210015   3.845   5.338   5.075 -0.2421  0.3404 -1.0105
 3337TIP3   OH210016   3.941   0.163   2.225  0.4017 -0.1972 -0.2240
 3337TIP3    H110017   4.029   0.174   2.260  1.0088 -1.8182 -1.1465
 3337TIP3    H210018   3.889   0.137   2.301  0.8603  0.0642  0.1910
 3338TIP3   OH210019   4.929   0.103   1.243 -0.1323 -0.5187  0.3663
 3338TIP3    H110020   4.948   0.011   1.261  1.7401 -0.1164  0.6901
 3338TIP3    H210021   4.952   0.114   1.151 -0.7894 -0.4753  0.2073
 3339TIP3   OH210022   0.356   4.341   4.747  0.1861  0.0680 -0.0197
 3339TIP3    H110023   0.311   4.260   4.723 -1.0376  0.2507  1.5720
 3339TIP3    H210024   0.338   4.353   4.840  0.7333  1.9337 -0.1103
 3340TIP3   OH210025   2.717   1.201   1.120  0.3128 -0.9236 -0.4501
 3340TIP3    H110026   2.763   1.122   1.094  0.2398 -1.0305 -0.2492
 3340TIP3    H210027   2.625   1.180   1.110  0.3087 -0.4209 -1.7304
 3341TIP3   OH210028   5.684   2.856   5.115  0.3051 -0.3280 -0.9410
 3341TIP3    H110029   5.686   2.764   5.089  0.7513 -0.0873 -1.7840
 3341TIP3    H210030   5.717   2.856   5.205  0.2738 -0.9936 -0.9258
 3342TIP3   OH210031   1.256   5.140   2.968  0.3946 -0.5462  0.2604
 3342TIP3    H110032   1.232   5.140   2.875  1.2565 -1.3008  0.0200
 3342TIP3    H210033   1.174   5.128   3.015 -0.0761  0.0176 -0.3920
 3343TIP3   OH210034   2.768   4.792   1.722 -0.6454  0.0006 -0.2269
 3343TIP3    H110035   2.734   4.740   1.795  0.7749  0.2920  0.6834
 3343TIP3    H210036   2.744   4.742   1.644 -1.8531 -0.5233  0.4469
 3344TIP3   OH210037   6.120   0.768   0.108 -0.4318 -0.2751 -0.4832
 3344TIP3    H110038   6.159   0.688   0.143 -0.6786 -1.3734 -2.5329
 3344TIP3    H210039   6.191   0.808   0.057  0.1042  1.5960  1.5895
 3345TIP3   OH210040   6.066   1.146   3.233 -0.3674  0.7309 -0.4424
 3345TIP3    H110041   5.975   1.118   3.238 -0.1637  0.1058 -0.2364
 3345TIP3    H210042   6.116   1.074   3.271  0.2791  0.7515 -1.2400
 3346TIP3   OH210043   1.270   5.838   2.688  0.1940 -0.5441 -0.2073
 3346TIP3    H110044   1.225   5.804   2.766 -0.5794  1.0763  0.0925
 3346TIP3    H210045   1.362   5.817   2.702  0.0128 -0.6022  0.9831
 3347TIP3   OH210046   3.974   3.741   4.324 -0.1555 -0.3431 -0.1291
 3347TIP3    H110047   4.066   3.766   4.317 -0.5754  1.1099 -1.1036
 3347TIP3    H210048   3.974   3.646   4.325  1.2795 -0.3949 -1.5776
 3348TIP3   OH210049   1.072   1.595   3.078  0.7918  0.2081 -0.2879
 3348TIP3    H110050   1.140   1.662   3.090  1.0737  0.2833 -2.0480
 3348TIP3    H210051   0.998   1.642   3.041  0.5810 -0.2473 -0.4537
 3349TIP3   OH210052   0.618   4.407   1.395 -0.3907 -0.4673  0.7583
 3349TIP3    H110053   0.572   4.424   1.313  1.4006 -1.3545 -0.5075
 3349TIP3    H210054   0.549   4.385   1.457 -1.9734  2.0070  0.0379
 3350TIP3   OH210055   1.311   3.665   4.049  0.3932  0.1558 -0.2320
 3350TIP3    H110056   1.279   3.579   4.077  0.3431 -0.2088 -1.3794
 3350TIP3    H210057   1.232   3.718   4.040  0.1537 -0.4509 -2.0677
 3351TIP3   OH210058   0.324   5.737   1.611  0.6902  0.0288  0.2778
 3351TIP3    H110059   0.381   5.670   1.647 -0.7873 -1.2548  0.2996
 3351TIP3    H210060   0.346   5.740   1.518 -0.6092 -1.9947 -0.1555
 3352TIP3   OH210061   4.402   5.186   2.760  0.1405  0.5209  0.3810
 3352TIP3    H110062   4.460   5.233   2.821  0.1241  0.6694  0.2834
 3352TIP3    H210063   4.441   5.201   2.674  0.4823 -0.1574  0.4100
 3353TIP3   OH210064   1.303   2.588   4.750  0.3656  0.2550  0.0445
 3353TIP3    H110065   1.227   2.531   4.762  0.0536  0.9434  1.5604
 3353TIP3    H210066   1.327   2.614   4.839  1.4417  1.2641 -0.5260
 3354TIP3   OH210067   6.227   4.021   0.703  0.1318  0.0439  0.9546
 3354TIP3    H110068   6.288   4.086   0.668 -1.1955 -0.4794 -2.7120
 3354TIP3    H210069   6.141   4.051   0.676 -0.7400 -2.0922  1.1295
 3355TIP3   OH210070   0.451   0.685   4.638 -0.3197 -0.0064  0.0160
 3355TIP3    H110071   0.407   0.658   4.719 -1.2352 -3.7869 -1.5233
 3355TIP3    H210072   0.457   0.604   4.586  0.9223  2.0735 -3.3926
 3356TIP3   OH210073   6.213   4.381   1.142 -0.1358  0.3149 -0.4049
 3356TIP3    H110074   6.241   4.471   1.121 -0.8267  0.8570  0.8358
 3356TIP3    H210075   6.153   4.357   1.072  0.4026  0.6563 -0.9871
 3357TIP3   OH210076   5.647   2.030   1.752  0.2167  0.4380  0.2461
 3357TIP3    H110077   5.722   2.088   1.739  0.2841  0.1527 -0.6571
 3357TIP3    H210078   5.582   2.085   1.797  0.8675  0.7560  0.8137
 3358TIP3   OH210079   1.264   4.750   1.372 -0.0516  0.3089 -0.5544
 3358TIP3    H110080   1.351   4.773   1.403  0.4711  1.7222 -2.8718
 3358TIP3    H210081   1.274   4.664   1.332 -0.0624 -0.1348  0.3615
 3359TIP3   OH210082   3.263   4.147   3.672 -0.2463 -0.2617 -0.0522
 3359TIP3    H110083   3.296   4.138   3.583  1.6974  0.1233  0.5665
 3359TIP3    H210084   3.237   4.239   3.679 -0.9399 -0.4253 -0.3655
 3360TIP3   OH210085   2.386   1.065   2.395  0.5139  0.5313 -0.1826
 3360TIP3    H110086   2.442   1.129   2.351 -0.4898  1.6554  0.1077
 3360TIP3    H210087   2.297   1.099   2.383  0.0325 -0.3743  0.6947
 3361TIP3   OH210088   3.274   5.644   0.852  0.5531 -0.2702  0.3884
 3361TIP3    H110089   3.292   5.728   0.893  2.0554 -0.9401  1.1886
 3361TIP3    H210090   3.281   5.661   0.758 -1.0196  0.8625  0.4331
 3362TIP3   OH210091   2.020   2.650   0.053 -0.3422 -0.2449  0.0986
 3362TIP3    H110092   2.085   2.642   0.123 -0.1198 -1.0639 -0.1820
 3362TIP3    H210093   2.005   2.744   0.045  1.1386  0.0063 -0.1169
 3363TIP3   OH210094   4.302   2.178   1.187 -0.2128  0.0287  0.0016
 3363TIP3    H110095   4.288   2.084   1.182  1.6613 -0.4669  2.3442
 3363TIP3    H210096   4.314   2.206   1.096 -0.7749 -1.9604 -0.7351
 3364TIP3   OH210097   0.281   1.866   2.180 -0.3440 -0.2093  0.6316
 3364TIP3    H110098   0.209   1.852   2.241 -1.0562 -0.1114 -0.1717
 3364TIP3    H210099   0.354   1.817   2.218 -0.4777  0.6416  2.0703
 3365TIP3   OH210100   1.154   2.521   3.717 -0.0525 -0.2843  0.0846
 3365TIP3    H110101   1.134   2.604   3.674  0.8392 -0.4019 -0.5793
 3365TIP3    H210102   1.112   2.528   3.803 -0.1592  0.7613 -0.0393
 3366TIP3   OH210103   2.682   1.561   4.525  0.4136  0.2047 -0.0012
 3366TIP3    H110104   2.663   1.486   4.581  0.1131  0.2409 -0.0520
 3366TIP3    H210105   2.750   1.530   4.465  1.2477  0.3823  0.8277
 3367TIP3   OH210106   4.816   0.361   3.470  0.5438  0.1749 -0.1142
 3367TIP3    H110107   4.848   0.417   3.400  1.3102  0.6185  0.5694
 3367TIP3    H210108   4.860   0.393   3.549 -1.7655  0.9815  0.9498
 3368TIP3   OH210109   3.635   2.719   0.192  0.0734 -0.0964 -0.4086
 3368TIP3    H110110   3.609   2.801   0.150  1.3251 -0.2661 -1.5802
 3368TIP3    H210111   3.638   2.740   0.285  0.9533  1.3805 -0.7337
 3369TIP3   OH210112   5.109   1.969   3.721  0.7366  0.1569 -0.0198
 3369TIP3    H110113   5.142   1.895   3.773  0.4753 -0.4799 -0.7430
 3369TIP3    H210114   5.183   1.996   3.668  0.7331  0.1858 -0.0100
 3370TIP3   OH210115   5.719   3.498   0.209 -0.0876  0.4528 -0.1999
 3370TIP3    H110116   5.694   3.406   0.223  1.6125  0.2661  2.2935
 3370TIP3    H210117   5.776   3.495   0.132 -1.3073 -0.2832 -1.1262
 3371TIP3   OH210118   2.920   3.669   4.650 -0.0357  0.3771 -0.5401
 3371TIP3    H110119   2.828   3.683   4.669  0.0030 -0.8050  0.7380
 3371TIP3    H210120   2.940   3.583   4.689  1.5117  0.4384 -1.0953
 3372TIP3   OH210121   1.677   1.671   2.548 -0.7627 -0.0136 -0.2580
 3372TIP3    H110122   1.750   1.695   2.491 -0.6353 -1.2426 -0.6333
 3372TIP3    H210123   1.600   1.714   2.509 -1.0039 -2.2364 -2.4236
 3373TIP3   OH210124   0.093   2.754   0.901  0.3600 -0.3897  0.5160
 3373TIP3    H110125   0.028   2.817   0.868  0.6357 -0.6474 -0.5510
 3373TIP3    H210126   0.047   2.708   0.971  0.0884  0.8486  1.1901
 3374TIP3   OH210127   2.953   1.275   3.618 -0.0750  0.1854 -0.3834
 3374TIP3    H110128   2.938   1.241   3.530  0.0855 -0.8135 -0.0435
 3374TIP3    H210129   2.996   1.359   3.604 -0.3066  0.1730 -1.2605
 3375TIP3   OH210130   0.199   3.993   2.833 -0.0629  0.0775  0.2404
 3375TIP3    H110131   0.162   4.027   2.752  2.1310 -1.4503 -1.5443
 3375TIP3    H210132   0.155   3.909   2.846 -0.2025  0.1853  0.4697
 3376TIP3   OH210133   6.254   4.436   0.750  0.5412 -0.2902 -0.5039
 3376TIP3    H110134   6.310   4.359   0.746  0.7122 -0.1272 -1.7172
 3376TIP3    H210135   6.173   4.406   0.790  0.5659 -1.1249 -1.0739
 3377TIP3   OH210136   5.890   4.634   2.842 -1.0286 -0.3271 -0.4803
 3377TIP3    H110137   5.881   4.668   2.931 -0.4854  0.7849 -0.8270
 3377TIP3    H210138   5.882   4.539   2.851 -1.2367 -0.2080  0.7155
 3378TIP3   OH210139   3.239   2.300   3.066  0.1292 -0.2230  0.5614
 3378TIP3    H110140   3.335   2.293   3.065  0.1802  0.3890 -0.1710
 3378TIP3    H210141   3.220   2.362   3.136  0.0560 -2.5953  2.7630
 3379TIP3   OH210142   0.882   5.233   4.879  0.3401 -0.2322  0.0566
 3379TIP3    H110143   0.825   5.258   4.951  0.1242 -1.3576  0.2869
 3379TIP3    H210144   0.890   5.138   4.885 -0.6175 -0.5239 -2.0736
 3380TIP3   OH210145   4.920   1.813   3.583  0.0398  0.0424 -0.0372
 3380TIP3    H110146   4.887   1.851   3.501 -0.5829  0.8140  0.5563
 3380TIP3    H210147   4.965   1.884   3.627  0.4920 -0.4063  0.2380
 3381TIP3   OH210148   4.188   2.568   0.216 -0.0946  0.1184  0.2356
 3381TIP3    H110149   4.275   2.547   0.249  0.3160  0.3659 -0.6691
 3381TIP3    H210150   4.134   2.494   0.242  0.7648 -0.8613 -0.6744
 3382TIP3   OH210151   6.214   4.396   4.720 -0.1089 -0.3289 -0.4712
 3382TIP3    H110152   6.169   4.444   4.789 -0.3956 -1.7961  0.4144
 3382TIP3    H210153   6.165   4.314   4.713  1.0475 -0.9808 -1.0963
 3383TIP3   OH210154   2.958   2.872   0.950  0.3567  0.4740 -1.1343
 3383TIP3    H110155   2.978   2.962   0.924  2.5566 -0.2202 -2.0430
 3383TIP3    H210156   2.944   2.877   1.045  0.5421  1.7487 -1.1561
 3384TIP3   OH210157   1.064   3.156   1.801  0.5070  0.0176 -0.0732
 3384TIP3    H110158   1.062   3.062   1.820 -2.0961 -0.1275 -0.6791
 3384TIP3    H210159   1.147   3.169   1.754  1.8444 -1.5775  1.6895
 3385TIP3   OH210160   3.088   2.786   0.179 -0.0654 -0.3146  0.0635
 3385TIP3    H110161   3.020   2.844   0.214  0.2917  1.2800 -1.6965
 3385TIP3    H210162   3.044   2.733   0.113  0.1327 -0.1382 -0.2162
 3386TIP3   OH210163   3.139   0.843   3.908  0.0331 -0.3186  0.0471
 3386TIP3    H110164   3.048   0.874   3.912  0.2193  0.2466  0.0467
 3386TIP3    H210165   3.138   0.776   3.841  0.6771  3.5235 -4.2747
 3387TIP3   OH210166   1.508   2.075  -0.024 -0.5526 -0.5395  0.1375
 3387TIP3    H110167   1.583   2.075   0.035 -1.0123 -1.1319  0.7394
 3387TIP3    H210168   1.446   2.136   0.016  0.5339  1.8956 -1.6292
 3388TIP3   OH210169   5.925   4.688   3.114 -0.4205  0.3117 -0.4380
 3388TIP3    H110170   5.846   4.708   3.165 -0.1038  0.6223 -0.0612
 3388TIP3    H210171   5.958   4.607   3.151 -1.1620 -0.4169 -1.3210
 3389TIP3   OH210172   5.201   1.523  -0.021  0.7004 -0.9039  0.2856
 3389TIP3    H110173   5.292   1.550  -0.008 -0.0575  1.8861  0.5609
 3389TIP3    H210174   5.151   1.579   0.038 -1.3136 -1.2429 -0.9930
 3390TIP3   OH210175   0.180   2.851   1.900 -0.1692  0.2090  0.0482
 3390TIP3    H110176   0.253   2.897   1.858  1.1446 -0.5093  1.4181
 3390TIP3    H210177   0.197   2.860   1.994 -2.7158  1.3059  0.4620
 3391TIP3   OH210178   1.620   2.318   0.967  0.4358 -1.0048 -0.2178
 3391TIP3    H110179   1.712   2.330   0.988  0.4270 -0.1490 -0.6336
 3391TIP3    H210180   1.620   2.253   0.897  0.8142 -0.2241 -0.9645
 3392TIP3   OH210181  -0.006   4.821   5.081  0.5523  0.4021 -0.2313
 3392TIP3    H110182   0.052   4.745   5.074  1.7555  0.8628  2.9227
 3392TIP3    H210183   0.052   4.896   5.069 -0.5271  0.8976 -2.7557
 3393TIP3   OH210184   3.386   2.132   4.436  0.9220 -0.4464  0.2985
 3393TIP3    H110185   3.302   2.166   4.466  0.9665 -0.8858  0.9506
 3393TIP3    H210186   3.365   2.048   4.394  1.0648 -0.7554  0.8230
 3394TIP3   OH210187   2.944   2.687   2.426 -0.9023  0.8373 -0.1951
 3394TIP3    H110188   3.033   2.703   2.456  0.4694 -1.6268 -2.5366
 3394TIP3    H210189   2.927   2.595   2.448 -2.0006  0.6305 -1.7026
 3395TIP3   OH210190   5.150   5.926   3.607 -0.3540 -0.1464 -0.1464
 3395TIP3    H110191   5.069   5.972   3.628 -0.0471 -0.4973  2.0189
 3395TIP3    H210192   5.168   5.872   3.684  1.3699 -0.9067 -1.0190
 3396TIP3   OH210193   3.699   0.463   3.587  0.4349 -0.1911  0.3612
 3396TIP3    H110194   3.695   0.368   3.576  0.3717 -0.0661 -0.7440
 3396TIP3    H210195   3.775   0.477   3.643  2.2211 -0.7175 -1.8352
 3397TIP3   OH210196   2.373   5.618   4.417  0.5347  0.1212  0.2677
 3397TIP3    H110197   2.382   5.585   4.328  2.1176 -0.3542  0.5775
 3397TIP3    H210198   2.341   5.542   4.467  0.0057  0.2836  0.1793
 3398TIP3   OH210199   4.628   4.903   4.189 -0.2396 -0.0842 -0.0651
 3398TIP3    H110200   4.647   4.828   4.244  0.9964 -0.2184 -0.6359
 3398TIP3    H210201   4.591   4.968   4.248 -0.3604 -0.7664  0.6215
 3399TIP3   OH210202   0.423   0.419   2.135  0.6511  0.0167 -0.4264
 3399TIP3    H110203   0.446   0.401   2.043  0.5461  2.6977 -1.0478
 3399TIP3    H210204   0.438   0.513   2.146 -0.2571 -0.0504  2.0671
 3400TIP3   OH210205   3.469   4.660   5.014 -0.2519  0.7991  0.5730
 3400TIP3    H110206   3.493   4.632   4.925  2.2277 -0.1154  1.4537
 3400TIP3    H210207   3.379   4.630   5.024  0.1930 -1.2576 -0.8114
 3401TIP3   OH210208   4.966   2.181   2.472  0.3070 -0.3291  0.0077
 3401TIP3    H110209   4.890   2.236   2.490  0.4133 -0.4203  0.7508
 3401TIP3    H210210   4.944   2.096   2.510  1.5894  0.1939  2.0710
 3402TIP3   OH210211   1.337   3.614   0.502  0.4553  0.1898  0.3385
 3402TIP3    H110212   1.255   3.580   0.538 -0.4973  0.3624 -1.5152
 3402TIP3    H210213   1.382   3.537   0.466 -1.1352  0.5207 -2.7649
 3403TIP3   OH210214   6.073   2.543   4.800 -0.2222  0.6509 -0.1116
 3403TIP3    H110215   6.131   2.525   4.726 -1.5467  0.6752 -1.1909
 3403TIP3    H210216   6.056   2.458   4.839 -0.0189  0.5588 -0.2243
 3404TIP3   OH210217   2.334   3.788   0.177  0.3660  0.2854 -0.1298
 3404TIP3    H110218   2.293   3.719   0.124 -0.9407 -0.6024  1.8935
 3404TIP3    H210219   2.330   3.754   0.266  0.4556  2.6597  0.8352
 3405TIP3   OH210220   0.266   5.926   4.299 -0.6180  0.0250 -0.0588
 3405TIP3    H110221   0.183   5.922   4.253 -1.5518 -2.1632  1.6131
 3405TIP3    H210222   0.245   5.900   4.388  1.7786 -0.0358  0.5543
 3406TIP3   OH210223   0.954   0.426   4.205 -0.7358 -0.1270  0.1599
 3406TIP3    H110224   0.923   0.507   4.165 -2.0321 -1.7977 -2.5348
 3406TIP3    H210225   1.046   0.420   4.181 -1.5182 -1.1724 -3.0274
 3407TIP3   OH210226   5.652   0.398   3.423  0.5302 -0.2119 -0.0362
 3407TIP3    H110227   5.683   0.326   3.477  0.8657  0.7600  1.1001
 3407TIP3    H210228   5.669   0.369   3.333  0.9313 -1.4119  0.4082
 3408TIP3   OH210229   0.077   0.574   1.051  0.0596 -0.0236 -0.0277
 3408TIP3    H110230   0.026   0.513   0.998  0.6344  0.1502 -0.8006
 3408TIP3    H210231   0.063   0.660   1.010  0.9601  0.0240 -0.2689
 3409TIP3   OH210232   5.463   4.110   5.129  0.1769 -0.3787 -0.2458
 3409TIP3    H110233   5.390   4.082   5.184  0.4835 -1.2203 -0.2499
 3409TIP3    H210234   5.521   4.157   5.188  0.6136 -1.4703  0.2321
 3410TIP3   OH210235   2.914   4.639   3.368  0.1289  0.5552  0.3993
 3410TIP3    H110236   3.007   4.657   3.378  0.3423 -0.7469  0.9685
 3410TIP3    H210237   2.873   4.684   3.442  0.2230  1.5631 -0.1416
 3411TIP3   OH210238   3.957   2.338   4.614  0.7652  0.4036 -0.1134
 3411TIP3    H110239   4.023   2.361   4.549  0.0461  2.5844 -0.1700
 3411TIP3    H210240   4.002   2.347   4.698  0.8183  0.9186 -0.1923
 3412TIP3   OH210241   0.702   1.619   3.807 -0.3450 -0.2901  0.6215
 3412TIP3    H110242   0.790   1.638   3.774 -1.3202 -1.2566 -3.0411
 3412TIP3    H210243   0.650   1.695   3.780 -1.4591 -1.7190 -1.5623
 3413TIP3   OH210244   3.257   5.272   1.620  0.0440 -0.0895 -0.0339
 3413TIP3    H110245   3.170   5.306   1.600  0.5502  1.0006 -0.4386
 3413TIP3    H210246   3.279   5.216   1.546 -0.7560 -1.2877  0.5940
 3414TIP3   OH210247   3.243   1.548   0.084  0.2479  0.1104 -0.1153
 3414TIP3    H110248   3.330   1.516   0.106 -0.1280  0.2588  1.7450
 3414TIP3    H210249   3.185   1.507   0.148 -0.6642  2.0266  0.3607
 3415TIP3   OH210250   4.140   4.404   3.453  0.0538  0.1485 -0.3284
 3415TIP3    H110251   4.161   4.321   3.495 -1.4624 -0.8438 -1.4093
 3415TIP3    H210252   4.123   4.464   3.525 -0.3781 -0.9186  0.4896
 3416TIP3   OH210253   5.385   4.007   0.921 -0.3021 -0.0150 -0.1746
 3416TIP3    H110254   5.423   4.015   1.008  1.1532  1.0131 -0.8620
 3416TIP3    H210255   5.442   3.947   0.875 -0.9038 -0.3374 -0.5121
 3417TIP3   OH210256   4.819   5.638   0.316 -0.0246 -0.3461 -0.4235
 3417TIP3    H110257   4.810   5.643   0.221 -1.7390 -1.2492 -0.3486
 3417TIP3    H210258   4.784   5.721   0.348  1.7885  0.5401 -0.5907
 3418TIP3   OH210259   1.559   5.100   1.264 -0.0678  0.2162  0.1942
 3418TIP3    H110260   1.635   5.153   1.239  0.0062 -0.6538 -1.5492
 3418TIP3    H210261   1.553   5.111   1.359  1.3662  1.4412  0.1866
 3419TIP3   OH210262   4.083   3.106   3.283  0.5845  0.4199  0.4773
 3419TIP3    H110263   4.150   3.059   3.233 -0.9907 -2.8342  1.1331
 3419TIP3    H210264   4.064   3.183   3.230  2.5008 -0.2608 -1.3718
 3420TIP3   OH210265   5.477   5.358   1.945  0.3712  0.1775  0.2984
 3420TIP3    H110266   5.384   5.359   1.971  0.5937  1.6004  1.1674
 3420TIP3    H210267   5.479   5.308   1.864 -0.9270 -1.2521  1.0968
 3421TIP3   OH210268   6.214   1.966   0.322  0.3223 -0.1849 -0.3303
 3421TIP3    H110269   6.237   2.047   0.277  2.1377  0.2417  1.2437
 3421TIP3    H210270   6.134   1.986   0.369  0.8510  0.7628  0.1859
 3422TIP3   OH210271   2.442   1.351   1.863  0.4496  0.2472  0.4111
 3422TIP3    H110272   2.474   1.439   1.845  1.2362  0.0210  0.6644
 3422TIP3    H210273   2.369   1.339   1.802  2.2274 -0.0371 -1.8077
 3423TIP3   OH210274   5.373   1.040   3.693 -0.2427  0.2442  0.5477
 3423TIP3    H110275   5.449   0.993   3.658 -0.1834  2.2253 -2.3733
 3423TIP3    H210276   5.311   1.043   3.620 -0.9088  3.1167  1.1007
 3424TIP3   OH210277   2.869   4.359   0.099  0.3762  0.3722 -0.0642
 3424TIP3    H110278   2.831   4.313   0.025 -1.1717  1.0553  0.2722
 3424TIP3    H210279   2.963   4.342   0.093 -0.1277 -3.1801  0.2933
 3425TIP3   OH210280   5.070   2.915   3.973 -0.0524 -0.0910 -0.1316
 3425TIP3    H110281   5.060   2.872   4.057 -2.1724  0.1865 -0.2052
 3425TIP3    H210282   4.982   2.918   3.936  0.2294  2.8128 -0.8520
 3426TIP3   OH210283   2.074   5.949   1.979 -0.3569  0.3045 -0.1766
 3426TIP3    H110284   2.148   5.999   2.012  1.5883 -2.5728  0.2499
 3426TIP3    H210285   2.085   5.950   1.884  1.1906 -1.3182 -0.0564
 3427TIP3   OH210286   4.685   1.040   1.406 -0.1389 -0.2901 -0.3908
 3427TIP3    H110287   4.689   0.945   1.419  0.0732 -0.2051  0.2145
 3427TIP3    H210288   4.633   1.072   1.479 -1.2488 -0.0544 -1.2737
 3428TIP3   OH210289   2.534   5.675   5.046 -0.1212  0.0762 -0.0895
 3428TIP3    H110290   2.473   5.743   5.018 -0.2594  0.5625  1.3081
 3428TIP3    H210291   2.477   5.602   5.073 -0.1406  0.6295  1.4722
 3429TIP3   OH210292   5.720   4.972   3.701  0.2370  0.4764  0.7059
 3429TIP3    H110293   5.735   4.897   3.758  0.1390  0.8475  1.2313
 3429TIP3    H210294   5.693   4.934   3.618  1.7163 -0.1126  0.4804
 3430TIP3   OH210295   5.532   1.878   4.267  0.1256  0.2498  0.1699
 3430TIP3    H110296   5.529   1.973   4.258  0.8440  0.1128 -2.2838
 3430TIP3    H210297   5.500   1.845   4.183  1.9769 -1.6218  0.1011
 3431TIP3   OH210298   0.308   3.686   3.966  0.0027 -0.1377 -0.4452
 3431TIP3    H110299   0.260   3.644   3.895  1.5357  0.2921 -1.7903
 3431TIP3    H210300   0.246   3.688   4.039 -1.1452 -1.8666 -1.3126
 3432TIP3   OH210301   4.629   5.885   1.743 -0.1278  0.4306  0.7140
 3432TIP3    H110302   4.662   5.925   1.823  0.7018 -0.1355  0.6598
 3432TIP3    H210303   4.535   5.871   1.760  0.0602  0.2281  1.6142
 3433TIP3   OH210304   0.659   2.677   3.872 -0.3404  0.0011 -0.0305
 3433TIP3    H110305   0.754   2.665   3.877 -0.4186 -0.2846  0.9345
 3433TIP3    H210306   0.629   2.607   3.814  0.0240  0.0446 -0.2765
 3434TIP3   OH210307   4.232   4.185   4.535  0.4684 -0.2364 -0.0723
 3434TIP3    H110308   4.319   4.167   4.570  0.4829  0.6717  0.3900
 3434TIP3    H210309   4.247   4.255   4.471 -0.0864  0.9192  1.0127
 3435TIP3   OH210310   1.265   2.977   3.944  0.3057  0.0072 -0.1275
 3435TIP3    H110311   1.316   3.017   4.014  1.9741 -2.0957 -0.0637
 3435TIP3    H210312   1.191   3.037   3.932  0.1878  0.6835  3.0815
 3436TIP3   OH210313   3.898   3.756   1.433  0.5266 -0.1144 -0.0802
 3436TIP3    H110314   3.859   3.837   1.398 -0.3791 -0.5245 -0.0607
 3436TIP3    H210315   3.947   3.719   1.360  1.3788  0.7128  0.0601
 3437TIP3   OH210316   3.709   4.889   2.582 -0.2034  0.5639  0.5332
 3437TIP3    H110317   3.802   4.879   2.560 -0.5086  0.8309 -0.9696
 3437TIP3    H210318   3.709   4.952   2.654  0.7168  1.6118 -0.3301
 3438TIP3   OH210319   4.535   4.825   0.938  0.4177 -0.4793  0.1933
 3438TIP3    H110320   4.460   4.782   0.978 -0.4465  1.1409  0.3893
 3438TIP3    H210321   4.529   4.916   0.967  0.4420  0.5020 -2.6380
 3439TIP3   OH210322   4.593   0.179   0.067 -0.1706  0.0292 -0.0029
 3439TIP3    H110323   4.686   0.167   0.084 -0.2391 -0.9571 -0.2167
 3439TIP3    H210324   4.575   0.270   0.088  0.8142  0.1869  0.1694
 3440TIP3   OH210325   1.078   3.117   3.235 -0.0626  0.1548 -0.1696
 3440TIP3    H110326   1.148   3.168   3.193  1.3035 -2.1087 -0.8370
 3440TIP3    H210327   1.044   3.062   3.165 -1.8175  0.4443  0.4242
 3441TIP3   OH210328   5.055   5.109   0.078  0.2891 -0.2038 -0.4528
 3441TIP3    H110329   5.025   5.200   0.071 -2.4019 -1.0677 -1.8465
 3441TIP3    H210330   5.072   5.097   0.171 -0.1247  1.4886 -0.1158
 3442TIP3   OH210331   4.570   2.783   4.513 -0.0896  0.1025 -0.0412
 3442TIP3    H110332   4.603   2.870   4.534 -2.7658  0.9395  1.1273
 3442TIP3    H210333   4.494   2.798   4.456  0.6812 -1.6347 -1.6522
 3443TIP3   OH210334   5.195   1.261   1.167  0.7595  0.5299  0.7974
 3443TIP3    H110335   5.174   1.353   1.151  0.9159  0.4509  0.0870
 3443TIP3    H210336   5.258   1.263   1.239  0.5508  0.9597  0.9712
 3444TIP3   OH210337   0.424   1.822   3.901 -0.3901  0.5651 -0.3761
 3444TIP3    H110338   0.356   1.890   3.901  0.4609  1.4418  0.3606
 3444TIP3    H210339   0.423   1.788   3.812 -1.6720  0.6726 -0.4317
 3445TIP3   OH210340   6.190   1.423   1.948 -0.6208 -0.5488 -0.0216
 3445TIP3    H110341   6.109   1.474   1.942 -0.6299 -0.5523  0.0664
 3445TIP3    H210342   6.212   1.424   2.041  0.8748  1.6222 -0.3214
 3446TIP3   OH210343   5.459   4.331   1.202 -0.1615 -0.2556 -0.1519
 3446TIP3    H110344   5.425   4.354   1.115 -0.0976  0.9652  0.1288
 3446TIP3    H210345   5.474   4.237   1.198 -3.5506 -0.9213 -0.3360
 3447TIP3   OH210346   0.246   3.175   3.460  0.0925  0.8000  0.3495
 3447TIP3    H110347   0.276   3.235   3.529  0.3686 -0.4997  1.3869
 3447TIP3    H210348   0.315   3.109   3.454 -0.0128  0.7910 -1.0769
 3448TIP3   OH210349   2.233   1.957   2.572  0.0685 -0.1791 -0.1949
 3448TIP3    H110350   2.222   1.864   2.590 -0.0422 -0.1816 -0.2788
 3448TIP3    H210351   2.255   1.995   2.657 -1.0223 -0.1025  0.0620
 3449TIP3   OH210352   1.887   5.406   1.405 -0.1002 -0.0452  0.9706
 3449TIP3    H110353   1.820   5.337   1.406 -1.1549  0.7640 -2.3095
 3449TIP3    H210354   1.841   5.484   1.374  2.5430  0.1189 -3.3873
 3450TIP3   OH210355   3.656   4.689   4.341  0.0228  0.0818 -0.6595
 3450TIP3    H110356   3.608   4.772   4.342 -0.5164 -0.2285 -0.7756
 3450TIP3    H210357   3.598   4.627   4.385 -0.5849 -0.8020 -2.6214
 3451TIP3   OH210358   3.044   5.777   0.256  0.0982  0.1392 -0.6702
 3451TIP3    H110359   3.059   5.688   0.286 -0.9104  0.2382  0.1791
 3451TIP3    H210360   2.949   5.782   0.241  0.0685  1.1893 -0.2362
 3452TIP3   OH210361   1.129   5.430   4.006  0.5998  0.4900  0.3071
 3452TIP3    H110362   1.034   5.424   4.000  0.6800 -0.9189  0.2059
 3452TIP3    H210363   1.157   5.468   3.923  0.0656  2.0686  0.8024
 3453TIP3   OH210364   0.693   5.237   4.095 -0.3002 -0.1392  0.0137
 3453TIP3    H110365   0.681   5.312   4.154  0.6117 -0.9033  1.2151
 3453TIP3    H210366   0.760   5.184   4.138  2.2629  0.4707 -2.8592
 3454TIP3   OH210367   3.222   0.449   0.738 -0.0463  0.8274 -0.1240
 3454TIP3    H110368   3.131   0.420   0.734  0.2998 -0.3844  0.2172
 3454TIP3    H210369   3.218   0.543   0.720 -1.2565  0.6316 -1.0272
 3455TIP3   OH210370   2.380   0.951   3.008 -0.0893 -0.0396  0.3044
 3455TIP3    H110371   2.437   0.896   2.955 -0.1596 -0.1418  0.3349
 3455TIP3    H210372   2.292   0.931   2.978 -0.0011  2.0148 -1.5745
 3456TIP3   OH210373   3.507   1.965   1.850 -0.1571 -0.1274 -0.0044
 3456TIP3    H110374   3.526   1.957   1.944  1.6388  0.7172 -0.2493
 3456TIP3    H210375   3.436   1.902   1.834  0.5920 -1.4508  1.6043
 3457TIP3   OH210376   1.557   1.779   1.507 -0.7060  0.2039  0.5481
 3457TIP3    H110377   1.591   1.712   1.447 -0.3253 -0.0574  1.0494
 3457TIP3    H210378   1.486   1.735   1.554  1.7521 -1.0366  3.3851
 3458TIP3   OH210379   3.520   0.459   1.268  0.0935  0.1801  0.5719
 3458TIP3    H110380   3.424   0.463   1.267 -0.0834 -1.1180 -3.2249
 3458TIP3    H210381   3.547   0.525   1.204  1.7542  0.3746  1.4326
 3459TIP3   OH210382   4.788   0.633   1.175  0.0264  0.2834 -0.7712
 3459TIP3    H110383   4.724   0.585   1.123 -0.8046 -0.5378  0.9118
 3459TIP3    H210384   4.867   0.635   1.121 -0.6322 -0.9723 -1.8361
 3460TIP3   OH210385   0.619   1.193   5.085 -0.0243  0.4710 -0.2280
 3460TIP3    H110386   0.540   1.203   5.137  0.0566 -0.6222  0.1418
 3460TIP3    H210387   0.597   1.125   5.021 -0.2460  2.0505 -1.8979
 3461TIP3   OH210388   3.203   5.936   0.977 -0.1248  0.0719  0.3390
 3461TIP3    H110389   3.188   5.894   1.062 -1.8109  1.2065  0.6484
 3461TIP3    H210390   3.232   6.024   0.999 -0.1618  0.2357 -0.2620
 3462TIP3   OH210391   5.045   1.660   3.231  0.0417 -0.2845 -0.4444
 3462TIP3    H110392   5.099   1.588   3.262 -0.0902 -0.6644 -1.0701
 3462TIP3    H210393   5.017   1.633   3.143 -1.8330 -0.4586  0.1751
 3463TIP3   OH210394   1.151   2.346   1.906  0.0348  0.3330 -0.0498
 3463TIP3    H110395   1.105   2.336   1.823  0.2622  0.6087 -0.2097
 3463TIP3    H210396   1.089   2.315   1.972  0.8611 -2.8037 -0.5398
 3464TIP3   OH210397   1.650   5.000   0.916 -0.1605  0.0430 -0.6899
 3464TIP3    H110398   1.599   4.919   0.915  1.3719 -0.9976  0.6777
 3464TIP3    H210399   1.584   5.070   0.918 -1.5115 -1.1693 -1.2874
 3465TIP3   OH210400   2.802   5.581   5.020  0.6957  0.4619 -0.2095
 3465TIP3    H110401   2.860   5.633   4.965 -1.5174  1.4807 -1.7277
 3465TIP3    H210402   2.741   5.645   5.058  0.9948 -0.4584  1.9549
 3466TIP3   OH210403   3.690   0.564   4.690  0.3529  0.7121  0.4359
 3466TIP3    H110404   3.718   0.635   4.749  3.9538  2.2335 -2.6791
 3466TIP3    H210405   3.637   0.607   4.623  1.0429  0.1581 -0.4903
 3467TIP3   OH210406   1.800   0.765   1.295 -0.1254  0.7850 -0.5358
 3467TIP3    H110407   1.754   0.745   1.213 -0.4911 -1.4553  0.1354
 3467TIP3    H210408   1.887   0.792   1.268  0.3784 -1.7026 -1.6835
 3468TIP3   OH210409   3.031   3.068   1.175 -0.0462 -0.6456 -0.3873
 3468TIP3    H110410   2.962   3.126   1.144  0.1379 -0.1487  0.1233
 3468TIP3    H210411   3.068   3.113   1.251 -0.4653 -1.8263  0.5432
 3469TIP3   OH210412   0.565   5.010   4.620 -0.5214 -0.3919 -0.0723
 3469TIP3    H110413   0.494   4.946   4.614 -1.7446  0.9037 -0.0331
 3469TIP3    H210414   0.557   5.062   4.540 -0.4058  0.5475  0.5163
 3470TIP3   OH210415   3.781   3.548   3.807 -0.4124  0.2375 -0.3457
 3470TIP3    H110416   3.840   3.576   3.877 -0.6132  2.2855 -0.9321
 3470TIP3    H210417   3.764   3.455   3.826  0.8024  0.3130  1.3781
 3471TIP3   OH210418   1.218   5.296   0.672  0.6382  0.2107  0.3090
 3471TIP3    H110419   1.195   5.236   0.601  1.4098 -1.5313  1.4613
 3471TIP3    H210420   1.298   5.339   0.642  0.6252 -0.0537 -0.1180
 3472TIP3   OH210421   2.736   2.551   0.282 -0.1570 -0.5270  0.0773
 3472TIP3    H110422   2.805   2.490   0.258  0.5574  1.0732 -2.3069
 3472TIP3    H210423   2.780   2.616   0.337  0.3663  0.5886 -1.5832
 3473TIP3   OH210424   5.185   0.227   3.406 -0.3097 -0.0525 -0.1726
 3473TIP3    H110425   5.120   0.164   3.377  0.4548 -0.6038 -0.7288
 3473TIP3    H210426   5.176   0.300   3.346  1.0796 -1.0714 -1.6969
 3474TIP3   OH210427   3.366   5.349   1.278  0.0866 -0.1941 -0.1285
 3474TIP3    H110428   3.455   5.346   1.244  1.0217 -0.6357  2.1840
 3474TIP3    H210429   3.357   5.270   1.331 -1.8922 -0.4171 -0.6744
 3475TIP3   OH210430   2.044   3.386   0.943  0.0070  0.1484 -0.0205
 3475TIP3    H110431   2.023   3.308   0.996 -0.3921  1.6770  2.2403
 3475TIP3    H210432   1.986   3.379   0.867 -0.5114 -1.4192  0.4596
 3476TIP3   OH210433   0.193   0.702   2.525  0.2230  0.5050  1.0542
 3476TIP3    H110434   0.187   0.731   2.434  2.3162 -0.8349  0.4031
 3476TIP3    H210435   0.203   0.783   2.575  0.9559  1.1842 -0.1285
 3477TIP3   OH210436   2.930   2.068   1.401  0.0449 -0.0997  0.1156
 3477TIP3    H110437   2.909   2.041   1.490 -0.9610 -0.6010 -0.2608
 3477TIP3    H210438   2.848   2.058   1.353  0.7192 -0.4049 -1.0068
 3478TIP3   OH210439   0.893   1.135   1.690 -0.2484 -0.1781 -0.6137
 3478TIP3    H110440   0.852   1.084   1.620  0.3015  0.0975 -1.1504
 3478TIP3    H210441   0.946   1.200   1.643  0.0247  0.0909  0.0649
 3479TIP3   OH210442   4.363   1.952   2.945  0.3234 -0.8048 -1.0150
 3479TIP3    H110443   4.308   1.874   2.956 -0.3654 -0.4258 -1.6855
 3479TIP3    H210444   4.431   1.925   2.883  0.4746 -1.0597 -0.7428
 3480TIP3   OH210445   1.349   3.125   2.657  0.5413 -0.1494 -0.1733
 3480TIP3    H110446   1.295   3.063   2.608 -0.6287  0.6198  0.1022
 3480TIP3    H210447   1.438   3.090   2.649 -0.1638 -2.3364  0.6637
 3481TIP3   OH210448   3.846   0.473   0.644 -0.2398  0.1705 -0.9299
 3481TIP3    H110449   3.921   0.431   0.685 -0.6535 -0.0513 -0.3932
 3481TIP3    H210450   3.800   0.516   0.716 -0.7421  0.1278 -1.2194
 3482TIP3   OH210451   6.325   1.610   0.988 -0.0270 -0.3602  0.1236
 3482TIP3    H110452   6.351   1.645   1.074  0.3789  0.1383 -0.2014
 3482TIP3    H210453   6.264   1.675   0.953 -1.1913 -1.1799  0.5733
 3483TIP3   OH210454   4.271   5.346   0.708 -0.4042 -0.2790  0.5007
 3483TIP3    H110455   4.220   5.425   0.692  0.9153  0.6726  0.7681
 3483TIP3    H210456   4.341   5.349   0.643 -0.6768 -1.5460  0.1325
 3484TIP3   OH210457   1.962   3.210   0.126 -0.0418 -0.1430 -0.1399
 3484TIP3    H110458   1.938   3.189   0.035  1.8403 -0.4713 -0.6116
 3484TIP3    H210459   1.893   3.170   0.179  0.9029 -3.5601 -1.2456
 3485TIP3   OH210460   4.398   2.687   1.737  0.0886  0.0677  0.5483
 3485TIP3    H110461   4.329   2.740   1.699  0.7741  0.5484 -0.0468
 3485TIP3    H210462   4.374   2.597   1.714 -0.9234  0.1253  1.3186
 3486TIP3   OH210463   6.202   0.406   0.093 -0.0705 -0.8296 -0.0435
 3486TIP3    H110464   6.278   0.386   0.147  0.2911 -0.2379 -0.3231
 3486TIP3    H210465   6.128   0.371   0.142  0.2258 -0.1549  0.9311
 3487TIP3   OH210466   5.238   3.186   2.550 -0.5807 -0.8046 -0.1322
 3487TIP3    H110467   5.198   3.272   2.558  0.9316  0.0566 -1.3582
 3487TIP3    H210468   5.203   3.136   2.624 -1.2707  0.9321  0.7584
 3488TIP3   OH210469   0.710   3.730   3.679  0.6078 -0.6208 -0.4989
 3488TIP3    H110470   0.627   3.751   3.722  0.3740 -1.6822 -0.3963
 3488TIP3    H210471   0.770   3.798   3.708  0.0503 -0.4445  0.2759
 3489TIP3   OH210472   0.541   0.507   1.406  0.3147  0.0205 -0.2719
 3489TIP3    H110473   0.635   0.518   1.394  0.3113 -1.2361 -1.6647
 3489TIP3    H210474   0.525   0.536   1.496  1.7478  1.8175 -0.5343
 3490TIP3   OH210475   1.644   0.931   3.715 -0.2398 -0.7777  0.3051
 3490TIP3    H110476   1.626   1.006   3.659  1.9374  0.3271  0.9814
 3490TIP3    H210477   1.559   0.887   3.724 -0.9115 -0.3479 -2.8395
 3491TIP3   OH210478   0.396   1.345   0.666 -0.1665 -0.4722 -0.2107
 3491TIP3    H110479   0.312   1.367   0.705 -0.0525  0.3284 -0.4036
 3491TIP3    H210480   0.376   1.276   0.602 -0.5623 -0.7860  0.2476
 3492TIP3   OH210481   1.037   4.640   4.535 -0.6818  0.2456 -0.0485
 3492TIP3    H110482   1.108   4.588   4.572 -0.7767  0.2729  0.1782
 3492TIP3    H210483   0.976   4.575   4.499  0.2342  0.2611 -1.7344
 3493TIP3   OH210484   0.921   0.642   4.397 -0.5921  0.2077 -0.1497
 3493TIP3    H110485   0.984   0.642   4.469 -0.4475 -2.8890 -0.1585
 3493TIP3    H210486   0.838   0.668   4.438  0.3502  3.2889  0.0633
 3494TIP3   OH210487   4.262   2.191   2.822 -0.5961  0.1869 -0.4541
 3494TIP3    H110488   4.339   2.231   2.783 -1.5438  1.8448 -0.7405
 3494TIP3    H210489   4.296   2.122   2.878  1.1498  1.4053  0.0562
 3495TIP3   OH210490   1.305   2.964   2.936 -0.0194 -0.3787  0.3093
 3495TIP3    H110491   1.221   2.952   2.981  0.5224 -0.7960  1.2366
 3495TIP3    H210492   1.289   2.931   2.848  0.4735 -5.4606  1.8064
 3496TIP3   OH210493   5.808   4.254   2.115 -0.7038  0.2638  0.5582
 3496TIP3    H110494   5.723   4.215   2.138 -0.0723 -1.9485 -0.5859
 3496TIP3    H210495   5.792   4.299   2.033 -0.7888 -0.1172  0.3629
 3497TIP3   OH210496   2.243   1.765   5.023 -1.1749 -0.3985 -0.7651
 3497TIP3    H110497   2.206   1.701   5.083 -0.4000 -0.7346 -0.6387
 3497TIP3    H210498   2.336   1.744   5.019 -0.9966  0.4039 -1.1126
 3498TIP3   OH210499   3.498   0.210   2.825 -0.8623  0.7657 -0.3849
 3498TIP3    H110500   3.460   0.252   2.901 -0.6084  1.4751 -0.6378
 3498TIP3    H210501   3.445   0.132   2.810 -0.5635  0.3106  0.8531
 3499TIP3   OH210502   6.277   3.132   3.415  0.7795  0.1403  0.5385
 3499TIP3    H110503   6.360   3.091   3.392  0.0034 -0.4546 -1.4140
 3499TIP3    H210504   6.235   3.071   3.475  0.0973 -1.5495 -1.5172
 3500TIP3   OH210505   1.268   2.263   3.921  0.2779 -0.3115 -0.1733
 3500TIP3    H110506   1.241   2.348   3.955  0.0620 -0.6290  0.4709
 3500TIP3    H210507   1.362   2.258   3.939  0.0798 -0.6699  0.8300
 3501TIP3   OH210508   1.661   0.769   3.981 -0.0576 -0.1673  0.5461
 3501TIP3    H110509   1.705   0.848   3.952 -0.5471  0.2343  0.8877
 3501TIP3    H210510   1.731   0.704   3.991  0.4505  0.4640  1.1050
 3502TIP3   OH210511   4.536   4.333   4.032 -0.0506 -0.5685  0.2458
 3502TIP3    H110512   4.555   4.280   3.954  0.1558 -0.6551  0.3559
 3502TIP3    H210513   4.612   4.322   4.088 -0.3599 -0.8123  0.6263
 3503TIP3   OH210514   0.601   2.502   3.658 -0.6505  0.0139  0.1834
 3503TIP3    H110515   0.669   2.504   3.591  0.0246 -0.3536  0.8462
 3503TIP3    H210516   0.565   2.413   3.653  0.7556 -0.6819  1.6120
 3504TIP3   OH210517   2.256   1.085   0.116  0.5561 -0.6000  0.9249
 3504TIP3    H110518   2.347   1.066   0.139  1.4966  3.0226  0.8308
 3504TIP3    H210519   2.255   1.087   0.020  0.6854  0.3373  0.9276
 3505TIP3   OH210520   6.231   2.159   5.133  0.2333  0.1477 -0.0174
 3505TIP3    H110521   6.261   2.195   5.216 -0.5361  0.9314 -0.0611
 3505TIP3    H210522   6.197   2.072   5.154 -2.1968  1.2607  0.9543
 3506TIP3   OH210523   1.356   4.290   1.223  0.4147  0.3917 -0.4790
 3506TIP3    H110524   1.451   4.295   1.217  0.4300 -0.4162 -1.1034
 3506TIP3    H210525   1.339   4.233   1.298  0.4575 -0.4411 -1.0846
 3507TIP3   OH210526   5.726   4.735   2.259  0.1144  0.0703  0.2502
 3507TIP3    H110527   5.677   4.691   2.328  1.4525  0.2980  1.3871
 3507TIP3    H210528   5.671   4.810   2.235 -0.2872  0.0973  1.1975
 3508TIP3   OH210529   2.960   0.405   2.115  0.1479  0.1412  0.0671
 3508TIP3    H110530   2.881   0.415   2.062  0.5730 -1.3822 -0.9218
 3508TIP3    H210531   2.962   0.312   2.139  0.7188  0.5128  1.5853
 3509TIP3   OH210532   3.650   2.703   0.458 -0.0266  0.3652 -0.0631
 3509TIP3    H110533   3.700   2.784   0.454 -1.2590  1.2573  1.4658
 3509TIP3    H210534   3.696   2.651   0.524  0.6750 -0.1618 -0.9353
 3510TIP3   OH210535   3.400   3.989   1.883 -0.3585 -0.2207 -0.1784
 3510TIP3    H110536   3.389   3.894   1.888  0.8003 -0.2825  2.5045
 3510TIP3    H210537   3.478   4.002   1.829  0.2737 -0.8764  0.5645
 3511TIP3   OH210538   2.971   4.978   0.514  0.5468  0.1437  0.4419
 3511TIP3    H110539   2.918   5.054   0.537 -0.5435 -0.4434 -0.0437
 3511TIP3    H210540   2.988   4.987   0.420  0.0574 -0.4096  0.2927
 3512TIP3   OH210541   0.189   2.592   3.774 -0.3641 -0.0627  0.3465
 3512TIP3    H110542   0.150   2.505   3.785 -1.5887  0.0112 -2.4134
 3512TIP3    H210543   0.120   2.653   3.799 -1.0561  0.0564 -1.6542
 3513TIP3   OH210544   2.370   4.549   3.451  0.4013  0.1469 -0.1162
 3513TIP3    H110545   2.275   4.550   3.465  0.4118  1.1647 -0.0539
 3513TIP3    H210546   2.394   4.642   3.443  1.0973 -0.1556 -2.0989
 3514TIP3   OH210547   1.184   5.479   3.741  0.2687 -0.0242  0.5142
 3514TIP3    H110548   1.141   5.527   3.670 -2.0472 -0.1496  1.7173
 3514TIP3    H210549   1.197   5.391   3.706 -1.1112 -0.1640  0.2799
 3515TIP3   OH210550   5.816   3.825   4.796 -0.5084 -0.6747 -0.0280
 3515TIP3    H110551   5.862   3.744   4.772 -0.0446 -0.6892  0.8716
 3515TIP3    H210552   5.870   3.864   4.865 -1.5129 -0.3653  0.6076
 3516TIP3   OH210553   4.861   1.382   3.924 -0.3185  0.4207 -0.2813
 3516TIP3    H110554   4.857   1.463   3.874 -0.5742 -0.5874 -1.9463
 3516TIP3    H210555   4.951   1.350   3.911  0.1258  0.9104  1.2344
 3517TIP3   OH210556   2.325   5.098   1.821  0.2783 -0.2632 -0.0132
 3517TIP3    H110557   2.271   5.176   1.811 -0.7831 -1.0299 -0.5066
 3517TIP3    H210558   2.401   5.127   1.871 -0.7014  0.8055  0.9021
 3518TIP3   OH210559   4.370   4.537   4.844 -0.5178  0.2502 -0.3316
 3518TIP3    H110560   4.422   4.607   4.884 -1.0908  1.0825 -0.9798
 3518TIP3    H210561   4.285   4.578   4.827 -1.1039 -0.8267 -0.0714
 3519TIP3   OH210562   4.734   2.727   2.420 -0.0321  0.2654 -0.0837
 3519TIP3    H110563   4.785   2.731   2.501 -1.2131 -1.5680  0.8085
 3519TIP3    H210564   4.787   2.775   2.356  1.0701  1.5115  1.6682
 3520TIP3   OH210565   0.325   0.861   4.491 -0.3565 -0.4660  0.0645
 3520TIP3    H110566   0.357   0.783   4.537  0.6095 -0.1005  0.0455
 3520TIP3    H210567   0.402   0.917   4.485 -1.1989  0.7907  0.6716
 3521TIP3   OH210568   1.715   3.146   3.575  0.1047  0.0678 -0.5721
 3521TIP3    H110569   1.655   3.219   3.565  1.1978  1.0017 -0.4948
 3521TIP3    H210570   1.676   3.075   3.523 -0.0197  1.2879 -2.2134
 3522TIP3   OH210571   4.049   4.690   2.441  0.7326 -0.3270 -0.1747
 3522TIP3    H110572   4.127   4.641   2.466  0.1551 -0.7193  0.9151
 3522TIP3    H210573   4.044   4.762   2.504  1.3341  0.9270 -1.4926
 3523TIP3   OH210574   5.710   1.374   2.886  1.0044 -0.0139 -0.1382
 3523TIP3    H110575   5.640   1.421   2.841  0.9901  0.7901  0.6810
 3523TIP3    H210576   5.691   1.386   2.979  0.5758 -2.3134  0.1280
 3524TIP3   OH210577   4.046   2.750   3.918 -0.1954  0.0457  0.8972
 3524TIP3    H110578   4.043   2.766   3.824 -0.5250 -1.7566  0.5639
 3524TIP3    H210579   4.070   2.657   3.926  1.7333  0.6065  2.6235
 3525TIP3   OH210580   3.590   5.571   5.091  0.0166  0.2399  0.0840
 3525TIP3    H110581   3.676   5.604   5.117 -0.4737  0.6530  1.2960
 3525TIP3    H210582   3.541   5.569   5.173 -0.1891 -2.9524 -0.0203
 3526TIP3   OH210583   3.708   2.236   3.443  0.6793 -0.1290  0.0267
 3526TIP3    H110584   3.772   2.166   3.430  1.3969  0.4956  0.1331
 3526TIP3    H210585   3.760   2.316   3.444 -0.0344  0.3430  0.7488
 3527TIP3   OH210586   5.373   2.295   0.929  0.3879 -0.0861 -0.4135
 3527TIP3    H110587   5.441   2.330   0.985  0.2121  0.0510 -0.2871
 3527TIP3    H210588   5.407   2.209   0.901 -0.3528 -1.0468  1.4735
 3528TIP3   OH210589   3.711   3.844   0.912  0.2626 -0.4305  0.2383
 3528TIP3    H110590   3.666   3.793   0.979  0.0236 -0.5507 -0.0146
 3528TIP3    H210591   3.651   3.917   0.893  1.3548  0.9706  1.8838
 3529TIP3   OH210592   1.598   0.550   3.613  0.4882  0.3202  0.7122
 3529TIP3    H110593   1.577   0.492   3.686  2.4109 -1.3471  0.0401
 3529TIP3    H210594   1.518   0.602   3.600 -0.4012 -0.3149  3.0343
 3530TIP3   OH210595   4.360   0.866   3.872  0.4727  0.2079 -0.0304
 3530TIP3    H110596   4.302   0.853   3.946  0.9623  1.3001  0.5779
 3530TIP3    H210597   4.360   0.782   3.826 -1.0633 -0.0001  0.3092
 3531TIP3   OH210598   3.071   0.097   2.796  0.0699 -0.5848 -0.5055
 3531TIP3    H110599   3.154   0.081   2.842  1.1477  1.0715 -1.7629
 3531TIP3    H210600   3.069   0.030   2.727 -0.7092 -1.9479  0.7555
 3532TIP3   OH210601   3.838   2.507   1.184 -0.3350  0.4141 -0.4122
 3532TIP3    H110602   3.798   2.582   1.142 -0.3327  1.4872  1.4087
 3532TIP3    H210603   3.907   2.544   1.240  1.4818 -1.1568 -1.4471
 3533TIP3   OH210604   3.741   0.351   3.095 -0.3974 -0.0726  0.0799
 3533TIP3    H110605   3.782   0.315   3.174  0.0062 -1.6136 -0.7941
 3533TIP3    H210606   3.655   0.308   3.092 -1.3953  1.7364  0.8939
 3534TIP3   OH210607   2.900   2.567   1.569  1.0031  0.2454  0.0971
 3534TIP3    H110608   2.938   2.489   1.530 -0.2515  0.4659 -1.7270
 3534TIP3    H210609   2.940   2.640   1.520 -2.1566  0.4654 -2.5439
 3535TIP3   OH210610   5.525   0.959   2.348  0.5023 -0.1896  0.2686
 3535TIP3    H110611   5.505   1.050   2.328  3.8665  0.7106  0.4042
 3535TIP3    H210612   5.519   0.954   2.444 -0.1405 -0.2724  0.2303
 3536TIP3   OH210613   2.084   1.465   0.116 -0.0160  0.2975 -0.3795
 3536TIP3    H110614   2.078   1.533   0.183  0.8076 -0.7638  0.8114
 3536TIP3    H210615   2.177   1.441   0.114 -0.2355 -0.5486 -1.0424
 3537TIP3   OH210616   1.041   3.971   0.365 -0.3295  0.0545 -0.0050
 3537TIP3    H110617   1.056   3.952   0.273 -1.3034 -1.8593  0.1799
 3537TIP3    H210618   1.111   3.923   0.411 -0.6878 -0.1726  0.3115
 3538TIP3   OH210619   0.724   4.379   0.920  0.1907  0.7033  0.3473
 3538TIP3    H110620   0.675   4.311   0.874 -0.9254  0.7014  1.4826
 3538TIP3    H210621   0.678   4.389   1.004  1.7850  1.1346  1.2096
 3539TIP3   OH210622   5.003   3.351   1.513  0.4883  0.1007 -0.2982
 3539TIP3    H110623   5.018   3.392   1.598  1.4517  0.7567 -0.7625
 3539TIP3    H210624   4.987   3.425   1.454 -2.0927 -0.4104 -0.3756
 3540TIP3   OH210625   0.398   2.959   1.464 -0.4434  0.6618 -0.8805
 3540TIP3    H110626   0.359   2.883   1.420  1.3207 -0.6466 -0.3145
 3540TIP3    H210627   0.367   2.952   1.554 -0.0446  0.4218 -0.7585
 3541TIP3   OH210628   1.320   5.331   0.361 -0.0265 -0.0565 -0.5188
 3541TIP3    H110629   1.381   5.319   0.288  2.1471 -0.1819  1.2208
 3541TIP3    H210630   1.302   5.242   0.392 -0.8172  0.0043 -0.7872
 3542TIP3   OH210631   4.863   3.129   2.947  0.1726 -0.4096 -0.2950
 3542TIP3    H110632   4.791   3.182   2.911  0.5658  0.1581 -0.2711
 3542TIP3    H210633   4.822   3.074   3.013  0.0985  1.7869  1.6617
 3543TIP3   OH210634   6.149   3.798   0.835  0.0989  0.0583 -0.0884
 3543TIP3    H110635   6.123   3.740   0.763 -0.5851  1.3607 -0.9268
 3543TIP3    H210636   6.164   3.883   0.793  0.4130  0.6639  1.2068
 3544TIP3   OH210637   0.313   5.189   4.948  0.4306 -0.0774  0.1086
 3544TIP3    H110638   0.408   5.182   4.943  0.6629  1.5020  1.5378
 3544TIP3    H210639   0.292   5.272   4.905 -0.1233  0.3663  1.2065
 3545TIP3   OH210640   3.500   1.740   4.730 -0.1119 -0.4184  0.9182
 3545TIP3    H110641   3.482   1.706   4.817 -0.5702  0.0777  1.0249
 3545TIP3    H210642   3.438   1.812   4.719 -0.1830 -0.5865  0.1134
 3546TIP3   OH210643   0.211   0.462   1.419 -0.7443  0.3133  0.5348
 3546TIP3    H110644   0.293   0.486   1.378 -0.8733 -0.4758 -0.1925
 3546TIP3    H210645   0.214   0.505   1.505  0.0353  0.9969  0.1750
 3547TIP3   OH210646   0.493   2.239   0.892  0.0933  0.4887  1.0010
 3547TIP3    H110647   0.403   2.269   0.885 -0.0551 -0.3664 -2.0351
 3547TIP3    H210648   0.546   2.314   0.863 -0.1450 -0.9497 -3.9723
 3548TIP3   OH210649   2.867   1.377   0.619  0.2366 -0.1243  0.0542
 3548TIP3    H110650   2.961   1.384   0.599  0.3873  0.7182  1.0065
 3548TIP3    H210651   2.855   1.432   0.696 -1.2001  0.4064 -0.5246
 3549TIP3   OH210652   2.509   3.651   4.320 -0.0120  0.3087 -0.5435
 3549TIP3    H110653   2.497   3.577   4.259  0.2351  0.5564 -0.8957
 3549TIP3    H210654   2.489   3.728   4.268 -1.6138  0.4321  0.1827
 3550TIP3   OH210655   1.834   0.700   1.544 -0.1602 -0.3017 -0.4114
 3550TIP3    H110656   1.907   0.759   1.561  0.4917 -1.5859  1.6285
 3550TIP3    H210657   1.811   0.716   1.452  2.3676  0.4797 -0.9964
 3551TIP3   OH210658   1.976   1.554   1.110 -0.0812 -0.5415  0.5652
 3551TIP3    H110659   2.060   1.598   1.123  0.6340 -1.6841 -0.0204
 3551TIP3    H210660   1.970   1.490   1.181 -0.1319 -0.9458  0.1993
 3552TIP3   OH210661   5.427   3.082   3.876 -0.4631 -0.4400  0.3197
 3552TIP3    H110662   5.438   3.124   3.961 -0.6121  1.2012 -0.4286
 3552TIP3    H210663   5.435   3.153   3.813 -0.9568 -1.5199 -1.0180
 3553TIP3   OH210664   5.214   4.954   0.431 -0.4588  0.4890  0.6142
 3553TIP3    H110665   5.165   4.887   0.384  0.2537  2.0182 -2.6150
 3553TIP3    H210666   5.153   5.028   0.436  0.4914  1.4540 -0.9792
 3554TIP3   OH210667   3.620   3.196   4.517  0.1698  0.2516 -0.1569
 3554TIP3    H110668   3.622   3.121   4.576 -1.7336 -1.1698 -1.7719
 3554TIP3    H210669   3.585   3.267   4.570 -1.2023 -0.8979  0.5605
 3555TIP3   OH210670   3.294   4.393   4.226 -0.3669 -0.1296 -0.0669
 3555TIP3    H110671   3.249   4.358   4.303  2.2344 -0.6627  1.3320
 3555TIP3    H210672   3.302   4.318   4.167  0.2443 -0.5124  0.4845
 3556TIP3   OH210673   2.691   5.515   1.849 -0.5650  0.1888 -0.2693
 3556TIP3    H110674   2.726   5.430   1.823 -1.2583  0.0156 -0.6806
 3556TIP3    H210675   2.629   5.537   1.779 -3.0305 -0.6069  1.5097
 3557TIP3   OH210676   3.570   0.831   2.390  0.4280  0.1580  0.0381
 3557TIP3    H110677   3.589   0.743   2.424  0.2273  0.4687  1.0046
 3557TIP3    H210678   3.505   0.866   2.451  0.5076  0.9760 -0.3373
 3558TIP3   OH210679   6.004   5.509   4.838  0.1275 -0.2897 -0.3239
 3558TIP3    H110680   5.998   5.476   4.748  1.8031  0.0903 -0.6129
 3558TIP3    H210681   6.059   5.444   4.883 -1.5675 -1.0440  0.7412
 3559TIP3   OH210682   2.312   3.672   2.315  0.4979 -0.7106 -0.2442
 3559TIP3    H110683   2.268   3.593   2.344  1.1084 -0.9924 -0.0765
 3559TIP3    H210684   2.395   3.642   2.277  1.3626 -0.0739  1.0373
 3560TIP3   OH210685   3.526   3.802   2.105 -0.0671 -0.4242 -0.5340
 3560TIP3    H110686   3.621   3.803   2.108 -0.0222 -1.2752 -1.1413
 3560TIP3    H210687   3.498   3.811   2.196  0.6421 -2.2848 -0.0892
 3561TIP3   OH210688   0.871   4.847   3.881  0.5320  0.4359 -0.4014
 3561TIP3    H110689   0.925   4.860   3.959 -0.4029 -2.6779  0.9343
 3561TIP3    H210690   0.925   4.794   3.823 -0.3710 -1.2783  0.2388
 3562TIP3   OH210691   0.270   0.926   5.063 -0.2526  0.5398  0.4082
 3562TIP3    H110692   0.260   0.928   5.158 -1.9926  0.9717  0.2588
 3562TIP3    H210693   0.211   0.994   5.031 -1.7137 -1.2919 -1.0955
 3563TIP3   OH210694   4.557   1.894   4.222  0.0962  0.4222  0.6216
 3563TIP3    H110695   4.635   1.882   4.168  0.4576 -1.1091  1.4253
 3563TIP3    H210696   4.485   1.860   4.168  0.2489  0.1995  0.5564
 3564TIP3   OH210697   5.142   1.768   4.125 -0.0419 -0.4129  0.2195
 3564TIP3    H110698   5.226   1.721   4.129 -0.9447 -2.0970  0.0908
 3564TIP3    H210699   5.158   1.849   4.174  1.5806 -0.8248  0.4282
 3565TIP3   OH210700   0.143   3.021   3.774  0.8231  0.2938  0.4278
 3565TIP3    H110701   0.090   2.941   3.784  0.9131  0.3157  1.1547
 3565TIP3    H210702   0.221   2.992   3.726  0.7708 -0.0208  0.5257
 3566TIP3   OH210703   1.743   1.324   1.210 -0.1180  0.2781 -0.0879
 3566TIP3    H110704   1.671   1.262   1.202  0.6017 -1.0798  2.6273
 3566TIP3    H210705   1.822   1.270   1.212  0.4539  0.8795  4.0404
 3567TIP3   OH210706   5.089   0.679   1.148 -0.3186  0.4440  0.4230
 3567TIP3    H110707   5.139   0.608   1.109 -0.4860  0.2690  0.5250
 3567TIP3    H210708   5.112   0.756   1.096 -2.1212 -0.1424 -1.3649
 3568TIP3   OH210709   0.873   0.331   5.068 -0.3131 -0.6399 -0.1087
 3568TIP3    H110710   0.904   0.285   5.147  0.1218  0.5098  0.4129
 3568TIP3    H210711   0.810   0.271   5.029 -0.5874 -1.2127  1.1536
 3569TIP3   OH210712   4.500   4.651   2.884  0.4051  1.0395  0.1298
 3569TIP3    H110713   4.526   4.634   2.974  2.5973 -0.9273 -0.7513
 3569TIP3    H210714   4.504   4.746   2.875 -0.6305  1.3360  2.2715
 3570TIP3   OH210715   3.439   0.101   2.052  0.0050  0.2224  0.1820
 3570TIP3    H110716   3.345   0.085   2.046 -0.1866  1.2465  0.2902
 3570TIP3    H210717   3.470   0.095   1.961 -0.4321  1.3340 -0.0681
 3571TIP3   OH210718   5.009   4.428   3.330 -0.0616 -0.5586  0.5011
 3571TIP3    H110719   5.099   4.398   3.348  0.9859  2.7624  1.4807
 3571TIP3    H210720   4.985   4.384   3.249  2.7379 -1.0531 -0.1574
 3572TIP3   OH210721   1.969   2.726   2.515 -0.2002 -0.1181  0.2231
 3572TIP3    H110722   1.948   2.670   2.590 -1.6269  0.5016  0.3247
 3572TIP3    H210723   2.064   2.717   2.504 -0.2738 -2.0032  0.6619
 3573TIP3   OH210724   2.340   2.528   3.951 -0.4473 -0.4572 -0.2209
 3573TIP3    H110725   2.330   2.467   3.878 -0.8199 -0.2087 -0.3799
 3573TIP3    H210726   2.366   2.473   4.025  0.2630 -0.6726 -0.6177
 3574TIP3   OH210727   5.408   0.705   2.422  0.3824 -0.2185  0.1934
 3574TIP3    H110728   5.445   0.622   2.391  0.6844  0.5365 -1.5380
 3574TIP3    H210729   5.473   0.771   2.398 -1.2162  0.8997 -1.2430
 3575TIP3   OH210730   0.246   5.205   2.107  0.0356  0.0432  0.0226
 3575TIP3    H110731   0.164   5.236   2.147  0.8073  3.9946 -1.0290
 3575TIP3    H210732   0.225   5.196   2.014  0.9159  2.1599 -0.4481
 3576TIP3   OH210733   5.707   5.080   0.762  0.4287  0.0500 -0.1973
 3576TIP3    H110734   5.732   5.035   0.682  1.6429 -1.2542  0.8576
 3576TIP3    H210735   5.762   5.158   0.765 -0.7823  1.0163 -1.3931
 3577TIP3   OH210736   5.047   3.545   1.306  0.1473 -0.4135  0.6264
 3577TIP3    H110737   5.094   3.584   1.232 -0.1596 -0.1549  0.5638
 3577TIP3    H210738   4.998   3.618   1.344 -2.2087 -1.1081 -0.8434
 3578TIP3   OH210739   0.275   4.154   0.569 -0.3992 -0.6984  0.7505
 3578TIP3    H110740   0.289   4.249   0.574  0.0467 -0.4824 -2.4703
 3578TIP3    H210741   0.349   4.116   0.616  1.1026  0.5807 -0.4548
 3579TIP3   OH210742   2.201   4.062   2.843 -0.2668 -0.1888 -0.0588
 3579TIP3    H110743   2.227   4.146   2.880  0.0866 -0.4813  0.3669
 3579TIP3    H210744   2.123   4.037   2.894 -0.5478  0.0224 -0.3859
 3580TIP3   OH210745   4.984   5.749   3.472 -0.2012  0.6169 -0.2839
 3580TIP3    H110746   5.041   5.797   3.531  1.4090 -0.6590 -0.7211
 3580TIP3    H210747   4.902   5.799   3.471  1.3522  3.3714 -0.7513
 3581TIP3   OH210748   5.636   4.511   4.918 -0.3977 -0.3313  0.2770
 3581TIP3    H110749   5.625   4.593   4.870  2.6913  0.6442  0.9407
 3581TIP3    H210750   5.576   4.518   4.992 -2.1482  0.0340 -1.1058
 3582TIP3   OH210751   4.355   5.279   3.178 -0.4271  0.6483 -0.1208
 3582TIP3    H110752   4.289   5.221   3.215  0.3580 -0.4919 -0.4423
 3582TIP3    H210753   4.410   5.303   3.253  0.5678 -0.8579 -0.3109
 3583TIP3   OH210754   0.238   4.777   2.109  0.7558  0.2695 -0.7535
 3583TIP3    H110755   0.302   4.842   2.138  0.2321  0.7846 -0.7239
 3583TIP3    H210756   0.157   4.827   2.098 -0.2272 -0.7339  1.3042
 3584TIP3   OH210757   1.245   2.797   3.555 -0.2125 -0.4599 -0.0334
 3584TIP3    H110758   1.276   2.872   3.604  1.0492 -0.7132 -0.4100
 3584TIP3    H210759   1.267   2.816   3.464 -4.4098  0.9940 -0.9830
 3585TIP3   OH210760   4.940   0.481   1.530 -0.5442  0.2667 -0.4464
 3585TIP3    H110761   4.951   0.459   1.437  0.9735  1.8842 -0.6973
 3585TIP3    H210762   4.952   0.575   1.534 -1.3418  0.3200  1.3140
 3586TIP3   OH210763   3.450   4.555   4.444 -0.2864  0.1780 -0.0116
 3586TIP3    H110764   3.391   4.542   4.517 -1.2839  1.0706 -0.6238
 3586TIP3    H210765   3.415   4.500   4.374  0.5848 -0.5708  0.1284
 3587TIP3   OH210766   2.995   3.688   0.908  0.5647  0.3634 -0.6806
 3587TIP3    H110767   3.004   3.782   0.893  1.7542  0.5736  1.0277
 3587TIP3    H210768   2.991   3.679   1.003 -0.1443 -1.2774 -0.8381
 3588TIP3   OH210769   1.575   5.720   0.167 -0.4929  0.1799  0.0613
 3588TIP3    H110770   1.536   5.640   0.204 -0.2201  0.6784  1.5117
 3588TIP3    H210771   1.622   5.759   0.241  2.1769 -0.0097 -1.4178
 3589TIP3   OH210772   6.005   4.051   3.858  0.4618 -0.0372  0.8316
 3589TIP3    H110773   6.034   3.967   3.892 -0.8984 -0.1652  1.7699
 3589TIP3    H210774   5.909   4.043   3.854  0.2383  1.6948  1.6514
 3590TIP3   OH210775   0.923   3.394   2.164  0.1394  0.1635  0.1210
 3590TIP3    H110776   0.853   3.400   2.230  0.0836 -0.6418  0.1340
 3590TIP3    H210777   0.978   3.321   2.193 -0.3148 -0.6991 -1.1367
 3591TIP3   OH210778   4.260   1.118   2.468  0.4447  0.2846  0.2644
 3591TIP3    H110779   4.325   1.052   2.446 -1.8313 -2.0427  0.1205
 3591TIP3    H210780   4.176   1.074   2.460 -1.1484  2.7680  1.7118
 3592TIP3   OH210781   2.594   4.349   2.093 -0.3616 -0.6124  0.2387
 3592TIP3    H110782   2.630   4.309   2.172 -0.4552 -0.6166  0.2788
 3592TIP3    H210783   2.524   4.290   2.066 -0.9568 -0.1274  0.6801
 3593TIP3   OH210784   3.005   0.314   2.657  0.1066  0.3937 -0.1387
 3593TIP3    H110785   3.020   0.238   2.713 -1.8470  0.2734  0.2970
 3593TIP3    H210786   3.082   0.369   2.669  1.3920 -1.3040 -0.1540
 3594TIP3   OH210787   4.084   1.995   2.068  0.7622 -0.1774 -0.3274
 3594TIP3    H110788   4.017   1.972   2.004 -0.9525  1.3973  0.7919
 3594TIP3    H210789   4.108   1.912   2.108 -1.5016 -0.7043  0.0995
 3595TIP3   OH210790   4.726   5.844   0.470  0.2604 -0.4402 -0.2086
 3595TIP3    H110791   4.643   5.888   0.454 -0.1079 -1.0243  0.0601
 3595TIP3    H210792   4.787   5.914   0.493 -0.6927 -0.1954  1.7759
 3596TIP3   OH210793   4.002   2.838   4.564 -0.3046  0.5904  0.3342
 3596TIP3    H110794   3.994   2.756   4.614  1.0518 -1.2936 -2.3082
 3596TIP3    H210795   4.090   2.869   4.583 -0.6571  1.2648  0.9642
 3597TIP3   OH210796   2.271   3.029   2.429  0.0465  0.2612 -0.4272
 3597TIP3    H110797   2.316   2.963   2.376  1.7717  2.1279 -1.4452
 3597TIP3    H210798   2.296   3.008   2.520  0.7267 -0.3695 -0.7481
 3598TIP3   OH210799   4.727   0.751   2.574 -0.1166 -0.8872  0.2502
 3598TIP3    H110800   4.757   0.717   2.658  2.3370  0.2457 -0.0888
 3598TIP3    H210801   4.749   0.844   2.577 -2.1019 -0.3269 -0.7794
 3599TIP3   OH210802   4.914   3.749   1.603  0.7255  0.1541 -0.2074
 3599TIP3    H110803   4.925   3.832   1.557  0.8209  0.6090  0.6159
 3599TIP3    H210804   4.864   3.695   1.542  1.4285  0.4971 -1.1160
 3600TIP3   OH210805   6.376   1.760   1.594 -0.3647 -0.5259 -0.9127
 3600TIP3    H110806   6.300   1.801   1.635  1.0378 -0.4399  1.8462
 3600TIP3    H210807   6.360   1.666   1.603  0.2740 -0.5181  0.6897
 3601TIP3   OH210808   4.277   2.578   4.733  0.4643 -0.1941 -0.5963
 3601TIP3    H110809   4.299   2.516   4.664  0.4666 -1.7009  0.7025
 3601TIP3    H210810   4.236   2.525   4.801  0.5881  1.2053  0.6262
 3602TIP3   OH210811   4.101   2.579   2.954 -0.0978 -0.1660  0.0397
 3602TIP3    H110812   4.099   2.562   2.860 -0.1457 -0.5677  0.1113
 3602TIP3    H210813   4.118   2.493   2.994 -1.4863 -0.2702  0.4639
 3603TIP3   OH210814   3.528   2.470   2.861 -0.0913  0.2280 -0.4522
 3603TIP3    H110815   3.444   2.463   2.816  0.1653 -2.9219 -0.6416
 3603TIP3    H210816   3.587   2.511   2.796 -0.4313 -1.6010 -1.9934
 3604TIP3   OH210817   3.736   3.528   1.766 -0.1921 -0.3135 -0.1500
 3604TIP3    H110818   3.696   3.451   1.805 -0.9228 -0.8511 -1.8367
 3604TIP3    H210819   3.825   3.529   1.800 -0.5456 -1.2061  0.8353
 3605TIP3   OH210820   4.540   4.917   1.275  0.0379  0.1494  0.5161
 3605TIP3    H110821   4.477   4.975   1.318 -0.9551  0.1275 -0.8480
 3605TIP3    H210822   4.602   4.894   1.344 -0.2624  1.8147  1.3897
 3606TIP3   OH210823   1.040   4.326   2.886 -0.1730 -0.8111  0.6454
 3606TIP3    H110824   1.088   4.252   2.923  0.7485 -1.2894 -1.3426
 3606TIP3    H210825   1.047   4.313   2.791 -0.0278  1.7995  0.2369
 3607TIP3   OH210826   2.385   3.207   3.657  0.2725  0.3029 -0.1227
 3607TIP3    H110827   2.421   3.130   3.612  0.4145  0.6912 -0.6908
 3607TIP3    H210828   2.462   3.256   3.684  0.1887 -0.0698  0.8054
 3608TIP3   OH210829   1.505   2.062   2.569  0.0911  0.4604  0.3989
 3608TIP3    H110830   1.444   2.007   2.617  0.9203 -1.5544 -0.7148
 3608TIP3    H210831   1.522   2.014   2.488  1.2731  2.1288 -0.4138
 3609TIP3   OH210832   5.468   0.980   1.916  0.0559  0.2232  1.0809
 3609TIP3    H110833   5.526   0.912   1.880  0.8720  0.6005  1.6662
 3609TIP3    H210834   5.412   1.005   1.842  0.4203 -0.3778  0.5922
 3610TIP3   OH210835   5.087   3.430   2.605 -0.3411  0.2003 -0.4002
 3610TIP3    H110836   5.142   3.508   2.613 -1.8400  1.2372  0.2881
 3610TIP3    H210837   5.044   3.439   2.520  0.0435 -0.2493 -0.6399
 3611TIP3   OH210838   5.467   4.377   3.186 -0.4089 -0.2507  0.3933
 3611TIP3    H110839   5.498   4.438   3.119 -1.9570  0.1540 -0.0080
 3611TIP3    H210840   5.471   4.291   3.144  2.2102 -0.5558  1.1122
 3612TIP3   OH210841   2.847   0.980   3.982  0.4316 -0.2775  0.0682
 3612TIP3    H110842   2.829   0.888   3.966  0.0734 -0.3145  0.6398
 3612TIP3    H210843   2.825   0.993   4.075 -0.3508  0.5662 -0.2148
 3613TIP3   OH210844   6.276   0.117   1.052  0.3408  0.4855  0.0683
 3613TIP3    H110845   6.198   0.132   0.999 -0.5056  0.6560  1.3120
 3613TIP3    H210846   6.248   0.056   1.120  1.7025 -0.6409 -0.3326
 3614TIP3   OH210847   1.908   2.097   2.139 -0.3998 -0.1351 -0.2968
 3614TIP3    H110848   1.866   2.111   2.224 -0.8199 -1.3581 -0.2894
 3614TIP3    H210849   1.836   2.077   2.080  0.0792 -1.5470 -0.4427
 3615TIP3   OH210850   6.138   0.499   2.706  0.1293  0.0400  0.1879
 3615TIP3    H110851   6.075   0.498   2.634 -1.4200  0.2377  1.4869
 3615TIP3    H210852   6.141   0.408   2.736  1.6363 -0.2814 -0.7784
 3616TIP3   OH210853   3.692   4.393   2.783 -0.1801  0.1187  0.5372
 3616TIP3    H110854   3.767   4.343   2.751 -0.8226 -0.2833 -0.3650
 3616TIP3    H210855   3.711   4.484   2.757  1.0151  0.3975  2.2298
 3617TIP3   OH210856   1.581   2.917   3.434  0.1154 -0.5265 -0.5240
 3617TIP3    H110857   1.508   2.952   3.383  0.1787 -0.5849 -0.6576
 3617TIP3    H210858   1.617   2.848   3.379  0.4154 -0.3405 -0.5656
 3618TIP3   OH210859   0.828   0.825   1.768  0.0504 -0.3169  0.4795
 3618TIP3    H110860   0.776   0.779   1.834 -1.2193 -0.3611 -0.5149
 3618TIP3    H210861   0.786   0.911   1.761 -0.3424 -0.6036 -0.8507
 3619TIP3   OH210862   5.080   5.741   1.872 -0.2855  0.1101  0.1965
 3619TIP3    H110863   5.164   5.699   1.888  0.3762  1.3093 -0.0963
 3619TIP3    H210864   5.018   5.692   1.928  0.2916 -1.7619 -0.7133
 3620TIP3   OH210865   2.991   5.132   2.978 -0.2052  0.3097 -0.0575
 3620TIP3    H110866   3.037   5.056   2.943 -1.3622 -0.0510 -0.8529
 3620TIP3    H210867   2.945   5.098   3.055 -0.2368  0.3432 -0.0615
 3621TIP3   OH210868   2.211   1.968   4.168  0.1082  0.0250  0.5099
 3621TIP3    H110869   2.270   2.031   4.210 -0.5360  0.3498  0.9407
 3621TIP3    H210870   2.201   1.897   4.231  2.3958 -1.5294 -0.7369
 3622TIP3   OH210871   2.271   4.328   2.914 -0.5233 -0.6186 -0.5936
 3622TIP3    H110872   2.252   4.411   2.869 -1.1615  0.2630  1.2270
 3622TIP3    H210873   2.359   4.339   2.948 -0.9640 -0.2511  0.4908
 3623TIP3   OH210874   3.101   4.819   5.098 -0.3299 -0.2685 -0.1333
 3623TIP3    H110875   3.044   4.838   5.023 -2.2468  0.6193  1.4781
 3623TIP3    H210876   3.141   4.734   5.076 -1.1900 -0.2510 -1.9435
 3624TIP3   OH210877   1.719   1.818   4.277 -0.5775 -0.5483  0.2597
 3624TIP3    H110878   1.755   1.900   4.310 -2.4083 -0.6535  2.7918
 3624TIP3    H210879   1.792   1.756   4.281  0.3627  0.5179 -0.0097
 3625TIP3   OH210880   4.156   0.410   5.067  0.3447  0.0335 -0.0219
 3625TIP3    H110881   4.074   0.413   5.116  1.1637  0.3102  1.3879
 3625TIP3    H210882   4.130   0.390   4.977 -1.3239  0.9200  0.2331
 3626TIP3   OH210883   1.870   2.103   0.850  0.0431  0.4174  0.5578
 3626TIP3    H110884   1.898   2.024   0.805 -0.2462  0.7651 -0.2388
 3626TIP3    H210885   1.817   2.071   0.923 -0.5031 -0.0997 -0.0625
 3627TIP3   OH210886   1.815   3.120   3.174 -0.0741  0.4767 -0.2733
 3627TIP3    H110887   1.841   3.029   3.157  1.2137  0.7954 -0.1071
 3627TIP3    H210888   1.787   3.154   3.089 -0.9028 -0.1581 -0.2741
 3628TIP3   OH210889   6.115   0.532   1.116 -0.1854 -1.0749 -0.4461
 3628TIP3    H110890   6.154   0.518   1.030  0.9810 -1.0876  0.0672
 3628TIP3    H210891   6.062   0.454   1.132 -1.1922 -0.6511 -1.5428
 3629TIP3   OH210892   0.630   0.273   1.335 -0.0130 -0.1868  0.0683
 3629TIP3    H110893   0.596   0.357   1.365 -0.8502 -0.1383 -0.9734
 3629TIP3    H210894   0.666   0.232   1.414 -0.5653  0.6842  0.7845
 3630TIP3   OH210895   3.658   5.848   3.970 -0.3941  0.2816 -0.1198
 3630TIP3    H110896   3.639   5.908   3.898  3.4277 -0.2471 -1.7810
 3630TIP3    H210897   3.576   5.800   3.983 -2.1489  2.5624 -1.9051
 3631TIP3   OH210898   4.963   5.109   2.682  0.7667 -0.2510 -0.0431
 3631TIP3    H110899   4.868   5.113   2.668  0.4730  0.7503  1.9482
 3631TIP3    H210900   4.982   5.015   2.685 -0.3368 -0.4727  0.5100
 3632TIP3   OH210901   5.588   0.823   2.949 -0.5947 -0.4596  0.2577
 3632TIP3    H110902   5.522   0.835   3.018 -0.5662 -1.3620  0.4601
 3632TIP3    H210903   5.672   0.835   2.995 -0.5945  0.8412 -0.0306
 3633TIP3   OH210904   5.378   5.134   4.319 -0.9507  0.3943  0.0309
 3633TIP3    H110905   5.401   5.150   4.228  1.7160 -1.4177  0.2691
 3633TIP3    H210906   5.352   5.042   4.322 -1.6470  0.5968  1.0227
 3634TIP3   OH210907   3.149   4.062   0.159  0.3589 -0.1417  0.0355
 3634TIP3    H110908   3.236   4.095   0.179  0.4421  0.1368 -0.7598
 3634TIP3    H210909   3.093   4.099   0.228  0.4702  1.5437 -0.7419
 3635TIP3   OH210910   0.445   1.123   1.272 -0.4592 -0.0105  0.0189
 3635TIP3    H110911   0.521   1.166   1.312 -0.3266  0.4015 -0.6403
 3635TIP3    H210912   0.401   1.079   1.344  1.2166 -1.4810  0.2009
 3636TIP3   OH210913   0.683   1.878   3.717  0.1744  0.4553 -0.2292
 3636TIP3    H110914   0.737   1.879   3.797 -0.5328  0.3136  0.2551
 3636TIP3    H210915   0.735   1.926   3.652  1.3717 -0.5816 -0.0820
 3637TIP3   OH210916   5.416   2.429   0.387  0.2529 -0.1820 -0.0390
 3637TIP3    H110917   5.349   2.371   0.348  0.7260 -0.7002 -0.0965
 3637TIP3    H210918   5.380   2.517   0.375  0.0156 -0.3827 -0.9397
 3638TIP3   OH210919   5.068   2.924   0.924  0.3616 -0.0229  0.3958
 3638TIP3    H110920   5.146   2.924   0.979  0.4570 -0.2289  0.2591
 3638TIP3    H210921   5.098   2.891   0.839  0.1655  0.0724  0.2882
 3639TIP3   OH210922   6.144   1.548   2.815 -0.3364  0.1477 -0.7940
 3639TIP3    H110923   6.142   1.462   2.773 -2.1793  0.2016 -0.8784
 3639TIP3    H210924   6.147   1.610   2.742 -3.8844  0.2533 -1.0202
 3640TIP3   OH210925  -0.004   0.289   3.982 -0.3391 -0.2077  0.5098
 3640TIP3    H110926   0.041   0.263   4.062 -0.0709  0.5305  0.6053
 3640TIP3    H210927   0.061   0.340   3.933 -1.1184  1.0188  0.7298
 3641TIP3   OH210928   0.586   3.419   2.934 -0.2046  0.0674 -0.2175
 3641TIP3    H110929   0.585   3.346   2.872 -0.6438  0.7237 -0.9975
 3641TIP3    H210930   0.637   3.487   2.890 -0.3485  0.4721  0.2301
 3642TIP3   OH210931   2.747   3.993   4.258  0.2780  0.0005  0.4266
 3642TIP3    H110932   2.743   3.897   4.260  0.2851 -0.0014  0.3665
 3642TIP3    H210933   2.766   4.018   4.348  0.6117 -0.0689  0.3769
 3643TIP3   OH210934   1.097   4.850   2.847  0.2286  0.1390 -0.4246
 3643TIP3    H110935   1.130   4.767   2.812  1.0939  0.9641 -1.6590
 3643TIP3    H210936   1.119   4.847   2.940  0.1152 -1.0706 -0.4163
 3644TIP3   OH210937   1.558   3.161   4.481  0.2127 -0.0507  0.2768
 3644TIP3    H110938   1.628   3.167   4.546 -1.1117  1.5627  1.6414
 3644TIP3    H210939   1.569   3.239   4.426 -0.5193  0.2341  0.5213
 3645TIP3   OH210940   4.309   5.556   3.282 -0.4268  0.1612 -0.0330
 3645TIP3    H110941   4.291   5.538   3.374  2.4324 -2.9069  0.0961
 3645TIP3    H210942   4.385   5.615   3.283 -0.4751  0.2397 -0.4506
 3646TIP3   OH210943   2.483   0.951   5.034 -0.0024  0.3182 -0.4041
 3646TIP3    H110944   2.553   0.886   5.044  0.1899  0.3907 -1.1740
 3646TIP3    H210945   2.526   1.026   4.992 -0.7409 -0.0381 -1.8758
 3647TIP3   OH210946   1.303   1.219   1.387 -0.1831  0.7363 -0.1797
 3647TIP3    H110947   1.324   1.173   1.306 -0.4575 -1.4560  0.9385
 3647TIP3    H210948   1.298   1.151   1.454 -1.2478  2.3175  1.4609
 3648TIP3   OH210949   0.863   1.273   4.974  0.0415  0.5635  0.0306
 3648TIP3    H110950   0.774   1.240   4.987  0.5325 -0.3457  1.2842
 3648TIP3    H210951   0.895   1.227   4.897 -1.0103  1.9147 -1.2882
 3649TIP3   OH210952   1.908   3.390   4.379  0.2350  0.4905 -0.1589
 3649TIP3    H110953   1.999   3.413   4.361  0.1977  0.8706  0.1340
 3649TIP3    H210954   1.860   3.416   4.300  0.5477 -0.7887 -0.7980
 3650TIP3   OH210955   1.235   2.845   2.686 -0.2777 -0.0344  0.4359
 3650TIP3    H110956   1.176   2.775   2.714  0.2414 -0.7761 -0.2575
 3650TIP3    H210957   1.178   2.917   2.661 -0.7862  0.3220  2.4657
 3651TIP3   OH210958   5.450   0.460   2.328  0.2789 -0.6053  0.8296
 3651TIP3    H110959   5.371   0.430   2.282  0.3662  0.8924 -0.3695
 3651TIP3    H210960   5.516   0.468   2.259  0.7866  0.4382  1.4214
 3652TIP3   OH210961   6.065   5.359   0.458  0.0293 -0.0490  0.6011
 3652TIP3    H110962   5.995   5.298   0.437  1.5367 -1.2531 -1.2350
 3652TIP3    H210963   6.030   5.445   0.434 -0.6499 -0.6958 -0.8371
 3653TIP3   OH210964   2.325   1.308   1.605 -0.4516  0.1468  0.1678
 3653TIP3    H110965   2.330   1.213   1.600  0.1410  0.1823 -0.0307
 3653TIP3    H210966   2.357   1.339   1.520 -0.7119  0.5213  0.2006
 3654TIP3   OH210967   6.071   5.404   3.627 -0.4480  0.4043  0.3709
 3654TIP3    H110968   6.024   5.354   3.560 -0.2762  0.6979  0.0312
 3654TIP3    H210969   6.041   5.494   3.614  1.9294  1.0315 -1.3920
 3655TIP3   OH210970   3.893   3.470   4.353  0.0151 -0.7133  0.2933
 3655TIP3    H110971   3.806   3.495   4.383  0.5608  1.3316  0.2834
 3655TIP3    H210972   3.878   3.427   4.268 -0.8747  1.3053 -0.6201
 3656TIP3   OH210973   5.135   0.456   3.264 -0.0446  0.1329 -0.3021
 3656TIP3    H110974   5.047   0.450   3.227 -0.6617  0.1927  1.0952
 3656TIP3    H210975   5.133   0.533   3.321  0.9755  0.2543 -0.3975
 3657TIP3   OH210976   5.722   3.513   1.926  0.2469 -0.1637 -0.2854
 3657TIP3    H110977   5.686   3.495   1.839 -2.4550  0.0488  0.6937
 3657TIP3    H210978   5.756   3.602   1.919 -1.2378  0.3996 -0.7849
 3658TIP3   OH210979   2.266   1.322   4.936  0.1714  0.4478  0.3427
 3658TIP3    H110980   2.201   1.311   4.868  0.0306  1.8453  0.2174
 3658TIP3    H210981   2.223   1.291   5.016  1.1033 -3.3614 -0.4604
 3659TIP3   OH210982   3.535   5.529   0.732 -0.4078  0.1381 -0.4983
 3659TIP3    H110983   3.454   5.528   0.783  0.1665 -0.2506  0.4382
 3659TIP3    H210984   3.546   5.621   0.706 -1.1220  0.1990 -0.5973
 3660TIP3   OH210985   3.575   5.372   2.966 -0.0248  0.2539 -0.1043
 3660TIP3    H110986   3.485   5.367   2.936 -0.2315 -0.1614  0.5507
 3660TIP3    H210987   3.575   5.327   3.051  1.3711 -2.4478 -1.4159
 3661TIP3   OH210988   4.875   0.406   3.196 -0.1891  0.3155 -0.3793
 3661TIP3    H110989   4.849   0.315   3.180 -1.3150  0.8161 -1.6049
 3661TIP3    H210990   4.792   0.452   3.212  0.3507  1.1699  0.0694
 3662TIP3   OH210991   6.021   0.538   4.067 -0.6872 -0.1532 -0.4025
 3662TIP3    H110992   6.096   0.585   4.102 -0.9991 -0.9279  1.4287
 3662TIP3    H210993   5.979   0.600   4.007 -0.5838  1.6000  1.2364
 3663TIP3   OH210994   4.396   5.334   1.267  1.0690 -0.4527  0.4570
 3663TIP3    H110995   4.484   5.348   1.304  0.5044  0.3724  1.5403
 3663TIP3    H210996   4.413   5.296   1.180  2.4860 -0.6259  0.7764
 3664TIP3   OH210997   5.946   4.924   2.515 -0.2339  0.0066  0.3431
 3664TIP3    H110998   6.031   4.916   2.473 -1.3992  1.2363 -2.5026
 3664TIP3    H210999   5.940   5.017   2.540 -1.1291  0.1861 -0.4782
 3665TIP3   OH211000   4.330   0.443   0.390 -0.5620  0.2005  0.3690
 3665TIP3    H111001   4.387   0.474   0.460  1.0153 -1.8320  0.0648
 3665TIP3    H211002   4.272   0.379   0.432 -2.9099  2.3789  0.7202
 3666TIP3   OH211003   0.664   5.945   4.610  0.4770  0.3977 -0.1903
 3666TIP3    H111004   0.702   6.030   4.588 -3.4792  2.1769 -1.1634
 3666TIP3    H211005   0.574   5.950   4.577 -0.5774 -3.4653  1.4910
 3667TIP3   OH211006   0.856   2.735   2.965  0.1457  0.1256  0.3950
 3667TIP3    H111007   0.816   2.768   3.046 -1.5272 -1.0263  0.0902
 3667TIP3    H211008   0.818   2.789   2.896  0.4009  0.1121  0.2438
 3668TIP3   OH211009   2.287   3.311   0.147 -0.0309 -0.2151  0.0521
 3668TIP3    H111010   2.248   3.298   0.060 -0.2476  0.1151  0.1023
 3668TIP3    H211011   2.213   3.328   0.205  0.2816  1.9047 -0.1139
 3669TIP3   OH211012   2.409   2.669   4.282  0.1721 -0.0059  0.2990
 3669TIP3    H111013   2.417   2.715   4.199 -1.2319  0.3518  0.3352
 3669TIP3    H211014   2.355   2.592   4.263  1.3340 -0.9029  0.5275
 3670TIP3   OH211015   4.582   2.248   0.379 -0.0522 -0.4003 -0.8086
 3670TIP3    H111016   4.548   2.184   0.442  0.3530 -0.2065 -0.3903
 3670TIP3    H211017   4.671   2.265   0.407 -0.5660  1.3774 -0.1044
 3671TIP3   OH211018   4.345   4.184   3.154  0.1672  0.3193 -0.0735
 3671TIP3    H111019   4.440   4.171   3.155  0.0995 -0.1896  0.2514
 3671TIP3    H211020   4.309   4.098   3.177 -0.3203  1.0480  2.1100
 3672TIP3   OH211021   3.212   4.498   4.609  0.8799  0.0554 -0.0098
 3672TIP3    H111022   3.208   4.434   4.680  0.0898 -0.5030 -0.5343
 3672TIP3    H211023   3.120   4.510   4.583  1.2126 -0.4849 -1.5699
 3673TIP3   OH211024   2.303   2.466   3.266 -0.0016  0.4431  0.0769
 3673TIP3    H111025   2.337   2.550   3.236 -0.2554 -0.0437 -1.6901
 3673TIP3    H211026   2.380   2.416   3.292  0.0843  1.5265  2.1091
 3674TIP3   OH211027   3.237   5.689   5.024 -0.3104  0.4353 -0.2822
 3674TIP3    H111028   3.266   5.609   4.982 -0.8735  0.5147 -0.8427
 3674TIP3    H211029   3.312   5.719   5.075 -0.2936 -0.7794  0.4407
 3675TIP3   OH211030   3.179   2.060   4.844 -0.1982  0.2328  0.1268
 3675TIP3    H111031   3.132   2.093   4.920  0.3511  1.1017  0.0987
 3675TIP3    H211032   3.197   1.968   4.865 -0.2891  0.3924  0.9262
 3676TIP3   OH211033   2.262   0.652   4.238  0.3768  0.0451 -0.3426
 3676TIP3    H111034   2.275   0.623   4.329  2.6204  0.5469 -0.4455
 3676TIP3    H211035   2.235   0.573   4.191  0.9031 -0.6222  0.4417
 3677TIP3   OH211036   6.213   0.660   3.507  0.4313 -0.1946 -0.4462
 3677TIP3    H111037   6.198   0.728   3.441 -0.0472  2.2249  2.0048
 3677TIP3    H211038   6.132   0.659   3.558  1.6148 -0.3535  1.4905
 3678TIP3   OH211039   5.509   4.650   4.245 -0.3701 -0.2765 -0.1240
 3678TIP3    H111040   5.568   4.574   4.245  0.1598  0.1071  1.3452
 3678TIP3    H211041   5.507   4.679   4.336 -0.7618  1.3379 -0.6211
 3679TIP3   OH211042   4.175   3.685   2.624  0.8365 -0.2953  0.0086
 3679TIP3    H111043   4.139   3.744   2.690 -1.1646 -1.0173 -0.3570
 3679TIP3    H211044   4.220   3.617   2.674 -0.3501 -0.6427  0.6504
 3680TIP3   OH211045   2.894   2.859   4.680 -0.0540 -0.7697  0.4729
 3680TIP3    H111046   2.900   2.768   4.708 -0.7729 -0.4853  1.6236
 3680TIP3    H211047   2.813   2.864   4.629 -1.3833 -0.3090  2.4905
 3681TIP3   OH211048   0.735   2.492   2.788  0.2503 -0.8579 -0.1584
 3681TIP3    H111049   0.649   2.468   2.823 -0.7242  1.6321 -0.6441
 3681TIP3    H211050   0.797   2.464   2.856 -1.1952 -0.1987  1.5095
 3682TIP3   OH211051   1.560   3.247   4.831  0.2828  0.3325 -0.1354
 3682TIP3    H111052   1.522   3.332   4.808 -1.5298 -0.2845  0.3479
 3682TIP3    H211053   1.485   3.196   4.863  1.8155 -0.4533  2.4748
 3683TIP3   OH211054   1.804   4.302   4.038 -0.3418  0.1093  0.7441
 3683TIP3    H111055   1.741   4.294   3.966  0.7911 -1.0412 -0.1699
 3683TIP3    H211056   1.791   4.222   4.090  1.0686 -0.6909 -0.0758
 3684TIP3   OH211057   1.672   3.121   0.148  0.2666 -0.4519  0.2612
 3684TIP3    H111058   1.603   3.187   0.144 -2.6354 -3.1759  0.6972
 3684TIP3    H211059   1.702   3.123   0.239  1.2538  1.1317 -0.0654
 3685TIP3   OH211060   5.307   3.114   4.618 -0.3847 -0.5094 -0.7558
 3685TIP3    H111061   5.242   3.132   4.685 -0.2943 -3.4025  0.2468
 3685TIP3    H211062   5.385   3.086   4.667  0.8747  0.6408 -2.0029
 3686TIP3   OH211063   6.006   1.144   1.485  0.2328  0.5690  0.2927
 3686TIP3    H111064   5.988   1.123   1.393  2.3091  1.7675 -0.4693
 3686TIP3    H211065   6.052   1.068   1.519 -0.3443  0.2122  0.2850
 3687TIP3   OH211066   0.912   0.219   0.997  0.6527 -0.0871 -0.2727
 3687TIP3    H111067   0.821   0.191   0.983  0.6283 -0.0668 -0.1599
 3687TIP3    H211068   0.933   0.186   1.084  0.9188 -0.5206 -0.5001
 3688TIP3   OH211069   3.245   4.375   1.759 -0.1241  0.4336  0.2604
 3688TIP3    H111070   3.203   4.448   1.805  0.1772  0.3519  0.6646
 3688TIP3    H211071   3.186   4.357   1.685 -2.4037 -1.5460  2.3658
 3689TIP3   OH211072   0.232   5.655   0.896  0.3949  0.4307  0.3899
 3689TIP3    H111073   0.192   5.612   0.972 -1.3964 -0.8093 -1.1552
 3689TIP3    H211074   0.170   5.725   0.873 -0.6429 -1.0296 -1.5751
 3690TIP3   OH211075   3.178   0.585   1.567 -0.3211 -0.3920 -0.6705
 3690TIP3    H111076   3.208   0.627   1.486  0.4810 -2.3718 -1.4586
 3690TIP3    H211077   3.200   0.492   1.556 -0.9121 -0.8510  1.4948
 3691TIP3   OH211078   0.968   0.689   2.708  0.0340  0.1200  0.0534
 3691TIP3    H111079   0.900   0.632   2.744 -0.0468  1.8195  2.8100
 3691TIP3    H211080   0.922   0.744   2.645 -0.4800 -0.7399 -0.3521
 3692TIP3   OH211081   3.609   5.643   2.777 -0.4620  0.5358 -0.5361
 3692TIP3    H111082   3.638   5.553   2.763 -1.7091 -0.0500  0.4168
 3692TIP3    H211083   3.525   5.648   2.731 -1.9794  0.1871  2.0095
 3693TIP3   OH211084   4.705   5.344   4.000 -0.0947  0.2746 -0.0215
 3693TIP3    H111085   4.624   5.293   4.005 -0.3547  0.7246  0.3596
 3693TIP3    H211086   4.704   5.400   4.078  0.7937 -0.0258  0.2167
 3694TIP3   OH211087   4.388   3.917   0.986 -0.6319 -0.4255 -0.4439
 3694TIP3    H111088   4.339   3.869   0.919 -1.8821 -0.1636  0.2539
 3694TIP3    H211089   4.354   3.883   1.069 -0.0807  0.2244  0.0552
 3695TIP3   OH211090   1.771   4.907   4.863 -0.3173  0.1300  0.1630
 3695TIP3    H111091   1.743   4.817   4.848 -0.3908 -0.1398  1.7710
 3695TIP3    H211092   1.862   4.899   4.893  1.0506  0.8773 -3.2919
 3696TIP3   OH211093   0.214   1.988   4.233  0.1647 -0.8937 -0.5509
 3696TIP3    H111094   0.305   1.959   4.245 -0.1587 -2.7030 -2.0673
 3696TIP3    H211095   0.181   1.998   4.322  2.2363  1.2940  0.0932
 3697TIP3   OH211096   2.626   5.012   2.006 -0.4485 -0.4215  0.2689
 3697TIP3    H111097   2.671   5.027   2.089 -1.1230  1.5405  0.3413
 3697TIP3    H211098   2.558   4.947   2.027  0.4891 -1.2511  0.8133
 3698TIP3   OH211099   3.417   4.149   0.179  1.3305 -0.2912 -0.2113
 3698TIP3    H111100   3.462   4.074   0.217 -0.7432 -1.5704 -0.0887
 3698TIP3    H211101   3.467   4.169   0.100  0.8382 -3.1763 -1.3956
 3699TIP3   OH211102   1.294   4.132   1.497  0.8772 -0.1006 -0.5959
 3699TIP3    H111103   1.350   4.055   1.503  0.7649 -0.1587 -0.2725
 3699TIP3    H211104   1.322   4.189   1.568 -0.3397 -0.7167  0.4347
 3700TIP3   OH211105   0.922   3.595   1.339  0.2630 -0.3188 -0.4953
 3700TIP3    H111106   0.911   3.518   1.283  1.3296 -1.1979  0.4576
 3700TIP3    H211107   0.904   3.563   1.427 -1.3697  1.0414 -0.2906
 3701TIP3   OH211108   0.458   2.508   0.564 -0.3322 -0.1954  0.0623
 3701TIP3    H111109   0.545   2.483   0.533  0.0558 -0.7372  1.5266
 3701TIP3    H211110   0.400   2.442   0.524  0.1908 -1.0557  0.6832
 3702TIP3   OH211111   4.250   2.111   3.901  0.7164 -0.8705  0.5617
 3702TIP3    H111112   4.179   2.146   3.847  2.3235 -1.6255 -2.2689
 3702TIP3    H211113   4.240   2.155   3.986 -0.1820  2.8492 -1.2554
 3703TIP3   OH211114   0.869   5.230   2.592 -0.2868  0.4089  0.0684
 3703TIP3    H111115   0.804   5.160   2.606 -1.1455  1.1751  0.0140
 3703TIP3    H211116   0.816   5.306   2.567  0.6902  0.9050 -0.5165
 3704TIP3   OH211117   3.351   1.482   3.282 -0.2467 -0.1675  0.2713
 3704TIP3    H111118   3.444   1.474   3.261 -0.7009  0.7284 -2.6303
 3704TIP3    H211119   3.336   1.576   3.287 -0.7763 -0.3272  2.0972
 3705TIP3   OH211120   5.804   3.347   4.192  0.6242  0.4632 -0.2540
 3705TIP3    H111121   5.815   3.431   4.237  2.2010 -0.6879  1.6458
 3705TIP3    H211122   5.731   3.362   4.132  0.2278  2.9018  0.7060
 3706TIP3   OH211123   5.520   5.831   3.575 -0.0435 -0.4533  0.3862
 3706TIP3    H111124   5.483   5.743   3.573  2.1819 -1.4683  0.5497
 3706TIP3    H211125   5.589   5.830   3.508 -0.1806  1.2791  0.1658
 3707TIP3   OH211126   2.895   0.489   0.638 -0.2205 -0.3863 -0.1735
 3707TIP3    H111127   2.910   0.578   0.607 -1.6172 -0.2761 -0.5745
 3707TIP3    H211128   2.801   0.484   0.654 -0.4189 -2.2443 -1.5992
 3708TIP3   OH211129   2.424   2.037   2.392 -0.2365  0.1930 -0.3657
 3708TIP3    H111130   2.348   2.031   2.450 -0.1460 -1.5995 -0.3768
 3708TIP3    H211131   2.443   1.947   2.368 -0.5207  0.8676 -3.5257
 3709TIP3   OH211132   2.271   3.020   1.474 -0.0949 -0.0071 -0.3644
 3709TIP3    H111133   2.233   3.076   1.407 -2.4875  0.0680  0.9542
 3709TIP3    H211134   2.200   2.962   1.501  0.7407  0.0184  2.1575
 3710TIP3   OH211135   6.231   3.483   3.823 -0.4468 -0.0925  0.1963
 3710TIP3    H111136   6.178   3.446   3.894  1.0117 -1.0348  0.8213
 3710TIP3    H211137   6.269   3.408   3.779  2.5955  0.5587  1.4941
 3711TIP3   OH211138   1.084   4.305   4.503 -0.7870  0.6523  0.0113
 3711TIP3    H111139   1.121   4.228   4.459 -1.2987  0.9588 -0.9998
 3711TIP3    H211140   1.045   4.271   4.583 -1.5201 -0.2691 -0.7054
 3712TIP3   OH211141   4.335   2.351   3.271  0.1688  0.3451  0.1138
 3712TIP3    H111142   4.391   2.420   3.235  1.2712 -1.4288 -1.7052
 3712TIP3    H211143   4.393   2.276   3.283 -1.7377 -1.5672 -1.7941
 3713TIP3   OH211144   6.230   4.210   3.090 -0.0535  0.5501  0.8856
 3713TIP3    H111145   6.251   4.205   3.183 -0.3567  0.2018  0.9347
 3713TIP3    H211146   6.272   4.291   3.060 -0.6868  1.1204  1.5101
 3714TIP3   OH211147   0.239   2.112   4.779 -0.6505 -0.2114  0.2466
 3714TIP3    H111148   0.235   2.207   4.784  0.7548 -0.1650  1.0830
 3714TIP3    H211149   0.333   2.092   4.782 -0.9192 -1.6171 -0.0348
 3715TIP3   OH211150   1.059   0.527   5.046 -0.4974  0.4701  0.4642
 3715TIP3    H111151   0.991   0.466   5.017 -0.6024  1.2638 -1.0134
 3715TIP3    H211152   1.137   0.472   5.055 -0.4838  0.1479 -1.2653
 3716TIP3   OH211153   2.904   3.144   2.117 -0.4406  0.0028 -0.6350
 3716TIP3    H111154   2.942   3.231   2.107 -0.8176  0.2501  0.0482
 3716TIP3    H211155   2.871   3.122   2.029  1.5622 -0.3859 -1.3432
 3717TIP3   OH211156   5.601   4.331   4.692 -0.2310  0.4805  0.4976
 3717TIP3    H111157   5.614   4.401   4.756 -1.9071  0.5312  0.8115
 3717TIP3    H211158   5.512   4.301   4.706 -0.7624  0.6737 -2.0209
 3718TIP3   OH211159   4.021   4.634   3.922  0.4979 -0.4081  0.3643
 3718TIP3    H111160   3.964   4.579   3.975  0.5480  0.1920  1.0646
 3718TIP3    H211161   4.075   4.682   3.986  0.3976  0.5063 -0.2081
 3719TIP3   OH211162   5.938   4.680   5.018  0.2224 -0.0194 -0.6147
 3719TIP3    H111163   5.973   4.642   5.099 -0.1030 -0.3215 -0.6154
 3719TIP3    H211164   6.013   4.726   4.979 -0.2244  2.3762  1.1564
 3720TIP3   OH211165   4.789   2.922   1.113  0.5852 -0.0368 -0.3518
 3720TIP3    H111166   4.821   2.838   1.148  1.0301 -0.7641 -2.3523
 3720TIP3    H211167   4.715   2.945   1.169  2.0833 -0.3853  1.9025
 3721TIP3   OH211168   4.626   2.373   3.401  0.2659 -0.0033  0.1616
 3721TIP3    H111169   4.668   2.350   3.484 -0.9532  0.0473  0.8159
 3721TIP3    H211170   4.686   2.340   3.334  1.2060 -0.1681  1.0571
 3722TIP3   OH211171   3.324   5.277   0.659  0.0620  0.2944  0.3071
 3722TIP3    H111172   3.292   5.269   0.749  0.2163  1.9382  0.5394
 3722TIP3    H211173   3.362   5.191   0.639  2.4300  0.6464  2.7354
 3723TIP3   OH211174   5.984   5.349   2.128 -0.0839  0.5205  0.0071
 3723TIP3    H111175   5.917   5.314   2.070  0.0297 -0.8068  0.6539
 3723TIP3    H211176   5.985   5.290   2.203  0.4414  1.6512  0.9314
 3724TIP3   OH211177   6.230   4.561   4.484  0.1927 -0.6481  0.3181
 3724TIP3    H111178   6.166   4.551   4.554 -1.4158  0.5517 -0.9023
 3724TIP3    H211179   6.309   4.517   4.517 -0.8001 -0.9658  2.4463
 3725TIP3   OH211180   3.071   2.600   0.585 -0.9127 -0.4357  0.2536
 3725TIP3    H111181   2.994   2.555   0.621 -2.2231  1.5599  0.1044
 3725TIP3    H211182   3.136   2.596   0.655 -0.4308 -3.6114 -0.2009
 3726TIP3   OH211183   0.386   0.166   0.861 -0.6413  0.4510 -0.0790
 3726TIP3    H111184   0.351   0.240   0.811 -1.9437 -1.3366 -1.9854
 3726TIP3    H211185   0.328   0.159   0.936 -0.8563  1.0085 -0.1837
 3727TIP3   OH211186   4.257   0.539   1.630 -0.1647  0.1271  0.3769
 3727TIP3    H111187   4.234   0.465   1.687 -0.8649 -0.6892 -0.9197
 3727TIP3    H211188   4.339   0.511   1.589 -0.8442 -0.3093 -0.7216
 3728TIP3   OH211189   3.479   4.116   2.129 -0.0958 -0.1653  0.1240
 3728TIP3    H111190   3.499   4.186   2.067 -0.9353 -0.2945 -0.3116
 3728TIP3    H211191   3.451   4.042   2.075 -0.3758 -0.4390  0.6281
 3729TIP3   OH211192   2.566   0.781   2.876 -0.6425 -0.6120 -0.1837
 3729TIP3    H111193   2.550   0.704   2.929 -1.8988 -1.9269 -2.3391
 3729TIP3    H211194   2.573   0.748   2.786 -0.0464  1.6453 -1.0457
 3730TIP3   OH211195   2.425   3.198   1.639 -0.4157 -0.0470  0.3448
 3730TIP3    H111196   2.518   3.175   1.635 -0.3153  0.1036  1.5221
 3730TIP3    H211197   2.383   3.142   1.574  0.5907  0.3887 -0.7170
 3731TIP3   OH211198   2.736   1.038   4.216 -0.2256  0.1247  0.3596
 3731TIP3    H111199   2.676   0.978   4.260  1.3452 -1.7615  0.0756
 3731TIP3    H211200   2.794   1.068   4.286 -0.0020  0.0146  0.2219
 3732TIP3   OH211201   3.316   5.814   0.165 -0.1166 -0.1119 -0.0326
 3732TIP3    H111202   3.329   5.783   0.075 -1.8924 -0.7538 -0.1074
 3732TIP3    H211203   3.225   5.790   0.186 -0.2761  1.5139  1.3464
 3733TIP3   OH211204   2.138   4.205   4.255 -0.3428  0.1340  0.6025
 3733TIP3    H111205   2.202   4.234   4.190 -0.7466 -1.1382 -0.4036
 3733TIP3    H211206   2.185   4.209   4.339  0.6211  0.4822  0.0580
 3734TIP3   OH211207   0.851   5.960   1.615 -0.0431  0.1458  0.2385
 3734TIP3    H111208   0.881   5.989   1.529 -0.1387  0.4349  0.3010
 3734TIP3    H211209   0.761   5.931   1.601  0.1941 -0.5325  0.0905
 3735TIP3   OH211210   4.825   4.147   2.304  0.1730 -0.1224 -0.1554
 3735TIP3    H111211   4.852   4.127   2.393 -2.5012  0.2779  0.8614
 3735TIP3    H211212   4.731   4.163   2.311  0.0137  0.7182 -2.9312
 3736TIP3   OH211213   2.656   1.328   4.295  0.1862  0.3425 -0.1677
 3736TIP3    H111214   2.586   1.321   4.360 -0.1847  0.0505 -0.5907
 3736TIP3    H211215   2.728   1.277   4.332  0.6653  1.7224  0.8839
 3737TIP3   OH211216   5.724   5.928   1.292  0.0145  0.3725  0.4943
 3737TIP3    H111217   5.796   5.983   1.324  0.7849 -0.5198  0.3307
 3737TIP3    H211218   5.667   5.916   1.368  0.8309 -0.1546  1.0371
 3738TIP3   OH211219   0.079   4.702   2.379 -0.3545 -0.5758 -0.4250
 3738TIP3    H111220   0.142   4.639   2.415 -0.7060 -1.4763 -1.3511
 3738TIP3    H211221   0.116   4.727   2.295 -0.2237  0.4806 -0.0743
 3739TIP3   OH211222   5.382   5.575   2.970 -0.7886 -0.5907 -0.1052
 3739TIP3    H111223   5.372   5.621   2.887 -0.2860 -1.4400 -0.6596
 3739TIP3    H211224   5.444   5.628   3.020 -1.5198  0.2188 -0.0368
 3740TIP3   OH211225   1.414   1.072   3.848 -0.3363  0.0941 -0.0126
 3740TIP3    H111226   1.437   1.152   3.895 -1.7126  0.5901 -0.1390
 3740TIP3    H211227   1.432   1.092   3.756  0.5662 -0.2161  0.0883
 3741TIP3   OH211228   1.881   5.742   5.136  0.3436 -0.5181 -0.0374
 3741TIP3    H111229   1.911   5.652   5.120  0.6460 -0.6518  1.1312
 3741TIP3    H211230   1.940   5.775   5.204 -0.4055  0.2035  0.2847
 3742TIP3   OH211231   2.113   3.921   3.679 -0.0731  0.2792 -0.1660
 3742TIP3    H111232   2.114   4.015   3.702 -1.3745 -0.0625  1.5948
 3742TIP3    H211233   2.102   3.920   3.584 -1.4339  1.9662 -0.0994
 3743TIP3   OH211234   1.892   2.373   0.790  0.0786 -0.4058 -0.2207
 3743TIP3    H111235   1.920   2.397   0.878 -0.4104 -0.0717 -0.1482
 3743TIP3    H211236   1.870   2.280   0.797 -0.7922 -0.1837  0.2451
 3744TIP3   OH211237   3.193   2.304   1.051 -0.3643  0.2843 -0.6690
 3744TIP3    H111238   3.287   2.288   1.044 -0.1929  0.2898  1.2881
 3744TIP3    H211239   3.165   2.254   1.127 -1.2530  3.0012  0.9294
 3745TIP3   OH211240   5.538   2.809   3.245  0.2285  0.2698  0.1884
 3745TIP3    H111241   5.536   2.727   3.294  0.0531 -0.5930 -1.2080
 3745TIP3    H211242   5.590   2.789   3.167 -0.2213  1.3350 -0.4025
 3746TIP3   OH211243   4.812   3.299   3.347 -0.1079  0.3365 -0.0034
 3746TIP3    H111244   4.845   3.384   3.375  3.1509 -0.9120  0.3723
 3746TIP3    H211245   4.879   3.265   3.288 -0.9657 -2.2882  0.4089
 3747TIP3   OH211246   2.709   0.382   1.940 -0.0634 -0.3298 -0.2790
 3747TIP3    H111247   2.617   0.378   1.964  0.4315 -0.9772  1.7045
 3747TIP3    H211248   2.734   0.291   1.925  0.2424 -0.1563 -0.8581
 3748TIP3   OH211249   0.656   3.652   1.592  0.2692 -0.2242  0.0206
 3748TIP3    H111250   0.655   3.601   1.673 -0.3630  1.7119  1.2881
 3748TIP3    H211251   0.699   3.734   1.614  1.5449 -0.2482 -2.0524
 3749TIP3   OH211252   4.874   0.344   1.755  0.2019 -0.8024 -0.0350
 3749TIP3    H111253   4.794   0.292   1.745 -0.7265  0.3246  1.1773
 3749TIP3    H211254   4.885   0.388   1.671 -1.0983 -0.1264  0.1207
 3750TIP3   OH211255   1.957   4.976   1.860 -0.0155 -0.0466  0.7754
 3750TIP3    H111256   1.991   4.919   1.791 -0.3393  0.3808  0.2508
 3750TIP3    H211257   1.907   5.043   1.813 -2.3908 -1.1645  1.5531
 3751TIP3   OH211258   2.185   0.048   2.106  0.5335  0.1260  0.0819
 3751TIP3    H111259   2.215   0.136   2.085  3.2393 -0.6039  0.4684
 3751TIP3    H211260   2.164   0.051   2.199  1.8807  0.0994  0.4073
 3752TIP3   OH211261   2.236   2.977   2.964  0.0743 -0.1599 -0.2646
 3752TIP3    H111262   2.215   2.902   3.019 -0.5429  0.4139  0.2887
 3752TIP3    H211263   2.200   3.053   3.010  0.4075  0.4470 -0.9708
 3753TIP3   OH211264   0.835   2.054   3.556  0.5031 -0.5364  0.2075
 3753TIP3    H111265   0.851   2.051   3.461  1.2109 -2.1943  0.3473
 3753TIP3    H211266   0.901   2.115   3.589 -1.0081  1.6395 -0.5392
 3754TIP3   OH211267   3.609   4.819   2.988  0.1877 -0.3011  1.0454
 3754TIP3    H111268   3.521   4.789   2.965  0.7081 -0.7112 -0.5206
 3754TIP3    H211269   3.595   4.908   3.023 -0.7542  0.0517 -0.1522
 3755TIP3   OH211270   1.212   1.934   3.573 -0.6267 -0.1255 -0.1706
 3755TIP3    H111271   1.137   1.978   3.613 -0.9368  0.1710 -1.0494
 3755TIP3    H211272   1.232   1.987   3.496  0.4631 -0.2294  0.0302
 3756TIP3   OH211273   0.635   0.150   5.057  0.8800  0.5874 -0.8582
 3756TIP3    H111274   0.680   0.081   5.106 -2.0966 -2.1405 -1.6446
 3756TIP3    H211275   0.615   0.217   5.123  1.4276 -0.5927  0.5673
 3757TIP3   OH211276   2.852   1.848   3.266  0.2377 -0.1072  0.4646
 3757TIP3    H111277   2.796   1.880   3.195  0.4975 -0.2715  0.1812
 3757TIP3    H211278   2.839   1.753   3.266 -0.8461  0.0208  1.5770
 3758TIP3   OH211279   4.193   1.906   2.622 -0.6475 -0.0977  0.0646
 3758TIP3    H111280   4.261   1.973   2.612 -0.2730 -0.8284 -4.5048
 3758TIP3    H211281   4.239   1.831   2.658  0.6292 -0.0261 -1.3357
 3759TIP3   OH211282   3.382   5.489   4.912  0.2543 -0.0436 -0.1977
 3759TIP3    H111283   3.337   5.406   4.892 -0.4735  0.5280 -0.9744
 3759TIP3    H211284   3.452   5.464   4.973 -0.7622 -1.0419  0.5952
 3760TIP3   OH211285   5.920   2.222   0.936 -0.5693  0.8006 -0.0008
 3760TIP3    H111286   5.872   2.240   0.855 -1.4028  2.5308  0.8384
 3760TIP3    H211287   6.010   2.249   0.916 -0.0735 -1.4762 -1.2302
 3761TIP3   OH211288   5.435   4.065   3.055  0.2851 -0.3582 -0.0653
 3761TIP3    H111289   5.359   4.097   3.007 -0.4148 -0.2003  1.1231
 3761TIP3    H211290   5.438   3.971   3.035 -0.1162 -0.3347 -0.2478
 3762TIP3   OH211291   2.572   1.925   4.640 -0.0093  0.6245 -0.3911
 3762TIP3    H111292   2.600   1.906   4.550 -1.1616 -0.8061 -0.4954
 3762TIP3    H211293   2.579   1.840   4.685 -0.3179  1.1305  0.6360
 3763TIP3   OH211294   5.046   0.644   0.289  0.3939  0.7502  0.2703
 3763TIP3    H111295   5.009   0.650   0.377  1.1495  0.2416  0.6280
 3763TIP3    H211296   5.110   0.573   0.294  2.2231  2.3060 -0.0577
 3764TIP3   OH211297   4.806   0.423   4.634 -0.0358  0.1406  0.1952
 3764TIP3    H111298   4.789   0.329   4.640 -1.5027  0.4255  0.9175
 3764TIP3    H211299   4.721   0.461   4.612  0.6555  1.2622 -0.5975
 3765TIP3   OH211300   0.527   2.182   3.927 -0.6348 -0.4793  0.1792
 3765TIP3    H111301   0.521   2.102   3.979  1.2650 -0.4073  0.5667
 3765TIP3    H211302   0.582   2.241   3.978 -0.4427  0.3698 -0.9582
 3766TIP3   OH211303   5.096   2.009   0.322 -0.3740  0.1175  0.3603
 3766TIP3    H111304   5.005   1.985   0.306  0.0474 -0.6726 -0.9635
 3766TIP3    H211305   5.100   2.026   0.416 -1.7279 -0.5196  0.5551
 3767TIP3   OH211306   4.776   4.674   4.273  0.1346 -0.0034 -0.0931
 3767TIP3    H111307   4.812   4.623   4.201 -0.0984 -0.9264  0.4326
 3767TIP3    H211308   4.701   4.623   4.304 -1.0720  1.4206 -0.5516
 3768TIP3   OH211309   5.246   2.237   2.839 -0.3113 -0.0494 -0.8154
 3768TIP3    H111310   5.258   2.212   2.747 -0.3002 -0.5166 -0.6885
 3768TIP3    H211311   5.307   2.181   2.887 -0.4076  0.1059 -0.5109
 3769TIP3   OH211312   5.706   1.349   0.125 -0.4866 -0.4711 -0.2953
 3769TIP3    H111313   5.747   1.276   0.079 -0.8561 -1.3575  0.7269
 3769TIP3    H211314   5.738   1.427   0.081  2.1236 -1.1153  0.2804
 3770TIP3   OH211315   5.246   0.546   0.633  0.6877  0.2355 -0.2443
 3770TIP3    H111316   5.214   0.506   0.552  0.4745 -1.3418  0.5866
 3770TIP3    H211317   5.171   0.593   0.668  0.4814  0.0613 -0.4471
 3771TIP3   OH211318   1.363   1.674   0.214  0.2433  0.1708 -0.3881
 3771TIP3    H111319   1.421   1.745   0.187  1.1410 -0.6670 -0.7050
 3771TIP3    H211320   1.304   1.663   0.140 -1.2490  1.9053  0.4416
 3772TIP3   OH211321   3.957   0.477   2.954 -0.2447  0.3166 -0.1730
 3772TIP3    H111322   3.964   0.433   2.869 -0.9190  2.8525 -1.6522
 3772TIP3    H211323   3.874   0.446   2.990 -0.7221  0.3736 -1.1848
 3773TIP3   OH211324   2.575   3.378   2.404  0.6085  0.1015  0.3025
 3773TIP3    H111325   2.588   3.406   2.314  2.1054 -0.4176  0.3217
 3773TIP3    H211326   2.642   3.425   2.454 -1.4063  1.8734  1.5103
 3774TIP3   OH211327   1.972   4.040   0.302 -0.0786 -0.1599 -0.0654
 3774TIP3    H111328   1.892   4.073   0.260 -0.4855 -1.2098 -0.1265
 3774TIP3    H211329   2.039   4.047   0.234  0.1462  1.6821  0.2895
 3775TIP3   OH211330   4.849   2.478   4.406  0.0272  0.2221  0.1158
 3775TIP3    H111331   4.835   2.415   4.477  0.7520 -0.6751 -0.5199
 3775TIP3    H211332   4.765   2.480   4.359  0.1384 -0.6277 -0.1343
 3776TIP3   OH211333   0.705   2.764   2.731  0.0286 -0.1809  0.4998
 3776TIP3    H111334   0.765   2.767   2.656 -1.0873  0.6184 -0.4149
 3776TIP3    H211335   0.719   2.678   2.770  2.2147  0.2118  0.7309
 3777TIP3   OH211336   5.913   5.571   2.279  0.1830 -0.0786  0.6002
 3777TIP3    H111337   5.974   5.526   2.221  0.3600 -2.4761  2.4756
 3777TIP3    H211338   5.847   5.505   2.301 -1.3170  1.5081  1.1509
 3778TIP3   OH211339   5.675   0.502   4.936 -0.5795 -0.0017 -0.4440
 3778TIP3    H111340   5.610   0.432   4.931  0.8011 -1.2632 -3.0969
 3778TIP3    H211341   5.649   0.564   4.867 -0.4551  0.9218  0.3100
 3779TIP3   OH211342   0.201   1.033   2.962 -0.1223 -0.2449 -0.4175
 3779TIP3    H111343   0.169   1.123   2.950  1.9860  0.4996 -0.9388
 3779TIP3    H211344   0.239   1.034   3.050  2.3802  0.2723 -1.4110
 3780TIP3   OH211345   1.655   0.460  -0.018  0.0091  0.0482 -0.2882
 3780TIP3    H111346   1.641   0.439   0.075 -0.3572 -2.4867 -0.8226
 3780TIP3    H211347   1.573   0.500  -0.047  0.4972  1.8335  0.6805
 3781TIP3   OH211348   0.464   1.760   4.975  0.1142 -0.0532  0.0249
 3781TIP3    H111349   0.404   1.755   4.901 -1.7615  0.7843  1.3886
 3781TIP3    H211350   0.504   1.674   4.979 -1.5174 -0.8871 -0.5804
 3782TIP3   OH211351   3.283   1.549   4.743 -0.2135  0.0010  0.0557
 3782TIP3    H111352   3.349   1.481   4.754 -0.2050  0.0025  0.0120
 3782TIP3    H211353   3.330   1.622   4.703 -0.1781  0.1026  0.2818
 3783TIP3   OH211354   2.640   4.474   3.387  0.1764 -0.2834 -0.6946
 3783TIP3    H111355   2.577   4.522   3.441  1.0850  0.1872 -0.0368
 3783TIP3    H211356   2.635   4.384   3.419 -0.9439 -0.4850 -1.3854
 3784TIP3   OH211357   0.369   0.789   0.598 -0.1080 -0.1276 -0.1443
 3784TIP3    H111358   0.354   0.802   0.504 -1.4430 -1.2718 -0.1262
 3784TIP3    H211359   0.341   0.872   0.638 -1.3847 -0.3124 -0.6082
 3785TIP3   OH211360   5.365   5.385   0.575  0.3015  0.5608  0.3997
 3785TIP3    H111361   5.290   5.335   0.608 -2.1499  2.1555 -2.2649
 3785TIP3    H211362   5.421   5.319   0.534 -0.5551 -0.5110  0.8762
 3786TIP3   OH211363   3.806   5.366   4.182 -0.2675  0.7900  0.0968
 3786TIP3    H111364   3.726   5.399   4.221 -1.0889  0.3856 -1.1844
 3786TIP3    H211365   3.787   5.362   4.088  0.4852 -1.3573 -0.0226
 3787TIP3   OH211366   4.644   5.181   2.297 -0.1106 -0.0881  0.0059
 3787TIP3    H111367   4.569   5.224   2.256  0.4948  0.6969 -0.3066
 3787TIP3    H211368   4.649   5.095   2.255 -0.5276  0.0528 -0.3386
 3788TIP3   OH211369   5.870   0.761   3.216 -0.4722 -0.5779  0.4973
 3788TIP3    H111370   5.879   0.719   3.302  1.0552  0.0075  0.6643
 3788TIP3    H211371   5.844   0.691   3.157  0.8217 -1.5204  1.0063
 3789TIP3   OH211372   5.625   2.904   3.878  0.1867 -0.4195 -0.4572
 3789TIP3    H111373   5.649   2.926   3.968  0.3040 -0.2747 -0.5226
 3789TIP3    H211374   5.547   2.956   3.861  0.4753 -0.0317 -0.6183
 3790TIP3   OH211375   3.671   2.143   2.665  0.1036  0.3941 -0.2168
 3790TIP3    H111376   3.723   2.174   2.740 -0.6361 -0.0094  0.4767
 3790TIP3    H211377   3.683   2.212   2.599  0.9201  0.6674  0.1923
 3791TIP3   OH211378   2.761   2.348   4.083 -0.4921 -0.2373 -0.2290
 3791TIP3    H111379   2.835   2.407   4.072 -0.9926  0.4622  0.0865
 3791TIP3    H211380   2.736   2.324   3.993  0.2876 -0.7072 -0.3253
 3792TIP3   OH211381   2.043   5.110   3.524 -0.1238 -0.2263 -0.6361
 3792TIP3    H111382   2.129   5.132   3.560  1.8153 -1.8228 -3.8597
 3792TIP3    H211383   2.027   5.179   3.459 -1.3320  0.0871 -0.0189
 3793TIP3   OH211384   4.823   0.721   0.145 -0.1290  0.1755  0.2070
 3793TIP3    H111385   4.759   0.672   0.197 -0.6425  0.9180  0.2910
 3793TIP3    H211386   4.904   0.716   0.196 -0.4220  0.2146  0.6876
 3794TIP3   OH211387   4.450   3.279   2.610 -0.4424  0.0085  0.5923
 3794TIP3    H111388   4.366   3.239   2.587 -0.9374  0.8430  0.9115
 3794TIP3    H211389   4.460   3.351   2.548  0.2933 -0.3920  0.2258
 3795TIP3   OH211390   0.456   0.586   5.120  0.0649  0.4126  0.1628
 3795TIP3    H111391   0.521   0.537   5.070  1.1282  1.4569  0.4912
 3795TIP3    H211392   0.389   0.610   5.055 -0.0075 -0.6375 -0.1788
 3796TIP3   OH211393   1.008   5.333   2.376 -0.3355  0.1165  0.2301
 3796TIP3    H111394   0.963   5.315   2.458  0.8552  1.1704  1.1571
 3796TIP3    H211395   1.015   5.428   2.373  1.3884  0.0073 -0.1023
 3797TIP3   OH211396   4.528   4.657   3.157 -0.8646 -0.4352 -0.0350
 3797TIP3    H111397   4.560   4.573   3.124 -0.3530 -0.5203  0.6670
 3797TIP3    H211398   4.464   4.634   3.224 -0.7489 -0.2694  0.1348
 3798TIP3   OH211399   2.768   3.634   0.773 -0.1840  0.3922  0.5348
 3798TIP3    H111400   2.772   3.726   0.744 -0.8768  0.6060  1.0795
 3798TIP3    H211401   2.839   3.626   0.837  0.4758  0.2878 -0.1988
 3799TIP3   OH211402   6.064   1.473   3.806  0.0206  0.2960  0.2064
 3799TIP3    H111403   6.065   1.410   3.878 -1.5174  0.2392  0.2287
 3799TIP3    H211404   5.997   1.440   3.746  0.9185  0.6160 -1.0144
 3800TIP3   OH211405   6.151   2.439   2.195  0.7183  0.1983 -0.3593
 3800TIP3    H111406   6.187   2.353   2.216  3.2205  1.5287  1.2506
 3800TIP3    H211407   6.170   2.451   2.102  1.1637 -0.6187 -0.3843
 3801TIP3   OH211408   0.052   4.742   1.392 -0.0289  0.2853  0.9934
 3801TIP3    H111409   0.129   4.789   1.359 -0.6977 -0.0552 -1.2288
 3801TIP3    H211410   0.085   4.655   1.415  0.2828  0.1644  0.1235
 3802TIP3   OH211411   5.427   5.936   3.126 -0.2949 -0.0684  0.1121
 3802TIP3    H111412   5.345   5.939   3.176 -0.3671 -0.7520  0.0496
 3802TIP3    H211413   5.429   6.018   3.077 -1.8286 -0.7791 -1.2542
 3803TIP3   OH211414   4.024   0.227   3.982 -0.0771  0.2960  0.1530
 3803TIP3    H111415   4.115   0.233   4.009 -0.3921  0.4428  1.2365
 3803TIP3    H211416   4.001   0.135   3.995 -0.2397  0.3752  0.4438
 3804TIP3   OH211417   4.541   2.398   5.044  0.3799  0.3746 -0.1463
 3804TIP3    H111418   4.549   2.488   5.012 -0.1758  0.2642 -0.6185
 3804TIP3    H211419   4.497   2.352   4.973  2.1306 -0.6647 -0.6102
 3805TIP3   OH211420   1.066   2.374   2.748 -0.0635  0.2757  0.1790
 3805TIP3    H111421   1.096   2.463   2.732  0.0208  0.4168  1.0632
 3805TIP3    H211422   1.061   2.367   2.844  0.5793 -0.8751  0.1506
 3806TIP3   OH211423   5.839   0.560   1.998 -1.0710 -0.4719 -0.0921
 3806TIP3    H111424   5.812   0.494   1.934 -0.1490  0.9294 -2.0217
 3806TIP3    H211425   5.873   0.632   1.945 -0.5722  0.9064  1.9933
 3807TIP3   OH211426   2.267   2.062   5.082  0.6681  0.1872  0.8585
 3807TIP3    H111427   2.250   2.105   5.165  1.1278  0.6273  0.7346
 3807TIP3    H211428   2.256   1.968   5.100 -2.3501  0.4119  0.6499
 3808TIP3   OH211429   3.182   0.815   1.766 -0.8630 -0.1018  0.1942
 3808TIP3    H111430   3.274   0.843   1.768 -1.0463  0.4965  0.2611
 3808TIP3    H211431   3.135   0.882   1.816 -1.6351  0.6434 -1.4618
 3809TIP3   OH211432   6.043   5.646   0.383 -0.0643 -0.1908  0.6110
 3809TIP3    H111433   6.118   5.616   0.332 -1.4033 -0.2842 -1.4127
 3809TIP3    H211434   6.065   5.737   0.407 -0.1726  0.5258 -1.8076
 3810TIP3   OH211435   2.048   3.834   2.631 -0.1171  0.1260 -0.3084
 3810TIP3    H111436   2.071   3.922   2.600  1.0238 -0.5815 -1.6303
 3810TIP3    H211437   1.996   3.797   2.560 -0.8761 -0.1726  0.3855
 3811TIP3   OH211438   5.301   0.780   3.314  0.9043  0.3484 -0.6467
 3811TIP3    H111439   5.258   0.739   3.239  0.8435 -1.7732  0.4748
 3811TIP3    H211440   5.390   0.745   3.314  1.2406  1.1562 -0.3028
 3812TIP3   OH211441   4.356   4.986   3.859 -0.3821 -0.0799 -0.2236
 3812TIP3    H111442   4.411   4.920   3.903  1.8645  0.5322 -1.9307
 3812TIP3    H211443   4.373   4.973   3.766 -0.5655  2.3282 -0.6557
 3813TIP3   OH211444   5.967   2.354   2.671 -0.1322 -0.9060 -0.0766
 3813TIP3    H111445   5.913   2.422   2.631 -0.7900 -2.4345 -1.9569
 3813TIP3    H211446   5.907   2.281   2.685  0.7255 -1.4098  1.1192
 3814TIP3   OH211447   1.550   1.507   4.188  0.0647 -0.2379  0.2586
 3814TIP3    H111448   1.632   1.519   4.139 -0.2775 -0.2404 -0.3286
 3814TIP3    H211449   1.575   1.458   4.266  0.6867  0.0897  0.2714
 3815TIP3   OH211450   4.160   4.914   5.199 -0.0057 -0.0963 -0.3526
 3815TIP3    H111451   4.241   4.958   5.175 -0.4429  0.5796 -0.6017
 3815TIP3    H211452   4.165   4.830   5.154  0.8664 -0.3554  0.1934
 3816TIP3   OH211453   4.003   3.785   2.814 -0.1129 -0.0340  0.2429
 3816TIP3    H111454   3.932   3.726   2.790  0.3602 -0.9670  1.0618
 3816TIP3    H211455   4.028   3.758   2.903  0.9389  0.5857  0.1565
 3817TIP3   OH211456   0.225   0.183   4.481  0.1432  0.3868  0.2285
 3817TIP3    H111457   0.176   0.103   4.497  0.3005  0.0232 -0.9541
 3817TIP3    H211458   0.187   0.248   4.539  0.9888 -0.8931  2.3133
 3818TIP3   OH211459   4.261   4.266   2.583  0.6673 -0.2131 -0.0082
 3818TIP3    H111460   4.256   4.353   2.621 -1.6388  0.2496 -1.1980
 3818TIP3    H211461   4.322   4.218   2.640 -0.2977  1.2891  2.4250
 3819TIP3   OH211462   1.346   5.563   2.866 -0.3463  0.1647  0.1899
 3819TIP3    H111463   1.307   5.558   2.779 -1.0316  2.7398  0.2724
 3819TIP3    H211464   1.303   5.638   2.908  0.3723 -0.6407  2.5555
 3820TIP3   OH211465   3.322   4.513   2.050  0.1889 -0.2073 -0.8188
 3820TIP3    H111466   3.266   4.490   2.123 -0.0945 -1.3940 -1.3810
 3820TIP3    H211467   3.381   4.438   2.040  2.1355  1.1398 -0.0282
 3821TIP3   OH211468   0.775   1.554   2.259 -0.1627  0.2291  0.0001
 3821TIP3    H111469   0.730   1.478   2.222 -1.4206  0.1428  1.5843
 3821TIP3    H211470   0.865   1.546   2.227 -0.2659 -1.8846  0.0643
 3822TIP3   OH211471   3.719   4.155   3.883  0.6246  0.0169 -0.1076
 3822TIP3    H111472   3.751   4.242   3.858 -0.1046  0.4151  0.3085
 3822TIP3    H211473   3.680   4.120   3.803 -1.4146  1.1576  0.3108
 3823TIP3   OH211474   0.583   0.444   4.916  0.5767  0.9773  0.6060
 3823TIP3    H111475   0.662   0.433   4.865 -0.3022  2.5868 -1.2461
 3823TIP3    H211476   0.515   0.399   4.866  0.0584  0.8504  1.4088
 3824TIP3   OH211477   2.947   4.233   1.775 -0.3834  0.1077 -0.2239
 3824TIP3    H111478   2.952   4.270   1.863 -0.1253  0.2706 -0.3078
 3824TIP3    H211479   2.870   4.176   1.778 -1.0268  0.9591 -0.2105
 3825TIP3   OH211480   2.345   2.390   0.288  0.1465 -0.6097 -0.3476
 3825TIP3    H111481   2.390   2.337   0.354 -1.6197  0.0601  1.4992
 3825TIP3    H211482   2.288   2.328   0.242  0.3448 -0.8311 -0.2987
 3826TIP3   OH211483   0.535   5.041   0.126  0.1884 -0.4993  0.4227
 3826TIP3    H111484   0.500   5.030   0.214  1.3654  1.3117  1.1599
 3826TIP3    H211485   0.591   4.964   0.113 -0.0617 -0.8221  1.2143
 3827TIP3   OH211486   4.837   1.815   4.139  0.1282  0.0400 -0.5149
 3827TIP3    H111487   4.868   1.787   4.225  1.7140 -0.3049 -1.1437
 3827TIP3    H211488   4.905   1.784   4.079 -0.1587  1.6295 -1.7149
 3828TIP3   OH211489   3.359   3.696   4.251  0.7430 -0.8490 -0.2169
 3828TIP3    H111490   3.445   3.706   4.210  0.6927 -0.0315 -0.1430
 3828TIP3    H211491   3.368   3.738   4.336  0.0156  0.0981 -0.5828
 3829TIP3   OH211492   2.179   5.371   1.218 -0.1641 -0.2201  0.3405
 3829TIP3    H111493   2.224   5.455   1.208  0.0741 -0.1642  1.6503
 3829TIP3    H211494   2.093   5.393   1.253 -0.4688 -0.4647 -0.2425
 3830TIP3   OH211495   1.394   2.420   1.118 -0.3184  0.3537  0.1370
 3830TIP3    H111496   1.345   2.472   1.054 -0.8544  0.2733  0.4787
 3830TIP3    H211497   1.474   2.395   1.072 -1.3127 -0.8902 -0.9925
 3831TIP3   OH211498   5.473   2.390   3.899 -0.7245 -0.1940  0.2876
 3831TIP3    H111499   5.384   2.359   3.909 -0.9165  0.0982 -0.4755
 3831TIP3    H211500   5.524   2.312   3.875 -0.5243 -0.6128  1.9414
 3832TIP3   OH211501   2.788   4.014   0.898  0.2799  0.0308  0.0166
 3832TIP3    H111502   2.873   4.036   0.935 -0.0591  1.2651  0.1247
 3832TIP3    H211503   2.807   3.979   0.811  0.9144 -0.1328  0.2190
 3833TIP3   OH211504   2.342   2.407   2.184 -0.1399 -0.7089  0.0050
 3833TIP3    H111505   2.374   2.464   2.114  0.5080 -0.5961  0.3839
 3833TIP3    H211506   2.254   2.381   2.156  0.0472 -0.5247 -0.7620
 3834TIP3   OH211507   1.524   3.668   0.881  0.2702  0.8203 -0.2303
 3834TIP3    H111508   1.534   3.694   0.790 -0.1896  1.1417 -0.1901
 3834TIP3    H211509   1.490   3.579   0.877  0.7327  0.6495 -0.3708
 3835TIP3   OH211510   0.545   1.162   1.584 -0.4469  0.2342  0.3492
 3835TIP3    H111511   0.471   1.110   1.552  0.5570 -0.0803 -1.5872
 3835TIP3    H211512   0.620   1.133   1.533  1.2202  0.0991  2.6709
 3836TIP3   OH211513   1.264   2.107   2.195 -0.1488 -0.3401  0.0254
 3836TIP3    H111514   1.329   2.043   2.166  0.2378  0.2798 -0.5215
 3836TIP3    H211515   1.189   2.093   2.136  0.0724 -0.0600 -0.3272
 3837TIP3   OH211516   1.663   0.710   1.023 -0.2062  0.0609 -0.0955
 3837TIP3    H111517   1.679   0.618   1.045 -2.0425 -0.0958  0.7563
 3837TIP3    H211518   1.602   0.706   0.949 -0.3677  0.5897  0.0045
 3838TIP3   OH211519   3.627   3.737   4.893 -0.0885 -0.0880  0.7397
 3838TIP3    H111520   3.705   3.701   4.850 -1.2082 -3.0321  0.9425
 3838TIP3    H211521   3.644   3.725   4.986 -0.6736 -0.5298  0.7936
 3839TIP3   OH211522   3.850   0.386   4.885 -0.0454 -0.4617  0.5291
 3839TIP3    H111523   3.774   0.416   4.834  0.3604 -0.3550 -0.0259
 3839TIP3    H211524   3.879   0.464   4.933 -0.1547 -0.4497  0.5766
 3840TIP3   OH211525   2.748   0.986   2.907 -0.3676  0.2243  0.2857
 3840TIP3    H111526   2.770   1.037   2.830  0.5907  0.3554  0.6366
 3840TIP3    H211527   2.682   0.923   2.876 -1.6462  1.6921 -0.1290
 3841TIP3   OH211528   2.931   3.858   4.056 -0.4177  0.0513 -0.3151
 3841TIP3    H111529   2.873   3.841   3.982  0.0241 -0.7301 -0.4879
 3841TIP3    H211530   2.891   3.812   4.129 -0.4231  0.1529 -0.2541
 3842TIP3   OH211531   2.964   3.228   0.874  0.0620  0.0495  0.8989
 3842TIP3    H111532   2.944   3.207   0.783  0.1162  0.1488  0.8640
 3842TIP3    H211533   2.881   3.255   0.913 -0.0593 -0.4769  1.0121
 3843TIP3   OH211534   2.549   0.654   4.357 -0.3013 -0.0735  0.3899
 3843TIP3    H111535   2.598   0.639   4.438 -0.1611 -0.6512  0.1982
 3843TIP3    H211536   2.583   0.590   4.295  0.1768  0.9096 -0.3988
 3844TIP3   OH211537   1.539   4.846   1.427 -0.0652  0.6761 -0.1721
 3844TIP3    H111538   1.611   4.786   1.445 -0.1184  0.7656  0.3551
 3844TIP3    H211539   1.565   4.893   1.348  1.5022  2.3134  1.2239
 3845TIP3   OH211540   5.597   4.312   0.274 -0.0100  0.0729 -0.0209
 3845TIP3    H111541   5.522   4.273   0.319  0.3631 -1.5650 -0.7264
 3845TIP3    H211542   5.673   4.279   0.322  0.3221 -0.1185 -0.6664
 3846TIP3   OH211543   2.396   1.007   1.582 -0.2234 -0.7968 -0.0719
 3846TIP3    H111544   2.306   0.975   1.584 -1.0719  1.4162 -0.3469
 3846TIP3    H211545   2.420   1.014   1.675 -0.2539 -1.5687  0.0001
 3847TIP3   OH211546   4.933   4.272   4.833  0.2361  0.0973 -0.5069
 3847TIP3    H111547   4.856   4.270   4.776 -0.0012  0.1997 -0.1898
 3847TIP3    H211548   4.902   4.307   4.916  0.4970 -0.4078 -0.1849
 3848TIP3   OH211549   5.977   3.727   3.464  0.0871 -0.0531 -0.0218
 3848TIP3    H111550   5.976   3.761   3.375  0.7798  0.1262  0.0317
 3848TIP3    H211551   6.061   3.756   3.500 -1.0153  1.5692  1.3644
 3849TIP3   OH211552   0.958   0.049   0.095  0.1255  0.0277  0.0658
 3849TIP3    H111553   1.052   0.031   0.092  0.1307  0.0172  0.2337
 3849TIP3    H211554   0.944   0.118   0.030  0.4876  1.0528  1.0406
 3850TIP3   OH211555   0.029   2.228   4.508 -0.3061  0.3680 -0.0521
 3850TIP3    H111556   0.098   2.292   4.491  0.3535 -0.4467 -0.5534
 3850TIP3    H211557   0.075   2.144   4.510 -0.7680  0.0577  2.8529
 3851TIP3   OH211558   5.361   1.244   3.885  0.0815 -0.4655 -0.0296
 3851TIP3    H111559   5.393   1.199   3.963  1.8775 -0.1480 -0.5426
 3851TIP3    H211560   5.358   1.177   3.817 -1.8068 -0.8187  0.3471
 3852TIP3   OH211561   0.044   5.868   0.827 -0.2557 -0.0907  0.2073
 3852TIP3    H111562  -0.020   5.938   0.810 -0.3935  0.0414  1.2002
 3852TIP3    H211563   0.087   5.854   0.742 -0.0477  1.3704  0.0362
 3853TIP3   OH211564   5.854   4.367   2.849 -0.0875 -0.3769 -0.2186
 3853TIP3    H111565   5.937   4.324   2.833 -0.7328 -1.1078 -1.8481
 3853TIP3    H211566   5.803   4.303   2.899 -0.3465 -0.7231 -0.9162
 3854TIP3   OH211567   2.249   2.733   2.546 -0.2913  0.4843 -0.0903
 3854TIP3    H111568   2.320   2.752   2.485  1.9346 -0.7994  1.8963
 3854TIP3    H211569   2.222   2.643   2.525 -1.4966  1.0321 -0.9554
 3855TIP3   OH211570   4.122   3.837   3.976 -0.0374 -0.0791  0.1883
 3855TIP3    H111571   4.150   3.760   4.025  1.6097  0.5682  0.3190
 3855TIP3    H211572   4.191   3.851   3.911 -0.4528  1.1134 -0.0243
 3856TIP3   OH211573   5.526   4.907   2.187 -0.5797  0.0148  0.3741
 3856TIP3    H111574   5.466   4.980   2.203  1.2922  1.5534  0.6363
 3856TIP3    H211575   5.483   4.856   2.119 -2.0230  1.2599  0.2938
 3857TIP3   OH211576   3.206   0.156   4.102  0.2769  0.3011 -0.2877
 3857TIP3    H111577   3.301   0.147   4.094  0.3413  1.2010 -0.6671
 3857TIP3    H211578   3.180   0.204   4.024 -0.1426  2.3769  1.0591
 3858TIP3   OH211579   0.678   4.992   1.593 -0.1008  0.1696 -0.2301
 3858TIP3    H111580   0.710   5.054   1.659  0.7024 -0.4811  0.0043
 3858TIP3    H211581   0.728   4.912   1.609  1.0052  0.3560 -2.3900
 3859TIP3   OH211582   6.218   5.637   3.038 -0.0451  0.3865  0.7018
 3859TIP3    H111583   6.180   5.673   2.958 -2.1965  0.6877  1.7760
 3859TIP3    H211584   6.159   5.666   3.108 -1.4843 -4.3338  1.8166
 3860TIP3   OH211585   0.245   4.898   1.493 -0.0298 -0.4467 -0.0207
 3860TIP3    H111586   0.262   4.892   1.587 -3.1804 -0.4308  0.6501
 3860TIP3    H211587   0.208   4.985   1.481 -1.6933 -1.2154 -0.8355
 3861TIP3   OH211588   0.129   0.231   5.073  0.0918  0.1225 -0.0398
 3861TIP3    H111589   0.216   0.202   5.047  0.3515 -0.4261  1.3797
 3861TIP3    H211590   0.070   0.168   5.032  0.3412  0.4722 -0.9711
 3862TIP3   OH211591   4.009   2.905   2.392 -0.9678  0.0879 -0.6184
 3862TIP3    H111592   4.059   2.978   2.428 -0.7646 -0.1819 -0.3374
 3862TIP3    H211593   3.921   2.940   2.377 -2.1179 -0.5784  3.2867
 3863TIP3   OH211594   4.091   2.482   0.957 -0.6321 -0.3227 -0.1898
 3863TIP3    H111595   3.997   2.463   0.960 -1.0924  1.1844 -2.2802
 3863TIP3    H211596   4.105   2.517   0.869  1.4638  1.6123  0.8067
 3864TIP3   OH211597   2.781   1.899   2.979  0.3994  0.0083  0.1893
 3864TIP3    H111598   2.694   1.861   2.964  0.7543 -0.9393  0.4584
 3864TIP3    H211599   2.811   1.925   2.891  0.0466 -0.1039  0.0333
 3865TIP3   OH211600   6.005   3.791   1.520  0.7829  0.4414 -0.6115
 3865TIP3    H111601   5.914   3.815   1.537  0.7680 -0.8059  1.2860
 3865TIP3    H211602   6.019   3.711   1.570  1.9832 -1.3178 -3.5157
 3866TIP3   OH211603   1.905   1.122   1.142  0.3196  0.1750  1.0813
 3866TIP3    H111604   1.869   1.064   1.075  1.7703 -0.5880  0.9075
 3866TIP3    H211605   1.970   1.067   1.188  2.9250  2.0619 -0.1107
 3867TIP3   OH211606   6.032   4.077   4.531 -0.0198 -0.1130 -0.0405
 3867TIP3    H111607   6.035   4.118   4.617 -1.4945  1.8457 -0.8334
 3867TIP3    H211608   6.074   4.141   4.473  1.4382 -1.6260 -0.7499
 3868TIP3   OH211609   0.427   0.999   3.189  0.2313 -0.2188 -0.5121
 3868TIP3    H111610   0.471   1.057   3.251  1.3887 -0.0254 -1.4776
 3868TIP3    H211611   0.360   0.955   3.241  0.9007  0.2302  0.7818
 3869TIP3   OH211612   1.647   5.908   1.750 -0.2339 -0.0129  0.0522
 3869TIP3    H111613   1.568   5.890   1.801  0.7605 -3.3563  0.6332
 3869TIP3    H211614   1.711   5.938   1.815 -0.3797  0.6560 -0.0984
 3870TIP3   OH211615   3.706   5.795   3.493  0.3808 -0.3495  0.6321
 3870TIP3    H111616   3.641   5.828   3.431  0.9494 -0.0066  0.2030
 3870TIP3    H211617   3.731   5.710   3.458  2.6249  0.9305 -1.1366
 3871TIP3   OH211618   1.889   4.226   0.955  0.3789 -0.0378 -0.0193
 3871TIP3    H111619   1.952   4.166   0.995  0.2011  0.3010  0.7826
 3871TIP3    H211620   1.864   4.285   1.025  1.5666  1.8794 -1.1181
 3872TIP3   OH211621   2.593   0.339   3.232  0.8641  0.0445 -0.1643
 3872TIP3    H111622   2.635   0.316   3.314  0.6340  1.5637  0.4177
 3872TIP3    H211623   2.503   0.361   3.256  0.0430 -1.9248 -1.2128
 3873TIP3   OH211624   5.675   1.818   4.509  0.4160  0.5067 -0.6381
 3873TIP3    H111625   5.627   1.837   4.428 -1.2103 -0.0919  0.1495
 3873TIP3    H211626   5.616   1.762   4.559  1.6482  0.3740  0.7108
 3874TIP3   OH211627   1.642   2.174   1.300  0.3503 -0.0593 -0.2893
 3874TIP3    H111628   1.683   2.259   1.318  0.9674 -0.7913  2.1070
 3874TIP3    H211629   1.707   2.126   1.250  0.4463  0.4681 -0.6825
 3875TIP3   OH211630   0.117   1.149   4.328 -0.6539  0.0836  0.6960
 3875TIP3    H111631   0.147   1.236   4.354 -1.2245  0.6339 -0.4190
 3875TIP3    H211632   0.072   1.115   4.406 -2.8129  1.8984  0.3585
 3876TIP3   OH211633   3.744   2.460   0.154  0.5089  0.1885 -0.1435
 3876TIP3    H111634   3.699   2.538   0.185  0.4220 -0.1056  0.4799
 3876TIP3    H211635   3.753   2.473   0.059 -1.5444 -0.0676 -0.4222
 3877TIP3   OH211636   3.904   3.720   4.797 -0.1698 -0.2057 -0.0146
 3877TIP3    H111637   3.958   3.768   4.735 -1.0854  1.5688  0.5066
 3877TIP3    H211638   3.895   3.778   4.872 -1.9968 -0.8224  0.3089
 3878TIP3   OH211639   1.760   3.639   2.090  0.3412 -0.3462  0.4789
 3878TIP3    H111640   1.853   3.640   2.067  0.5403  1.9030  1.1661
 3878TIP3    H211641   1.731   3.730   2.080 -2.2737 -1.2298 -1.4739
 3879TIP3   OH211642   4.704   1.429   2.646 -0.1673 -0.5173  0.0284
 3879TIP3    H111643   4.635   1.364   2.633  0.1660 -0.8032 -0.3349
 3879TIP3    H211644   4.777   1.379   2.684 -0.6707  0.0542  1.8728
 3880TIP3   OH211645   6.275   2.139   3.375  0.0680 -0.2928  0.0982
 3880TIP3    H111646   6.279   2.180   3.462 -1.8219 -0.7178  0.4274
 3880TIP3    H211647   6.254   2.212   3.316  0.1888 -0.2011  0.1675
 3881TIP3   OH211648   1.071   4.860   2.049 -0.3393  0.1370  0.0290
 3881TIP3    H111649   1.120   4.903   2.119  2.3680  1.0869 -2.2829
 3881TIP3    H211650   1.015   4.929   2.014  1.1401  0.7971 -1.1462
 3882TIP3   OH211651   3.233   2.953   0.577 -0.0986  0.3081 -0.2645
 3882TIP3    H111652   3.141   2.940   0.555  0.1273 -0.1809 -0.9386
 3882TIP3    H211653   3.232   2.980   0.669 -0.8381 -0.8795  0.0908
 3883TIP3   OH211654   3.599   5.524   1.545  0.1140 -0.3350  0.3355
 3883TIP3    H111655   3.551   5.576   1.480  2.0616  0.3044 -0.6535
 3883TIP3    H211656   3.598   5.578   1.625  2.1690  1.3643 -0.6947
 3884TIP3   OH211657   5.799   0.136   2.056  0.5041  0.0893 -0.3399
 3884TIP3    H111658   5.745   0.207   2.091 -1.3383 -1.3374 -0.1213
 3884TIP3    H211659   5.820   0.082   2.133  0.8453 -0.2532 -0.6715
 3885TIP3   OH211660   5.428   0.102   2.311 -0.3885 -0.9224 -0.7759
 3885TIP3    H111661   5.383   0.186   2.319  2.6414  1.1071 -2.9453
 3885TIP3    H211662   5.462   0.084   2.398 -0.0158  0.7971 -0.5380
 3886TIP3   OH211663   4.247   5.573   2.112 -0.0061  0.0600 -0.7286
 3886TIP3    H111664   4.242   5.603   2.021 -1.2340  0.0295 -0.6766
 3886TIP3    H211665   4.240   5.478   2.107  0.3653  0.0254 -0.6282
 3887TIP3   OH211666   1.783   3.174   0.380 -0.5840 -0.2024  0.7542
 3887TIP3    H111667   1.755   3.263   0.399 -0.4015 -0.1582  0.8243
 3887TIP3    H211668   1.741   3.121   0.446 -0.7284 -0.1732  0.6854
 3888TIP3   OH211669   2.508   2.400   0.685  0.1667 -0.5890 -0.0550
 3888TIP3    H111670   2.416   2.378   0.675 -0.0935  0.4289  0.0408
 3888TIP3    H211671   2.510   2.494   0.699  1.1823 -0.6771  0.5487
 3889TIP3   OH211672   0.526   5.161   2.719  0.1995  0.1898  0.2935
 3889TIP3    H111673   0.577   5.135   2.641  0.9717  1.8716  0.1963
 3889TIP3    H211674   0.449   5.205   2.684  0.4638  0.7977  0.4586
 3890TIP3   OH211675   5.452   0.047   2.580 -1.1245  0.5594 -0.4168
 3890TIP3    H111676   5.425   0.139   2.584  0.7657  1.2647 -2.2668
 3890TIP3    H211677   5.413   0.008   2.658 -0.5898  3.3199  1.3836
 3891TIP3   OH211678   4.576   1.205   0.577 -0.2969  0.2917  0.1027
 3891TIP3    H111679   4.512   1.166   0.517  0.1938 -0.1760 -0.1225
 3891TIP3    H211680   4.534   1.203   0.663 -0.3799 -0.4980  0.0469
 3892TIP3   OH211681   1.303   5.781   4.121 -0.3317 -0.3955 -0.3032
 3892TIP3    H111682   1.376   5.742   4.169 -2.3737 -1.8888  1.8189
 3892TIP3    H211683   1.305   5.739   4.035  0.8102 -1.0079  0.0011
 3893TIP3   OH211684   4.036   5.849   2.637 -0.2183 -0.4043  0.1918
 3893TIP3    H111685   4.101   5.895   2.585  0.4575  1.3197  2.4270
 3893TIP3    H211686   4.053   5.756   2.620  1.3281  0.0559 -0.9819
 3894TIP3   OH211687   5.446   3.630   1.471  0.0672 -0.1689 -0.2472
 3894TIP3    H111688   5.441   3.605   1.563 -1.7575  0.5335 -0.1006
 3894TIP3    H211689   5.469   3.550   1.425  0.4046 -0.6647  0.7550
 3895TIP3   OH211690   0.984   3.945   2.400  0.5139  0.2758  0.0571
 3895TIP3    H111691   1.051   3.942   2.469  0.6819 -1.4376 -0.1449
 3895TIP3    H211692   1.009   3.876   2.339 -1.0171  0.1092 -0.4235
 3896TIP3   OH211693   5.955   1.375   1.639  0.0229 -0.0896 -0.3887
 3896TIP3    H111694   5.977   1.293   1.594  0.7542 -1.6191  2.4849
 3896TIP3    H211695   5.861   1.369   1.654  0.2820 -1.2607  1.1376
 3897TIP3   OH211696   1.176   2.225   1.568 -0.1083 -0.0590 -0.2320
 3897TIP3    H111697   1.246   2.205   1.505 -0.8603 -0.6768 -0.8836
 3897TIP3    H211698   1.137   2.306   1.535 -0.1245 -0.0688 -0.2367
 3898TIP3   OH211699   1.319   1.547   2.824  0.1091 -0.0451 -0.4013
 3898TIP3    H111700   1.226   1.571   2.826 -0.2788 -0.9028 -3.3256
 3898TIP3    H211701   1.320   1.456   2.796  1.8515  0.1394 -1.0766
 3899TIP3   OH211702   3.678   1.388   1.771 -0.4283  0.5217  0.6682
 3899TIP3    H111703   3.623   1.441   1.829  0.5627  1.2825  0.9281
 3899TIP3    H211704   3.726   1.330   1.830 -1.8576 -1.0631  0.3595
 3900TIP3   OH211705   2.471   1.761   2.412  0.0195  0.2145  0.8763
 3900TIP3    H111706   2.393   1.716   2.446  0.5356 -0.7324  0.8508
 3900TIP3    H211707   2.520   1.692   2.367  0.2361  1.0797 -0.2342
 3901TIP3   OH211708   4.162   3.174   0.430 -0.2716 -0.2853  0.2710
 3901TIP3    H111709   4.190   3.084   0.411 -1.9212 -0.5821 -0.9882
 3901TIP3    H211710   4.182   3.223   0.350 -1.4314 -0.0648  0.0959
 3902TIP3   OH211711   0.586   3.835   1.010 -0.0650  0.6442 -0.4231
 3902TIP3    H111712   0.562   3.922   1.043 -0.4480  0.8586 -1.2430
 3902TIP3    H211713   0.588   3.780   1.088 -1.8383  0.9499 -0.1002
 3903TIP3   OH211714   3.971   5.051   3.434 -0.0186  0.2178  0.0249
 3903TIP3    H111715   3.891   5.104   3.431 -0.4544 -0.3547  1.1313
 3903TIP3    H211716   4.025   5.087   3.364 -0.6736  1.5397  0.1531
 3904TIP3   OH211717   2.717   0.387   3.686  0.6644 -0.0512  0.0807
 3904TIP3    H111718   2.683   0.374   3.774  1.6419 -1.8327  0.2531
 3904TIP3    H211719   2.662   0.333   3.630 -0.0409  1.1821 -0.4501
 3905TIP3   OH211720   3.554   4.775   4.736  0.3206  0.1321 -0.1232
 3905TIP3    H111721   3.587   4.715   4.669 -0.5924  0.7248 -1.1552
 3905TIP3    H211722   3.630   4.797   4.789  0.9754 -0.7346 -0.6808
 3906TIP3   OH211723   4.519   2.475   3.109  0.8329 -0.0468  0.4474
 3906TIP3    H111724   4.599   2.424   3.104  0.9990  0.2976 -1.8637
 3906TIP3    H211725   4.493   2.487   3.017 -1.9714 -0.3197  1.1140
 3907TIP3   OH211726   5.938   3.584   4.757  0.5373 -0.1793  0.2676
 3907TIP3    H111727   5.989   3.506   4.780 -2.6939 -2.2905  0.9199
 3907TIP3    H211728   5.945   3.589   4.662  1.7868 -0.4844  0.3176
 3908TIP3   OH211729   5.448   2.105   0.555  0.0237 -0.2554  0.0988
 3908TIP3    H111730   5.456   2.102   0.460  1.0921  0.8418  0.1271
 3908TIP3    H211731   5.456   2.198   0.577  3.3657 -0.7103  1.4785
 3909TIP3   OH211732   0.299   5.469   3.966 -0.4265  0.1255  0.4720
 3909TIP3    H111733   0.307   5.440   4.057  2.8305 -0.4586  0.1032
 3909TIP3    H211734   0.229   5.415   3.930 -0.0347 -1.4809  1.9858
 3910TIP3   OH211735   1.278   4.918   3.604 -0.5123 -0.0032  0.4169
 3910TIP3    H111736   1.297   4.956   3.689 -0.4623  1.9683 -0.4281
 3910TIP3    H211737   1.360   4.877   3.577 -0.2045  0.3440  0.8233
 3911TIP3   OH211738   2.760   2.051   1.187 -0.2395 -0.1518  0.0551
 3911TIP3    H111739   2.845   2.037   1.146  0.9414  0.2911  2.1726
 3911TIP3    H211740   2.703   2.078   1.116  1.6582  0.6193 -1.2678
 3912TIP3   OH211741   4.029   4.215   0.941 -0.2012  0.2894 -0.5352
 3912TIP3    H111742   3.961   4.261   0.892 -0.7230  1.1565  0.9418
 3912TIP3    H211743   4.015   4.123   0.919 -1.0482  0.5671 -1.2285
 3913TIP3   OH211744   0.361   0.438   0.169  0.3925 -0.0912  0.0115
 3913TIP3    H111745   0.285   0.428   0.112 -0.1523 -0.5276  0.7917
 3913TIP3    H211746   0.324   0.459   0.254  1.2514  1.6772 -0.0252
 3914TIP3   OH211747   3.728   3.787   1.651 -0.0146 -0.3699  0.1600
 3914TIP3    H111748   3.747   3.720   1.717 -0.4754 -0.2727  0.3956
 3914TIP3    H211749   3.795   3.774   1.583  1.6297  0.7155  1.4950
 3915TIP3   OH211750   5.519   1.076   4.119  0.2238  0.0015 -0.0113
 3915TIP3    H111751   5.491   0.989   4.149 -0.7817  0.3042 -0.0426
 3915TIP3    H211752   5.521   1.129   4.198  0.3128  0.0889 -0.0728
 3916TIP3   OH211753   4.658   0.150   1.152 -0.2597  0.2407 -0.2614
 3916TIP3    H111754   4.740   0.147   1.203  0.2803  2.3517 -0.8987
 3916TIP3    H211755   4.594   0.188   1.213 -0.2116  0.5595 -0.4060
 3917TIP3   OH211756   1.019   4.939   4.085 -0.1247  0.2893  0.4408
 3917TIP3    H111757   1.038   5.022   4.040 -0.5924  1.2043  1.8666
 3917TIP3    H211758   1.094   4.925   4.143 -0.7171  0.5081  1.2823
 3918TIP3   OH211759   0.913   0.809   2.358 -0.3908  0.2533  0.4932
 3918TIP3    H111760   0.934   0.716   2.354  0.0472  0.3199  1.1065
 3918TIP3    H211761   0.895   0.825   2.450  1.6535  1.2214  0.7800
 3919TIP3   OH211762   1.227   0.388   0.919 -0.2085 -0.0293 -0.6001
 3919TIP3    H111763   1.239   0.317   0.981 -0.3501  1.1885  0.8720
 3919TIP3    H211764   1.143   0.371   0.877 -1.0262  0.1432  0.9398
 3920TIP3   OH211765   3.443   0.579   4.871 -0.3724 -0.6817 -0.9022
 3920TIP3    H111766   3.438   0.505   4.810 -0.9164 -2.3800  1.0779
 3920TIP3    H211767   3.353   0.591   4.901  0.0043 -0.3961  0.1420
 3921TIP3   OH211768   6.030   4.386   1.516 -0.1519  0.0963 -0.5395
 3921TIP3    H111769   6.109   4.350   1.557  0.8637  0.6768 -1.8921
 3921TIP3    H211770   6.010   4.326   1.445  0.2446  0.9882 -1.4215
 3922TIP3   OH211771   2.537   3.600   3.674  0.3729 -0.0369  0.3944
 3922TIP3    H111772   2.532   3.571   3.583  1.3840 -0.1953  0.3800
 3922TIP3    H211773   2.462   3.559   3.716  0.4132 -0.7078 -0.1650
 3923TIP3   OH211774   0.099   4.374   0.350  0.7379 -0.3506 -0.2094
 3923TIP3    H111775   0.158   4.401   0.279  1.0355 -0.5760 -0.0485
 3923TIP3    H211776   0.043   4.450   0.364  0.4405 -0.4368 -0.9319
 3924TIP3   OH211777   3.572   2.721   1.353  0.1857  0.3929 -0.5208
 3924TIP3    H111778   3.575   2.625   1.352 -0.2941  0.3556  0.7141
 3924TIP3    H211779   3.663   2.747   1.337  0.3446 -0.2674 -0.7352
 3925TIP3   OH211780   1.553   1.645   3.852  0.0840 -0.2762 -0.3845
 3925TIP3    H111781   1.472   1.594   3.863 -0.0957 -0.0682 -0.7224
 3925TIP3    H211782   1.557   1.701   3.929  1.6110 -2.5829  1.3439
 3926TIP3   OH211783   5.253   1.050   2.852  0.3759 -0.0847  0.2370
 3926TIP3    H111784   5.165   1.013   2.854  0.5493 -0.7018  4.1585
 3926TIP3    H211785   5.243   1.135   2.809 -1.8635 -0.6492 -0.4831
 3927TIP3   OH211786   6.249   3.897   0.246 -0.6961  0.8784 -0.0035
 3927TIP3    H111787   6.308   3.943   0.186 -0.0213  1.1212  0.8232
 3927TIP3    H211788   6.197   3.966   0.287 -0.5609  0.8004  0.3078
 3928TIP3   OH211789   1.424   2.547   0.191 -0.3629 -0.2241  0.1484
 3928TIP3    H111790   1.513   2.541   0.156 -0.0405  1.4156  0.5778
 3928TIP3    H211791   1.433   2.600   0.271 -1.8859  1.2857 -0.5942
 3929TIP3   OH211792   5.097   0.787   0.728  0.7898  0.1065 -0.0019
 3929TIP3    H111793   5.086   0.840   0.649  2.1191  2.0052  1.0127
 3929TIP3    H211794   5.008   0.762   0.753  0.1200  1.7832 -0.5948
 3930TIP3   OH211795   3.693   0.059   2.716  0.3494 -0.7303  0.2593
 3930TIP3    H111796   3.657   0.111   2.787  2.2836  0.2851  0.5696
 3930TIP3    H211797   3.700  -0.029   2.753 -1.9490 -1.0511  0.0858
 3931TIP3   OH211798   0.881   0.815   3.312 -0.0900 -0.1189  0.0975
 3931TIP3    H111799   0.886   0.862   3.229  0.6565  0.7671  0.6287
 3931TIP3    H211800   0.794   0.775   3.311  0.0370 -0.4146 -1.2514
 3932TIP3   OH211801   2.693   0.661   1.184 -0.7037  0.1775 -0.3663
 3932TIP3    H111802   2.598   0.656   1.181 -0.6653 -2.0290  0.0969
 3932TIP3    H211803   2.714   0.672   1.277 -0.5274 -2.4290 -0.0002
 3933TIP3   OH211804   4.110   1.369   5.177  0.0772  0.3406  0.9661
 3933TIP3    H111805   4.140   1.457   5.201  1.5092 -0.5891  2.8824
 3933TIP3    H211806   4.165   1.345   5.103  2.7719 -0.4515  3.0307
 3934TIP3   OH211807   4.342   4.228   0.290  0.0240 -0.1609 -0.0397
 3934TIP3    H111808   4.387   4.145   0.307 -1.2124 -1.0476 -0.8166
 3934TIP3    H211809   4.393   4.269   0.220 -0.0246 -0.8627 -0.4995
 3935TIP3   OH211810   2.531   2.857   1.415  0.4563  0.0845 -0.3772
 3935TIP3    H111811   2.490   2.772   1.397  0.6361 -0.1920  0.4466
 3935TIP3    H211812   2.460   2.908   1.455  0.1894  0.5244 -1.4040
 3936TIP3   OH211813   2.751   2.601   1.784 -0.1453  0.1864 -0.1361
 3936TIP3    H111814   2.793   2.576   1.702 -2.0605  0.2161 -1.1987
 3936TIP3    H211815   2.732   2.518   1.827 -0.0609  0.1161 -0.2350
 3937TIP3   OH211816   5.598   1.726   4.939 -0.2540  0.0693  0.1909
 3937TIP3    H111817   5.508   1.758   4.935 -0.2893 -0.1979 -2.2790
 3937TIP3    H211818   5.649   1.790   4.889  0.8475 -0.1133  1.0422
 3938TIP3   OH211819   2.915   5.339   3.366  0.0281  0.1234  0.2178
 3938TIP3    H111820   2.832   5.333   3.319  1.2462 -2.2295 -1.8743
 3938TIP3    H211821   2.964   5.406   3.320 -0.1976  0.5826  0.6332
 3939TIP3   OH211822   5.868   2.151   5.089  0.5766  0.5385  0.0336
 3939TIP3    H111823   5.927   2.146   5.165  1.1873  2.2485 -0.2869
 3939TIP3    H211824   5.848   2.060   5.068 -1.0049 -0.0305  3.2960
 3940TIP3   OH211825   3.733   0.373   0.175  0.2946  0.1338  0.0972
 3940TIP3    H111826   3.769   0.455   0.143  3.0267 -0.9310  0.2256
 3940TIP3    H211827   3.734   0.381   0.270 -1.6296  0.7594  0.1197
 3941TIP3   OH211828   2.497   2.609   0.424 -0.1122 -0.0987  0.2790
 3941TIP3    H111829   2.582   2.597   0.383 -0.2825  1.0182 -0.4517
 3941TIP3    H211830   2.434   2.573   0.362 -0.3131  0.9349 -0.1439
 3942TIP3   OH211831   0.393   5.858   2.913  0.2397  0.4691  0.1492
 3942TIP3    H111832   0.420   5.923   2.977  0.7098  1.3789 -0.9377
 3942TIP3    H211833   0.474   5.814   2.887 -0.2656 -1.9905  2.2966
 3943TIP3   OH211834   4.957   2.858   4.207 -0.6866 -0.0660 -0.0693
 3943TIP3    H111835   4.980   2.906   4.287  1.4767 -0.4069 -0.4323
 3943TIP3    H211836   4.881   2.805   4.232  0.2679 -0.5586  1.9172
 3944TIP3   OH211837   4.163   2.458   1.988 -0.4514  0.2821 -0.0475
 3944TIP3    H111838   4.095   2.395   2.008 -0.7546  0.6035 -0.0597
 3944TIP3    H211839   4.205   2.477   2.072 -0.7028  0.4589  0.0383
 3945TIP3   OH211840   4.147   5.703   4.688 -0.5795 -0.2913 -0.4431
 3945TIP3    H111841   4.138   5.638   4.619 -0.8493 -0.9829  0.2326
 3945TIP3    H211842   4.087   5.674   4.757  2.1666 -1.5654  1.5630
 3946TIP3   OH211843   4.477   0.584   2.969  0.0424  0.0496 -0.2571
 3946TIP3    H111844   4.418   0.527   2.921 -0.8785  1.3880 -0.7920
 3946TIP3    H211845   4.484   0.544   3.056  0.2594 -1.4044 -0.9210
 3947TIP3   OH211846   1.040   1.561   2.184 -0.1080 -0.6151 -0.2603
 3947TIP3    H111847   1.036   1.586   2.091 -1.1430 -2.0257 -0.6407
 3947TIP3    H211848   1.075   1.637   2.228  1.4420 -0.2692 -1.9570
 3948TIP3   OH211849   2.651   1.118   4.918 -0.4929  0.2351  0.9654
 3948TIP3    H111850   2.730   1.097   4.968  0.3036  0.6704 -0.0565
 3948TIP3    H211851   2.630   1.209   4.942 -0.0072  0.5051  0.4172
 3949TIP3   OH211852   0.585   2.345   4.609 -0.5724 -0.1035 -0.4162
 3949TIP3    H111853   0.551   2.306   4.528 -1.1572  0.8555 -0.6560
 3949TIP3    H211854   0.513   2.399   4.641  0.8626  2.4290 -1.2146
 3950TIP3   OH211855   4.936   1.919   2.539  0.6820  0.0360  0.0980
 3950TIP3    H111856   4.983   1.847   2.580 -1.9347 -1.0133  1.5047
 3950TIP3    H211857   4.855   1.878   2.505 -0.9486  2.2731  1.0542
 3951TIP3   OH211858   6.222   0.705   1.668  0.7110 -0.0893 -0.4895
 3951TIP3    H111859   6.178   0.621   1.669  1.3255 -0.4232  0.7101
 3951TIP3    H211860   6.299   0.693   1.724  0.6675  1.3292 -0.0699
 3952TIP3   OH211861   1.810   1.962   4.697  0.0808 -0.3209 -0.0393
 3952TIP3    H111862   1.759   2.034   4.734  4.0638  1.2329  3.2000
 3952TIP3    H211863   1.836   1.992   4.610 -1.6568  0.2233 -0.4178
 3953TIP3   OH211864   5.575   1.534   0.839  0.2547 -1.2448 -0.0929
 3953TIP3    H111865   5.568   1.475   0.765  0.4095  0.9015 -1.9183
 3953TIP3    H211866   5.665   1.567   0.836  0.1245 -0.7655  0.7852
 3954TIP3   OH211867   0.913   3.575   3.116 -0.6494 -0.0217 -0.0072
 3954TIP3    H111868   0.862   3.648   3.082 -0.4917 -0.2881 -0.8427
 3954TIP3    H211869   0.999   3.584   3.076 -0.5310 -0.4809  0.1295
 3955TIP3   OH211870   3.908   2.804   0.767  0.2668 -0.1312 -0.6952
 3955TIP3    H111871   3.826   2.835   0.728  0.1079 -0.6847 -0.8100
 3955TIP3    H211872   3.958   2.883   0.784 -1.0430  0.3733  1.0699
 3956TIP3   OH211873   1.685   0.182   2.089  0.3728  0.1178  0.1471
 3956TIP3    H111874   1.723   0.270   2.077 -1.7303  1.0447 -0.1828
 3956TIP3    H211875   1.626   0.171   2.014  0.2359 -1.3871  0.4443
 3957TIP3   OH211876   3.913   3.364   0.100 -0.2166  0.0331  0.1537
 3957TIP3    H111877   3.996   3.351   0.147  0.0182 -1.4754 -0.6421
 3957TIP3    H211878   3.847   3.330   0.160 -0.2114  0.5664  0.4787
 3958TIP3   OH211879   0.213   0.215   1.060 -0.3345  0.1728  0.2761
 3958TIP3    H111880   0.240   0.187   1.148  0.8959 -0.2172 -0.1995
 3958TIP3    H211881   0.119   0.197   1.056 -0.1847 -0.8498  1.1217
 3959TIP3   OH211882   2.730   4.673   0.997  0.1908 -0.1410 -0.6421
 3959TIP3    H111883   2.790   4.710   1.062  1.3398  0.0225 -1.7608
 3959TIP3    H211884   2.686   4.750   0.959  1.2580 -0.0299 -1.6987
 3960TIP3   OH211885   3.303   3.305   1.220 -0.3633 -0.2042  0.2133
 3960TIP3    H111886   3.351   3.370   1.270 -0.0025 -0.4679  0.2149
 3960TIP3    H211887   3.211   3.324   1.238 -0.2964  0.8507 -0.4867
 3961TIP3   OH211888   3.682   5.086   2.779 -0.1912 -0.0100 -0.1278
 3961TIP3    H111889   3.723   5.112   2.861 -1.3536 -2.0995  1.2050
 3961TIP3    H211890   3.588   5.085   2.799 -0.5642  0.3023 -1.7490
 3962TIP3   OH211891   0.033   5.110   2.941 -0.3358  0.1354 -0.3460
 3962TIP3    H111892  -0.042   5.169   2.953 -0.0048  0.5857 -0.4546
 3962TIP3    H211893   0.105   5.155   2.984  0.1136  0.2092 -1.1552
 3963TIP3   OH211894   0.821   0.841   1.200 -0.0481  0.3136  0.4766
 3963TIP3    H111895   0.847   0.892   1.123  2.3782  0.8881  1.5643
 3963TIP3    H211896   0.739   0.798   1.175  0.9547  0.0021 -2.6044
 3964TIP3   OH211897   1.310   4.865   4.498 -0.1960 -0.0157  0.5820
 3964TIP3    H111898   1.258   4.856   4.419  2.1042 -0.8537 -0.9412
 3964TIP3    H211899   1.341   4.956   4.496 -0.5043  0.0949  0.7741
 3965TIP3   OH211900   2.178   2.168   0.646 -0.0766  0.1585 -0.5145
 3965TIP3    H111901   2.129   2.133   0.720  1.1595 -0.8918 -0.1556
 3965TIP3    H211902   2.190   2.261   0.667 -0.9690  0.1865 -0.1067
 3966TIP3   OH211903   2.799   5.560   4.710  0.2454  0.2212  0.1574
 3966TIP3    H111904   2.727   5.499   4.692  1.2690 -0.8891 -0.2690
 3966TIP3    H211905   2.755   5.637   4.747 -0.9185 -1.4637  2.5366
 3967TIP3   OH211906   5.514   5.585   0.018 -0.2794 -0.4609 -0.3457
 3967TIP3    H111907   5.541   5.651  -0.045  0.0930 -0.7307 -0.4751
 3967TIP3    H211908   5.484   5.634   0.094  0.5142 -0.1523 -0.2263
 3968TIP3   OH211909   6.336   3.380   2.554  0.0506  0.0018  0.2354
 3968TIP3    H111910   6.245   3.354   2.567  0.0036 -0.5524 -1.0352
 3968TIP3    H211911   6.374   3.309   2.502  1.4484 -0.1893  1.4714
 3969TIP3   OH211912   1.878   4.242   0.681  0.1483 -0.2724 -0.4131
 3969TIP3    H111913   1.869   4.242   0.776  1.1440 -2.3668 -0.2488
 3969TIP3    H211914   1.891   4.333   0.657  2.7141  0.0358  1.7823
 3970TIP3   OH211915   4.760   4.619   0.271 -1.5004  0.1891 -0.0424
 3970TIP3    H111916   4.761   4.714   0.285  0.8765  0.1901  0.1483
 3970TIP3    H211917   4.816   4.606   0.194 -0.9539 -1.1227  0.5631
 3971TIP3   OH211918   2.696   2.459   2.274  0.0790 -0.1013 -0.2452
 3971TIP3    H111919   2.634   2.508   2.329 -1.2024  1.6652 -3.0085
 3971TIP3    H211920   2.743   2.527   2.225  1.8949 -1.5375 -0.5985
 3972TIP3   OH211921   2.067   1.601   3.711 -0.2981  0.4973 -0.2960
 3972TIP3    H111922   2.126   1.659   3.758  0.5704 -0.1641 -0.5362
 3972TIP3    H211923   2.039   1.537   3.776  0.7035 -0.2672 -0.5939
 3973TIP3   OH211924   3.428   5.527   1.869 -0.3834 -0.1256 -0.4384
 3973TIP3    H111925   3.340   5.562   1.859 -0.3080  1.0802  2.3455
 3973TIP3    H211926   3.484   5.586   1.818 -0.9182  0.5346 -0.2702
 3974TIP3   OH211927   0.607   5.136   2.442  0.2208 -0.5306  0.2300
 3974TIP3    H111928   0.629   5.062   2.385 -0.0381 -0.4218 -0.0161
 3974TIP3    H211929   0.551   5.192   2.387  2.2425  0.9991 -0.3647
 3975TIP3   OH211930   3.093   2.908   4.374 -0.5161 -0.0270 -0.0139
 3975TIP3    H111931   3.178   2.924   4.333 -0.2096  0.2760  0.7187
 3975TIP3    H211932   3.115   2.863   4.456 -0.9308  1.6199  1.0378
 3976TIP3   OH211933   5.661   0.607   1.423 -0.2264 -0.1516  0.1767
 3976TIP3    H111934   5.646   0.514   1.440  1.3078 -0.1182  2.0762
 3976TIP3    H211935   5.603   0.628   1.349 -1.0051 -2.4615  0.0577
 3977TIP3   OH211936   4.836   1.040   0.473  0.0454  0.0721 -0.0296
 3977TIP3    H111937   4.925   1.009   0.487  0.0415  0.6283  1.4190
 3977TIP3    H211938   4.798   1.045   0.561 -1.5248 -0.4501 -0.6272
 3978TIP3   OH211939   5.111   4.121   3.371  0.4633  0.4472  0.4454
 3978TIP3    H111940   5.095   4.128   3.277  1.2032  3.0961  0.4462
 3978TIP3    H211941   5.024   4.131   3.411 -0.1209 -2.3607  0.0983
 3979TIP3   OH211942   1.052   3.235   5.159 -0.2428 -0.3607  0.6983
 3979TIP3    H111943   1.042   3.146   5.124  0.2476  0.5138 -1.9167
 3979TIP3    H211944   1.141   3.236   5.196 -0.8839 -1.4062  2.3871
 3980TIP3   OH211945   2.386   3.850   2.532 -0.1545  0.4036  0.9317
 3980TIP3    H111946   2.300   3.887   2.510 -0.0271  0.3876  0.3821
 3980TIP3    H211947   2.386   3.763   2.492 -0.9184 -0.7411  3.2530
 3981TIP3   OH211948   6.181   1.813   0.916  0.1377 -0.2317 -0.6402
 3981TIP3    H111949   6.191   1.878   0.846 -0.2050 -1.7688 -2.1732
 3981TIP3    H211950   6.104   1.842   0.965 -0.2881  0.2625 -1.5816
 3982TIP3   OH211951   5.038   4.820   4.105 -0.1272 -0.0068  0.1974
 3982TIP3    H111952   4.982   4.744   4.093 -0.9551  0.2525  2.1042
 3982TIP3    H211953   4.988   4.893   4.068  0.8053 -0.3788 -1.9286
 3983TIP3   OH211954   0.394   1.265   4.675 -0.2950 -0.3809 -0.3596
 3983TIP3    H111955   0.473   1.247   4.726 -0.6048  2.0370  1.1371
 3983TIP3    H211956   0.401   1.208   4.598  2.5135 -0.7973  0.1120
 3984TIP3   OH211957   4.787   2.642   3.131  0.1737 -0.2950 -0.3846
 3984TIP3    H111958   4.772   2.610   3.042 -3.0666 -0.5838  0.1570
 3984TIP3    H211959   4.722   2.711   3.143 -1.0674 -1.7821  2.4356
 3985TIP3   OH211960   1.629   2.811   2.507 -0.7435  0.4346 -0.3068
 3985TIP3    H111961   1.549   2.759   2.512  0.1173 -0.8399  0.9356
 3985TIP3    H211962   1.680   2.769   2.437  0.2629 -0.9299  1.1778
 3986TIP3   OH211963   3.479   2.442   4.616 -0.1427  0.4154  0.2722
 3986TIP3    H111964   3.409   2.504   4.594 -0.3349 -0.0623 -0.4980
 3986TIP3    H211965   3.536   2.441   4.539  0.0634 -0.0829  0.4259
 3987TIP3   OH211966   3.029   0.205   1.118  0.3141 -0.1548 -0.4542
 3987TIP3    H111967   3.028   0.122   1.071  0.3824 -0.0832 -0.5829
 3987TIP3    H211968   3.117   0.239   1.103  0.8685 -0.8582  0.9923
 3988TIP3   OH211969   4.767   0.993   2.197 -0.7571 -0.0374  0.3292
 3988TIP3    H111970   4.690   1.037   2.233 -1.5112 -0.4213 -0.7746
 3988TIP3    H211971   4.833   1.062   2.192 -0.7714  0.1375  1.9693
 3989TIP3   OH211972   2.005   2.953   0.903 -0.5114 -0.3547 -0.0037
 3989TIP3    H111973   2.032   2.987   0.818 -0.6336 -0.0673  0.0701
 3989TIP3    H211974   1.991   2.859   0.888 -0.1256 -0.3810 -0.1962
 3990TIP3   OH211975   2.311   3.465   0.943  0.1356  0.0803  0.0563
 3990TIP3    H111976   2.220   3.439   0.928 -0.2480  1.3465  0.0222
 3990TIP3    H211977   2.318   3.470   1.039 -0.1592  0.9837  0.0464
 3991TIP3   OH211978   3.978   0.289   2.759  0.0477 -0.0240 -0.0055
 3991TIP3    H111979   4.009   0.247   2.679  0.4263  0.3575 -0.0637
 3991TIP3    H211980   3.900   0.337   2.733  1.1106  1.4770 -0.5277
 3992TIP3   OH211981   0.912   5.933   1.002  0.7181 -0.5135 -0.4215
 3992TIP3    H111982   0.984   5.906   1.059 -1.4260 -1.4542  2.0256
 3992TIP3    H211983   0.857   5.855   0.995 -0.9009  0.6306 -0.8684
 3993TIP3   OH211984   2.375   3.194   0.525 -0.1968 -0.2056 -0.6413
 3993TIP3    H111985   2.410   3.117   0.570 -1.6443 -1.2711 -1.2787
 3993TIP3    H211986   2.282   3.194   0.547  0.1152  2.6519  1.1354
 3994TIP3   OH211987   2.256   1.675   2.540 -0.3555  0.2555 -0.2434
 3994TIP3    H111988   2.218   1.643   2.622  1.9382 -1.7632  0.1295
 3994TIP3    H211989   2.227   1.613   2.473  1.5619 -0.9042 -0.0706
 3995TIP3   OH211990   3.052   3.991   5.132 -0.4826 -0.6809  0.2060
 3995TIP3    H111991   3.146   3.973   5.128 -0.3151  0.2506 -0.5386
 3995TIP3    H211992   3.013   3.934   5.066 -0.1038  0.7088 -1.2943
 3996TIP3   OH211993   2.717   3.342   0.050 -0.6305  0.6566  0.6157
 3996TIP3    H111994   2.703   3.436   0.036 -0.8655  0.7993  1.6840
 3996TIP3    H211995   2.718   3.333   0.145  0.0175 -0.3396  0.5261
 3997TIP3   OH211996   0.859   4.922   0.332  0.5419  0.0525 -0.6480
 3997TIP3    H111997   0.846   4.869   0.411 -1.0623  0.6206 -0.4832
 3997TIP3    H211998   0.908   4.998   0.361  0.3561  0.0322 -0.2788
 3998TIP3   OH211999   2.065   1.293   4.755 -0.6386  0.5040 -0.1399
 3998TIP3    H112000   2.058   1.387   4.771 -1.9336  0.4815 -0.4235
 3998TIP3    H212001   1.975   1.261   4.761 -0.2511 -0.6805 -0.3044
 3999TIP3   OH212002   5.358   0.106   1.544 -0.0626  0.0782 -0.7702
 3999TIP3    H112003   5.351   0.011   1.559 -2.1069 -0.1622 -2.6896
 3999TIP3    H212004   5.289   0.144   1.599 -1.8668 -0.0076 -2.8295
 4000TIP3   OH212005   3.975   2.426   2.479  0.0730 -0.1960 -0.3166
 4000TIP3    H112006   4.006   2.410   2.390 -0.7461 -0.4958 -0.5532
 4000TIP3    H212007   4.001   2.348   2.528  1.7418  0.5382  0.0610
 4001TIP3   OH212008   2.204   5.338   1.753 -0.4273 -0.3126 -0.1291
 4001TIP3    H112009   2.147   5.408   1.723 -0.0168 -0.2928 -0.8969
 4001TIP3    H212010   2.221   5.285   1.674 -0.6681 -1.2341  0.4140
 4002TIP3   OH212011   2.175   5.744   4.947  0.2008 -0.1764 -0.4736
 4002TIP3    H112012   2.179   5.774   5.038  0.9507 -1.5860 -0.0078
 4002TIP3    H212013   2.232   5.804   4.899 -0.4884  0.7975 -0.0939
 4003TIP3   OH212014   4.539   2.114   4.475  0.3255 -0.1595 -0.3426
 4003TIP3    H112015   4.556   2.030   4.432  1.8969 -0.1946  0.2764
 4003TIP3    H212016   4.626   2.150   4.493 -0.2791  0.3939  1.7731
 4004TIP3   OH212017   4.738   4.551   4.814 -0.0310 -0.7772  0.1723
 4004TIP3    H112018   4.709   4.611   4.746 -0.7881 -1.4209 -0.0857
 4004TIP3    H212019   4.671   4.558   4.883  0.1399 -0.9462  0.3579
 4005TIP3   OH212020   6.133   3.628   5.056  0.7420  0.1223  0.0680
 4005TIP3    H112021   6.133   3.697   5.123 -0.9329 -0.2028  0.4373
 4005TIP3    H212022   6.225   3.600   5.051  1.2495  1.5396  0.7670
 4006TIP3   OH212023   5.529   2.171   4.924  0.3658  0.3366 -0.3022
 4006TIP3    H112024   5.524   2.092   4.979 -0.0435  1.2257  0.9797
 4006TIP3    H212025   5.619   2.201   4.935  0.8584 -0.5138 -1.6617
 4007TIP3   OH212026   2.800   3.883   1.663  0.1567  0.9252 -0.0581
 4007TIP3    H112027   2.716   3.924   1.683  0.4714  1.9211 -0.6807
 4007TIP3    H212028   2.782   3.828   1.587  0.1234  1.4013 -0.4038
 4008TIP3   OH212029   1.982   3.331   2.462 -0.6446  0.3474  0.3839
 4008TIP3    H112030   1.994   3.238   2.478 -0.0858  0.4162  0.3859
 4008TIP3    H212031   2.031   3.374   2.533 -2.7494  0.6513  1.7518
 4009TIP3   OH212032   5.234   0.362   5.134  0.1240 -0.5069 -0.6380
 4009TIP3    H112033   5.162   0.305   5.106 -0.7573 -0.3813  1.2743
 4009TIP3    H212034   5.206   0.450   5.108  0.2070 -0.6023 -1.0660
 4010TIP3   OH212035   2.227   3.341   3.377  0.3909 -0.3920  0.2861
 4010TIP3    H112036   2.283   3.293   3.438 -0.0197 -2.7303 -1.0822
 4010TIP3    H212037   2.190   3.274   3.320 -3.0210  1.1754  0.4469
 4011TIP3   OH212038   6.225   2.720   2.241  0.1766 -0.4850  0.5787
 4011TIP3    H112039   6.257   2.754   2.324 -1.2317  0.8772  0.6130
 4011TIP3    H212040   6.186   2.635   2.263  0.7170 -0.6009  1.1136
 4012TIP3   OH212041   0.462   2.134   2.743  0.1412 -0.2476  0.6476
 4012TIP3    H112042   0.388   2.144   2.803  0.1757 -1.6321  0.9482
 4012TIP3    H212043   0.517   2.211   2.760  0.4409 -0.8679  2.8447
 4013TIP3   OH212044   4.572   0.876   4.416  0.7945 -0.2276  0.0526
 4013TIP3    H112045   4.584   0.888   4.322  0.5406 -0.7264 -0.0512
 4013TIP3    H212046   4.660   0.866   4.451  1.1480  2.9448  0.3313
 4014TIP3   OH212047   5.735   3.859   3.320  0.0415 -0.3953 -0.0449
 4014TIP3    H112048   5.664   3.900   3.369 -0.7669 -1.5495 -0.2351
 4014TIP3    H212049   5.791   3.820   3.386 -0.0105 -0.3089  0.0507
 4015TIP3   OH212050   0.745   0.328   3.924  0.0448 -0.1109  0.0231
 4015TIP3    H112051   0.820   0.364   3.876 -0.5460 -0.5867 -1.2954
 4015TIP3    H212052   0.764   0.234   3.929 -1.6153 -0.7036 -2.6436
 4016TIP3   OH212053   3.244   3.522   0.661  0.6852 -0.1418  0.0871
 4016TIP3    H112054   3.166   3.477   0.628  1.8310 -1.8848 -0.4131
 4016TIP3    H212055   3.246   3.502   0.754  0.6583 -0.3158  0.0506
 4017TIP3   OH212056   1.639   5.550   2.733 -0.5625 -0.0317 -0.1141
 4017TIP3    H112057   1.637   5.512   2.821 -0.4396  0.1204 -0.0438
 4017TIP3    H212058   1.631   5.475   2.674  0.8908 -0.3136 -0.0023
 4018TIP3   OH212059   3.483   3.264   0.069  0.0795  0.2615 -0.1186
 4018TIP3    H112060   3.406   3.264   0.126  0.6332 -0.0488  0.6478
 4018TIP3    H212061   3.464   3.198   0.002 -0.3626  0.2690 -0.0019
 4019TIP3   OH212062   0.725   3.934   1.418 -0.0992 -0.3109  0.1154
 4019TIP3    H112063   0.790   3.999   1.444  1.0811 -0.8047 -1.3968
 4019TIP3    H212064   0.668   3.925   1.494  1.6642  0.0780  1.5653
 4020TIP3   OH212065   0.413   1.958   5.166 -0.1360  0.5168 -0.2471
 4020TIP3    H112066   0.407   1.893   5.096  0.2869  2.2901 -2.0477
 4020TIP3    H212067   0.497   1.942   5.208 -0.3947 -0.5866 -0.1419
 4021TIP3   OH212068   1.623   1.920   0.314  0.0816  0.2142  0.5748
 4021TIP3    H112069   1.673   1.980   0.370 -0.9409  2.5506 -0.8734
 4021TIP3    H212070   1.553   1.887   0.370  0.8333  0.1237  1.4862
 4022TIP3   OH212071   3.685   3.647   2.354 -0.1654  0.0154 -0.5576
 4022TIP3    H112072   3.667   3.638   2.447  0.4582 -0.7545 -0.5005
 4022TIP3    H212073   3.603   3.621   2.311 -0.5443  0.6405 -0.2330
 4023TIP3   OH212074   5.927   1.964   2.292 -0.3923 -0.1244 -0.1050
 4023TIP3    H112075   5.944   1.902   2.221  3.3066  0.4108  0.1053
 4023TIP3    H212076   5.840   1.999   2.274 -1.6652 -3.5903 -1.5277
 4024TIP3   OH212077   3.817   1.980   4.924 -0.3993 -0.0192  0.4182
 4024TIP3    H112078   3.797   1.887   4.915  0.2466 -0.1600  0.3716
 4024TIP3    H212079   3.880   1.998   4.853 -0.0504  0.3072  0.8060
 4025TIP3   OH212080   1.016   3.392   0.776  0.5331  0.0115  0.0127
 4025TIP3    H112081   0.965   3.318   0.809 -1.4298  1.2747  0.0122
 4025TIP3    H212082   1.005   3.460   0.841  0.8520  0.8720 -0.8072
 4026TIP3   OH212083   6.061   1.739   2.596  0.0330 -0.1407 -0.0414
 4026TIP3    H112084   5.970   1.733   2.623  0.1829 -0.0923  0.4710
 4026TIP3    H212085   6.059   1.716   2.503 -0.7573  1.6743 -0.5111
 4027TIP3   OH212086   3.135   4.626   4.204 -0.1025 -0.0220 -0.2268
 4027TIP3    H112087   3.144   4.621   4.109  0.6619 -1.9002 -0.0870
 4027TIP3    H212088   3.219   4.595   4.238  0.9435  3.7118  1.1221
 4028TIP3   OH212089   2.881   1.190   1.974 -0.1744  0.2415 -0.2867
 4028TIP3    H112090   2.829   1.188   2.054  1.1091  1.0319  0.6186
 4028TIP3    H212091   2.819   1.215   1.906 -1.1196  0.5015  0.6342
 4029TIP3   OH212092   5.911   5.185   1.470 -0.1677  0.4828 -0.5635
 4029TIP3    H112093   5.847   5.139   1.524  0.2130 -0.7655 -1.1444
 4029TIP3    H212094   5.937   5.121   1.403  3.1908  0.2105  0.8367
 4030TIP3   OH212095   0.247   2.417   4.459  0.0718  0.3721  0.0653
 4030TIP3    H112096   0.327   2.375   4.426  0.6990  1.9007 -0.4649
 4030TIP3    H212097   0.260   2.510   4.441 -2.0765  0.6085 -0.5624
 4031TIP3   OH212098   6.273   1.300   1.492  0.5491 -0.7776 -0.4275
 4031TIP3    H112099   6.255   1.361   1.563  1.2940 -0.7986 -0.2103
 4031TIP3    H212100   6.192   1.249   1.482  0.5311 -0.9648  0.5982
 4032TIP3   OH212101   5.529   0.224   1.735 -0.0204 -0.1608 -0.1058
 4032TIP3    H112102   5.520   0.176   1.817 -0.1840 -0.5642 -0.3569
 4032TIP3    H212103   5.489   0.167   1.670 -0.1860  0.3018 -0.4131
 4033TIP3   OH212104   2.977   0.738   4.168 -0.0559  0.1360  0.1640
 4033TIP3    H112105   2.902   0.725   4.110 -1.5940 -0.5416  2.1861
 4033TIP3    H212106   2.975   0.662   4.226  0.7004  1.3425  1.8236
 4034TIP3   OH212107   3.715   0.397   2.710 -0.7823  0.3369 -0.5437
 4034TIP3    H112108   3.662   0.334   2.759  0.0770 -1.5539 -1.8950
 4034TIP3    H212109   3.669   0.480   2.719 -2.2546 -0.5818  0.9015
 4035TIP3   OH212110   3.621   3.205   2.803 -0.0448  0.1852  0.3484
 4035TIP3    H112111   3.691   3.238   2.858 -0.0363  0.9012 -0.0801
 4035TIP3    H212112   3.552   3.179   2.864 -0.7005  2.4772  0.6823
 4036TIP3   OH212113   6.316   1.785   1.314 -0.1707  0.3984  0.2463
 4036TIP3    H112114   6.339   1.807   1.404 -1.2306  0.9322  0.4078
 4036TIP3    H212115   6.372   1.840   1.260 -0.0483  0.6159  0.5936
 4037TIP3   OH212116   6.294   5.577   2.192  0.0777 -0.1432  0.3486
 4037TIP3    H112117   6.330   5.569   2.103 -3.0230 -0.9389 -0.9836
 4037TIP3    H212118   6.275   5.670   2.202  1.4232  0.1151  0.6444
 4038TIP3   OH212119   5.188   3.768   3.540  0.0870 -0.9485  0.2688
 4038TIP3    H112120   5.240   3.776   3.460  1.2359 -0.5937  1.0334
 4038TIP3    H212121   5.100   3.747   3.509 -0.2706  2.3175 -1.2787
 4039TIP3   OH212122   0.569   3.873   3.969  0.3309 -0.4236  0.0827
 4039TIP3    H112123   0.610   3.787   3.964  0.4671 -0.4145  0.8134
 4039TIP3    H212124   0.479   3.856   3.997 -0.0707 -0.4190 -1.1621
 4040TIP3   OH212125   1.125   0.520   0.613 -1.0063  0.1776 -0.2395
 4040TIP3    H112126   1.062   0.568   0.560 -2.4601  0.4883  1.6631
 4040TIP3    H212127   1.076   0.444   0.645 -0.3832  0.3477  1.1692
 4041TIP3   OH212128   5.430   1.669   4.637 -0.3881  0.3876  0.1748
 4041TIP3    H112129   5.387   1.637   4.717 -0.5769 -0.4781 -0.2639
 4041TIP3    H212130   5.384   1.750   4.617  0.0788  0.9573  1.2903
 4042TIP3   OH212131   0.108   5.184   1.183  0.3417  0.1570 -0.0878
 4042TIP3    H112132   0.140   5.273   1.197 -0.2830  0.4826 -0.6711
 4042TIP3    H212133   0.055   5.165   1.261  2.8458 -0.8486  1.4946
 4043TIP3   OH212134   5.492   2.056   0.033 -0.4250  0.0062  0.3774
 4043TIP3    H112135   5.516   2.052  -0.060  0.3375  0.0084  0.5641
 4043TIP3    H212136   5.576   2.050   0.079 -0.8535 -0.6524  1.0824
 4044TIP3   OH212137   0.906   2.478   3.048 -0.6693  0.2695  0.2054
 4044TIP3    H112138   0.869   2.567   3.051 -0.7920  0.2692 -0.8658
 4044TIP3    H212139   0.886   2.441   3.134 -1.4979  0.9389  0.3166
 4045TIP3   OH212140   4.788   3.257   4.151  0.1634 -0.4325  0.0144
 4045TIP3    H112141   4.770   3.174   4.107 -1.6746 -0.8704  1.4507
 4045TIP3    H212142   4.875   3.245   4.191  1.7565 -0.1171 -3.0443
 4046TIP3   OH212143   1.844   1.068   4.310 -0.1650  0.3372  0.3176
 4046TIP3    H112144   1.837   0.981   4.348  0.2654  0.1163 -0.1003
 4046TIP3    H212145   1.764   1.080   4.259 -0.0095 -0.0102 -0.0142
 4047TIP3   OH212146   3.992   0.895   4.634  0.0435  0.3632 -0.7629
 4047TIP3    H112147   3.914   0.883   4.688  1.6153  1.2877  1.8650
 4047TIP3    H212148   4.001   0.989   4.625  1.3085  0.3015 -0.3079
 4048TIP3   OH212149   1.615   2.245   1.770  0.0811  0.2581 -0.7476
 4048TIP3    H112150   1.600   2.338   1.788  1.0896  0.3894 -0.4879
 4048TIP3    H212151   1.530   2.204   1.782 -0.4013  1.1693 -0.9761
 4049TIP3   OH212152   0.112   1.178   5.070 -0.1435 -0.7538 -0.2437
 4049TIP3    H112153   0.056   1.116   5.117 -0.1994  0.3581  1.2382
 4049TIP3    H212154   0.056   1.215   5.002 -1.5002  0.7908  1.5927
 4050TIP3   OH212155   2.552   2.417   4.544  0.3562 -0.1337  0.1544
 4050TIP3    H112156   2.596   2.462   4.472  0.4640 -0.5029 -0.0157
 4050TIP3    H212157   2.469   2.388   4.507  0.3308 -0.1583  0.2301
 4051TIP3   OH212158   2.455   2.535   2.414 -0.2203  0.0435 -0.2259
 4051TIP3    H112159   2.454   2.628   2.393 -1.1051  0.4587  1.4158
 4051TIP3    H212160   2.421   2.492   2.336 -0.7368  1.2004 -0.6667
 4052TIP3   OH212161   0.375   2.960   3.628 -1.1689  0.1605 -0.4727
 4052TIP3    H112162   0.455   2.981   3.579 -0.4233 -0.6541  0.3782
 4052TIP3    H212163   0.382   2.867   3.648 -0.4719  0.8013  2.8798
 4053TIP3   OH212164   5.432   3.510   3.803  0.6810 -0.2244 -0.0866
 4053TIP3    H112165   5.340   3.504   3.827  0.4250  0.3473 -0.8895
 4053TIP3    H212166   5.434   3.493   3.708  0.9508  3.1044 -0.8072
 4054TIP3   OH212167   5.220   3.754   2.905  0.4003  0.0324  0.1895
 4054TIP3    H112168   5.186   3.673   2.943  0.2761 -0.6122 -1.2128
 4054TIP3    H212169   5.307   3.731   2.873 -0.4650 -0.2427 -2.2245
 4055TIP3   OH212170   3.914   2.023   3.431 -0.7260 -0.1317  0.0738
 4055TIP3    H112171   3.973   1.974   3.488  1.9055  1.0712 -1.4439
 4055TIP3    H212172   3.930   1.988   3.344 -0.1272  2.1390 -0.7813
 4056TIP3   OH212173   0.886   1.994   1.895  0.0661  0.5477 -0.7137
 4056TIP3    H112174   0.968   1.968   1.853  1.2612  2.0549  0.5764
 4056TIP3    H212175   0.867   1.921   1.955  0.8155  0.4552 -0.5678
 4057TIP3   OH212176   5.439   1.602   1.388 -0.0027 -0.3782  0.0705
 4057TIP3    H112177   5.476   1.585   1.301 -1.4970 -1.1752 -0.4372
 4057TIP3    H212178   5.363   1.657   1.371  1.2869  1.9177  1.1732
 4058TIP3   OH212179   4.311   5.628   0.855  0.7451  0.7465  0.0200
 4058TIP3    H112180   4.243   5.684   0.892 -1.8327 -2.4265  0.6044
 4058TIP3    H212181   4.310   5.648   0.761 -0.2624  1.5304  0.1825
 4059TIP3   OH212182   0.442   4.970   1.726 -0.3540  0.6348  0.0961
 4059TIP3    H112183   0.528   4.981   1.684 -0.2747  0.7126  0.2739
 4059TIP3    H212184   0.451   4.888   1.776 -0.6684  0.1942 -0.5670
 4060TIP3   OH212185   5.467   2.365   0.659 -0.0324 -0.3727 -0.4432
 4060TIP3    H112186   5.502   2.442   0.615  0.9223 -1.2733 -1.2951
 4060TIP3    H212187   5.412   2.400   0.729 -0.4380  1.0799 -1.4541
 4061TIP3   OH212188   4.597   1.699   1.420 -0.4331 -0.3972  0.3561
 4061TIP3    H112189   4.526   1.634   1.418  1.2227 -2.2829 -0.6729
 4061TIP3    H212190   4.555   1.781   1.392 -1.9699 -1.7112 -1.4340
 4062TIP3   OH212191   4.397   1.069   2.855  0.2628  0.1112 -0.3819
 4062TIP3    H112192   4.489   1.058   2.831  0.5686  0.0297  0.7571
 4062TIP3    H212193   4.363   0.980   2.864 -0.0368  0.1398 -1.1578
 4063TIP3   OH212194   1.917   5.359   4.950 -0.2046 -0.4100  0.2040
 4063TIP3    H112195   1.914   5.272   4.990 -0.5924  0.3524  1.8981
 4063TIP3    H212196   1.826   5.382   4.933 -0.0924 -0.3952 -0.4176
 4064TIP3   OH212197   2.288   2.440   4.223 -0.0908  0.0149 -0.5038
 4064TIP3    H112198   2.201   2.425   4.186 -0.7717 -0.3971  1.1885
 4064TIP3    H212199   2.310   2.358   4.267 -0.7807  1.4284  2.7957
 4065TIP3   OH212200   0.890   4.570   0.803  1.0743  0.7954  0.2680
 4065TIP3    H112201   0.818   4.520   0.841 -0.4082  1.5965 -1.3589
 4065TIP3    H212202   0.969   4.526   0.835 -0.1282 -1.2732  0.5772
 4066TIP3   OH212203   2.846   2.450   0.684 -0.3073  0.0084  0.5253
 4066TIP3    H112204   2.754   2.438   0.661  0.3699 -1.5737 -1.6233
 4066TIP3    H212205   2.867   2.374   0.738  0.1161 -0.4626 -0.2902
 4067TIP3   OH212206   2.574   0.157   1.668  0.2780 -0.5502  0.1086
 4067TIP3    H112207   2.512   0.226   1.691 -0.7148 -1.1546 -0.6552
 4067TIP3    H212208   2.623   0.140   1.748  1.5799  2.0418 -0.0448
 4068TIP3   OH212209   2.589   0.800   0.211 -0.5754 -0.5635 -0.4064
 4068TIP3    H112210   2.573   0.887   0.248  2.1555 -0.3794  0.5632
 4068TIP3    H212211   2.645   0.817   0.135 -0.4660 -1.4444 -0.5266
 4069TIP3   OH212212   3.970   3.707   3.095 -0.3901  0.7005 -0.1646
 4069TIP3    H112213   3.930   3.794   3.105  1.0373  1.5765 -1.5733
 4069TIP3    H212214   3.905   3.647   3.130 -1.9537  2.2411 -0.2732
 4070TIP3   OH212215   5.710   0.301   2.746 -0.6616 -0.1980 -0.1342
 4070TIP3    H112216   5.694   0.218   2.792 -3.0153 -0.4013 -1.1355
 4070TIP3    H212217   5.636   0.308   2.685  0.3451  1.8751 -1.2060
 4071TIP3   OH212218   5.883   5.715   2.669  0.0866  0.5447 -0.3505
 4071TIP3    H112219   5.863   5.799   2.712  0.6720 -0.4583  2.0463
 4071TIP3    H212220   5.803   5.664   2.678  0.3398  0.1888 -0.0989
 4072TIP3   OH212221   2.140   3.965   4.729 -0.0264  0.0590  0.2733
 4072TIP3    H112222   2.135   3.887   4.785  0.5333  0.3472  0.7302
 4072TIP3    H212223   2.189   4.029   4.781  0.6220  0.2852 -0.5913
 4073TIP3   OH212224   1.202   4.944   2.288  0.0435  0.3422 -0.1301
 4073TIP3    H112225   1.155   4.932   2.371  2.7258 -1.7321  1.2802
 4073TIP3    H212226   1.218   5.038   2.283  0.9297  0.4230  2.4894
 4074TIP3   OH212227   2.565   2.709   2.114  0.6457  0.0173 -0.2721
 4074TIP3    H112228   2.544   2.674   2.028 -0.9802  0.4484 -0.0768
 4074TIP3    H212229   2.655   2.740   2.106  0.6493 -0.2919 -1.6891
 4075TIP3   OH212230   4.396   1.730   3.199  0.2509 -0.2830  0.0552
 4075TIP3    H112231   4.371   1.657   3.256  1.9711 -1.2673 -0.3762
 4075TIP3    H212232   4.337   1.722   3.123  0.0158 -0.8505  0.2879
 4076TIP3   OH212233   1.173   3.910   1.843  0.4908 -0.3794 -0.1198
 4076TIP3    H112234   1.088   3.954   1.840  0.6598 -0.0516 -3.3335
 4076TIP3    H212235   1.153   3.821   1.871 -0.9175 -0.3164 -0.8640
 4077TIP3   OH212236   5.008   3.862   1.363 -0.1999  0.1558  0.4762
 4077TIP3    H112237   4.941   3.868   1.295  2.1642  0.1673 -2.0739
 4077TIP3    H212238   5.068   3.934   1.344  2.0662 -1.5211  0.7298
 4078TIP3   OH212239   3.631   1.106   1.371  0.2061 -0.0591 -0.1411
 4078TIP3    H112240   3.652   1.197   1.389  1.6703  0.3580 -3.3103
 4078TIP3    H212241   3.715   1.066   1.348 -0.6570 -1.7700 -0.4737
 4079TIP3   OH212242   1.991   5.469   2.986  0.4488  0.5299 -0.1169
 4079TIP3    H112243   1.989   5.480   2.891 -0.2740 -1.5930 -0.3831
 4079TIP3    H212244   1.961   5.554   3.020 -0.5671  0.9008 -1.8035
 4080TIP3   OH212245   5.356   5.742   4.021  0.1697  0.1467 -0.4686
 4080TIP3    H112246   5.438   5.696   4.039  0.1315 -0.5893 -1.9734
 4080TIP3    H212247   5.344   5.800   4.096  1.2317 -0.8857  0.5505
 4081TIP3   OH212248   2.242   4.992   5.006  0.0908  0.5501  0.0917
 4081TIP3    H112249   2.307   5.060   4.989  2.0065 -1.4197 -0.9908
 4081TIP3    H212250   2.176   5.003   4.938  1.5166  0.0700 -1.4422
 4082TIP3   OH212251   2.091   5.078   0.568  0.0195 -0.1561 -0.0421
 4082TIP3    H112252   2.118   5.009   0.629 -0.8061  0.5054  1.1190
 4082TIP3    H212253   2.100   5.039   0.481  0.6051 -1.3504  0.5408
 4083TIP3   OH212254   4.542   3.223   0.335 -0.3160 -0.1424  0.1524
 4083TIP3    H112255   4.482   3.162   0.292 -0.9238 -0.0892  0.9056
 4083TIP3    H212256   4.504   3.238   0.421  0.1643  0.7965  0.2218
 4084TIP3   OH212257   4.164   4.323   4.855  0.9303 -0.2220  0.2776
 4084TIP3    H112258   4.258   4.337   4.848  0.5750  1.9645 -1.1649
 4084TIP3    H212259   4.130   4.346   4.769 -0.7096 -3.7474 -0.1947
 4085TIP3   OH212260  -0.011   4.464   3.030 -0.3489 -0.1685  0.3262
 4085TIP3    H112261   0.058   4.419   2.982 -0.1248  0.5432 -0.0255
 4085TIP3    H212262  -0.042   4.531   2.970 -1.6498 -0.7472  0.3039
 4086TIP3   OH212263   2.050   0.804   1.128  0.1274  0.0600  0.0864
 4086TIP3    H112264   1.993   0.753   1.071  0.1826 -0.5301  0.5484
 4086TIP3    H212265   2.113   0.845   1.069 -0.2411  0.0142 -0.3413
 4087TIP3   OH212266   2.021   2.160   1.781 -0.3830  0.0538  0.5834
 4087TIP3    H112267   1.949   2.126   1.728  0.8048  0.4470 -1.3632
 4087TIP3    H212268   2.080   2.085   1.793 -0.7398 -0.0824  1.5411
 4088TIP3   OH212269   6.019   4.978   3.784  0.2217  0.1026  0.1183
 4088TIP3    H112270   5.941   5.033   3.779  1.1525  1.4943  0.3488
 4088TIP3    H212271   6.083   5.023   3.729  1.0343 -0.7254  0.3653
 4089TIP3   OH212272   6.300   3.519   1.586  0.1538  0.2989  0.0130
 4089TIP3    H112273   6.366   3.553   1.526  1.6407 -1.4296  0.5597
 4089TIP3    H212274   6.255   3.451   1.535 -1.0791  1.3085 -0.2803
 4090TIP3   OH212275   5.204   2.407   0.004  0.2905  0.0149 -0.1890
 4090TIP3    H112276   5.117   2.385  -0.028  0.8243 -2.2136 -0.2484
 4090TIP3    H212277   5.208   2.367   0.091  1.2622  0.0564 -0.2036
 4091TIP3   OH212278   4.186   3.038   3.001 -0.0906 -0.2578  0.0031
 4091TIP3    H112279   4.178   3.026   2.906 -0.7150 -1.8547  0.2264
 4091TIP3    H212280   4.237   3.119   3.010  1.2100 -0.8164 -1.6998
 4092TIP3   OH212281   2.512   0.345   0.898  0.1852  0.1831  0.1126
 4092TIP3    H112282   2.554   0.393   0.826 -0.3654 -0.0773 -0.3925
 4092TIP3    H212283   2.581   0.336   0.964  0.9858 -0.3898 -0.7732
 4093TIP3   OH212284   4.575   3.252   3.215 -0.2118  0.2759  0.1742
 4093TIP3    H112285   4.646   3.288   3.268  2.2752  0.8316 -3.2325
 4093TIP3    H212286   4.540   3.327   3.167  0.5369 -0.7425 -2.0836
 4094TIP3   OH212287   4.177   4.995   4.807 -0.3533 -0.2592 -0.1332
 4094TIP3    H112288   4.206   5.005   4.716 -2.4315  0.7849 -0.7465
 4094TIP3    H212289   4.098   5.048   4.813 -0.6034 -0.7801  2.1523
 4095TIP3   OH212290   1.906   5.352   4.538  0.0963  0.3313  0.1661
 4095TIP3    H112291   1.962   5.313   4.470 -0.0945  0.8862 -0.3204
 4095TIP3    H212292   1.898   5.284   4.605 -0.3512 -0.5218 -0.7304
 4096TIP3   OH212293   4.818   2.517   2.865 -0.2799 -0.1506  0.3679
 4096TIP3    H112294   4.787   2.431   2.835 -1.7841 -0.1513  1.8482
 4096TIP3    H212295   4.913   2.513   2.852 -0.4432 -1.5988 -0.6572
 4097TIP3   OH212296   4.258   4.915   0.725 -0.1239  0.4473 -0.8949
 4097TIP3    H112297   4.187   4.940   0.784 -0.0061  1.7598 -1.2727
 4097TIP3    H212298   4.322   4.986   0.733  0.1544  0.3688 -2.1831
 4098TIP3   OH212299   5.295   0.062   5.019  0.0592  0.0856  0.4013
 4098TIP3    H112300   5.241   0.009   4.960 -0.3960  1.5905 -0.5979
 4098TIP3    H212301   5.377   0.014   5.026 -0.1026 -0.4420 -0.9840
 4099TIP3   OH212302   4.014   1.297   0.994  0.1990 -0.5760 -0.6702
 4099TIP3    H112303   4.055   1.234   1.054 -2.6349 -0.9036  1.1008
 4099TIP3    H212304   3.969   1.242   0.930  2.0098 -0.2172 -2.3641
 4100TIP3   OH212305   4.575   1.614   4.155  0.2291  0.8559  0.0446
 4100TIP3    H112306   4.489   1.650   4.180 -1.3397 -0.8469 -2.4213
 4100TIP3    H212307   4.586   1.639   4.064  1.6331 -0.2703 -0.1266
 4101TIP3   OH212308   3.615   5.170   4.429 -0.1069 -0.2222 -0.3869
 4101TIP3    H112309   3.614   5.234   4.500  0.2403  0.2963 -0.8386
 4101TIP3    H212310   3.696   5.120   4.441 -0.3111 -0.4894 -0.1129
 4102TIP3   OH212311   2.471   0.810   3.552 -0.0690 -0.6143 -0.0611
 4102TIP3    H112312   2.533   0.738   3.564  1.1619  0.2470 -0.9913
 4102TIP3    H212313   2.490   0.871   3.624  2.6811  1.3252 -2.2139
 4103TIP3   OH212314   3.040   0.989   1.910  0.2263 -0.6809  0.5943
 4103TIP3    H112315   3.045   0.922   1.978 -0.0646 -0.8063  0.4930
 4103TIP3    H212316   2.981   1.056   1.946 -0.2556 -0.9445  0.2986
 4104TIP3   OH212317   1.567   5.451   1.107  0.9539 -0.1475 -0.3115
 4104TIP3    H112318   1.578   5.539   1.142 -1.1107 -0.2694  0.7572
 4104TIP3    H212319   1.595   5.394   1.179 -2.8409 -0.3890  1.1741
 4105TIP3   OH212320   2.069   0.103   0.261 -0.1077  0.3670  0.3277
 4105TIP3    H112321   2.088   0.131   0.171  2.9406 -1.5949  0.2131
 4105TIP3    H212322   1.980   0.068   0.257 -0.2171  0.7465 -1.8047
 4106TIP3   OH212323   0.497   4.461   1.056 -0.1138  0.0812  0.3484
 4106TIP3    H112324   0.406   4.478   1.083 -0.3167  0.5584 -0.6023
 4106TIP3    H212325   0.520   4.537   1.002  0.3687 -0.7162 -0.5839
 4107TIP3   OH212326   0.863   1.036   2.202  0.3824 -0.6197 -0.1898
 4107TIP3    H112327   0.930   1.104   2.198 -0.4610  0.2594  0.1201
 4107TIP3    H212328   0.888   0.982   2.277 -0.1367  0.7042  0.9932
 4108TIP3   OH212329   4.527   4.628   5.090 -0.2426 -0.1514 -0.6836
 4108TIP3    H112330   4.580   4.665   5.161  1.4571  0.4572 -2.1693
 4108TIP3    H212331   4.508   4.539   5.117 -0.6043  0.4147  1.0156
 4109TIP3   OH212332   3.359   5.788   4.759 -0.4498 -0.4288  0.2687
 4109TIP3    H112333   3.421   5.857   4.784 -2.3124  1.4662 -0.0686
 4109TIP3    H212334   3.309   5.770   4.839 -0.5851 -0.7107  0.1219
 4110TIP3   OH212335   3.644   3.465   3.576 -0.3092  0.7100 -0.5262
 4110TIP3    H112336   3.687   3.400   3.520 -1.0611 -0.1425 -0.1402
 4110TIP3    H212337   3.708   3.483   3.645 -0.1667  0.2417 -0.5315
 4111TIP3   OH212338   0.533   4.248   0.118  0.5751  0.2483 -0.3774
 4111TIP3    H112339   0.502   4.305   0.047  1.0061  1.0865  0.0953
 4111TIP3    H212340   0.453   4.207   0.152 -0.0547  2.2441  0.7125
 4112TIP3   OH212341   5.785   4.238   4.894 -0.1783 -0.0094  0.1493
 4112TIP3    H112342   5.700   4.256   4.854  0.3086  1.3709 -0.3276
 4112TIP3    H212343   5.767   4.171   4.960 -1.0846 -2.0722 -2.0476
 4113TIP3   OH212344   3.099   3.884   1.981  0.2264 -0.0006  0.2073
 4113TIP3    H112345   3.020   3.893   2.034 -1.1649  0.4270 -1.8183
 4113TIP3    H212346   3.162   3.943   2.022 -0.5554 -0.1958  1.7592
 4114TIP3   OH212347   1.127   1.669   4.772 -0.1411  0.2730 -0.1659
 4114TIP3    H112348   1.117   1.714   4.855 -0.0980 -0.0319  0.0065
 4114TIP3    H212349   1.074   1.589   4.781 -0.0724  0.1981 -0.4006
 4115TIP3   OH212350   5.314   3.888   0.248 -0.0905 -0.7472  0.3473
 4115TIP3    H112351   5.335   3.973   0.208  1.1509 -1.2522 -0.1133
 4115TIP3    H212352   5.336   3.824   0.181  1.5844 -1.5877  1.6191
 4116TIP3   OH212353   1.648   2.016   2.004  0.3560  0.5463  0.1532
 4116TIP3    H112354   1.635   2.109   1.983  1.5902  0.3639 -1.5669
 4116TIP3    H212355   1.577   1.971   1.958  0.9204  0.4782 -0.6700
 4117TIP3   OH212356   1.749   4.252   1.463 -0.1393  0.1969  0.6195
 4117TIP3    H112357   1.797   4.208   1.393 -1.7705 -0.1792 -0.3062
 4117TIP3    H212358   1.737   4.185   1.530  0.2500  0.1769  0.6715
 4118TIP3   OH212359   0.508   2.174   4.799  0.4825  0.1696 -0.6011
 4118TIP3    H112360   0.529   2.254   4.846 -0.2089  1.5662 -2.5188
 4118TIP3    H212361   0.546   2.186   4.712  2.7332 -2.7955 -0.1946
 4119TIP3   OH212362   3.035   2.053   3.169  0.3607 -0.0567  0.6325
 4119TIP3    H112363   2.964   2.002   3.207  0.9623 -0.4875  1.2065
 4119TIP3    H212364   3.098   2.063   3.240  0.0972  1.8282  0.6424
 4120TIP3   OH212365   5.602   5.841   1.498  0.7710  0.2158 -0.0486
 4120TIP3    H112366   5.652   5.845   1.579  0.5064  1.8014  0.0781
 4120TIP3    H212367   5.533   5.906   1.510  0.0791 -0.2892 -1.1301
 4121TIP3   OH212368   2.263   2.899   0.431  0.2953 -0.7014  0.0760
 4121TIP3    H112369   2.358   2.906   0.424  0.2614 -1.4024 -1.6960
 4121TIP3    H212370   2.248   2.849   0.511  1.3784 -0.0541  0.7057
 4122TIP3   OH212371   0.896   2.449   3.613  0.4644  0.0672 -0.0449
 4122TIP3    H112372   0.903   2.522   3.675 -1.2759 -0.8359  1.3202
 4122TIP3    H212373   0.976   2.398   3.626  1.7212  1.6797 -1.0402
 4123TIP3   OH212374   1.083   3.131   2.099  0.1279  0.6310  0.3776
 4123TIP3    H112375   1.159   3.127   2.041  0.4671  1.9375  0.6817
 4123TIP3    H212376   1.121   3.150   2.185 -0.5021  0.5805  0.6686
 4124TIP3   OH212377   4.280   2.981   0.999  0.5875  0.2802 -0.0075
 4124TIP3    H112378   4.346   3.025   0.945  1.6640 -0.0525  1.0039
 4124TIP3    H212379   4.308   2.890   1.003  0.7519  0.3732  1.4244
 4125TIP3   OH212380   5.836   0.324   2.355 -0.0727  0.6407  0.7429
 4125TIP3    H112381   5.861   0.245   2.403  3.3105  0.9901 -0.1476
 4125TIP3    H212382   5.850   0.395   2.417  3.1128  0.9764 -0.1514
 4126TIP3   OH212383   4.532   2.912   0.232  0.3459 -0.3691 -0.0555
 4126TIP3    H112384   4.618   2.884   0.199  0.6183  1.3591 -0.9736
 4126TIP3    H212385   4.476   2.912   0.154 -0.4254 -1.2000  0.4844
 4127TIP3   OH212386   3.269   1.091   0.943  0.1022 -0.3857 -0.2316
 4127TIP3    H112387   3.276   1.120   1.033  0.5499  1.4178 -0.8065
 4127TIP3    H212388   3.351   1.044   0.926 -0.1210 -1.0040  0.3714
 4128TIP3   OH212389   5.151   0.936   4.236  0.0109 -0.6731  0.1859
 4128TIP3    H112390   5.208   0.973   4.303 -0.9005 -1.4623  1.4494
 4128TIP3    H212391   5.127   0.850   4.271 -1.4316 -0.6172 -0.6024
 4129TIP3   OH212392   3.679   2.880   4.376  0.0148 -0.4872  0.6832
 4129TIP3    H112393   3.615   2.835   4.432 -0.1524 -0.4336  0.5378
 4129TIP3    H212394   3.754   2.895   4.432 -0.0868 -0.5860  0.8464
 4130TIP3   OH212395   1.343   3.811   5.108  0.0430 -0.0700  0.1700
 4130TIP3    H112396   1.410   3.807   5.176  0.1352 -0.8436  0.0415
 4130TIP3    H212397   1.391   3.831   5.027  0.1410 -0.7472  0.0562
 4131TIP3   OH212398   5.250   0.075   0.290 -0.1820  0.4636 -0.1822
 4131TIP3    H112399   5.199   0.121   0.223 -1.1682  0.7196  0.7166
 4131TIP3    H212400   5.208  -0.010   0.299 -0.4681  0.6720  0.5624
 4132TIP3   OH212401   3.931   1.480   1.638 -0.2259 -0.6015  0.0654
 4132TIP3    H112402   3.842   1.447   1.647 -0.2026 -0.3945  1.2991
 4132TIP3    H212403   3.955   1.462   1.548 -2.1091  0.8138 -0.7880
 4133TIP3   OH212404   6.025   0.018   3.967 -1.3362  0.1094  0.7191
 4133TIP3    H112405   5.989   0.006   3.879  0.1300  0.0694  0.0956
 4133TIP3    H212406   6.041   0.113   3.973  0.9616 -0.1872 -0.0704
 4134TIP3   OH212407   1.292   1.338   3.507  0.6264 -0.3249 -0.5051
 4134TIP3    H112408   1.258   1.422   3.475 -1.2943 -0.4387  1.0713
 4134TIP3    H212409   1.221   1.276   3.490  1.3684 -1.2923 -0.1293
 4135TIP3   OH212410   2.344   3.404   1.999 -0.1712 -0.4008  0.3773
 4135TIP3    H112411   2.285   3.440   2.065  1.6562  2.1655  0.7466
 4135TIP3    H212412   2.292   3.406   1.918 -0.8737  1.0384  0.8265
 4136TIP3   OH212413   1.369   3.156   2.057 -0.7092  0.0006 -0.4701
 4136TIP3    H112414   1.420   3.083   2.092  0.3660  0.2758 -1.3866
 4136TIP3    H212415   1.377   3.226   2.123  2.3691  0.9755 -1.6895
 4137TIP3   OH212416   0.597   1.002   0.675  0.0043  0.3960 -0.2675
 4137TIP3    H112417   0.640   1.061   0.736  0.3528  1.8588 -1.8465
 4137TIP3    H212418   0.504   1.007   0.698  0.3489 -0.9499  1.6304
 4138TIP3   OH212419   1.281   0.653   2.349 -0.5638  0.7683  0.3506
 4138TIP3    H112420   1.359   0.705   2.368  0.5856 -0.1581 -1.5634
 4138TIP3    H212421   1.269   0.598   2.426  1.6663 -0.2180  0.0659
 4139TIP3   OH212422   2.785   1.091   2.220 -0.2932 -0.0977  0.0905
 4139TIP3    H112423   2.731   1.139   2.282 -0.4604  0.7331 -0.6797
 4139TIP3    H212424   2.846   1.041   2.274 -2.0012 -1.2908  0.9933
 4140TIP3   OH212425   5.798   5.941   0.422  0.1593  0.5712  0.2149
 4140TIP3    H112426   5.810   6.011   0.486 -0.1885 -1.1160  2.2709
 4140TIP3    H212427   5.770   5.866   0.475 -1.1435 -0.6600 -2.0818
 4141TIP3   OH212428   2.045   4.169   1.753 -0.0476  0.6506  0.0190
 4141TIP3    H112429   1.983   4.111   1.709 -2.1249  1.7067  1.3830
 4141TIP3    H212430   2.002   4.255   1.752  1.1399  1.3147  1.5016
 4142TIP3   OH212431   0.001   4.226   0.550  0.2292  0.0985  0.2421
 4142TIP3    H112432   0.090   4.197   0.564  0.0764 -1.2679 -1.3302
 4142TIP3    H212433   0.009   4.298   0.487  0.4180  2.1912  2.4902
 4143TIP3   OH212434   5.110   2.432   2.336 -0.1064  0.3155  0.1110
 4143TIP3    H112435   5.071   2.396   2.416 -1.1881 -3.0508 -1.7543
 4143TIP3    H212436   5.037   2.473   2.290  0.3444  1.4569  0.3618
 4144TIP3   OH212437   4.880   2.821   2.208 -0.1049  0.2382  0.2012
 4144TIP3    H112438   4.888   2.726   2.217  2.7770  0.3437 -0.4104
 4144TIP3    H212439   4.926   2.842   2.127 -0.5941  2.1810  0.3747
 4145TIP3   OH212440   0.180   5.043   2.396 -0.5108 -0.5540 -0.2299
 4145TIP3    H112441   0.232   5.122   2.412 -0.1097 -0.9557  0.4566
 4145TIP3    H212442   0.111   5.046   2.462 -0.0194 -1.1835  0.3324
 4146TIP3   OH212443   1.815   1.695   4.734 -0.0084 -0.3251  0.0390
 4146TIP3    H112444   1.825   1.781   4.695  0.4977 -1.8284 -3.5717
 4146TIP3    H212445   1.722   1.690   4.759  0.0721  1.3809  0.7659
 4147TIP3   OH212446   4.043   5.753   1.455 -0.1398  0.6450 -0.4562
 4147TIP3    H112447   4.128   5.710   1.453  0.8972  2.5147  0.6804
 4147TIP3    H212448   4.004   5.723   1.537 -0.2552  0.3861 -0.6043
 4148TIP3   OH212449   0.575   5.917   1.569 -0.2771  0.0329 -0.4418
 4148TIP3    H112450   0.534   5.996   1.605 -1.7460  0.5267 -2.9447
 4148TIP3    H212451   0.504   5.873   1.521  1.2417 -1.1762 -1.6946
 4149TIP3   OH212452   1.461   3.310   0.072 -0.4152  0.0645  0.6886
 4149TIP3    H112453   1.402   3.376   0.034  0.7758  0.4211 -0.6369
 4149TIP3    H212454   1.407   3.232   0.082 -0.7101 -0.2575 -2.4207
 4150TIP3   OH212455   4.212   0.248   1.309  0.1920 -0.0689  0.7186
 4150TIP3    H112456   4.262   0.290   1.239 -1.2720 -1.2325 -1.1309
 4150TIP3    H212457   4.148   0.314   1.336 -0.1820 -0.0779 -0.1014
 4151TIP3   OH212458   4.959   0.011   1.906  0.2891 -0.4220  0.2504
 4151TIP3    H112459   4.962   0.102   1.934 -2.4209 -0.4354  0.9553
 4151TIP3    H212460   4.875   0.003   1.860  2.0225 -1.7846 -2.9890
 4152TIP3   OH212461   2.049   4.869   3.326 -0.8022 -0.4914  0.5132
 4152TIP3    H112462   2.048   4.939   3.391 -2.0382 -0.8232  0.8673
 4152TIP3    H212463   2.093   4.908   3.250 -1.3188  0.6129  0.7607
 4153TIP3   OH212464   3.699   5.282   1.618  0.0658 -0.0116  0.2169
 4153TIP3    H112465   3.673   5.373   1.602 -0.5652 -0.2798 -0.3891
 4153TIP3    H212466   3.636   5.251   1.682  1.0169  0.3119  1.3362
 4154TIP3   OH212467   4.430   5.843   5.120 -0.2822 -0.2317  0.2768
 4154TIP3    H112468   4.482   5.922   5.105  1.0974 -1.0221  0.8013
 4154TIP3    H212469   4.392   5.856   5.207 -1.2366  0.4727 -0.2227
 4155TIP3   OH212470   3.947   1.415   4.067  0.5041  0.6320 -0.9635
 4155TIP3    H112471   3.987   1.429   4.152 -0.8161  1.9694 -0.5141
 4155TIP3    H212472   3.905   1.329   4.074  3.4896 -0.9904 -1.5905
 4156TIP3   OH212473   5.822   4.959   4.133  0.3712  0.0849 -0.5146
 4156TIP3    H112474   5.885   4.895   4.166  0.7545  1.3422  1.3530
 4156TIP3    H212475   5.873   5.040   4.125 -0.9842  1.1883  1.2192
 4157TIP3   OH212476   1.011   5.680   2.027  0.1454  0.5072  0.1358
 4157TIP3    H112477   1.020   5.728   1.944 -2.6588  3.4183  1.3056
 4157TIP3    H212478   0.996   5.589   2.001 -1.1586  1.4087 -2.5974
 4158TIP3   OH212479   4.645   2.048   3.561  0.2946  0.2501 -0.3178
 4158TIP3    H112480   4.643   1.953   3.559 -0.0382  0.1924  1.1369
 4158TIP3    H212481   4.738   2.071   3.554  0.4550 -0.2322  0.1641
 4159TIP3   OH212482   2.883   1.468   3.878  0.3807 -0.5850 -0.2882
 4159TIP3    H112483   2.866   1.546   3.931  1.0801 -1.5562  1.4444
 4159TIP3    H212484   2.841   1.397   3.926  1.5288 -1.5867 -0.7129
 4160TIP3   OH212485   5.553   4.822   0.130 -0.4137 -0.2061  0.1633
 4160TIP3    H112486   5.521   4.890   0.189  0.2753  0.3838 -0.1261
 4160TIP3    H212487   5.573   4.748   0.187 -1.0603 -0.1311  0.4969
 4161TIP3   OH212488   5.145   5.642   1.194 -0.0466 -0.2054 -0.1723
 4161TIP3    H112489   5.188   5.639   1.280  0.6558  0.3714 -0.4955
 4161TIP3    H212490   5.135   5.735   1.175 -2.6442 -0.2866  0.4645
 4162TIP3   OH212491   0.226   0.517   2.974  0.0327  0.3619 -0.1584
 4162TIP3    H112492   0.203   0.484   2.887  0.2024  0.0707 -0.0966
 4162TIP3    H212493   0.302   0.463   3.000 -1.1337 -0.8272  0.9354
 4163TIP3   OH212494   1.346   5.124   4.539  0.1216  0.6151 -0.2603
 4163TIP3    H112495   1.410   5.195   4.538  0.9753 -0.0708  1.4603
 4163TIP3    H212496   1.282   5.150   4.605 -0.3279  0.4179 -0.6135
 4164TIP3   OH212497   3.136   1.871   2.503 -0.4600 -0.1281 -0.0835
 4164TIP3    H112498   3.048   1.844   2.478 -0.9194  0.3829  0.9521
 4164TIP3    H212499   3.126   1.961   2.535  0.4099 -0.1107  0.1647
 4165TIP3   OH212500   0.800   4.248   3.419 -0.4696  0.0410 -0.4607
 4165TIP3    H112501   0.835   4.236   3.507  1.0692  1.0668 -0.8946
 4165TIP3    H212502   0.859   4.198   3.363 -1.6897 -0.9686 -0.8965
 4166TIP3   OH212503   5.409   2.760   2.080  0.4109 -0.2185  0.0173
 4166TIP3    H112504   5.317   2.737   2.068  0.2075  0.9969 -0.9519
 4166TIP3    H212505   5.421   2.838   2.027  2.1627 -0.7117 -0.3730
 4167TIP3   OH212506   3.647   4.791   5.185 -0.4441 -0.6674 -0.4191
 4167TIP3    H112507   3.602   4.747   5.113  0.5412 -0.3225 -1.2674
 4167TIP3    H212508   3.632   4.885   5.169 -0.5096 -0.6005  0.0238
 4168TIP3   OH212509   4.440   5.453   0.520 -0.1510  0.1966  0.4109
 4168TIP3    H112510   4.536   5.451   0.520 -0.0288 -2.1786 -3.0844
 4168TIP3    H212511   4.419   5.546   0.529  2.5278  0.9404 -0.0638
 4169TIP3   OH212512   2.357   4.768   3.976 -0.1497 -0.4171 -0.0844
 4169TIP3    H112513   2.349   4.842   4.036 -0.4833 -1.7888  1.6622
 4169TIP3    H212514   2.452   4.754   3.969 -0.0306  0.7390 -1.2278
 4170TIP3   OH212515   3.355   5.018   0.564 -0.4964  0.3803  0.4188
 4170TIP3    H112516   3.291   5.004   0.494  0.1889 -0.9757  0.0268
 4170TIP3    H212517   3.316   4.977   0.641  0.3291 -1.4458 -0.0819
 4171TIP3   OH212518   5.309   4.038   4.470 -0.1562  0.0631  0.0456
 4171TIP3    H112519   5.395   3.998   4.459  0.2718  0.6673  1.0859
 4171TIP3    H212520   5.269   3.989   4.542 -0.6523 -0.1473 -0.3653
 4172TIP3   OH212521   1.181   1.158   0.907  0.2937 -0.1121  0.1016
 4172TIP3    H112522   1.119   1.164   0.834  0.5631 -0.6384 -0.1708
 4172TIP3    H212523   1.258   1.115   0.870  1.3794  1.7164  0.0757
 4173TIP3   OH212524   3.107   5.325   4.951 -0.4425 -0.1148 -0.5339
 4173TIP3    H112525   3.161   5.258   4.907  0.3998  0.6188 -0.6400
 4173TIP3    H212526   3.035   5.275   4.990 -1.6377 -0.7709 -3.2942
 4174TIP3   OH212527   1.548   0.199   1.826  0.0072 -0.1049  0.2841
 4174TIP3    H112528   1.629   0.149   1.817  0.1282 -0.3428  2.1970
 4174TIP3    H212529   1.516   0.211   1.737  1.6319 -0.8583 -0.4261
 4175TIP3   OH212530   0.211   4.473   3.835 -0.5184  0.1875  0.1393
 4175TIP3    H112531   0.284   4.432   3.881 -1.0102  0.1936  0.9491
 4175TIP3    H212532   0.141   4.478   3.900 -0.8244  1.3460 -0.2453
 4176TIP3   OH212533   3.039   5.411   2.052  0.2919 -0.0055 -0.3584
 4176TIP3    H112534   2.982   5.476   2.093  0.8884 -0.4637  1.2743
 4176TIP3    H212535   3.092   5.461   1.990 -1.1722  0.5813 -1.1722
 4177TIP3   OH212536   0.987   2.543   4.236  0.3030 -0.3681  0.0480
 4177TIP3    H112537   1.070   2.494   4.233  0.3110 -0.3118 -2.3303
 4177TIP3    H212538   0.919   2.476   4.230  0.2829 -0.2469 -1.4795
 4178TIP3   OH212539   1.401   0.482   4.951  0.7342 -0.3255  0.3139
 4178TIP3    H112540   1.371   0.486   4.860  1.3052 -0.0835  0.1266
 4178TIP3    H212541   1.453   0.562   4.962 -0.8375  0.5972  1.4145
 4179TIP3   OH212542   0.129   4.767   1.807  0.6861  0.3326 -0.6170
 4179TIP3    H112543   0.068   4.725   1.867 -0.1154 -0.3746 -1.8840
 4179TIP3    H212544   0.214   4.729   1.829  0.3428 -0.1937 -0.1711
 4180TIP3   OH212545   4.632   4.946   0.355 -0.6089  0.6164 -0.5792
 4180TIP3    H112546   4.584   4.922   0.434  0.5985 -3.2553 -0.8085
 4180TIP3    H212547   4.710   4.992   0.387 -0.9921  0.6147  0.3747
 4181TIP3   OH212548   4.606   4.326   2.598  0.4224  0.0010 -0.1784
 4181TIP3    H112549   4.684   4.381   2.592  1.4980 -1.3869  0.5182
 4181TIP3    H212550   4.575   4.339   2.688 -1.2580  1.9152 -0.9512
 4182TIP3   OH212551   1.485   5.209   1.019 -0.0308  0.0583  0.3516
 4182TIP3    H112552   1.523   5.297   1.023  1.9702 -0.6904 -0.5859
 4182TIP3    H212553   1.514   5.167   1.100 -1.0880  0.2672  0.8571
 4183TIP3   OH212554   5.394   5.589   3.602  0.4614 -0.2775  0.2719
 4183TIP3    H112555   5.422   5.561   3.515  0.2739 -1.5275  0.5971
 4183TIP3    H212556   5.414   5.515   3.659 -0.4409  0.0858  1.1004
 4184TIP3   OH212557   5.207   3.863   1.963  0.0576  0.0985 -0.3942
 4184TIP3    H112558   5.223   3.914   2.043  1.5295 -1.1622  0.1692
 4184TIP3    H212559   5.155   3.920   1.908  1.5407  2.1773  0.2428
 4185TIP3   OH212560   4.143   5.097   3.224  0.3185 -0.0764  0.0899
 4185TIP3    H112561   4.172   5.015   3.184  0.6059 -0.3016  0.7401
 4185TIP3    H212562   4.101   5.146   3.153  0.1392 -0.7889 -0.2980
 4186TIP3   OH212563   3.909   1.198   4.857  0.3534  0.6847 -0.4622
 4186TIP3    H112564   3.912   1.167   4.767 -1.0729  0.1114 -0.3392
 4186TIP3    H212565   3.905   1.118   4.910 -0.8359  1.0247 -0.0066
 4187TIP3   OH212566   3.447   4.224   2.757 -0.4357  0.8323 -0.1300
 4187TIP3    H112567   3.362   4.268   2.757 -0.3484  1.0189 -0.8162
 4187TIP3    H212568   3.510   4.295   2.752 -0.2878  0.6509 -1.0159
 4188TIP3   OH212569   0.941   5.468   4.748 -0.0765 -0.2619 -0.2920
 4188TIP3    H112570   0.899   5.390   4.786  0.5739  0.4221  2.0175
 4188TIP3    H212571   0.981   5.437   4.667 -0.5372 -2.1441  0.1517
 4189TIP3   OH212572   5.702   1.970   0.609  0.4253 -0.1812 -0.1034
 4189TIP3    H112573   5.722   1.965   0.515  0.2903 -0.6065 -0.1097
 4189TIP3    H212574   5.615   2.011   0.612  0.3819 -0.2687 -0.1673
 4190TIP3   OH212575   4.373   0.782   5.134 -0.0105 -0.0818  0.3391
 4190TIP3    H112576   4.394   0.875   5.137  0.9873 -0.2824  0.2010
 4190TIP3    H212577   4.441   0.741   5.187 -1.4030 -0.5977  1.7877
 4191TIP3   OH212578   2.040   4.751   1.539  0.8856  0.1594 -0.0035
 4191TIP3    H112579   2.091   4.759   1.459  2.1785  1.5973  0.8935
 4191TIP3    H212580   2.101   4.776   1.609 -0.1056 -1.3365  1.4732
 4192TIP3   OH212581   4.997   1.468   4.676 -0.7723  0.2949  0.0706
 4192TIP3    H112582   5.014   1.482   4.769 -2.0195 -0.6018  0.4575
 4192TIP3    H212583   4.920   1.412   4.673 -0.2860 -0.3671 -1.4976
 4193TIP3   OH212584   3.388   3.686   3.825 -0.2954 -0.0170 -0.2931
 4193TIP3    H112585   3.336   3.764   3.807 -0.0415  1.1233  3.0958
 4193TIP3    H212586   3.478   3.714   3.812 -0.1663  0.5514  1.4599
 4194TIP3   OH212587   2.011   4.471   4.112 -0.6248  0.1987 -0.5451
 4194TIP3    H112588   2.058   4.440   4.190 -0.0809  1.2958 -0.4211
 4194TIP3    H212589   1.945   4.404   4.096 -0.0088 -0.6148  0.1883
 4195TIP3   OH212590   0.621   0.984   4.532  0.3542  0.0800 -0.1733
 4195TIP3    H112591   0.655   1.023   4.612 -0.5827  0.1507  0.2116
 4195TIP3    H212592   0.616   1.057   4.470  3.0312 -0.3603 -1.0126
 4196TIP3   OH212593   0.743   3.242   0.193 -0.0780 -0.1472  0.3140
 4196TIP3    H112594   0.782   3.197   0.118  0.6045 -0.1595  0.6668
 4196TIP3    H212595   0.722   3.173   0.255  1.4487  0.0252  1.0758
 4197TIP3   OH212596   0.513   5.462   3.807  0.1671  0.2592  0.2740
 4197TIP3    H112597   0.431   5.471   3.857 -0.4321  4.1411 -1.0937
 4197TIP3    H212598   0.505   5.377   3.765 -1.8641 -0.6834  2.3077
 4198TIP3   OH212599   2.495   1.078   1.838 -0.9354  0.0764  0.2200
 4198TIP3    H112600   2.412   1.062   1.883  0.3237 -0.5802  2.5193
 4198TIP3    H212601   2.514   1.170   1.855 -1.2410  0.2677 -0.4395
 4199TIP3   OH212602   5.070   1.379   4.157 -0.2748  0.0128 -0.3963
 4199TIP3    H112603   5.094   1.373   4.249 -0.9751 -0.0655 -0.2157
 4199TIP3    H212604   4.979   1.410   4.158  0.2424  1.7081 -1.0829
 4200TIP3   OH212605   0.724   5.215   0.238  0.9873  0.5515 -0.3993
 4200TIP3    H112606   0.702   5.308   0.241 -1.1507  0.0832 -0.0484
 4200TIP3    H212607   0.660   5.177   0.178  2.1452 -0.6314 -0.9232
 4201TIP3   OH212608   6.055   1.063   0.698 -0.7047  0.2151  0.2023
 4201TIP3    H112609   6.122   1.100   0.639 -2.2354  0.0933 -1.7065
 4201TIP3    H212610   5.991   1.134   0.708 -0.2256  0.4159  2.2134
 4202TIP3   OH212611   4.741   5.832   0.995 -0.0613  0.0557  0.1295
 4202TIP3    H112612   4.650   5.857   0.977 -0.7547 -0.7887  2.0750
 4202TIP3    H212613   4.772   5.898   1.057 -0.2338 -1.0420  1.4306
 4203TIP3   OH212614   5.401   2.089   2.303 -0.3575  0.2244  0.4691
 4203TIP3    H112615   5.342   2.147   2.350  0.0389  0.7278  0.3521
 4203TIP3    H212616   5.382   2.106   2.210  0.0023  0.4230  0.4314
 4204TIP3   OH212617   3.061   2.197   3.971 -0.4617  0.5037 -0.0916
 4204TIP3    H112618   2.985   2.143   3.952 -0.1260  0.1418 -0.4161
 4204TIP3    H212619   3.061   2.207   4.066 -0.9688  0.5886 -0.0992
 4205TIP3   OH212620   4.867   3.901   4.636 -0.3742 -0.4650 -0.1942
 4205TIP3    H112621   4.855   3.928   4.546  1.7381  0.2288 -0.3278
 4205TIP3    H212622   4.949   3.942   4.663 -2.0808  1.3845  2.8519
 4206TIP3   OH212623   2.493   5.021   4.537 -0.6263  0.5503 -0.0249
 4206TIP3    H112624   2.401   5.046   4.537 -1.3284 -1.6454  1.7789
 4206TIP3    H212625   2.536   5.085   4.593 -2.3879 -1.8958  4.6789
 4207TIP3   OH212626   3.057   3.471   0.282  0.0901  0.2132 -0.2874
 4207TIP3    H112627   3.024   3.488   0.370  0.4397 -1.0999  0.1221
 4207TIP3    H212628   3.065   3.558   0.242  0.1642  0.8562  1.0586
 4208TIP3   OH212629   3.051   0.704   4.512  1.0949 -0.1538  0.0318
 4208TIP3    H112630   3.117   0.649   4.469  1.4504 -1.1024  1.6658
 4208TIP3    H212631   2.986   0.641   4.545 -0.5683  0.7420 -1.3486
 4209TIP3   OH212632   2.056   0.938   3.249 -0.1735 -0.0338 -0.7214
 4209TIP3    H112633   2.015   0.876   3.310 -1.6133  2.0286  0.5718
 4209TIP3    H212634   2.150   0.932   3.268 -0.3622 -1.2203 -0.0596
 4210TIP3   OH212635   4.635   2.887   1.628 -0.1349  0.3016  0.6237
 4210TIP3    H112636   4.559   2.832   1.611 -0.4992  0.9386  0.1556
 4210TIP3    H212637   4.600   2.963   1.676  0.4001  0.0101  1.5170
 4211TIP3   OH212638   4.101   5.141   2.697  1.0425  0.0360  0.0383
 4211TIP3    H112639   4.127   5.156   2.788  3.2850  0.3486 -0.5834
 4211TIP3    H212640   4.048   5.217   2.675 -2.0262 -1.3787  1.8466
 4212TIP3   OH212641   5.277   1.046   4.486  0.0403 -0.5975 -0.3344
 4212TIP3    H112642   5.186   1.064   4.507  0.3926  0.4440  0.3758
 4212TIP3    H212643   5.296   0.963   4.532 -0.9532 -1.6468 -1.7516
 4213TIP3   OH212644   2.464   4.419   3.160  0.7854  0.3276  0.8134
 4213TIP3    H112645   2.500   4.461   3.239  3.9865  0.2437 -0.4744
 4213TIP3    H212646   2.443   4.330   3.188  1.8857  0.2951  1.6071
 4214TIP3   OH212647   3.668   4.769   1.496 -0.2719 -0.4310  0.1669
 4214TIP3    H112648   3.726   4.824   1.548  0.6527  0.0276 -1.2769
 4214TIP3    H212649   3.586   4.766   1.546  0.9692 -1.1618  2.3051
 4215TIP3   OH212650   0.750   5.252   4.462 -0.3619 -0.2062 -0.4147
 4215TIP3    H112651   0.829   5.228   4.510 -0.3361  1.6328  0.5445
 4215TIP3    H212652   0.776   5.327   4.408 -1.3765  0.2557 -0.2815
 4216TIP3   OH212653   4.942   0.652   2.188 -0.4552 -0.5350  0.2806
 4216TIP3    H112654   4.879   0.659   2.117  0.9839 -2.5567 -1.3168
 4216TIP3    H212655   4.936   0.736   2.234 -2.5519  0.2328 -1.2449
 4217TIP3   OH212656   2.017   4.614   0.132 -0.6577 -0.3810 -0.0338
 4217TIP3    H112657   1.977   4.653   0.054 -1.7166  0.1622  0.7674
 4217TIP3    H212658   2.096   4.571   0.099 -0.3946  0.9408 -1.2163
 4218TIP3   OH212659   4.486   5.645   4.460  0.2874 -0.0825 -0.5351
 4218TIP3    H112660   4.561   5.608   4.412 -0.3903 -1.1029 -0.8387
 4218TIP3    H212661   4.458   5.575   4.519 -0.7373  0.1049 -0.7866
 4219TIP3   OH212662  -0.021   3.304   4.934  0.4730 -0.2049 -0.0821
 4219TIP3    H112663  -0.029   3.388   4.979  0.5612  0.2609 -0.9271
 4219TIP3    H212664   0.051   3.316   4.872  0.3558 -0.8390 -0.3521
 4220TIP3   OH212665   5.077   1.005   3.670  0.0236  0.7308 -0.0309
 4220TIP3    H112666   5.090   1.004   3.765  0.2130  1.0714 -0.0510
 4220TIP3    H212667   5.003   1.065   3.657  0.7265  1.5727 -0.1809
 4221TIP3   OH212668   5.186   4.069   1.302  0.1090  0.0571 -0.0324
 4221TIP3    H112669   5.267   4.097   1.344  0.1833 -0.3648  0.1057
 4221TIP3    H212670   5.177   4.128   1.227  2.5032 -2.1416 -2.2776
 4222TIP3   OH212671   5.723   4.839   0.931  0.2712  0.1614 -0.5917
 4222TIP3    H112672   5.762   4.891   0.861  1.6375  0.0583  0.0656
 4222TIP3    H212673   5.637   4.814   0.897  0.2366  1.4755 -1.5662
 4223TIP3   OH212674   0.125   0.953   3.953 -0.3132 -0.7251  0.1182
 4223TIP3    H112675   0.071   0.935   3.876  1.6003 -0.1610 -1.4439
 4223TIP3    H212676   0.197   0.890   3.946  1.1444  0.8894  0.1010
 4224TIP3   OH212677   1.368   4.677   4.089 -0.1621 -0.4418 -0.4611
 4224TIP3    H112678   1.281   4.637   4.100  0.0114 -0.2844  2.4245
 4224TIP3    H212679   1.427   4.603   4.080 -0.5416 -0.5522 -2.3912
 4225TIP3   OH212680   3.046   3.224   0.167  0.3777  0.2639 -0.4767
 4225TIP3    H112681   2.970   3.223   0.225 -0.0397 -1.0600 -1.0226
 4225TIP3    H212682   3.081   3.313   0.175 -0.4790  0.5094  0.7384
 4226TIP3   OH212683   2.640   2.289   3.833  0.3096 -0.0352  0.1090
 4226TIP3    H112684   2.590   2.238   3.898 -0.2898 -0.9022 -0.9915
 4226TIP3    H212685   2.574   2.346   3.793  1.0133  1.8170  1.4697
 4227TIP3   OH212686   5.883   4.745   0.685  0.3273  0.0964 -0.1608
 4227TIP3    H112687   5.795   4.741   0.723  0.2149  0.5746 -0.3604
 4227TIP3    H212688   5.868   4.766   0.593  0.6321 -0.2826 -0.2968
 4228TIP3   OH212689   0.193   5.874   4.546 -0.1040  0.2976  0.3417
 4228TIP3    H112690   0.128   5.896   4.613  1.2976  2.6415  1.0746
 4228TIP3    H212691   0.257   5.819   4.591  0.8413  1.8782  1.0109
 4229TIP3   OH212692   3.893   1.517   4.861 -0.1184 -0.3886 -0.3250
 4229TIP3    H112693   3.866   1.433   4.901 -0.4764 -0.3884 -0.5603
 4229TIP3    H212694   3.884   1.503   4.767 -4.4097  1.2091 -0.3757
 4230TIP3   OH212695   2.173   5.131   1.549 -0.8406 -0.0817  0.2355
 4230TIP3    H112696   2.083   5.111   1.574 -1.2881  0.1252 -1.1196
 4230TIP3    H212697   2.165   5.172   1.463  0.5747 -0.2441  0.0092
 4231TIP3   OH212698   1.226   3.869   2.553  0.2324  0.2431 -0.1110
 4231TIP3    H112699   1.308   3.895   2.511  0.9114  0.9359  1.5772
 4231TIP3    H212700   1.253   3.828   2.636 -1.1494  2.0843  1.3192
 4232TIP3   OH212701   6.049   0.302   3.958 -0.0379  0.0597 -0.0366
 4232TIP3    H112702   6.024   0.384   4.002 -0.3162 -0.9136  1.7179
 4232TIP3    H212703   6.144   0.297   3.971  0.6906  1.8524 -3.3793
 4233TIP3   OH212704   0.243   2.431   5.194 -0.3891 -0.0836 -0.4433
 4233TIP3    H112705   0.301   2.361   5.226  0.4770  0.9531  0.3472
 4233TIP3    H212706   0.219   2.403   5.106  0.8553 -0.8454 -0.5773
 4234TIP3   OH212707   2.543   1.270   3.379 -0.0982  0.9155 -0.6497
 4234TIP3    H112708   2.604   1.328   3.332  0.4265 -0.8074 -2.1931
 4234TIP3    H212709   2.578   1.182   3.366  0.0682  0.2806  3.0241
 4235TIP3   OH212710   0.434   4.587   2.361 -0.2466 -0.4854 -0.8803
 4235TIP3    H112711   0.444   4.680   2.379  1.7562 -0.2410 -2.8295
 4235TIP3    H212712   0.460   4.544   2.443  1.5710  0.6271 -0.8335
 4236TIP3   OH212713   0.900   1.399   0.836  0.3808 -0.1466 -0.1094
 4236TIP3    H112714   0.914   1.406   0.931  0.4102  1.2887 -0.1957
 4236TIP3    H212715   0.841   1.471   0.815  2.1261  0.9782 -1.4977
 4237TIP3   OH212716   5.714   0.216   4.499  0.2995  0.1614  0.4535
 4237TIP3    H112717   5.736   0.227   4.406  0.1282 -1.3452  0.2104
 4237TIP3    H212718   5.788   0.255   4.545  0.8687  0.0514 -0.3384
 4238TIP3   OH212719   0.229   2.976   2.672 -0.3898  0.7602 -0.3944
 4238TIP3    H112720   0.221   3.053   2.728  0.5037  0.7336 -0.2192
 4238TIP3    H212721   0.268   2.909   2.729 -1.4773  0.0566 -0.4391
 4239TIP3   OH212722   2.441   2.022   3.106 -0.3496  0.1550  0.2235
 4239TIP3    H112723   2.351   2.053   3.093  0.2549  1.5156 -1.1020
 4239TIP3    H212724   2.454   1.957   3.037  0.6950  2.4522 -1.9302
 4240TIP3   OH212725   3.720   2.572   3.908  0.3597  0.0242  0.2166
 4240TIP3    H112726   3.783   2.623   3.856 -1.5526  1.2531 -1.0164
 4240TIP3    H212727   3.732   2.604   3.997  0.7439  1.0383 -0.1752
 4241TIP3   OH212728   1.482   1.087   1.803 -0.2887 -0.0047 -0.0667
 4241TIP3    H112729   1.463   1.170   1.759  0.2091  0.0221 -0.2293
 4241TIP3    H212730   1.495   1.024   1.732  1.3294  0.2118  0.0117
 4242TIP3   OH212731   3.421   1.468   2.448  0.2197 -0.8667  0.2149
 4242TIP3    H112732   3.457   1.491   2.534  0.1292 -0.2711  0.0990
 4242TIP3    H212733   3.431   1.373   2.442  0.9420 -0.8150  0.5568
 4243TIP3   OH212734   6.106   0.387   3.709 -0.4214 -0.3701  0.2352
 4243TIP3    H112735   6.084   0.343   3.627  0.4002  0.7537 -0.6294
 4243TIP3    H212736   6.073   0.329   3.778 -2.8310 -0.4295 -0.8874
 4244TIP3   OH212737   1.757   2.912   0.774  0.2052  0.1536  0.3115
 4244TIP3    H112738   1.799   2.943   0.855  1.8990 -1.8347  0.3038
 4244TIP3    H212739   1.752   2.817   0.785 -0.6369 -0.0436 -1.4355
 4245TIP3   OH212740   4.275   2.433   1.720  0.0919  0.2750  0.0325
 4245TIP3    H112741   4.194   2.402   1.678  0.0920  3.0343 -2.3085
 4245TIP3    H212742   4.255   2.431   1.814 -1.5135 -2.0512 -0.2606
 4246TIP3   OH212743   2.195   5.242   0.977  0.0302  0.1664  0.8831
 4246TIP3    H112744   2.222   5.323   0.934 -1.2407  0.5073  0.6863
 4246TIP3    H212745   2.193   5.263   1.070 -0.6379  0.4854  0.8062
 4247TIP3   OH212746   1.189   2.907   0.415 -0.1237  0.3676 -1.0228
 4247TIP3    H112747   1.195   2.954   0.499  2.3318 -1.6046  0.0307
 4247TIP3    H212748   1.114   2.947   0.371 -0.9239  2.1473  1.6844
 4248TIP3   OH212749   4.339   1.331   4.971  0.0780  0.0292 -0.1768
 4248TIP3    H112750   4.433   1.317   4.958  0.1609  1.3876 -1.3088
 4248TIP3    H212751   4.300   1.245   4.954  0.7896  0.2474 -3.8037
 4249TIP3   OH212752   3.220   2.745   3.554 -0.0565 -0.0733  0.2385
 4249TIP3    H112753   3.178   2.724   3.471 -0.2469 -0.1833  0.3618
 4249TIP3    H212754   3.307   2.706   3.548 -0.5046 -1.1596  0.5851
 4250TIP3   OH212755   3.919   2.978   0.189  0.2419  0.2901 -0.1070
 4250TIP3    H112756   3.901   2.916   0.118 -1.1782 -0.1022  0.5361
 4250TIP3    H212757   3.988   2.936   0.241 -0.0705 -0.3415 -0.1909
 4251TIP3   OH212758   0.065   0.539   2.715 -0.5312  0.5289 -0.1766
 4251TIP3    H112759   0.127   0.568   2.647 -1.2525 -0.4370 -1.2923
 4251TIP3    H212760  -0.021   0.546   2.674 -0.9690 -0.2995  0.5547
 4252TIP3   OH212761   5.003   1.044   1.591  0.0433  0.1835 -0.3895
 4252TIP3    H112762   4.994   0.979   1.522 -2.9333 -0.7161  0.6802
 4252TIP3    H212763   4.938   1.112   1.569 -0.9078 -0.0784  1.3943
 4253TIP3   OH212764   6.290   3.453   1.171 -0.1170  0.0403 -0.3824
 4253TIP3    H112765   6.196   3.466   1.167 -0.2759 -0.0297  1.8170
 4253TIP3    H212766   6.327   3.521   1.115 -1.4464  0.3365 -0.9260
 4254TIP3   OH212767   4.014   1.443   3.541  0.4562 -0.6272 -0.1969
 4254TIP3    H112768   3.993   1.433   3.634  2.6468 -1.8120  0.2591
 4254TIP3    H212769   4.109   1.430   3.537  0.4473 -0.4028 -2.5868
 4255TIP3   OH212770   2.712   0.580   2.270 -0.3052  0.0249 -0.1376
 4255TIP3    H112771   2.754   0.499   2.298 -0.8084  0.2733  1.4675
 4255TIP3    H212772   2.728   0.641   2.342 -2.2653  0.5000 -0.0275
 4256TIP3   OH212773   5.669   5.188   3.489  0.3543  0.0755  0.1054
 4256TIP3    H112774   5.588   5.213   3.534 -0.1064  1.0135 -1.1795
 4256TIP3    H212775   5.640   5.128   3.420  0.6123  1.0501 -0.8821
 4257TIP3   OH212776   5.838   0.285   4.997 -0.1503  0.1632  0.0322
 4257TIP3    H112777   5.820   0.281   5.091 -0.1931  0.5802  0.0477
 4257TIP3    H212778   5.808   0.373   4.971  0.3007  0.2275 -0.2792
 4258TIP3   OH212779   3.352   5.614   1.332  0.1727 -0.3383 -0.6616
 4258TIP3    H112780   3.291   5.625   1.406  0.5918  0.2589 -0.3962
 4258TIP3    H212781   3.353   5.520   1.316 -0.6510 -0.3765 -0.5212
 4259TIP3   OH212782   0.804   3.188   3.744  0.1007 -0.2515  0.4509
 4259TIP3    H112783   0.740   3.190   3.673  0.6769  0.1678 -0.0627
 4259TIP3    H212784   0.754   3.157   3.820 -0.0830 -2.5988 -0.5496
 4260TIP3   OH212785   1.266   2.564   3.251  0.0161  0.1277  0.6263
 4260TIP3    H112786   1.171   2.558   3.252 -0.0044  0.2108 -0.1641
 4260TIP3    H212787   1.285   2.658   3.244  0.1420  0.0852  0.3521
 4261TIP3   OH212788   1.385   4.868   4.770  0.0314  0.6721 -0.5527
 4261TIP3    H112789   1.461   4.866   4.711 -0.5489 -0.3676 -1.2838
 4261TIP3    H212790   1.310   4.881   4.712 -0.4878  0.2894  0.0256
 4262TIP3   OH212791   2.457   4.023   0.218  0.0592 -0.3435  0.0540
 4262TIP3    H112792   2.542   3.986   0.243  0.0484  0.4339  1.3289
 4262TIP3    H212793   2.403   3.947   0.197  0.7842 -0.9058  0.1772
 4263TIP3   OH212794   2.977   3.089   3.367  0.3361 -0.0715 -0.1698
 4263TIP3    H112795   2.979   3.013   3.310 -1.2892  0.9033 -1.6334
 4263TIP3    H212796   3.067   3.121   3.367  0.2234  0.6518 -3.3800
 4264TIP3   OH212797   2.705   4.561   4.984 -0.0822  0.4531  0.0014
 4264TIP3    H112798   2.787   4.525   4.950  0.2106  0.7748  0.3416
 4264TIP3    H212799   2.726   4.586   5.074 -0.5768  0.4789  0.1132
 4265TIP3   OH212800   2.833   2.241   0.862 -0.0859  0.3012 -0.3923
 4265TIP3    H112801   2.784   2.159   0.872  0.4131  0.0458 -0.0492
 4265TIP3    H212802   2.830   2.281   0.949  3.0723 -1.2626  0.5667
 4266TIP3   OH212803   4.296   1.069   4.900 -0.0910 -0.1283 -1.0102
 4266TIP3    H112804   4.330   1.025   4.822  2.6575  1.4132 -0.8011
 4266TIP3    H212805   4.368   1.065   4.963 -0.3394  3.1201 -0.3904
 4267TIP3   OH212806   4.607   2.423   1.417  0.1657  0.2254 -0.3925
 4267TIP3    H112807   4.519   2.429   1.379  0.7186 -0.9725 -1.9943
 4267TIP3    H212808   4.642   2.340   1.384  0.9096 -0.6957  2.4558
 4268TIP3   OH212809   3.807   0.125   2.469  0.2727 -0.4369  0.0985
 4268TIP3    H112810   3.738   0.157   2.410  1.3829  0.1503 -0.9306
 4268TIP3    H212811   3.762   0.111   2.552 -0.9108  0.8678 -0.2667
 4269TIP3   OH212812   4.190   1.279   3.326 -0.4655  0.5353  0.2991
 4269TIP3    H112813   4.109   1.247   3.368  0.0794 -0.8700  0.3279
 4269TIP3    H212814   4.224   1.203   3.279  1.8444  0.5435  1.8308
 4270TIP3   OH212815   2.287   4.299   0.925 -0.4743 -0.6207  0.4931
 4270TIP3    H112816   2.290   4.237   0.997 -2.1774  0.2433  1.3624
 4270TIP3    H212817   2.279   4.385   0.966  3.4862  0.4856 -0.6181
 4271TIP3   OH212818   0.610   5.525   0.229  0.3813 -0.3974 -0.2694
 4271TIP3    H112819   0.602   5.620   0.225  0.5704 -0.3595  0.1896
 4271TIP3    H212820   0.547   5.493   0.165  0.2988  0.0362 -0.4084
 4272TIP3   OH212821   2.370   3.696   1.259 -0.3462 -0.1597  0.0472
 4272TIP3    H112822   2.428   3.625   1.284  0.5256  0.4509 -0.1854
 4272TIP3    H212823   2.390   3.713   1.167 -1.8825 -0.8521 -0.4501
 4273TIP3   OH212824   4.286   2.521   2.250  0.2328  0.0114  0.0405
 4273TIP3    H112825   4.359   2.517   2.313 -0.3322  0.5150  0.7502
 4273TIP3    H212826   4.226   2.452   2.279 -0.1406  0.3989  0.2028
 4274TIP3   OH212827   4.213   1.812   1.838 -0.1281 -0.0150  0.6900
 4274TIP3    H112828   4.301   1.774   1.837  0.2626  0.6082  3.5228
 4274TIP3    H212829   4.157   1.740   1.867 -0.2852  0.0392  0.5177
 4275TIP3   OH212830   1.136   1.256   3.228 -0.1253 -0.1940 -0.2493
 4275TIP3    H112831   1.116   1.335   3.278  0.2696 -0.3211  0.1179
 4275TIP3    H212832   1.214   1.279   3.177  0.8225 -0.7765  0.9007
 4276TIP3   OH212833   0.799   1.357   2.046  0.0177 -0.5494  0.4527
 4276TIP3    H112834   0.886   1.319   2.034 -0.5878 -1.9800  0.3742
 4276TIP3    H212835   0.751   1.332   1.967 -0.5557 -0.0471  0.6342
 4277TIP3   OH212836   2.814   0.737   3.925  0.3693  0.1985 -0.2076
 4277TIP3    H112837   2.799   0.743   3.831  1.3278 -0.9366 -0.4610
 4277TIP3    H212838   2.743   0.681   3.957  0.6563 -0.3018 -0.4390
 4278TIP3   OH212839   3.244   1.460   1.292  0.4152 -0.0404 -0.3564
 4278TIP3    H112840   3.281   1.424   1.211  0.1178 -0.0243 -0.4997
 4278TIP3    H212841   3.216   1.383   1.341  1.7418 -0.1402  0.3043
 4279TIP3   OH212842   3.062   3.773   4.444  0.1037 -0.1970 -0.5324
 4279TIP3    H112843   3.153   3.800   4.454  1.3335 -3.7645 -0.6103
 4279TIP3    H212844   3.041   3.728   4.525 -0.5892 -1.7935 -1.5338
 4280TIP3   OH212845   0.802   1.177   1.102  0.1308 -0.6373  0.1235
 4280TIP3    H112846   0.883   1.134   1.128  0.8720 -0.1970 -1.3180
 4280TIP3    H212847   0.753   1.190   1.183  1.1055 -1.7210  0.8996
 4281TIP3   OH212848   2.311   5.465   0.881 -0.4477  0.3429 -0.0017
 4281TIP3    H112849   2.304   5.545   0.934  1.1693 -0.6086  1.7920
 4281TIP3    H212850   2.252   5.480   0.807 -0.9425  2.7731  0.7832
 4282TIP3   OH212851   2.668   4.124   1.282  0.2078  0.1885 -0.1979
 4282TIP3    H112852   2.597   4.065   1.307 -0.2258  1.1210  0.8320
 4282TIP3    H212853   2.747   4.081   1.316  0.1481 -0.8037 -1.2654
 4283TIP3   OH212854   1.667   2.358   3.622  0.2846 -0.0655 -0.1456
 4283TIP3    H112855   1.628   2.416   3.556 -1.8003 -0.6121  0.5444
 4283TIP3    H212856   1.761   2.363   3.604 -0.2034 -1.6730 -4.4375
 4284TIP3   OH212857   2.017   1.396   3.893  0.1508  0.1876  0.8832
 4284TIP3    H112858   1.942   1.444   3.928  0.9159  0.6634  1.9541
 4284TIP3    H212859   2.082   1.401   3.963  1.2107 -0.1310 -0.0599
 4285TIP3   OH212860   1.867   3.332   0.726 -0.2781  0.0202 -0.2284
 4285TIP3    H112861   1.838   3.338   0.635 -0.9760  0.5687  0.0171
 4285TIP3    H212862   1.786   3.315   0.775 -0.3565  2.4217  0.5708
 4286TIP3   OH212863   5.827   1.993   4.262 -0.5355  0.2778 -0.0938
 4286TIP3    H112864   5.867   1.954   4.184  0.2439  0.5275  0.1667
 4286TIP3    H212865   5.733   1.986   4.247 -0.4128 -0.8828 -0.4583
 4287TIP3   OH212866   5.639   0.286   4.004 -0.0194  0.4472 -0.8638
 4287TIP3    H112867   5.668   0.335   3.927  1.5020 -0.6072 -1.0094
 4287TIP3    H212868   5.622   0.198   3.972 -0.6791  0.3303 -0.2263
 4288TIP3   OH212869   0.728   5.438   2.484 -0.5361 -0.1352  0.2787
 4288TIP3    H112870   0.728   5.519   2.433 -3.1896  0.6688  1.3884
 4288TIP3    H212871   0.654   5.447   2.543 -1.9356 -4.0168 -0.5738
 4289TIP3   OH212872   3.818   5.904   0.240 -0.5411 -0.2845  0.1285
 4289TIP3    H112873   3.897   5.957   0.228 -0.1148 -1.0630 -0.6636
 4289TIP3    H212874   3.746   5.968   0.243 -0.3590  0.3128 -3.4573
 4290TIP3   OH212875   2.603   5.946   2.808 -0.0065 -0.1667 -0.5085
 4290TIP3    H112876   2.508   5.930   2.810 -0.0757  0.2811 -0.0293
 4290TIP3    H212877   2.616   6.004   2.733 -0.4001  1.4884  0.6545
 4291TIP3   OH212878   6.224   3.284   1.450  0.0490  0.0337  0.3499
 4291TIP3    H112879   6.152   3.221   1.454 -0.4239  0.6392  2.0041
 4291TIP3    H212880   6.246   3.289   1.356 -0.5515 -1.8226  0.0651
 4292TIP3   OH212881   4.254   1.518   1.971  0.3397  0.2581 -0.0406
 4292TIP3    H112882   4.339   1.555   1.945  0.1021  0.2065 -0.9044
 4292TIP3    H212883   4.277   1.441   2.023  0.8292 -0.3149 -1.0850
 4293TIP3   OH212884   4.383   6.009   3.364  0.1626 -0.1438  0.6362
 4293TIP3    H112885   4.300   6.006   3.317  1.3143 -0.1410 -1.5474
 4293TIP3    H212886   4.419   5.920   3.354  1.0038  0.2142  0.3648
 4294TIP3   OH212887   5.350   4.344   4.787 -0.5480  0.9236 -0.3944
 4294TIP3    H112888   5.284   4.378   4.727  0.0918  1.8841 -0.5906
 4294TIP3    H212889   5.342   4.399   4.865  0.1627  1.2089 -0.5144
 4295TIP3   OH212890   4.416   3.725   4.276  0.4066  0.4649  0.4435
 4295TIP3    H112891   4.385   3.813   4.298 -0.1888  0.1516  0.8821
 4295TIP3    H212892   4.493   3.740   4.221  0.4579  1.2591  0.7205
 4296TIP3   OH212893   2.932   4.007   1.459 -0.2215 -0.1523 -0.7026
 4296TIP3    H112894   2.965   4.053   1.536 -0.1486 -1.2048 -0.0799
 4296TIP3    H212895   2.924   3.916   1.488 -0.6183 -0.4811 -1.8123
 4297TIP3   OH212896   2.081   3.909   4.232 -0.4548  0.4848  0.3662
 4297TIP3    H112897   2.160   3.860   4.210 -0.4052 -0.2445  2.0559
 4297TIP3    H212898   2.103   4.001   4.213  1.2135  0.4399  1.8252
 4298TIP3   OH212899   4.809   4.328   5.116 -0.0001 -0.1597  0.1918
 4298TIP3    H112900   4.878   4.326   5.182 -0.5461  0.5565  0.7959
 4298TIP3    H212901   4.762   4.245   5.129  0.2275 -0.2675  0.3391
 4299TIP3   OH212902   3.794   5.995   1.672  0.3448  0.0970  0.8386
 4299TIP3    H112903   3.739   5.917   1.665 -0.3106  0.4265  2.0809
 4299TIP3    H212904   3.845   5.995   1.591 -3.3194  1.1836 -1.7120
 4300TIP3   OH212905   4.542   4.779   1.980 -0.6232 -0.2041  0.3816
 4300TIP3    H112906   4.581   4.727   1.910 -1.5467 -0.8786  0.3481
 4300TIP3    H212907   4.559   4.870   1.954 -0.2026 -0.4559 -0.2667
 4301TIP3   OH212908   0.926   5.695   3.083  0.1273  0.0415  0.1960
 4301TIP3    H112909   0.935   5.609   3.124  0.5317  1.2187  2.7965
 4301TIP3    H212910   0.866   5.742   3.140 -1.8646  0.8407 -2.4065
 4302TIP3   OH212911   1.510   2.640   2.139 -0.1762  0.1406  0.4743
 4302TIP3    H112912   1.538   2.708   2.200  0.4784  1.3416 -1.1207
 4302TIP3    H212913   1.481   2.568   2.196 -1.9239  2.1121  2.2455
 4303TIP3   OH212914   1.458   0.240   4.394 -0.3110  0.3303 -0.3480
 4303TIP3    H112915   1.452   0.197   4.479 -2.0765  0.3082 -0.4646
 4303TIP3    H212916   1.528   0.305   4.405  0.1260 -0.3105  0.8128
 4304TIP3   OH212917   0.502   2.919   4.441  0.2058 -0.6807  0.0270
 4304TIP3    H112918   0.550   2.999   4.459 -0.4731 -0.3422  0.3508
 4304TIP3    H212919   0.424   2.947   4.394  0.3867 -1.2401 -0.6357
 4305TIP3   OH212920   5.035   3.582   3.071 -0.1143 -0.1834 -0.0133
 4305TIP3    H112921   5.090   3.517   3.027 -1.5232 -0.9717 -0.7020
 4305TIP3    H212922   4.949   3.572   3.029 -1.3255 -0.3813  2.3299
 4306TIP3   OH212923   0.612   5.387   4.666  0.1551  0.5340  0.2575
 4306TIP3    H112924   0.625   5.348   4.580 -2.6644  2.0438 -0.9972
 4306TIP3    H212925   0.658   5.471   4.661  1.5753 -0.1667  0.9678
 4307TIP3   OH212926   3.332   3.763   0.798 -0.4208 -0.3126  0.1049
 4307TIP3    H112927   3.364   3.842   0.756  0.1598 -1.1560 -1.1030
 4307TIP3    H212928   3.267   3.728   0.737 -1.4501 -0.2337  1.1156
 4308TIP3   OH212929   4.643   5.683   2.221 -0.4376  0.4421  0.2844
 4308TIP3    H112930   4.694   5.618   2.269 -0.2979  0.4274  0.1142
 4308TIP3    H212931   4.634   5.647   2.133  0.1919  0.9553  0.0051
 4309TIP3   OH212932   0.675   0.412   4.186 -0.5611 -0.2187 -0.1347
 4309TIP3    H112933   0.734   0.408   4.262 -2.4451 -1.5681  1.3391
 4309TIP3    H212934   0.726   0.375   4.114  1.3893  1.3915  0.3157
 4310TIP3   OH212935   1.877   0.598   3.999 -0.3240 -0.5622  0.4345
 4310TIP3    H112936   1.899   0.621   4.090 -0.7568  0.5296  0.2732
 4310TIP3    H212937   1.940   0.646   3.946 -0.2417 -0.9902  0.1420
 4311TIP3   OH212938   1.461   3.910   1.459  0.0864  0.0594  0.1014
 4311TIP3    H112939   1.448   3.815   1.457 -1.0765  0.2270 -1.2592
 4311TIP3    H212940   1.426   3.941   1.376 -1.8138  1.9707  1.5245
 4312TIP3   OH212941   2.271   2.325   1.768  0.7401  0.0425 -0.0428
 4312TIP3    H112942   2.232   2.360   1.688 -0.7196 -0.9440  0.1957
 4312TIP3    H212943   2.204   2.267   1.804  2.3655 -1.6102  0.4870
 4313TIP3   OH212944   0.612   3.980   3.416 -0.3387  0.2640  0.3488
 4313TIP3    H112945   0.699   3.943   3.404  1.0128  2.5437  2.1363
 4313TIP3    H212946   0.594   4.026   3.335  0.1721 -0.1163  0.0115
 4314TIP3   OH212947   3.559   4.528   0.859 -0.2568 -0.0276  0.7969
 4314TIP3    H112948   3.505   4.464   0.810 -0.1921  1.2148 -1.0082
 4314TIP3    H212949   3.619   4.563   0.793  0.4262  1.1223  1.9977
 4315TIP3   OH212950   0.294   4.880   3.755 -0.3145  0.0119 -0.6567
 4315TIP3    H112951   0.384   4.869   3.785 -0.1333  1.0079 -0.7811
 4315TIP3    H212952   0.241   4.834   3.820  0.1558  1.0247  0.4938
 4316TIP3   OH212953   1.432   5.345   3.044  0.3203  0.2480 -0.1890
 4316TIP3    H112954   1.399   5.260   3.016  0.9662 -0.8684  2.1774
 4316TIP3    H212955   1.400   5.406   2.978 -2.7799 -1.3843 -0.3818
 4317TIP3   OH212956   3.992   4.608   3.635 -0.1931  0.5175 -0.3356
 4317TIP3    H112957   3.949   4.680   3.590 -0.2412  0.0866 -0.9946
 4317TIP3    H212958   4.025   4.646   3.716 -0.4550  1.2132 -0.5519
 4318TIP3   OH212959   5.748   0.108   0.310 -1.1380  0.2585  0.0053
 4318TIP3    H112960   5.810   0.161   0.361  0.3097 -1.0450 -0.3145
 4318TIP3    H212961   5.667   0.111   0.361  0.0328 -0.3677  2.0539
 4319TIP3   OH212962   5.507   4.692   2.468  0.1968  0.5756  0.0984
 4319TIP3    H112963   5.573   4.743   2.515 -0.4140  0.5996  0.9459
 4319TIP3    H212964   5.424   4.733   2.491 -0.0292  1.8068 -2.5189
 4320TIP3   OH212965   0.439   0.696   3.044 -0.1630  0.1614  0.0464
 4320TIP3    H112966   0.407   0.629   3.105 -0.4566 -0.2398 -0.5434
 4320TIP3    H212967   0.399   0.777   3.075  0.9228  0.2483  1.3260
 4321TIP3   OH212968   4.157   1.863   5.107 -0.0814  0.4397  0.1961
 4321TIP3    H112969   4.107   1.942   5.088  1.3197  1.6661  1.4111
 4321TIP3    H212970   4.220   1.857   5.035 -0.0847  0.5127  0.1869
 4322TIP3   OH212971   0.867   3.635   0.285  0.1940 -0.1296  0.4329
 4322TIP3    H112972   0.959   3.663   0.283  0.2659 -0.3629  0.4678
 4322TIP3    H212973   0.830   3.681   0.360  0.0366  0.7248 -0.1508
 4323TIP3   OH212974   4.107   4.655   5.114  0.7852 -0.9493 -0.1522
 4323TIP3    H112975   4.140   4.566   5.128  0.9571 -1.0725 -1.2741
 4323TIP3    H212976   4.129   4.675   5.023 -0.4074 -0.2545 -0.3138
 4324TIP3   OH212977   2.100   2.668   3.934 -0.3081 -0.0900  0.1144
 4324TIP3    H112978   2.188   2.642   3.961  0.5153  0.4391 -1.9054
 4324TIP3    H212979   2.059   2.587   3.904  0.0994 -0.0730 -0.5045
 4325TIP3   OH212980   4.150   1.570   4.972 -0.1463 -0.4988  0.1005
 4325TIP3    H112981   4.072   1.565   4.916  2.2093 -0.2786 -3.5845
 4325TIP3    H212982   4.200   1.491   4.949  1.5781  0.3306  0.8335
 4326TIP3   OH212983   0.793   2.159   1.391  0.3934 -0.1187 -0.6600
 4326TIP3    H112984   0.714   2.106   1.395  0.2462  0.1507  0.6300
 4326TIP3    H212985   0.845   2.120   1.322 -0.1586 -1.3194 -0.4168
 4327TIP3   OH212986   1.840   4.708   0.940  1.0555  0.3342  0.3897
 4327TIP3    H112987   1.907   4.650   0.975 -0.0210 -0.4123  1.2842
 4327TIP3    H212988   1.833   4.779   1.003  1.2595  0.6027  0.1113
 4328TIP3   OH212989   3.823   0.561   1.062  0.0583 -0.0573  0.6372
 4328TIP3    H112990   3.782   0.577   1.147  0.4216 -0.2700  0.8542
 4328TIP3    H212991   3.762   0.599   0.999  0.2993  1.0524  1.0549
 4329TIP3   OH212992   1.533   4.756   3.714 -0.3658 -0.0956  0.1662
 4329TIP3    H112993   1.555   4.677   3.764  0.1779  1.0864  1.8939
 4329TIP3    H212994   1.538   4.729   3.623 -0.0400 -2.0158  0.7107
 4330TIP3   OH212995   1.864   2.855   3.098 -0.1763  0.4132 -0.0484
 4330TIP3    H112996   1.836   2.811   3.018 -1.5846 -0.9824  1.1338
 4330TIP3    H212997   1.815   2.811   3.168  1.0070  1.5601  1.5910
 4331TIP3   OH212998   4.413   2.598   3.965  0.4111  0.1976  0.3238
 4331TIP3    H112999   4.421   2.630   3.875  1.4368  0.5744  0.5363
 4331TIP3    H213000   4.336   2.540   3.963  1.4572 -1.2165 -1.1949
 4332TIP3   OH213001   0.797   2.495   1.762 -0.5768  0.1462  0.9095
 4332TIP3    H113002   0.702   2.509   1.761 -0.6265 -0.1513  1.0830
 4332TIP3    H213003   0.807   2.401   1.745 -0.2044  0.5514 -1.3563
 4333TIP3   OH213004   6.318   3.007   0.876 -0.0886  0.2680 -0.0776
 4333TIP3    H113005   6.378   3.078   0.898  2.2126 -0.9668 -1.9017
 4333TIP3    H213006   6.285   3.030   0.789  0.3257 -0.6573 -0.4864
 4334TIP3   OH213007   4.797   5.984   4.381  0.6116 -0.8547  0.0183
 4334TIP3    H113008   4.883   5.994   4.421  1.0408 -1.7608 -0.6545
 4334TIP3    H213009   4.795   5.894   4.350  0.4315 -0.1226 -2.3016
 4335TIP3   OH213010   5.289   3.441   4.896  0.7962  0.4599 -0.1045
 4335TIP3    H113011   5.351   3.406   4.831  0.7481 -1.0558  0.6307
 4335TIP3    H213012   5.330   3.422   4.980  0.3688  1.4773  0.3490
 4336TIP3   OH213013   5.234   2.191   2.513  0.3289 -0.0708 -0.1080
 4336TIP3    H113014   5.241   2.110   2.563 -0.1400  0.5148  0.9383
 4336TIP3    H213015   5.140   2.199   2.494  0.3253  0.3697  0.0630
 4337TIP3   OH213016   3.436   1.178   3.914  0.0572  0.3715  0.5186
 4337TIP3    H113017   3.434   1.265   3.873  2.9365  0.4530  0.3148
 4337TIP3    H213018   3.403   1.119   3.846 -0.0669  1.0992 -0.0711
 4338TIP3   OH213019   5.331   1.566   0.653  0.2809 -0.0268 -0.8283
 4338TIP3    H113020   5.384   1.644   0.669  0.2620 -0.0457 -0.6760
 4338TIP3    H213021   5.394   1.494   0.653  0.3475  0.0224 -1.3023
 4339TIP3   OH213022   1.724   4.826   4.265 -0.0541  0.8168  0.1003
 4339TIP3    H113023   1.704   4.751   4.210  1.2638  1.4543 -1.3123
 4339TIP3    H213024   1.696   4.902   4.213 -0.5578  1.3550  1.1291
 4340TIP3   OH213025   0.586   4.895   3.888  0.6449  0.0175 -0.3326
 4340TIP3    H113026   0.551   4.856   3.968  2.4097 -0.1993  0.3607
 4340TIP3    H213027   0.680   4.879   3.892  0.7862 -0.0049 -2.4580
 4341TIP3   OH213028   2.980   2.090   1.775 -0.5507 -0.5587  0.0524
 4341TIP3    H113029   3.004   2.171   1.820  1.5747 -0.4072 -1.2319
 4341TIP3    H213030   3.060   2.062   1.732 -1.6416 -2.5371 -0.8050
 4342TIP3   OH213031   4.362   2.414   1.313 -0.0928 -0.3514 -0.0312
 4342TIP3    H113032   4.326   2.329   1.288  1.4972 -1.1313  0.2049
 4342TIP3    H213033   4.312   2.477   1.262 -0.4661 -1.5167 -1.1571
 4343TIP3   OH213034   3.362   3.618   1.609  0.0481  0.0352 -0.3785
 4343TIP3    H113035   3.394   3.622   1.699 -2.2019  1.1960  0.4580
 4343TIP3    H213036   3.355   3.710   1.582  0.2225 -0.2909 -1.5704
 4344TIP3   OH213037   2.317   0.510   3.871 -0.2370  0.1904  0.2309
 4344TIP3    H113038   2.311   0.485   3.779 -1.0886 -1.9772  0.8050
 4344TIP3    H213039   2.248   0.576   3.883 -0.1227  0.4798 -0.6692
 4345TIP3   OH213040   6.208   2.096   1.070  0.2359  0.2299  0.0718
 4345TIP3    H113041   6.127   2.059   1.034  1.3022 -2.0681 -0.1575
 4345TIP3    H213042   6.211   2.185   1.034 -1.9487  0.2272 -0.2607
 4346TIP3   OH213043   3.352   1.282   3.457  0.4190  0.0751 -0.2682
 4346TIP3    H113044   3.297   1.210   3.427  1.1789 -1.0148  0.8576
 4346TIP3    H213045   3.361   1.339   3.381 -2.3059  0.3401 -0.4813
 4347TIP3   OH213046   2.465   2.140   4.000  0.2039  0.1276  0.1409
 4347TIP3    H113047   2.516   2.135   4.080  0.9447 -1.4406 -0.4032
 4347TIP3    H213048   2.377   2.111   4.025  0.7716 -1.6868  0.1319
 4348TIP3   OH213049   0.234   2.573   4.912  0.0632 -0.3163  0.5887
 4348TIP3    H113050   0.146   2.556   4.944  0.1522  0.2600  1.1580
 4348TIP3    H213051   0.284   2.597   4.990  0.4646  0.3745  0.1281
 4349TIP3   OH213052   1.042   0.046   2.322 -0.1931  0.0624 -0.2787
 4349TIP3    H113053   0.958   0.075   2.358 -0.1680 -0.4777  0.2249
 4349TIP3    H213054   1.055   0.101   2.244 -1.4533 -0.5012 -0.9014
 4350TIP3   OH213055   2.572   1.699   1.988 -0.3052  0.2287  0.6575
 4350TIP3    H113056   2.623   1.649   1.925 -0.4618  0.7199  0.1318
 4350TIP3    H213057   2.634   1.762   2.026 -0.7052  1.5377 -0.7374
 4351TIP3   OH213058   4.222   4.428   0.447 -0.4313 -0.0642 -0.0528
 4351TIP3    H113059   4.235   4.353   0.389 -0.0176  0.5832 -0.8177
 4351TIP3    H213060   4.309   4.450   0.479 -0.5529  0.0922  0.1759
 4352TIP3   OH213061   3.402   1.994   4.673 -0.2153  0.4358 -0.4002
 4352TIP3    H113062   3.358   2.030   4.749  0.5093 -0.0356  0.2635
 4352TIP3    H213063   3.405   2.066   4.610 -1.4054  0.6327 -0.2418
 4353TIP3   OH213064   2.513   5.001   0.356  0.0099 -0.6273  0.2652
 4353TIP3    H113065   2.572   4.927   0.341 -0.3695 -1.5389  2.8371
 4353TIP3    H213066   2.557   5.054   0.422  0.3612  1.6305 -1.6794
 4354TIP3   OH213067   1.349   5.989   4.337 -0.7119  0.5052  0.4405
 4354TIP3    H113068   1.430   5.955   4.375 -1.9888 -0.6034  2.2964
 4354TIP3    H213069   1.336   5.936   4.258 -0.7281 -0.7774  1.2851
 4355TIP3   OH213070   0.641   5.958   3.406 -0.4770  0.6553  0.0405
 4355TIP3    H113071   0.603   5.934   3.490 -1.6491  1.9846 -0.0696
 4355TIP3    H213072   0.736   5.953   3.419 -0.6513 -0.7226  0.9363
 4356TIP3   OH213073   0.626   2.233   0.383 -0.6551  0.4533 -0.0786
 4356TIP3    H113074   0.537   2.265   0.368 -0.8603 -0.3426 -0.6099
 4356TIP3    H213075   0.621   2.140   0.365  0.9647  0.8683 -3.2018
 4357TIP3   OH213076   5.202   3.172   1.811 -0.2387  0.2593 -0.1763
 4357TIP3    H113077   5.229   3.086   1.845 -0.0479  0.4966  0.2826
 4357TIP3    H213078   5.149   3.210   1.882 -1.3038  0.0430 -0.8287
 4358TIP3   OH213079   3.027   1.248   2.380  0.1925  0.0872 -0.2934
 4358TIP3    H113080   3.013   1.282   2.469  1.4111 -0.2505  0.0556
 4358TIP3    H213081   3.025   1.153   2.390 -1.8126  0.0043 -1.0266
 4359TIP3   OH213082   5.047   0.695   3.420  0.4455 -0.0788  0.2387
 4359TIP3    H113083   4.990   0.730   3.488  1.1732 -0.4175  1.0478
 4359TIP3    H213084   4.996   0.702   3.339 -1.1446 -1.2981  1.0661
 4360TIP3   OH213085   1.158   3.079   3.524 -0.1012  0.1876  0.4097
 4360TIP3    H113086   1.235   3.028   3.496  1.1502  2.1426  0.0880
 4360TIP3    H213087   1.121   3.112   3.442  0.4227  1.5707  0.7089
 4361TIP3   OH213088   0.294   4.579   1.548  0.3558 -0.1588 -0.0553
 4361TIP3    H113089   0.229   4.625   1.601  0.8141 -0.1686  0.5212
 4361TIP3    H213090   0.343   4.526   1.610  0.0683 -1.1695 -0.6669
 4362TIP3   OH213091   3.149   2.776   1.699  0.2762 -0.4186 -0.1688
 4362TIP3    H113092   3.239   2.761   1.670  0.6300 -0.9519  1.1252
 4362TIP3    H213093   3.147   2.742   1.788 -0.5964  1.5877  0.6491
 4363TIP3   OH213094   0.624   4.631   3.404  0.3727 -0.2971 -0.1005
 4363TIP3    H113095   0.566   4.599   3.474  0.8402 -0.9835 -0.0251
 4363TIP3    H213096   0.700   4.666   3.451 -0.9421  2.7984 -0.0352
 4364TIP3   OH213097   2.266   1.615   1.420  0.2748 -0.4783  0.1266
 4364TIP3    H113098   2.183   1.641   1.460 -0.6522  1.2065 -2.5999
 4364TIP3    H213099   2.333   1.656   1.474 -0.8293  0.7950  0.5839
 4365TIP3   OH213100   0.699   0.051   4.800  0.0361  0.3845  0.0066
 4365TIP3    H113101   0.691   0.121   4.734 -2.3779  0.2124  0.0368
 4365TIP3    H213102   0.668   0.091   4.881 -2.4905 -0.9390 -0.2025
 4366TIP3   OH213103   4.557   3.347   5.086 -0.3941  0.1720  0.6824
 4366TIP3    H113104   4.600   3.346   5.000 -1.3136 -0.6689  0.2108
 4366TIP3    H213105   4.576   3.260   5.123 -3.1880 -1.0211 -0.3597
 4367TIP3   OH213106   4.102   5.358   4.862  0.2839 -0.3806 -0.0417
 4367TIP3    H113107   4.162   5.409   4.916 -2.2483  1.8209  0.9087
 4367TIP3    H213108   4.143   5.355   4.776  0.9505  2.6256  0.0924
 4368TIP3   OH213109   2.014   4.001   3.046 -0.0420 -0.0526 -0.2950
 4368TIP3    H113110   2.014   4.058   3.123 -0.2409 -0.6830  0.1833
 4368TIP3    H213111   2.070   3.927   3.071 -2.0042 -1.4497  0.1679
 4369TIP3   OH213112   3.315   3.726   3.453  0.0576 -0.0336 -0.3362
 4369TIP3    H113113   3.401   3.755   3.484 -0.0179 -0.4524  0.2782
 4369TIP3    H213114   3.333   3.640   3.413 -0.3689 -1.0489  1.5492
 4370TIP3   OH213115   4.282   3.401   5.198  0.0958 -0.2681 -0.1041
 4370TIP3    H113116   4.190   3.423   5.187  0.4533  1.5764  0.3738
 4370TIP3    H213117   4.305   3.354   5.117 -1.0996 -0.2650 -0.4664
 4371TIP3   OH213118   6.070   5.401   3.234 -0.2069  0.2896 -0.2739
 4371TIP3    H113119   6.005   5.469   3.251 -0.3038  0.0624  0.2643
 4371TIP3    H213120   6.018   5.324   3.208 -0.0603  0.6734 -1.8008
 4372TIP3   OH213121   5.117   1.398   4.440 -0.0497  0.2343 -0.2446
 4372TIP3    H113122   5.090   1.306   4.442 -0.3016  0.3009 -0.5861
 4372TIP3    H213123   5.088   1.433   4.524 -0.6123  0.1893 -0.4161
 4373TIP3   OH213124   6.144   2.369   2.896  0.2445 -0.7875  0.2799
 4373TIP3    H113125   6.084   2.353   2.823 -0.1571 -0.6568  0.5718
 4373TIP3    H213126   6.142   2.464   2.908  0.5811 -0.7740  0.2352
 4374TIP3   OH213127   0.747   3.948   0.390 -0.2869 -0.2205  0.0644
 4374TIP3    H113128   0.837   3.960   0.359 -0.7414 -1.8262 -2.0740
 4374TIP3    H213129   0.747   3.862   0.432 -1.2843 -1.3106 -2.0439
 4375TIP3   OH213130   1.209   0.064   1.575 -0.4539  0.5158  0.3482
 4375TIP3    H113131   1.114   0.069   1.586 -0.3018  0.7288  1.8042
 4375TIP3    H213132   1.235   0.153   1.552 -0.4878  0.7510  1.1825
 4376TIP3   OH213133   5.701   4.146   1.458  0.7594  0.0043  0.0398
 4376TIP3    H113134   5.682   4.216   1.520  1.2337  0.8354 -0.7146
 4376TIP3    H213135   5.796   4.145   1.452  0.7002  0.7803 -1.5671
 4377TIP3   OH213136   3.457   3.236   3.892  0.0509 -0.3957  0.1142
 4377TIP3    H113137   3.393   3.215   3.823 -0.2641 -0.3654  0.3970
 4377TIP3    H213138   3.425   3.317   3.931  0.0485 -0.5903  0.5164
 4378TIP3   OH213139   1.946   2.877   3.963 -0.2045  0.4721 -0.5813
 4378TIP3    H113140   1.958   2.925   3.881  0.9937  0.1857 -0.5928
 4378TIP3    H213141   2.014   2.810   3.962 -0.7707 -0.1324  0.2214
 4379TIP3   OH213142   0.415   2.703   3.625  0.3789  0.1314 -0.0958
 4379TIP3    H113143   0.343   2.642   3.641  0.2539  0.1180 -0.7078
 4379TIP3    H213144   0.489   2.647   3.601  0.4348  0.1832 -0.0450
 4380TIP3   OH213145   5.616   0.994   4.526 -0.7732  0.2763  0.0276
 4380TIP3    H113146   5.579   1.018   4.441  1.4775 -0.5926 -1.2808
 4380TIP3    H213147   5.628   0.899   4.521  1.2192  0.4653  0.5011
 4381TIP3   OH213148   4.683   3.427   1.977  0.1462  0.2472 -0.8647
 4381TIP3    H113149   4.618   3.414   2.046  0.5569  1.0555 -0.3192
 4381TIP3    H213150   4.631   3.458   1.902 -0.3170 -0.7690 -0.9736
 4382TIP3   OH213151   2.735   0.758   4.598 -0.1597 -0.5874 -0.1437
 4382TIP3    H113152   2.737   0.853   4.612 -0.4288 -0.2338 -2.1604
 4382TIP3    H213153   2.802   0.742   4.531 -1.2149 -1.5735 -1.0033
 4383TIP3   OH213154   3.496   4.891   0.807 -0.3572  0.5081 -0.3688
 4383TIP3    H113155   3.400   4.898   0.807 -0.3421  0.7462  0.2142
 4383TIP3    H213156   3.521   4.899   0.899  0.1087 -1.1512 -0.3062
 4384TIP3   OH213157   3.665   4.288   1.679 -0.0014  0.1734 -0.6083
 4384TIP3    H113158   3.603   4.355   1.710 -0.0417 -0.2707  0.2962
 4384TIP3    H213159   3.735   4.338   1.638 -1.1125  0.6768 -1.9745
 4385TIP3   OH213160   5.623   5.299   1.692 -0.0181 -0.2284  0.6595
 4385TIP3    H113161   5.636   5.385   1.652  0.6250 -0.6081  0.0399
 4385TIP3    H213162   5.538   5.270   1.659  0.6277 -0.6552 -0.6748
 4386TIP3   OH213163   2.609   5.690   1.393 -0.2027  0.7229 -0.3083
 4386TIP3    H113164   2.567   5.776   1.381 -1.2772  0.1575 -0.7282
 4386TIP3    H213165   2.582   5.662   1.480 -2.1484 -0.3720 -1.1878
 4387TIP3   OH213166   6.188   1.666   3.362  0.2348  0.6698 -0.7178
 4387TIP3    H113167   6.101   1.626   3.362 -0.5022  2.1571  0.2295
 4387TIP3    H213168   6.249   1.593   3.355 -1.0094 -0.7175  1.8188
 4388TIP3   OH213169   1.247   3.491   0.013  0.4477  0.1349  0.4768
 4388TIP3    H113170   1.210   3.559  -0.042 -0.2183 -1.2444 -0.8623
 4388TIP3    H213171   1.172   3.439   0.041  1.1183 -1.5634 -0.6779
 4389TIP3   OH213172   0.858   3.992   4.387  0.1645 -0.0248 -0.1459
 4389TIP3    H113173   0.877   4.059   4.453 -0.3707  0.5847 -0.5962
 4389TIP3    H213174   0.809   3.925   4.434 -1.2087  0.9419 -0.1464
 4390TIP3   OH213175   6.239   5.887   3.979 -0.4292 -0.0692 -0.5136
 4390TIP3    H113176   6.265   5.966   3.932  0.1116  0.7029  0.9990
 4390TIP3    H213177   6.271   5.815   3.926  1.0926  0.7935 -0.8067
 4391TIP3   OH213178   5.035   1.346   3.421 -0.1739 -0.4249 -0.1569
 4391TIP3    H113179   5.002   1.434   3.439  0.9707 -0.1922  0.9025
 4391TIP3    H213180   5.115   1.361   3.370 -1.7576 -0.9877 -3.0058
 4392TIP3   OH213181   0.879   5.052   2.830  0.0941 -0.0224 -0.2988
 4392TIP3    H113182   0.945   5.108   2.789 -0.3708 -0.1059 -1.1910
 4392TIP3    H213183   0.923   4.969   2.843  0.4380  0.1973 -0.0417
 4393TIP3   OH213184   3.306   3.870   4.503  0.7168 -0.2760  0.2725
 4393TIP3    H113185   3.381   3.831   4.548 -0.5183 -0.6752  2.0952
 4393TIP3    H213186   3.312   3.963   4.522  0.7288 -0.3131  0.4502
 4394TIP3   OH213187   4.652   3.516   2.298  0.3482 -0.6074  0.3737
 4394TIP3    H113188   4.701   3.435   2.312  0.1109 -1.1419 -1.6154
 4394TIP3    H213189   4.720   3.581   2.279  0.5086 -0.4045  1.5484
 4395TIP3   OH213190   1.168   5.680   0.648  0.6352 -0.2315 -0.3485
 4395TIP3    H113191   1.220   5.694   0.569  0.2148  0.4603 -0.5065
 4395TIP3    H213192   1.229   5.641   0.710  1.2810  0.3144 -0.6265
 4396TIP3   OH213193   4.504   1.379   1.467 -0.3270 -0.0027  0.4186
 4396TIP3    H113194   4.409   1.388   1.459 -0.4979 -1.5336  0.4622
 4396TIP3    H213195   4.538   1.409   1.382 -0.9204 -0.3439  0.0516
 4397TIP3   OH213196   0.359   2.828   0.891 -0.3795 -0.3209  0.3188
 4397TIP3    H113197   0.351   2.886   0.966  1.5509  0.9475 -0.3672
 4397TIP3    H213198   0.282   2.772   0.895 -0.6057  0.0591  2.9054
 4398TIP3   OH213199   3.609   3.843   3.847  0.0879  0.2352  0.4618
 4398TIP3    H113200   3.596   3.918   3.788  0.2713 -0.2565 -0.2125
 4398TIP3    H213201   3.702   3.846   3.869  0.7308 -1.3234 -1.7145
 4399TIP3   OH213202   1.398   4.707   3.313  0.1015 -0.1071 -0.4706
 4399TIP3    H113203   1.440   4.782   3.355  2.0478 -1.5607  0.2914
 4399TIP3    H213204   1.326   4.746   3.263  0.9240  2.2466  0.0273
 4400TIP3   OH213205   5.962   3.466   3.613  0.0853  0.2917  0.4070
 4400TIP3    H113206   5.921   3.531   3.555 -0.5163 -0.0884  0.4059
 4400TIP3    H213207   6.041   3.510   3.645 -0.4728  1.1444  0.6440
 4401TIP3   OH213208   0.248   1.492   4.967 -1.0588 -0.2723 -0.4930
 4401TIP3    H113209   0.241   1.580   4.930 -2.9589 -1.1865 -2.5703
 4401TIP3    H213210   0.190   1.493   5.043 -0.4294  0.4926 -0.0208
 4402TIP3   OH213211   4.348   2.770   2.079 -0.2888 -0.3521 -0.3686
 4402TIP3    H113212   4.438   2.787   2.050 -0.0820  1.0992  1.0372
 4402TIP3    H213213   4.350   2.681   2.114  0.7262 -0.1519  0.0961
 4403TIP3   OH213214   4.907   1.895   3.327  0.0187  0.0211 -0.3796
 4403TIP3    H113215   4.958   1.823   3.291  1.5313  0.7349  0.2270
 4403TIP3    H213216   4.940   1.973   3.282  0.2505  0.6312  0.7794
 4404TIP3   OH213217   1.489   2.162   3.763 -0.7693 -0.3201  0.4766
 4404TIP3    H113218   1.511   2.070   3.744 -0.6677 -0.0182 -1.0059
 4404TIP3    H213219   1.563   2.212   3.729 -2.2466  0.5055 -1.8128
 4405TIP3   OH213220   0.579   2.297   3.389  0.4101  0.3811  0.2744
 4405TIP3    H113221   0.569   2.250   3.471 -1.8437 -1.5005 -0.9607
 4405TIP3    H213222   0.583   2.229   3.322 -1.0535  1.8504 -1.4302
 4406TIP3   OH213223   0.229   5.083   0.746 -0.2719 -0.4057  0.4495
 4406TIP3    H113224   0.317   5.057   0.772 -0.4828 -0.7860  0.8024
 4406TIP3    H213225   0.172   5.049   0.816 -0.3855  2.9537  2.2277
 4407TIP3   OH213226   5.344   1.657   1.779 -0.2260 -0.7870  0.3665
 4407TIP3    H113227   5.360   1.570   1.742 -0.2146 -0.3195 -0.7677
 4407TIP3    H213228   5.425   1.706   1.761 -1.0053  0.0816 -0.9155
 4408TIP3   OH213229   5.823   0.279   4.205 -0.7399  0.2534 -0.5411
 4408TIP3    H113230   5.903   0.260   4.156 -0.5380  0.7672 -0.4151
 4408TIP3    H213231   5.754   0.283   4.138 -1.0209 -2.0755 -0.4674
 4409TIP3   OH213232   5.321   4.753   1.143 -0.3495  0.3616  0.0132
 4409TIP3    H113233   5.337   4.817   1.074 -1.7977 -0.6851 -1.3621
 4409TIP3    H213234   5.404   4.708   1.153 -0.0572  0.6591 -0.9310
 4410TIP3   OH213235   0.770   4.396   2.682 -0.2552  0.1753  0.4477
 4410TIP3    H113236   0.768   4.387   2.777  0.0555  0.5833  0.4970
 4410TIP3    H213237   0.838   4.461   2.666 -1.6911  1.6288  0.0580
 4411TIP3   OH213238   4.179   3.367   2.346  0.1612  0.4975  0.7902
 4411TIP3    H113239   4.264   3.409   2.361  1.0583 -0.0706 -2.0892
 4411TIP3    H213240   4.117   3.439   2.337  0.6878  0.9846  1.0282
 4412TIP3   OH213241   4.024   1.465   2.895  0.2072  0.2272  0.9863
 4412TIP3    H113242   3.946   1.409   2.888  0.6016 -0.1525 -1.0063
 4412TIP3    H213243   4.097   1.404   2.884  0.6376  1.1155 -2.1699
 4413TIP3   OH213244   4.213   3.597   4.120 -0.1772 -0.0521  0.7902
 4413TIP3    H113245   4.282   3.632   4.177  0.0125 -0.0108  0.5364
 4413TIP3    H213246   4.243   3.508   4.099  0.3782  0.3714 -0.2636
 4414TIP3   OH213247   4.520   4.076   4.916 -0.1294  0.1226 -0.0995
 4414TIP3    H113248   4.450   4.097   4.977 -0.0005 -0.2507  0.1836
 4414TIP3    H213249   4.491   4.113   4.832 -0.0783  1.0743  0.2882
 4415TIP3   OH213250   1.849   3.520   0.111 -0.3437 -0.1026  0.2285
 4415TIP3    H113251   1.758   3.497   0.093 -0.7836  1.4484  0.3557
 4415TIP3    H213252   1.849   3.546   0.203  0.0996  0.5005  0.0611
 4416TIP3   OH213253   2.111   4.168   3.258  0.0204 -0.3940  0.7999
 4416TIP3    H113254   2.102   4.089   3.312 -0.1650 -2.0583 -1.5329
 4416TIP3    H213255   2.206   4.183   3.254  0.0213  0.0137  1.8759
 4417TIP3   OH213256   5.597   2.568   5.157  0.0333 -0.2857  0.1840
 4417TIP3    H113257   5.608   2.473   5.153 -0.5142 -0.3174 -0.7231
 4417TIP3    H213258   5.551   2.583   5.240 -0.3654 -0.8623  0.0731
 4418TIP3   OH213259   0.470   2.242   0.086 -0.5406  0.2346 -0.4053
 4418TIP3    H113260   0.376   2.236   0.104 -0.7285 -0.0803 -1.4069
 4418TIP3    H213261   0.483   2.183   0.012  0.5859 -0.3169  0.2154
 4419TIP3   OH213262   2.954   4.605   4.658  0.1705  0.1699 -0.1145
 4419TIP3    H113263   2.881   4.548   4.636  1.0862 -0.3589 -1.9856
 4419TIP3    H213264   2.947   4.678   4.596  0.9062  0.4107  0.0712
 4420TIP3   OH213265   2.243   3.958   4.464 -0.4571  1.0294  0.2237
 4420TIP3    H113266   2.187   3.913   4.401  1.3577 -0.6518 -0.3051
 4420TIP3    H213267   2.191   3.965   4.544 -1.8119  0.6472 -0.6024
 4421TIP3   OH213268   3.508   4.912   4.309  0.0616 -0.2695 -0.1544
 4421TIP3    H113269   3.559   4.967   4.369 -0.4713  0.3986 -0.3053
 4421TIP3    H213270   3.417   4.925   4.336 -0.5064  2.2116 -2.7787
 4422TIP3   OH213271   4.272   0.240   4.759 -0.1083  0.5692 -0.8416
 4422TIP3    H113272   4.201   0.202   4.707 -1.8311  1.5059  0.6912
 4422TIP3    H213273   4.258   0.335   4.754  0.2513  0.7235  0.4957
 4423TIP3   OH213274   5.614   3.784   1.294 -0.0537 -0.6572 -0.9998
 4423TIP3    H113275   5.665   3.706   1.274 -1.0304 -1.6756  0.3233
 4423TIP3    H213276   5.528   3.751   1.321 -0.3868  0.8460 -0.1088
 4424TIP3   OH213277   0.868   0.228   2.884 -0.0915  0.0243  0.1496
 4424TIP3    H113278   0.830   0.258   2.966 -0.9187 -0.4490 -0.0400
 4424TIP3    H213279   0.795   0.186   2.838  0.8262 -1.5366  0.0632
 4425TIP3   OH213280   0.704   5.717   2.402 -0.5385 -0.1672 -0.4134
 4425TIP3    H113281   0.660   5.761   2.330 -1.3692  0.0685  0.2187
 4425TIP3    H213282   0.655   5.743   2.480  0.6930  0.0463  0.3152
 4426TIP3   OH213283   0.652   1.178   4.739  0.2461  0.3847 -0.0272
 4426TIP3    H113284   0.748   1.174   4.740  0.2466  0.3864  0.3266
 4426TIP3    H213285   0.624   1.089   4.763  0.1408  0.0228 -1.4522
 4427TIP3   OH213286   3.940   3.173   2.892 -0.3888 -0.1597  0.4694
 4427TIP3    H113287   3.985   3.135   2.967 -0.4174  0.4444  0.7968
 4427TIP3    H213288   3.982   3.258   2.878 -0.9354  0.0982  0.3327
 4428TIP3   OH213289   4.230   4.562   4.358  0.6586  0.4801  0.2266
 4428TIP3    H113290   4.143   4.585   4.327 -0.2115 -1.8350  0.7431
 4428TIP3    H213291   4.278   4.645   4.359 -1.1908  1.6417 -1.0877
 4429TIP3   OH213292   0.241   1.499   1.207  0.0937  0.4542 -0.3640
 4429TIP3    H113293   0.249   1.573   1.147 -0.2405  0.1856 -0.7432
 4429TIP3    H213294   0.262   1.535   1.293 -0.4428  1.0728 -0.4882
 4430TIP3   OH213295   5.405   5.762   2.218  0.3510  0.2583 -0.7195
 4430TIP3    H113296   5.374   5.847   2.246  1.4538  0.6531 -0.6396
 4430TIP3    H213297   5.370   5.700   2.282  3.0999  1.1645  1.8904
 4431TIP3   OH213298   4.917   2.944   4.545  0.1345 -0.7025  0.0042
 4431TIP3    H113299   4.959   3.011   4.491 -1.3567  1.0663  0.9029
 4431TIP3    H213300   4.843   2.990   4.586 -0.1565 -2.5699  1.7224
 4432TIP3   OH213301   0.218   2.121   0.103  0.1915 -0.8495  0.0102
 4432TIP3    H113302   0.236   2.072   0.183  2.4226  0.5313  0.4670
 4432TIP3    H213303   0.254   2.067   0.033 -0.1278 -1.2480  0.1543
 4433TIP3   OH213304   2.033   3.418   1.263  0.1219 -0.0822  0.4839
 4433TIP3    H113305   2.047   3.382   1.175 -2.3821  0.4064 -0.2031
 4433TIP3    H213306   2.035   3.513   1.251 -1.7215  0.0098  0.6117
 4434TIP3   OH213307   1.807   4.839   2.502  0.6352 -0.3208  0.0072
 4434TIP3    H113308   1.811   4.927   2.541  0.4778 -1.0367  1.7098
 4434TIP3    H213309   1.890   4.831   2.455  1.2049  0.2952  0.8660
 4435TIP3   OH213310   4.960   3.478   0.224 -0.3183  0.4559  0.0875
 4435TIP3    H113311   4.877   3.431   0.217 -0.7799  1.4636 -2.6676
 4435TIP3    H213312   5.007   3.456   0.144 -0.2187  3.8889 -0.9703
 4436TIP3   OH213313   3.354   4.674   3.667 -0.1978  0.0578  0.4742
 4436TIP3    H113314   3.393   4.759   3.685  1.4373 -0.3264 -0.9640
 4436TIP3    H213315   3.402   4.612   3.722  0.7670 -0.3144 -0.7417
 4437TIP3   OH213316   1.561   2.163   0.764  0.3596  0.5309 -0.0186
 4437TIP3    H113317   1.599   2.224   0.700  1.7348  0.8867  1.0753
 4437TIP3    H213318   1.587   2.077   0.734  0.4046  0.6513 -0.3238
 4438TIP3   OH213319   4.764   0.168   2.625  0.2944 -0.5033  0.0445
 4438TIP3    H113320   4.766   0.157   2.530  1.8937 -1.7412  0.1749
 4438TIP3    H213321   4.766   0.263   2.638  1.6957 -0.3298 -1.1839
 4439TIP3   OH213322   5.918   0.591   2.257 -0.2085  0.0650 -0.0793
 4439TIP3    H113323   5.832   0.583   2.299  0.2997 -1.7229  0.6867
 4439TIP3    H213324   5.899   0.592   2.163 -1.1101  0.5045  0.0966
 4440TIP3   OH213325   5.652   3.907   0.181  0.3500  0.3467  0.1604
 4440TIP3    H113326   5.617   3.930   0.095 -0.1181  0.7911  0.4626
 4440TIP3    H213327   5.599   3.832   0.210  2.6226 -2.0409 -1.3289
 4441TIP3   OH213328   0.699   1.383   3.669 -0.0513  0.3202 -0.0999
 4441TIP3    H113329   0.787   1.364   3.637 -0.8063 -1.1826 -1.3968
 4441TIP3    H213330   0.712   1.451   3.735  2.1513 -0.4283  0.3114
 4442TIP3   OH213331   2.131   5.425   0.688  0.4432 -0.5244 -0.2459
 4442TIP3    H113332   2.070   5.494   0.714  0.0786 -0.9761  0.0868
 4442TIP3    H213333   2.107   5.404   0.598  0.3640 -0.4263 -0.2470
 4443TIP3   OH213334   4.585   5.246   2.554 -1.0069 -0.2451  0.0522
 4443TIP3    H113335   4.619   5.204   2.475 -1.1308  0.2562 -0.2734
 4443TIP3    H213336   4.630   5.331   2.556  1.4703 -1.4673  2.2666
 4444TIP3   OH213337   2.655   1.823   4.410 -0.0810 -0.0215  0.6024
 4444TIP3    H113338   2.676   1.735   4.440  1.3521  0.0507 -0.1105
 4444TIP3    H213339   2.585   1.812   4.346  0.4281 -0.6947  0.1575
 4445TIP3   OH213340   5.570   1.126   1.515  0.0217 -0.6345 -0.1244
 4445TIP3    H113341   5.616   1.110   1.433  2.0349  1.8330  0.3975
 4445TIP3    H213342   5.486   1.081   1.505 -0.7287  1.3130 -4.4093
 4446TIP3   OH213343   1.497   2.208   0.305 -0.0624 -0.3876 -0.0201
 4446TIP3    H113344   1.489   2.113   0.308 -3.0810 -0.2458  3.2577
 4446TIP3    H213345   1.433   2.235   0.239 -0.2689 -0.6170  0.0827
 4447TIP3   OH213346   4.310   3.942   1.652 -0.4070  0.6300  0.5066
 4447TIP3    H113347   4.221   3.910   1.661  0.3943 -1.7659  0.5259
 4447TIP3    H213348   4.333   3.973   1.740 -0.3867 -1.1306  1.1554
 4448TIP3   OH213349   5.008   4.420   1.925  0.5864 -0.1252 -0.3178
 4448TIP3    H113350   4.921   4.445   1.956  0.9029 -0.7781  1.1891
 4448TIP3    H213351   5.036   4.350   1.984  3.2737  1.9375  1.1544
 4449TIP3   OH213352   4.751   3.056   3.983 -0.7993  0.5778  0.1173
 4449TIP3    H113353   4.704   3.103   3.914 -2.0517 -0.3288  0.3141
 4449TIP3    H213354   4.787   2.979   3.939  1.6652  1.8657 -0.3145
 4450TIP3   OH213355   1.541   1.511   2.236  0.3066 -0.2096 -0.0024
 4450TIP3    H113356   1.481   1.563   2.289 -0.0340 -1.6801  1.1110
 4450TIP3    H213357   1.490   1.486   2.159  0.1529  0.2830 -0.0597
 4451TIP3   OH213358   3.007   2.277   1.981  0.1351 -0.1665  0.7250
 4451TIP3    H113359   3.008   2.278   2.077  1.7156  1.2493  0.7402
 4451TIP3    H213360   3.060   2.353   1.955  0.7954 -1.2182 -1.2585
 4452TIP3   OH213361   5.657   3.979   4.616  0.4030  0.4948 -0.4242
 4452TIP3    H113362   5.613   4.062   4.633  0.1303  0.3693 -0.5028
 4452TIP3    H213363   5.712   3.964   4.693  0.9051  1.0341 -0.6745
 4453TIP3   OH213364   3.560   5.797   0.686 -0.0659  0.5007  0.2235
 4453TIP3    H113365   3.625   5.856   0.647 -0.4326  0.5209 -0.3751
 4453TIP3    H213366   3.479   5.848   0.687 -0.2431  0.2183  0.2703
 4454TIP3   OH213367   5.508   3.909   3.528  0.2257  0.1386 -0.0765
 4454TIP3    H113368   5.522   3.943   3.616 -0.6522 -0.3865  0.2698
 4454TIP3    H213369   5.442   3.967   3.489  0.8784  0.5977 -0.5399
 4455TIP3   OH213370   2.782   5.772   0.162  0.1419 -0.4185  0.3099
 4455TIP3    H113371   2.758   5.859   0.193  0.6505 -0.1800  0.0401
 4455TIP3    H213372   2.701   5.721   0.170 -0.5108  0.3955 -0.7324
 4456TIP3   OH213373   5.535   2.843   4.542 -0.2422  0.3627  0.2788
 4456TIP3    H113374   5.509   2.827   4.633  4.5288  1.3847  2.0920
 4456TIP3    H213375   5.557   2.756   4.508 -0.7625  0.1212  0.5433
 4457TIP3   OH213376   4.560   0.435   0.533 -0.1178 -0.2315 -0.0550
 4457TIP3    H113377   4.559   0.466   0.624 -0.3104 -2.3532  0.7158
 4457TIP3    H213378   4.588   0.344   0.539  0.7798 -0.1740 -2.2402
 4458TIP3   OH213379   3.895   3.787   2.534 -0.1348  0.2851  0.2081
 4458TIP3    H113380   3.844   3.732   2.594 -0.6842 -1.9084 -2.0625
 4458TIP3    H213381   3.982   3.747   2.532 -0.3811 -0.2611 -1.0569
 4459TIP3   OH213382   3.554   3.768   1.349 -0.1039 -0.1039 -0.5110
 4459TIP3    H113383   3.621   3.832   1.328 -1.4463  0.8336 -2.1708
 4459TIP3    H213384   3.498   3.811   1.414  0.4092 -0.5838  0.2709
 4460TIP3   OH213385   1.037   3.428   3.445  0.1304  0.2035  0.1213
 4460TIP3    H113386   1.029   3.517   3.411 -1.7292  0.2818  0.6763
 4460TIP3    H213387   0.960   3.415   3.500  1.1215 -1.2418  1.2750
 4461TIP3   OH213388   1.177   0.777   4.119 -0.0523  0.0565  0.4110
 4461TIP3    H113389   1.246   0.805   4.179 -1.4891 -1.3690  2.9224
 4461TIP3    H213390   1.100   0.830   4.144 -0.9964 -1.4011  0.7594
 4462TIP3   OH213391   4.601   2.655   4.997 -0.1356  0.0873 -0.0591
 4462TIP3    H113392   4.672   2.695   5.046 -1.4010  0.8577  1.2399
 4462TIP3    H213393   4.563   2.727   4.946 -0.3835 -0.1732 -0.2492
 4463TIP3   OH213394   5.872   1.555   0.500  0.1488  0.4367 -0.4478
 4463TIP3    H113395   5.927   1.558   0.421  1.1477 -0.1896  0.2032
 4463TIP3    H213396   5.925   1.507   0.564 -1.1434 -0.1363  0.2235
 4464TIP3   OH213397   4.171   2.899   1.867 -0.1531  0.4790 -0.1620
 4464TIP3    H113398   4.234   2.872   1.934  0.3094  0.5043 -0.5865
 4464TIP3    H213399   4.121   2.819   1.848  1.3101 -0.1538 -1.5274
 4465TIP3   OH213400   3.908   0.196   1.426 -0.6835  0.2418 -0.2674
 4465TIP3    H113401   3.849   0.225   1.356 -1.9367  0.4718  0.8265
 4465TIP3    H213402   3.941   0.277   1.464  2.4863  0.1536 -2.4861
 4466TIP3   OH213403   3.004   5.109   1.833 -0.4833 -0.9135 -0.9420
 4466TIP3    H113404   3.045   5.195   1.836  0.3714 -1.3536  0.4223
 4466TIP3    H213405   2.916   5.123   1.869 -0.4197 -0.5834 -0.9166
 4467TIP3   OH213406   2.284   3.436   5.160  0.2208 -0.6527 -0.7676
 4467TIP3    H113407   2.198   3.415   5.125  1.2232 -2.8973 -2.0212
 4467TIP3    H213408   2.304   3.522   5.123 -0.5192 -1.1118 -2.2980
 4468TIP3   OH213409   4.766   3.681   4.971 -0.0247  0.0923 -0.6182
 4468TIP3    H113410   4.707   3.683   4.895  0.5198  1.9101 -1.0329
 4468TIP3    H213411   4.781   3.587   4.987 -0.4676 -0.3446 -2.5017
 4469TIP3   OH213412   0.096   0.388   2.088  0.1453 -0.4577 -0.2114
 4469TIP3    H113413   0.129   0.321   2.029 -2.2677 -1.2704 -0.7587
 4469TIP3    H213414   0.085   0.466   2.033 -0.4664 -0.7000 -0.4359
 4470TIP3   OH213415   5.440   5.980   0.025 -0.3194  0.0406 -0.0861
 4470TIP3    H113416   5.511   6.034  -0.007  0.3552 -1.8414 -2.0277
 4470TIP3    H213417   5.483   5.908   0.071 -1.0336 -0.2352  0.1661
 4471TIP3   OH213418   4.011   1.640   1.174 -0.0371  0.2898 -0.0031
 4471TIP3    H113419   3.993   1.661   1.082  0.5240 -2.0507 -0.7069
 4471TIP3    H213420   4.091   1.689   1.195 -0.0517  0.6816 -0.8222
 4472TIP3   OH213421   5.678   2.309   4.461  0.3196  0.1877 -0.1696
 4472TIP3    H113422   5.641   2.240   4.517 -0.6646  0.3750 -0.5624
 4472TIP3    H213423   5.747   2.266   4.412 -1.2956 -0.9684 -1.5582
 4473TIP3   OH213424   1.292   0.875   2.629 -0.1114  0.4266 -0.4854
 4473TIP3    H113425   1.334   0.887   2.714  0.7743 -1.0782 -0.6730
 4473TIP3    H213426   1.214   0.823   2.648  0.4959 -0.5768 -0.6583
 4474TIP3   OH213427   4.508   4.488   0.487  0.1969 -0.2657 -0.2695
 4474TIP3    H113428   4.517   4.548   0.560 -0.2252 -0.1068 -0.3430
 4474TIP3    H213429   4.539   4.404   0.521 -0.6694 -0.3641  0.3263
 4475TIP3   OH213430   0.576   0.089   0.098 -0.3252  0.1124  0.4796
 4475TIP3    H113431   0.634   0.145   0.150 -0.1427 -0.0687  0.4754
 4475TIP3    H213432   0.516   0.150   0.055 -1.3195  0.1887  1.9001
 4476TIP3   OH213433   5.072   3.114   1.376 -0.1152 -0.1327 -1.0101
 4476TIP3    H113434   5.099   3.171   1.447  0.3943  0.1882 -1.4549
 4476TIP3    H213435   4.976   3.117   1.377 -0.1461 -0.9807  0.3401
 4477TIP3   OH213436   6.076   4.355   3.952 -0.0379  0.3785 -0.6881
 4477TIP3    H113437   6.155   4.316   3.991 -0.3946 -0.1928 -0.5190
 4477TIP3    H213438   6.098   4.366   3.859  0.8712  1.8902 -0.3282
 4478TIP3   OH213439   2.773   3.468   1.221 -0.7458 -0.2435 -0.2619
 4478TIP3    H113440   2.753   3.408   1.150 -0.5298  1.0039 -1.4102
 4478TIP3    H213441   2.687   3.498   1.252 -0.8635 -1.3291  0.5056
 4479TIP3   OH213442   3.892   4.529   1.530  0.4210  0.1697 -0.1318
 4479TIP3    H113443   3.858   4.493   1.448 -0.9096 -0.1081  0.5191
 4479TIP3    H213444   3.900   4.623   1.513  2.0609 -0.1210 -1.2015
 4480TIP3   OH213445   3.564   2.031   1.000  0.4396 -0.2743  0.3418
 4480TIP3    H113446   3.574   2.124   0.981  0.1801 -0.0650  1.2090
 4480TIP3    H213447   3.527   2.028   1.088  0.9475 -1.2059  0.5356
 4481TIP3   OH213448   5.232   0.196   0.547  0.2438  0.4273 -0.1544
 4481TIP3    H113449   5.311   0.209   0.599  0.3081  1.9539 -0.5660
 4481TIP3    H213450   5.264   0.165   0.462  0.4680  1.3824 -0.4401
 4482TIP3   OH213451   5.001   2.002   2.962  0.4497 -0.4558  0.2819
 4482TIP3    H113452   4.924   1.946   2.966  0.8005 -1.0361 -0.6814
 4482TIP3    H213453   4.978   2.070   2.899 -0.4044  1.2181  2.2805
 4483TIP3   OH213454   3.973   4.223   4.429  0.1531  0.1272  0.2003
 4483TIP3    H113455   3.902   4.166   4.459 -0.7035  0.5540 -0.9490
 4483TIP3    H213456   4.045   4.206   4.490 -1.1223  0.1305  1.7624
 4484TIP3   OH213457   4.708   4.759   3.756  0.0978  0.6867  0.4350
 4484TIP3    H113458   4.747   4.673   3.772  0.8165  0.9358  0.0680
 4484TIP3    H213459   4.641   4.769   3.824  0.5864  0.1885  0.9899
 4485TIP3   OH213460   2.314   4.602   2.824  0.3604  0.0850  0.1981
 4485TIP3    H113461   2.392   4.626   2.874 -0.3205 -1.1002  1.9473
 4485TIP3    H213462   2.260   4.681   2.824  0.6934  0.3146  0.7233
 4486TIP3   OH213463   1.885   4.586   4.413 -0.2595  0.9524  0.5139
 4486TIP3    H113464   1.965   4.558   4.368 -0.8542 -1.5483  0.9067
 4486TIP3    H213465   1.817   4.579   4.346 -0.5334  0.7992  0.8079
 4487TIP3   OH213466   4.001   0.239   0.690 -0.6866  0.5310  0.5569
 4487TIP3    H113467   4.010   0.160   0.637 -0.0477 -0.0823  1.5560
 4487TIP3    H213468   4.058   0.225   0.765 -0.1035  2.1930  0.4801
 4488TIP3   OH213469   0.388   4.403   4.025  0.4890  0.0173  0.5268
 4488TIP3    H113470   0.423   4.316   4.002 -0.7807 -0.3456 -0.1449
 4488TIP3    H213471   0.437   4.429   4.102  1.3712 -1.0069  0.3337
 4489TIP3   OH213472   1.978   2.964   0.605 -0.0872 -0.4730  0.0893
 4489TIP3    H113473   1.888   2.967   0.637 -0.6351  2.0470 -1.4060
 4489TIP3    H213474   1.972   2.921   0.520 -0.2814  1.4420 -0.9220
 4490TIP3   OH213475   1.558   3.484   1.524 -0.5458 -0.2929 -0.4634
 4490TIP3    H113476   1.482   3.532   1.555 -1.0753 -1.7521  0.5735
 4490TIP3    H213477   1.522   3.414   1.470  0.2131  0.4130 -1.9461
 4491TIP3   OH213478   5.593   3.183   0.794 -0.6651 -0.2185  0.2715
 4491TIP3    H113479   5.599   3.271   0.755 -0.3433  0.3102  1.4602
 4491TIP3    H213480   5.513   3.186   0.846 -0.5756 -0.5804  0.4269
 4492TIP3   OH213481   4.907   5.309   4.964  0.0452 -0.3685 -0.4677
 4492TIP3    H113482   4.968   5.241   4.992 -4.1777 -5.5976 -2.2967
 4492TIP3    H213483   4.852   5.325   5.041  1.2901  1.5221  0.0894
 4493TIP3   OH213484   0.499   4.050   0.741 -0.0190  0.0379 -0.1615
 4493TIP3    H113485   0.486   4.112   0.813  0.6976  0.5630 -0.4651
 4493TIP3    H213486   0.576   4.083   0.696  0.7248 -1.4274  0.0071
 4494TIP3   OH213487   1.209   0.764   0.081  0.1241  0.3236 -0.2354
 4494TIP3    H113488   1.290   0.730   0.044 -0.7037 -0.3030 -1.5889
 4494TIP3    H213489   1.212   0.858   0.063  1.1413  0.5372  0.9581
 4495TIP3   OH213490   5.859   1.113   2.354 -0.3928 -0.1409  0.3547
 4495TIP3    H113491   5.880   1.124   2.262  0.9595 -0.5962  0.5823
 4495TIP3    H213492   5.917   1.175   2.400 -0.3907 -0.5617  0.9382
 4496TIP3   OH213493   4.760   2.804   3.861  0.2129 -0.4378 -0.1888
 4496TIP3    H113494   4.665   2.799   3.848 -0.5291 -0.0864  3.8230
 4496TIP3    H213495   4.790   2.714   3.851 -0.3039 -0.4324 -2.3498
 4497TIP3   OH213496   5.182   0.046   3.109 -0.2288 -0.4884 -0.2068
 4497TIP3    H113497   5.136   0.036   3.192  0.2619 -1.7014 -0.0528
 4497TIP3    H213498   5.120   0.016   3.043  0.3635 -2.3437  0.0218
 4498TIP3   OH213499   2.719   3.708   2.424 -0.7036  0.0899  0.0073
 4498TIP3    H113500   2.724   3.643   2.494 -2.5725 -0.9773 -0.7606
 4498TIP3    H213501   2.671   3.663   2.354  0.2416  1.4508 -1.5862
 4499TIP3   OH213502   5.954   0.256   0.165  0.7480 -0.2512  0.0198
 4499TIP3    H113503   5.868   0.254   0.207  0.7883 -2.1252  0.1130
 4499TIP3    H213504   5.938   0.231   0.075  1.1030  0.2204 -0.1801
 4500TIP3   OH213505   0.153   4.221   2.296 -0.1438  0.3890  0.0754
 4500TIP3    H113506   0.133   4.227   2.389  0.2740 -0.2777  0.2167
 4500TIP3    H213507   0.068   4.221   2.252 -0.5105 -2.0591  0.6348
 4501TIP3   OH213508   0.629   0.707   1.914  0.7153 -0.2215 -0.1619
 4501TIP3    H113509   0.569   0.703   1.840 -0.8492  1.9520  0.8723
 4501TIP3    H213510   0.588   0.652   1.981  0.3446  0.4984  0.2152
 4502TIP3   OH213511   3.495   5.761   4.231  0.7557  0.1181 -0.5163
 4502TIP3    H113512   3.524   5.829   4.293  1.5365  0.7232 -1.5121
 4502TIP3    H213513   3.506   5.679   4.279 -0.4332  0.6771  0.8046
 4503TIP3   OH213514   2.215   0.753   3.660 -0.2055  0.2343 -0.1982
 4503TIP3    H113515   2.295   0.755   3.608 -0.5624 -1.0728 -0.8593
 4503TIP3    H213516   2.185   0.843   3.662 -0.7400  0.2358 -3.2093
 4504TIP3   OH213517   3.925   0.839   0.810 -0.2065  0.1832 -0.2096
 4504TIP3    H113518   3.880   0.754   0.809  1.4319 -0.7758  1.0761
 4504TIP3    H213519   3.979   0.839   0.732  0.3044 -0.2772  0.1365
 4505TIP3   OH213520   5.076   4.058   4.720  0.2985  0.4137 -0.2360
 4505TIP3    H113521   5.042   4.137   4.761 -0.7461 -0.8430  1.4606
 4505TIP3    H213522   5.122   4.013   4.790  0.3351 -0.7729 -0.9975
 4506TIP3   OH213523   2.967   3.048   2.787 -0.3307 -0.3871 -0.0180
 4506TIP3    H113524   2.884   3.007   2.812 -0.6163  0.2364  0.0579
 4506TIP3    H213525   2.977   3.122   2.847 -1.3635  1.5611 -2.0752
 4507TIP3   OH213526   1.619   2.996   5.167 -0.2732  0.0250 -0.5029
 4507TIP3    H113527   1.616   2.946   5.248 -0.4752  1.2280  0.2564
 4507TIP3    H213528   1.550   2.959   5.113 -0.9282 -0.0199  0.3469
 4508TIP3   OH213529   2.279   3.154   0.818  0.6054 -0.5719  0.7194
 4508TIP3    H113530   2.319   3.233   0.853 -0.3550  0.8345 -1.1167
 4508TIP3    H213531   2.215   3.187   0.754 -0.6996 -2.8136  0.7848
 4509TIP3   OH213532   4.043   2.329   0.239 -0.1865 -0.7207  0.4529
 4509TIP3    H113533   4.062   2.263   0.172 -0.9119 -1.3488  0.8485
 4509TIP3    H213534   3.971   2.380   0.202  0.8490  0.3306 -0.1613
 4510TIP3   OH213535   3.870   0.983   5.071 -0.2802  0.1489  0.4654
 4510TIP3    H113536   3.814   0.918   5.113 -1.8994  0.9977 -0.2942
 4510TIP3    H213537   3.952   0.936   5.053 -0.8797 -1.2472  1.2235
 4511TIP3   OH213538   3.695   0.509   0.414  0.7759  0.0119 -0.3853
 4511TIP3    H113539   3.665   0.601   0.413 -1.7062 -0.7173 -0.6811
 4511TIP3    H213540   3.701   0.487   0.507 -0.0745  0.0701 -0.3079
 4512TIP3   OH213541   0.255   2.253   2.873 -0.9275 -0.4884  0.2553
 4512TIP3    H113542   0.183   2.303   2.834 -0.4764 -1.5936 -2.1892
 4512TIP3    H213543   0.248   2.270   2.967 -2.0502  2.4180 -0.2574
 4513TIP3   OH213544   5.959   3.926   5.008  0.1726  0.0991 -0.0111
 4513TIP3    H113545   6.016   3.971   5.071 -0.0883 -0.6516  0.7831
 4513TIP3    H213546   5.871   3.938   5.043  0.1748 -1.8508  0.7805
 4514TIP3   OH213547   5.538   3.655   4.167  0.1589 -0.4479  0.1406
 4514TIP3    H113548   5.620   3.705   4.167  0.8270 -1.4936  1.0782
 4514TIP3    H213549   5.557   3.577   4.220 -1.2566 -1.0282 -0.1505
 4515TIP3   OH213550   4.732   4.264   4.194 -0.4443 -0.2095  0.1854
 4515TIP3    H113551   4.761   4.307   4.275  0.8964 -0.6502 -0.0309
 4515TIP3    H213552   4.810   4.261   4.139 -0.9963 -1.1492 -0.5801
 4516TIP3   OH213553   1.978   1.319   2.438  0.2603  0.0947 -0.2016
 4516TIP3    H113554   1.979   1.327   2.533  1.8435 -1.5698 -0.0346
 4516TIP3    H213555   1.885   1.319   2.415 -0.1243  1.3939  1.2319
 4517TIP3   OH213556   1.080   1.851   3.332  0.3679 -0.1041 -0.2517
 4517TIP3    H113557   1.126   1.864   3.415 -0.0479 -0.3948  0.0253
 4517TIP3    H213558   1.136   1.792   3.282  1.8448  1.9396 -1.1707
 4518TIP3   OH213559   5.191   0.438   0.350  0.0399 -0.9353 -0.6562
 4518TIP3    H113560   5.149   0.353   0.364 -2.6432  0.2109 -1.0894
 4518TIP3    H213561   5.278   0.417   0.317  0.3050 -3.5107  1.3179
 4519TIP3   OH213562   1.337   4.342   3.090 -0.5308  0.3066 -0.2633
 4519TIP3    H113563   1.327   4.257   3.049 -0.8129 -0.8062  1.9394
 4519TIP3    H213564   1.413   4.333   3.147  0.4833  2.0938 -1.2513
 4520TIP3   OH213565   5.189   1.520   1.075  0.1091 -0.0225 -0.0250
 4520TIP3    H113566   5.120   1.548   1.136 -0.0671 -0.6039  0.0493
 4520TIP3    H213567   5.147   1.520   0.989 -0.2193 -1.1508  0.1253
 4521TIP3   OH213568   6.341   0.969   1.758  0.1118 -0.3317 -0.0463
 4521TIP3    H113569   6.272   0.918   1.716 -1.0403  0.9015  0.2790
 4521TIP3    H213570   6.297   1.048   1.791  1.7560  0.7628 -0.3030
 4522TIP3   OH213571   5.885   0.212   0.508 -0.0487 -0.1010 -0.0640
 4522TIP3    H113572   5.975   0.220   0.540  0.0309  1.3765 -0.5504
 4522TIP3    H213573   5.831   0.210   0.587  0.3737 -0.3767  0.2179
 4523TIP3   OH213574   3.248   5.902   2.797 -0.2093  0.1700 -0.1026
 4523TIP3    H113575   3.188   5.831   2.818  0.3136  0.2304  1.7925
 4523TIP3    H213576   3.264   5.946   2.880  1.6720  0.7664 -0.7179
 4524TIP3   OH213577   1.017   1.129   4.217 -0.0129  0.3153  0.6494
 4524TIP3    H113578   0.941   1.180   4.241  0.2377  0.7559  0.5176
 4524TIP3    H213579   0.990   1.038   4.227 -0.4020  0.4784  1.0575
 4525TIP3   OH213580   2.078   4.440   4.625 -0.0316 -0.2273 -0.2524
 4525TIP3    H113581   1.997   4.401   4.592 -0.4033 -0.4101  0.8189
 4525TIP3    H213582   2.101   4.386   4.701  0.7325  0.2245 -0.1499
 4526TIP3   OH213583   0.911   1.347   3.007 -0.3563 -0.3349 -0.2607
 4526TIP3    H113584   0.997   1.365   2.970 -0.2040  0.4733  0.4488
 4526TIP3    H213585   0.878   1.433   3.033 -1.7321 -0.5424 -1.2692
 4527TIP3   OH213586   0.824   0.267   2.401 -0.0283 -0.1459 -0.2636
 4527TIP3    H113587   0.789   0.199   2.343  2.3912  0.6547 -2.8894
 4527TIP3    H213588   0.757   0.334   2.403 -0.5007 -0.5488 -1.5363
 4528TIP3   OH213589   5.138   1.697   3.844 -0.5680  0.2102 -0.7844
 4528TIP3    H113590   5.164   1.730   3.931  2.0403  1.0347 -1.7675
 4528TIP3    H213591   5.142   1.602   3.853 -2.3603  0.2039  0.5027
 4529TIP3   OH213592   4.366   3.081   3.234  0.3608  0.2602 -0.4576
 4529TIP3    H113593   4.439   3.143   3.238  0.0761  0.6251 -0.9722
 4529TIP3    H213594   4.319   3.103   3.154 -0.4155  0.1317 -0.0448
 4530TIP3   OH213595   0.304   0.985   0.802  0.1851  0.1749 -0.3449
 4530TIP3    H113596   0.227   1.039   0.814 -0.0392  0.4040 -2.3964
 4530TIP3    H213597   0.332   0.961   0.890 -1.6646  0.8625  0.4607
 4531TIP3   OH213598   2.560   5.067   4.130 -0.3082  0.3241 -0.3481
 4531TIP3    H113599   2.614   5.015   4.071 -0.4807 -0.1773 -0.0773
 4531TIP3    H213600   2.533   5.005   4.198  0.0379  0.9286  0.3553
 4532TIP3   OH213601   5.894   0.353   3.141 -0.2302 -0.1795 -0.4611
 4532TIP3    H113602   5.950   0.388   3.211  0.0154 -0.7206 -0.3788
 4532TIP3    H213603   5.953   0.297   3.090 -0.8358 -1.2848  0.0143
 4533TIP3   OH213604   5.757   1.551   3.573 -0.4119 -0.3231 -0.2880
 4533TIP3    H113605   5.731   1.494   3.645 -1.2990 -0.5290 -0.7562
 4533TIP3    H213606   5.778   1.634   3.614  0.4402 -0.8419  0.3535
 4534TIP3   OH213607   3.371   1.000   2.630 -0.6153 -0.1698 -0.2265
 4534TIP3    H113608   3.351   1.087   2.664 -0.1998 -0.0906 -0.1886
 4534TIP3    H213609   3.393   0.948   2.708  2.5979  0.5916 -0.5200
 4535TIP3   OH213610   2.912   4.314   2.048 -0.3361  0.5979 -0.0810
 4535TIP3    H113611   2.986   4.299   2.106  0.2201 -0.4891 -1.0463
 4535TIP3    H213612   2.836   4.282   2.097  0.3667 -2.1333 -0.6502
 4536TIP3   OH213613   1.682  -0.028   3.300 -0.4354 -0.0277  0.7755
 4536TIP3    H113614   1.607  -0.007   3.244  1.9349  1.2932 -2.2124
 4536TIP3    H213615   1.722   0.057   3.319  1.9627 -0.8175 -0.3637
 4537TIP3   OH213616   5.063   0.443   4.789  0.3111 -0.0336 -0.1422
 4537TIP3    H113617   5.012   0.375   4.833  1.1768 -1.2452 -0.9446
 4537TIP3    H213618   5.007   0.470   4.716  1.0849 -1.9995 -1.5640
 4538TIP3   OH213619   1.841   4.074   2.480  0.6916 -0.2014  0.3265
 4538TIP3    H113620   1.797   4.073   2.395  1.6226 -0.2072 -0.1683
 4538TIP3    H213621   1.793   4.011   2.533  0.2311 -0.3535 -0.2651
 4539TIP3   OH213622   3.142   1.319   3.888 -0.1084 -0.0047 -0.1573
 4539TIP3    H113623   3.059   1.367   3.891 -0.0581  0.0770 -0.0446
 4539TIP3    H213624   3.156   1.292   3.979 -0.0508 -0.0855 -0.1909
 4540TIP3   OH213625   3.341   1.774   2.688  0.0849 -0.1462  0.1076
 4540TIP3    H113626   3.265   1.777   2.629  0.9845 -1.0076 -1.1628
 4540TIP3    H213627   3.360   1.865   2.707 -1.3072  0.0863  0.5097
 4541TIP3   OH213628   2.625   5.316   3.350 -0.6105  0.1905 -0.2705
 4541TIP3    H113629   2.570   5.357   3.417  0.1476  0.0623  0.4550
 4541TIP3    H213630   2.628   5.224   3.375 -0.1976  0.1700 -0.3836
 4542TIP3   OH213631   3.577   1.152   0.749 -0.1726  0.1513  0.1912
 4542TIP3    H113632   3.530   1.073   0.774  0.7006 -0.8326 -1.1592
 4542TIP3    H213633   3.589   1.200   0.831 -0.4070 -1.2719  1.0844
 4543TIP3   OH213634   3.109   1.389   0.502  0.1088  0.6165  0.0741
 4543TIP3    H113635   3.120   1.332   0.425 -2.3158  1.9936 -1.4483
 4543TIP3    H213636   3.184   1.447   0.500  1.2690 -0.8275  0.1309
 4544TIP3   OH213637   4.753   3.468   0.759 -0.5420 -0.1221 -0.3897
 4544TIP3    H113638   4.690   3.498   0.824  0.2378  0.3794  0.1625
 4544TIP3    H213639   4.731   3.518   0.680 -0.9242 -0.0499 -0.2372
 4545TIP3   OH213640   1.658   4.632   2.654  0.1958 -0.7712  0.2550
 4545TIP3    H113641   1.740   4.615   2.699  0.2155  2.2154  1.5779
 4545TIP3    H213642   1.677   4.707   2.597 -1.9241  1.2559  1.9711
 4546TIP3   OH213643   0.802   2.506   1.460  0.3401 -0.4146  0.5519
 4546TIP3    H113644   0.787   2.491   1.554  3.7592 -0.9701  1.1333
 4546TIP3    H213645   0.740   2.447   1.417 -1.8911  0.4203  2.3644
 4547TIP3   OH213646   0.930   5.761   0.067  0.0897  0.1155  0.4204
 4547TIP3    H113647   1.008   5.788   0.019  0.1456 -0.9814 -0.1511
 4547TIP3    H213648   0.920   5.668   0.046 -0.7900 -0.0103  1.2975
 4548TIP3   OH213649   3.653   3.811   4.256  0.0572  0.0693  0.4434
 4548TIP3    H113650   3.621   3.882   4.201  2.5596  1.0370  0.1035
 4548TIP3    H213651   3.748   3.809   4.241  0.4441 -1.5331  2.5511
 4549TIP3   OH213652   5.311   5.006   3.410 -0.2347  0.3636  0.0911
 4549TIP3    H113653   5.286   4.914   3.420  0.2183  0.1688 -0.4874
 4549TIP3    H213654   5.259   5.052   3.476 -1.6764 -0.1007 -0.6597
 4550TIP3   OH213655   0.640   4.963   5.095  0.4659 -0.2076  0.4291
 4550TIP3    H113656   0.613   4.978   5.186 -1.6878  0.3150 -0.2295
 4550TIP3    H213657   0.568   4.913   5.057  1.7164 -1.1374 -0.7970
 4551TIP3   OH213658   6.287   4.316   1.615  0.0821  0.2809  0.0320
 4551TIP3    H113659   6.247   4.336   1.700  0.3040  2.5766 -0.3269
 4551TIP3    H213660   6.374   4.283   1.637  0.5729  1.9293  0.7401
 4552TIP3   OH213661   2.628   0.577   3.505  1.0345 -0.5583  0.0247
 4552TIP3    H113662   2.673   0.522   3.571 -0.0230 -0.4115  0.8846
 4552TIP3    H213663   2.692   0.584   3.433  3.1966  1.1959  1.9494
 4553TIP3   OH213664   1.663   0.190   0.515 -0.2509 -0.8316  0.4998
 4553TIP3    H113665   1.619   0.267   0.551 -2.0464 -1.3474 -0.4333
 4553TIP3    H213666   1.746   0.224   0.480 -1.7395  1.0999 -1.4924
 4554TIP3   OH213667   2.160   2.825   3.177 -0.0586 -0.6551  0.1598
 4554TIP3    H113668   2.150   2.741   3.131  0.8379 -0.0330 -1.2205
 4554TIP3    H213669   2.070   2.849   3.202 -0.6888 -0.7109 -1.8680
 4555TIP3   OH213670   5.781   1.192   5.131 -0.4650 -0.4072  0.7371
 4555TIP3    H113671   5.805   1.100   5.146 -1.4056 -1.0456 -1.2706
 4555TIP3    H213672   5.685   1.192   5.134 -0.4647  0.6412  1.2518
 4556TIP3   OH213673   4.053   0.056   3.609  0.4761 -0.3920 -0.3055
 4556TIP3    H113674   4.143   0.058   3.578  1.0644  0.2177  1.3535
 4556TIP3    H213675   4.021   0.145   3.595  0.4919 -0.3186  0.1376
 4557TIP3   OH213676   3.109   1.151   5.001  0.7203  0.3914 -0.0695
 4557TIP3    H113677   3.114   1.244   4.979  0.4530  0.7162  1.1632
 4557TIP3    H213678   3.173   1.139   5.071  2.0455 -0.7588 -1.4000
 4558TIP3   OH213679   5.340   3.082   0.906  0.2159 -0.1162 -0.3657
 4558TIP3    H113680   5.320   3.154   0.965 -1.1784 -0.2991 -0.5666
 4558TIP3    H213681   5.261   3.072   0.853  1.6074  0.4186 -2.6855
 4559TIP3   OH213682   2.962   2.346   1.390 -0.7462 -0.2482  0.3691
 4559TIP3    H113683   3.004   2.264   1.415  1.2030  0.3260 -0.7717
 4559TIP3    H213684   2.953   2.340   1.295  0.4044  1.2264  0.1232
 4560TIP3   OH213685   6.015   0.920   0.318 -0.4966  0.6221  0.2095
 4560TIP3    H113686   6.073   0.867   0.263 -0.1473  1.0168  0.1852
 4560TIP3    H213687   5.961   0.969   0.256  0.4875  1.7158  0.1805
 4561TIP3   OH213688   3.209   4.775   4.624 -0.1184 -0.1522 -0.3163
 4561TIP3    H113689   3.186   4.682   4.613  1.0535 -0.6365  1.0283
 4561TIP3    H213690   3.204   4.790   4.718 -1.2285  1.4323 -0.5983
 4562TIP3   OH213691   0.718   3.984   2.250  0.3324  0.2227  0.3567
 4562TIP3    H113692   0.810   3.981   2.276 -0.0399 -2.0392  1.6617
 4562TIP3    H213693   0.673   3.931   2.316 -1.3865 -1.7842 -2.2433
 4563TIP3   OH213694   3.807   0.694   2.620 -0.2022  0.0615  0.0694
 4563TIP3    H113695   3.719   0.656   2.619 -0.2745  0.2345 -0.1532
 4563TIP3    H213696   3.795   0.783   2.650  0.0093 -0.1867  0.9083
 4564TIP3   OH213697   5.028   1.132   4.394  0.2559  0.3411 -0.0604
 4564TIP3    H113698   4.944   1.098   4.424  0.1368 -0.3224 -1.0796
 4564TIP3    H213699   5.056   1.071   4.326  1.5341  0.5974  0.1998
 4565TIP3   OH213700   2.946   1.534   4.348  0.4255 -0.7283 -0.3128
 4565TIP3    H113701   3.011   1.481   4.303  2.1136  0.1140  1.0135
 4565TIP3    H213702   2.995   1.578   4.418 -1.7227 -0.6336  1.2397
 4566TIP3   OH213703   6.246   1.656   5.013 -0.6469 -0.0523  0.1971
 4566TIP3    H113704   6.283   1.592   4.951 -0.6441 -0.0616  0.2085
 4566TIP3    H213705   6.271   1.741   4.977 -1.3095 -0.0342 -0.2327
 4567TIP3   OH213706   5.422   2.933   1.818  0.6110 -0.2755  0.3172
 4567TIP3    H113707   5.452   2.996   1.752  0.4143  0.0048  0.4931
 4567TIP3    H213708   5.486   2.862   1.815 -0.1441 -0.9296 -1.1468
 4568TIP3   OH213709   6.300   4.625   0.413  0.2353  0.1548  0.2044
 4568TIP3    H113710   6.289   4.690   0.483  0.4127 -0.4157  0.7757
 4568TIP3    H213711   6.327   4.676   0.337  1.2928  0.6558  0.8893
 4569TIP3   OH213712   0.356   3.753   4.531  0.1183  0.1163  0.2038
 4569TIP3    H113713   0.434   3.703   4.558 -0.2894  0.1440  1.5195
 4569TIP3    H213714   0.292   3.685   4.509  0.2420  0.0827 -0.0535
 4570TIP3   OH213715   1.894   4.948   3.714 -0.3683 -0.4590 -0.1954
 4570TIP3    H113716   1.819   5.003   3.737 -1.0070 -1.1421 -0.6138
 4570TIP3    H213717   1.942   4.998   3.648  0.6081  0.8211  1.3936
 4571TIP3   OH213718   1.785   1.320   0.892  0.7755  0.4086  0.6906
 4571TIP3    H113719   1.698   1.345   0.860  1.6663  2.8526 -0.0816
 4571TIP3    H213720   1.774   1.312   0.987 -0.4968 -0.4115  0.5065
 4572TIP3   OH213721   2.272   5.197   3.619 -0.6275 -0.0492 -0.2690
 4572TIP3    H113722   2.235   5.278   3.584  1.0801  0.5099 -0.8645
 4572TIP3    H213723   2.339   5.225   3.681  0.1448 -0.9875 -0.6500
 4573TIP3   OH213724   1.728   3.070   1.057 -0.1285 -0.3110 -0.4146
 4573TIP3    H113725   1.709   2.990   1.106 -0.6507  1.3897  2.3523
 4573TIP3    H213726   1.646   3.090   1.010 -0.8527 -0.0940  0.8993
 4574TIP3   OH213727   2.470   5.892   3.077  0.0022 -0.5947  0.1648
 4574TIP3    H113728   2.546   5.893   3.019 -0.3996  0.1949 -0.3628
 4574TIP3    H213729   2.401   5.848   3.027 -0.2760 -0.1231  0.1274
 4575TIP3   OH213730   4.420   1.120   3.124 -0.3501  0.3318 -0.7538
 4575TIP3    H113731   4.446   1.118   3.032 -1.3659  0.5714 -1.0588
 4575TIP3    H213732   4.399   1.029   3.145  0.8078  0.1119 -0.4652
 4576TIP3   OH213733   1.537   4.894   3.453 -0.2783  0.1518  0.1761
 4576TIP3    H113734   1.620   4.864   3.416 -1.3280 -1.8733 -0.6582
 4576TIP3    H213735   1.535   4.988   3.435  2.3429  0.5107  1.3070
 4577TIP3   OH213736   1.655   4.218   2.665  0.2637 -0.0792 -0.2983
 4577TIP3    H113737   1.713   4.273   2.718  0.8970 -0.6793 -0.3417
 4577TIP3    H213738   1.714   4.175   2.603 -0.4352  0.3948 -1.3016
 4578TIP3   OH213739   2.970   4.739   4.426  0.1210  0.4261 -0.3590
 4578TIP3    H113740   2.884   4.748   4.386  0.4406  1.7380 -0.7938
 4578TIP3    H213741   3.018   4.681   4.367 -0.8646 -1.4917  0.6174
 4579TIP3   OH213742   3.216   3.852   3.687  0.8720  0.1374 -0.0044
 4579TIP3    H113743   3.224   3.814   3.599 -0.1684  0.2436 -0.1603
 4579TIP3    H213744   3.218   3.946   3.672  0.7154  0.1555  0.0860
 4580TIP3   OH213745   3.982   0.699   2.411 -0.0783  0.1068  0.2071
 4580TIP3    H113746   3.951   0.629   2.353 -0.7575  1.0201 -0.5682
 4580TIP3    H213747   3.911   0.710   2.474  0.5272 -0.6744  1.0372
 4581TIP3   OH213748   1.292   3.107   4.891  0.7017  0.0198 -0.1235
 4581TIP3    H113749   1.294   3.016   4.861  1.2503 -0.4687  1.3068
 4581TIP3    H213750   1.201   3.134   4.881  0.3911 -0.9199  0.1108
 4582TIP3   OH213751   2.219   0.622   0.227 -0.3558 -0.5555 -0.5630
 4582TIP3    H113752   2.170   0.608   0.308 -0.9460 -2.6599 -1.2163
 4582TIP3    H213753   2.180   0.701   0.189 -0.8173 -0.1770  0.6369
 4583TIP3   OH213754   5.513   2.020   1.216 -0.6816 -0.7721  0.1375
 4583TIP3    H113755   5.457   2.064   1.153 -1.0722  0.5419  1.3415
 4583TIP3    H213756   5.522   2.083   1.288  1.6114 -1.3026  0.3865
 4584TIP3   OH213757   2.076   1.421   1.676  0.4333  0.2083  0.4862
 4584TIP3    H113758   2.161   1.385   1.653  0.5819 -0.7975  2.3838
 4584TIP3    H213759   2.053   1.378   1.759 -1.5620  1.0310  0.4314
 4585TIP3   OH213760   3.960   3.271   4.738 -0.4455 -0.1405 -0.3362
 4585TIP3    H113761   3.873   3.310   4.753 -0.3681  0.2346 -0.8272
 4585TIP3    H213762   3.960   3.249   4.645  0.3805  0.8558 -0.5851
 4586TIP3   OH213763   3.724   5.162   0.932 -0.0484 -0.2108  0.0494
 4586TIP3    H113764   3.681   5.123   0.856 -0.1155 -1.2699  0.6020
 4586TIP3    H213765   3.759   5.087   0.980  0.4961  0.4819  0.7636
 4587TIP3   OH213766   5.501   2.782   2.963  0.2887 -0.4946  0.3581
 4587TIP3    H113767   5.514   2.696   3.003  0.6603 -0.3980  0.4510
 4587TIP3    H213768   5.552   2.780   2.882  2.0056  0.3184  1.3396
 4588TIP3   OH213769   2.311   5.903   5.161  0.2945 -0.0649  0.1372
 4588TIP3    H113770   2.293   5.986   5.118 -0.9633 -0.0752  0.5882
 4588TIP3    H213771   2.402   5.909   5.189  0.3661  0.9526 -0.2863
 4589TIP3   OH213772   2.384   4.496   2.569  0.9325 -0.3266 -0.0628
 4589TIP3    H113773   2.469   4.473   2.605 -0.0182 -0.2750  2.4478
 4589TIP3    H213774   2.340   4.543   2.640 -1.5168 -1.0992 -0.9609
 4590TIP3   OH213775   5.271   2.562   3.096 -0.5097  0.2732 -0.4565
 4590TIP3    H113776   5.227   2.621   3.035  2.3605  1.0000 -2.0027
 4590TIP3    H213777   5.359   2.551   3.060  1.0930  0.0166  3.0884
 4591TIP3   OH213778   2.640   0.576   3.061  0.6116 -0.2139 -0.5950
 4591TIP3    H113779   2.626   0.490   3.100  0.9011  0.8789  2.1232
 4591TIP3    H213780   2.689   0.625   3.128 -0.3065  2.3336 -1.6834
 4592TIP3   OH213781   5.726   4.416   2.556  0.2285 -0.4705  0.4544
 4592TIP3    H113782   5.754   4.499   2.520 -0.8309  0.8657  2.5061
 4592TIP3    H213783   5.773   4.350   2.505  2.4653  1.4220 -0.0817
 4593TIP3   OH213784   2.638   4.691   3.846 -0.2890  0.1796  0.1431
 4593TIP3    H113785   2.729   4.662   3.855 -0.6855 -0.8125  1.1188
 4593TIP3    H213786   2.596   4.623   3.795 -0.2992  1.0846 -1.0966
 4594TIP3   OH213787   0.547   2.079   0.617 -0.4940 -0.3899  0.0477
 4594TIP3    H113788   0.585   2.139   0.553 -0.5522  0.6662  0.9718
 4594TIP3    H213789   0.618   2.062   0.679 -1.1921  0.7637  1.2015
 4595TIP3   OH213790   4.149   0.389   2.118  0.1294 -0.2514  0.7699
 4595TIP3    H113791   4.054   0.397   2.124  0.0559  0.6396 -0.9236
 4595TIP3    H213792   4.175   0.461   2.061  1.5218 -1.9103 -0.8057
 4596TIP3   OH213793   1.547   5.810   2.852 -0.1073  0.0954 -0.9822
 4596TIP3    H113794   1.519   5.724   2.820 -0.6946  0.4614 -1.4631
 4596TIP3    H213795   1.549   5.800   2.947 -1.9721  0.0673 -0.9069
 4597TIP3   OH213796   5.823   3.124   1.247 -0.1100  0.6291 -0.3678
 4597TIP3    H113797   5.799   3.138   1.338  1.6310 -1.0470  0.3960
 4597TIP3    H213798   5.899   3.181   1.233  0.1826  0.2081 -0.5013
 4598TIP3   OH213799   3.680   2.393   2.531  0.5046  0.7373  0.4007
 4598TIP3    H113800   3.635   2.474   2.558  0.6585  1.1104 -0.4328
 4598TIP3    H213801   3.773   2.417   2.530  0.6664  0.1923  1.3459
 4599TIP3   OH213802   0.500   0.320   2.965  0.1097  0.5225 -0.3785
 4599TIP3    H113803   0.581   0.304   3.014  0.7847 -1.3347 -1.9641
 4599TIP3    H213804   0.493   0.246   2.905 -2.6340  0.7962 -0.5284
 4600TIP3   OH213805   2.935   0.376   0.180 -0.7818  0.4432  0.3175
 4600TIP3    H113806   2.862   0.434   0.160  0.1896  0.6020 -3.4445
 4600TIP3    H213807   3.013   0.430   0.170  0.0952 -1.1355 -2.3214
 4601TIP3   OH213808   3.436   1.916   3.570 -0.0573  0.1761 -0.2662
 4601TIP3    H113809   3.448   2.007   3.599 -1.1146 -0.2541  1.6811
 4601TIP3    H213810   3.525   1.885   3.552  0.7598  0.4388  2.8634
 4602TIP3   OH213811   2.270   1.603   3.949 -0.4721  0.2499 -0.1971
 4602TIP3    H113812   2.365   1.605   3.959 -0.5125 -1.0658  0.6176
 4602TIP3    H213813   2.247   1.511   3.954 -1.7923  0.5426 -0.4981
 4603TIP3   OH213814   1.736   5.536   3.250 -0.1581 -0.8575  0.7573
 4603TIP3    H113815   1.653   5.566   3.287 -0.8491 -2.5286  0.6649
 4603TIP3    H213816   1.773   5.614   3.209 -0.7970  0.3447  2.3507
 4604TIP3   OH213817   2.495   5.735   4.116 -0.1393 -0.4700  0.3761
 4604TIP3    H113818   2.439   5.807   4.145  1.6179  0.5345  1.4271
 4604TIP3    H213819   2.581   5.756   4.151  0.6649 -2.5540 -0.2241
 4605TIP3   OH213820   3.079   5.871   1.337 -0.3446 -0.6051 -0.6026
 4605TIP3    H113821   3.025   5.849   1.261 -1.4498 -0.5493  0.1493
 4605TIP3    H213822   3.138   5.939   1.305 -1.2920 -0.0623 -1.2313
 4606TIP3   OH213823   3.216   1.477   0.801 -0.3523  0.1969  0.5688
 4606TIP3    H113824   3.219   1.536   0.725 -0.5735  0.4285  0.7409
 4606TIP3    H213825   3.123   1.457   0.812 -0.2757 -0.2143  0.4901
 4607TIP3   OH213826   5.583   1.051   4.833 -0.5464 -0.0139  0.1975
 4607TIP3    H113827   5.587   0.996   4.911  0.8330  1.6074  1.3436
 4607TIP3    H213828   5.532   1.128   4.861 -0.6552  0.2626 -0.7293
 4608TIP3   OH213829   3.309   4.196   4.933  0.1977  0.0724 -0.5010
 4608TIP3    H113830   3.325   4.102   4.932  2.1847  0.3688 -0.3270
 4608TIP3    H213831   3.373   4.230   4.995 -1.7581  1.3595  0.9279
 4609TIP3   OH213832   4.257   1.729   4.224 -0.4956  0.0958  0.1555
 4609TIP3    H113833   4.200   1.780   4.167 -1.7039 -2.4236 -1.0791
 4609TIP3    H213834   4.240   1.763   4.312 -0.5960  2.2843 -0.6460
 4610TIP3   OH213835   4.988   4.975   0.684  0.1712  0.0679  0.2182
 4610TIP3    H113836   5.019   4.919   0.756 -1.0239  0.1274  0.8088
 4610TIP3    H213837   4.916   5.025   0.723 -0.9118 -0.3567 -1.2040
 4611TIP3   OH213838   4.045   4.358   3.967 -0.1817  0.4675 -0.1304
 4611TIP3    H113839   4.001   4.349   4.052  1.0802  0.9891  0.6132
 4611TIP3    H213840   3.976   4.344   3.903 -1.4298  1.1824  0.9872
 4612TIP3   OH213841   3.045   2.569   1.977 -1.0405 -0.0683 -0.2869
 4612TIP3    H113842   2.953   2.557   1.999 -0.9766  0.4327  0.2832
 4612TIP3    H213843   3.079   2.626   2.046 -0.3085 -0.2297 -0.5040
 4613TIP3   OH213844   0.844   2.087   5.092  0.2455  0.2763  0.1674
 4613TIP3    H113845   0.815   2.009   5.045  0.0573  0.8806 -0.7354
 4613TIP3    H213846   0.771   2.148   5.084 -0.5873 -0.2104  2.8103
 4614TIP3   OH213847   5.853   5.748   1.132 -0.0657 -0.3118  0.2351
 4614TIP3    H113848   5.810   5.790   1.207  0.0730 -0.4828  0.4093
 4614TIP3    H213849   5.834   5.655   1.142 -0.1934 -0.3179 -0.0387
 4615TIP3   OH213850   3.337   0.344   1.947  0.3109 -0.0234 -0.1875
 4615TIP3    H113851   3.304   0.278   2.008  0.7410 -0.3754 -0.3335
 4615TIP3    H213852   3.363   0.295   1.870  1.6788  0.1745  0.1245
 4616TIP3   OH213853   5.385   0.218   4.346 -0.1127 -0.1271 -0.0837
 4616TIP3    H113854   5.290   0.221   4.362 -0.0927  1.9698 -0.0719
 4616TIP3    H213855   5.418   0.158   4.413 -1.2852  0.2505  0.8806
 4617TIP3   OH213856   4.532   5.568   4.955  0.0708  0.1348  0.0859
 4617TIP3    H113857   4.598   5.632   4.928  0.8522 -0.3739  0.7506
 4617TIP3    H213858   4.556   5.545   5.045 -0.7619 -0.3826  0.1858
 4618TIP3   OH213859   1.551   3.829   3.493 -0.0620 -0.2569 -0.5106
 4618TIP3    H113860   1.479   3.803   3.550  1.0915 -1.3708  0.4968
 4618TIP3    H213861   1.589   3.906   3.536 -0.5753  0.2717 -0.9902
 4619TIP3   OH213862   3.741   1.986   1.449  0.0761 -0.6334  0.1964
 4619TIP3    H113863   3.726   1.900   1.410 -0.4641 -0.5481  0.1998
 4619TIP3    H213864   3.778   1.967   1.536 -0.1164 -0.8656  0.2300
 4620TIP3   OH213865   0.273   1.422   2.557 -0.4693 -0.5161 -0.7415
 4620TIP3    H113866   0.312   1.376   2.632  0.8735  1.9233  0.1713
 4620TIP3    H213867   0.182   1.438   2.583 -0.1409 -0.0891  0.2056
 4621TIP3   OH213868   3.291   2.785   4.855 -0.4809  0.4514  0.4756
 4621TIP3    H113869   3.269   2.692   4.859 -0.8302  0.4780 -0.4222
 4621TIP3    H213870   3.384   2.790   4.875 -0.6523  0.0003  1.3884
 4622TIP3   OH213871   4.828   3.709   4.312 -0.2363 -0.1347 -0.1397
 4622TIP3    H113872   4.754   3.652   4.335 -0.6573  0.7342  0.7419
 4622TIP3    H213873   4.906   3.659   4.337 -0.6375  0.1496  1.8199
 4623TIP3   OH213874   2.657   3.728   0.410  0.3499 -0.3138 -0.0206
 4623TIP3    H113875   2.698   3.808   0.377 -1.6507  0.3057 -1.1618
 4623TIP3    H213876   2.620   3.753   0.495 -0.3520  0.0127 -0.4173
 4624TIP3   OH213877   4.185   4.125   4.167 -0.6632  0.2974 -0.0699
 4624TIP3    H113878   4.091   4.109   4.156 -0.4193 -0.7056 -0.8861
 4624TIP3    H213879   4.214   4.154   4.080 -0.1766  0.3169  0.0990
 4625TIP3   OH213880   3.644   4.527   2.135  0.1814  0.1815 -0.1433
 4625TIP3    H113881   3.732   4.537   2.174 -0.1098  2.4056  0.1102
 4625TIP3    H213882   3.593   4.598   2.174 -0.8305  0.9766 -2.7125
 4626TIP3   OH213883   0.513   1.009   4.894  0.1582  0.5475 -0.2798
 4626TIP3    H113884   0.431   1.021   4.943  0.8916  2.9123  0.5117
 4626TIP3    H213885   0.536   0.917   4.908 -1.8086  0.0916  0.3368
 4627TIP3   OH213886   2.928   2.834   1.889 -0.4175 -0.1643  0.1088
 4627TIP3    H113887   2.874   2.912   1.900 -0.6822 -0.4903  1.3605
 4627TIP3    H213888   2.889   2.787   1.816 -0.4769  0.6832 -0.4198
 4628TIP3   OH213889   0.788   2.712   2.413 -0.4832 -0.0055 -0.2443
 4628TIP3    H113890   0.830   2.637   2.371 -1.7077 -0.4496 -0.7086
 4628TIP3    H213891   0.700   2.682   2.434 -1.3961  1.6382 -1.4855
 4629TIP3   OH213892   0.143   5.888   0.061 -0.6751 -0.0533 -0.2257
 4629TIP3    H113893   0.188   5.922   0.138  2.1442 -1.2528 -1.2070
 4629TIP3    H213894   0.190   5.926  -0.013 -1.3332 -1.3171 -1.3318
 4630TIP3   OH213895   1.844   4.662   5.048  0.5169  0.2022  0.3070
 4630TIP3    H113896   1.918   4.623   5.094  0.8625  1.5872  0.9730
 4630TIP3    H213897   1.874   4.674   4.958  0.3580 -1.1505  0.0578
 4631TIP3   OH213898   2.613   2.089   0.949 -0.0466 -0.6035  0.6001
 4631TIP3    H113899   2.545   2.156   0.954  0.3415 -0.1702  0.1867
 4631TIP3    H213900   2.565   2.006   0.950 -0.6313 -0.2898 -0.5291
 4632TIP3   OH213901   6.229   0.497   0.861 -0.4316 -0.2180  0.1423
 4632TIP3    H113902   6.279   0.467   0.785  2.0204  1.2643  1.0322
 4632TIP3    H213903   6.156   0.546   0.825  0.9977  0.9522 -1.3046
 4633TIP3   OH213904   2.885   5.345   4.099 -0.3800 -0.7212 -0.2171
 4633TIP3    H113905   2.956   5.344   4.163 -1.1068 -1.4235  0.5959
 4633TIP3    H213906   2.911   5.411   4.035 -0.0158  0.5948  1.2357
 4634TIP3   OH213907   4.080   0.196   3.313 -0.3646  0.2798 -0.0280
 4634TIP3    H113908   4.125   0.244   3.243 -0.2691 -1.0551 -0.9193
 4634TIP3    H213909   4.082   0.255   3.388 -0.9354  1.9779 -1.2959
 4635TIP3   OH213910   2.326   3.462   3.794 -0.3450 -0.3419  0.1141
 4635TIP3    H113911   2.322   3.425   3.883 -2.6935  1.2233  0.7675
 4635TIP3    H213912   2.258   3.415   3.746 -0.5826  0.3174 -0.2001
 4636TIP3   OH213913   2.631   5.922   2.269  0.4650 -0.1728  0.3444
 4636TIP3    H113914   2.687   5.861   2.318  0.5700  0.7817  1.4581
 4636TIP3    H213915   2.641   6.006   2.315  0.3289  0.7001 -1.1526
 4637TIP3   OH213916   2.955   0.924   2.354 -0.0971 -0.1813  0.0556
 4637TIP3    H113917   3.011   0.961   2.422 -1.1249  2.5192 -0.4158
 4637TIP3    H213918   2.876   0.895   2.400 -0.9850  2.0590  0.0762
 4638TIP3   OH213919   2.788   2.132   4.947  0.3399 -0.2218  0.1551
 4638TIP3    H113920   2.705   2.123   4.994 -0.0659  1.7183 -0.0955
 4638TIP3    H213921   2.813   2.043   4.925 -2.5037 -0.7916 -1.2169
 4639TIP3   OH213922   5.808   4.395   1.869  0.0338 -0.3232  0.3760
 4639TIP3    H113923   5.787   4.476   1.916 -1.2762  0.2004 -1.0279
 4639TIP3    H213924   5.809   4.421   1.777  1.1944 -1.6001  0.0027
 4640TIP3   OH213925   4.593   4.943   2.202 -0.4106  0.2573 -0.2556
 4640TIP3    H113926   4.543   4.914   2.279 -1.0068 -1.5510 -1.2460
 4640TIP3    H213927   4.538   4.917   2.127  0.2531  1.7612 -1.3064
 4641TIP3   OH213928   6.104   0.410   4.899  0.3646  0.1226  0.0875
 4641TIP3    H113929   6.107   0.490   4.952  0.9175  0.0127  0.2312
 4641TIP3    H213930   6.018   0.412   4.857 -0.6970 -0.4881  2.0793
 4642TIP3   OH213931   6.341   4.852   3.041 -0.4974 -0.1419 -0.1504
 4642TIP3    H113932   6.400   4.911   2.994  2.1692 -0.7419  2.1393
 4642TIP3    H213933   6.278   4.910   3.085  0.5303  0.8376  0.0720
 4643TIP3   OH213934   5.817   1.107   4.031 -0.4335 -0.3937  0.0542
 4643TIP3    H113935   5.724   1.106   4.054 -0.4042 -1.8429  0.1975
 4643TIP3    H213936   5.862   1.083   4.113 -0.0136 -0.8560 -0.3064
 4644TIP3   OH213937   0.795   4.402   2.957 -0.1200  0.6784  0.2628
 4644TIP3    H113938   0.883   4.365   2.961 -0.2224  0.3745 -0.2718
 4644TIP3    H213939   0.770   4.414   3.049 -0.3962 -1.3406  0.5118
 4645TIP3   OH213940   3.722   2.308   4.759  0.2334 -0.4399 -0.3953
 4645TIP3    H113941   3.792   2.284   4.698 -0.4422 -3.0525 -0.2679
 4645TIP3    H213942   3.644   2.315   4.705  0.0992 -0.2835 -0.1825
 4646TIP3   OH213943   5.609   3.465   3.290  0.1073  0.3874 -0.1129
 4646TIP3    H113944   5.618   3.381   3.335  1.1631 -0.0852 -1.1511
 4646TIP3    H213945   5.698   3.500   3.288 -0.2342  1.2679 -0.2141
 4647TIP3   OH213946   2.092   1.085   1.577  0.2696  0.2262  0.0191
 4647TIP3    H113947   2.063   0.994   1.591  0.2619  0.5070  2.2764
 4647TIP3    H213948   2.044   1.135   1.642  0.4542  1.8460 -1.0469
 4648TIP3   OH213949   0.766   3.287   4.994  0.4484  0.4327  0.0088
 4648TIP3    H113950   0.843   3.309   5.046  0.0296  0.8688  0.4409
 4648TIP3    H213951   0.800   3.279   4.904  1.1720 -0.3480  0.3355
 4649TIP3   OH213952   2.338   5.675   2.437  0.7380 -0.1837 -0.0928
 4649TIP3    H113953   2.285   5.691   2.515 -0.3864 -1.9954 -0.4104
 4649TIP3    H213954   2.414   5.627   2.470  0.6504 -0.2584  0.0046
 4650TIP3   OH213955   6.365   2.204   3.902 -0.2539  0.2009  0.0874
 4650TIP3    H113956   6.272   2.182   3.906 -0.1080 -0.4917 -0.0959
 4650TIP3    H213957   6.408   2.120   3.887  0.5028  0.3157  1.4885
 4651TIP3   OH213958   4.142   1.093   1.133 -0.3118 -0.3227 -0.9197
 4651TIP3    H113959   4.184   1.062   1.213 -0.0022 -2.0434 -1.7053
 4651TIP3    H213960   4.114   1.013   1.088 -4.2248  0.6504 -0.5921
 4652TIP3   OH213961   0.247   1.835   1.914 -0.1341 -0.4315 -0.0328
 4652TIP3    H113962   0.263   1.838   2.009  1.0577 -1.9210 -0.1437
 4652TIP3    H213963   0.185   1.906   1.898  1.8633  1.8176  1.4312
 4653TIP3   OH213964   5.331   1.249   4.800  0.2688 -0.2387  0.3341
 4653TIP3    H113965   5.258   1.191   4.776  0.9927 -0.9155 -0.3078
 4653TIP3    H213966   5.314   1.273   4.891 -0.5318 -0.7270  0.3219
 4654TIP3   OH213967   0.648   3.196   2.159 -0.1649  0.2155  0.1950
 4654TIP3    H113968   0.642   3.287   2.190  0.0258 -0.2453  1.6396
 4654TIP3    H213969   0.557   3.171   2.144 -0.2501  0.4884  0.2390
 4655TIP3   OH213970   0.926   3.365   1.175 -0.4591  0.3274  0.5768
 4655TIP3    H113971   0.871   3.312   1.232 -0.5303  0.2094  0.4003
 4655TIP3    H213972   0.990   3.304   1.139  2.0746  1.0396  3.4728
 4656TIP3   OH213973   4.424   2.203   4.160 -0.1359 -0.2203  0.0281
 4656TIP3    H113974   4.482   2.127   4.162  0.1173 -0.0503 -0.6102
 4656TIP3    H213975   4.482   2.277   4.142 -0.6391 -0.1447 -1.4112
 4657TIP3   OH213976   0.860   5.589   0.869 -0.3480  0.6154 -0.1226
 4657TIP3    H113977   0.814   5.507   0.887  0.2491  0.6163  1.6324
 4657TIP3    H213978   0.824   5.620   0.786 -0.5289 -1.4601 -0.8617
 4658TIP3   OH213979   5.496   5.975   0.723 -0.1500 -0.0615  0.2389
 4658TIP3    H113980   5.416   5.943   0.765 -0.7039 -1.5863 -1.7991
 4658TIP3    H213981   5.470   5.993   0.633  1.4762  0.9615 -0.0596
 4659TIP3   OH213982   1.608   4.541   0.910 -0.3412 -0.1233  0.5031
 4659TIP3    H113983   1.602   4.481   0.984  0.2616 -1.4816 -0.4879
 4659TIP3    H213984   1.690   4.589   0.925  1.3983 -2.4759 -0.6576
 4660TIP3   OH213985   0.155   2.462   1.053 -0.2030 -0.0319  0.5222
 4660TIP3    H113986   0.153   2.435   1.144 -2.3713  0.4721  0.6714
 4660TIP3    H213987   0.175   2.555   1.055  1.8921 -0.4274  0.3100
 4661TIP3   OH213988   1.110   4.990   3.384  0.6878  0.5757  0.1921
 4661TIP3    H113989   1.033   4.937   3.404  0.8137 -0.5908 -2.0334
 4661TIP3    H213990   1.181   4.949   3.432  0.4432 -0.1603 -0.0649
 4662TIP3   OH213991   4.001   4.783   0.893 -0.1741  0.1509 -0.2925
 4662TIP3    H113992   4.032   4.871   0.914  0.0606  0.4826 -1.9020
 4662TIP3    H213993   3.996   4.738   0.977  2.0155  0.9430  0.3224
 4663TIP3   OH213994   5.924   4.961   1.322 -0.2544 -0.0012 -0.4040
 4663TIP3    H113995   5.951   4.936   1.234  1.2293  1.5348 -0.4199
 4663TIP3    H213996   5.943   4.884   1.376 -1.2612 -0.9907 -1.3875
 4664TIP3   OH213997   6.142   0.328   2.956 -0.6130 -0.0164  0.5451
 4664TIP3    H113998   6.129   0.234   2.968 -0.8827  0.2055  2.1681
 4664TIP3    H213999   6.193   0.355   3.032 -2.9359  1.6227  1.6308
 4665TIP3   OH214000   4.368   5.750   2.287 -0.6104  0.0791  0.1632
 4665TIP3    H114001   4.456   5.718   2.309 -0.0622  1.1192 -0.4388
 4665TIP3    H214002   4.326   5.675   2.244 -0.2493 -0.6292  0.9958
 4666TIP3   OH214003   3.214   5.481   3.589 -0.3552  0.2315  0.2830
 4666TIP3    H114004   3.264   5.477   3.671  0.3944  0.3632 -0.1616
 4666TIP3    H214005   3.172   5.395   3.583 -0.9180  0.4306  1.1034
 4667TIP3   OH214006   3.442   5.201   2.581  0.3869  0.2095 -0.9981
 4667TIP3    H114007   3.513   5.243   2.533  0.3578  1.1888 -0.2063
 4667TIP3    H214008   3.362   5.235   2.540  0.3647  0.0135 -1.1201
 4668TIP3   OH214009   1.089   3.424   4.093  0.1457 -0.2144 -0.1437
 4668TIP3    H114010   1.042   3.463   4.167  0.5952  0.9911 -0.4818
 4668TIP3    H214011   1.047   3.459   4.015  0.3374 -0.6788 -0.4632
 4669TIP3   OH214012   5.021   1.107   1.956 -0.1308  0.0582 -0.5714
 4669TIP3    H114013   4.980   1.121   2.042 -0.3708 -1.4531 -0.4119
 4669TIP3    H214014   5.111   1.083   1.976 -0.4828 -1.4460 -0.6386
 4670TIP3   OH214015   1.159   0.212   2.983 -0.1437 -0.3080 -0.9006
 4670TIP3    H114016   1.240   0.225   2.933  0.2789 -0.6852 -0.3326
 4670TIP3    H214017   1.093   0.263   2.936  0.3826 -0.1453 -1.4792
 4671TIP3   OH214018   4.646   1.530   0.904 -0.1734 -0.1853  0.1066
 4671TIP3    H114019   4.571   1.484   0.941 -1.5333 -1.4393 -3.7661
 4671TIP3    H214020   4.707   1.461   0.878  0.6576  0.6093 -0.1185
 4672TIP3   OH214021   0.327   1.000   1.500  0.1678  0.1735  0.0411
 4672TIP3    H114022   0.282   1.081   1.524 -0.0305 -0.1186  0.6830
 4672TIP3    H214023   0.322   0.946   1.579 -0.3668 -0.7570 -0.6172
 4673TIP3   OH214024   6.136   0.202   2.719 -0.2888 -0.2085  0.0297
 4673TIP3    H114025   6.230   0.193   2.731 -0.2999 -0.0354  0.2770
 4673TIP3    H214026   6.100   0.201   2.808 -0.7830 -2.7898 -0.1114
 4674TIP3   OH214027   1.749   3.061   4.779  0.2508 -0.5800  0.5233
 4674TIP3    H114028   1.695   3.135   4.808  2.3524  1.2408  0.0261
 4674TIP3    H214029   1.816   3.101   4.724  2.1406 -2.7359  1.1449
 4675TIP3   OH214030   6.030   4.867   0.289  0.5465  0.0966 -0.0635
 4675TIP3    H114031   5.981   4.914   0.222  1.8483 -0.5083 -1.5056
 4675TIP3    H214032   5.970   4.799   0.319 -0.5624  1.2683  0.4472
 4676TIP3   OH214033   1.654   4.065   3.570 -0.1454 -0.3885 -0.3378
 4676TIP3    H114034   1.603   4.137   3.532 -1.6677 -2.1573 -1.8244
 4676TIP3    H214035   1.742   4.076   3.534 -0.2672  0.8809 -0.2966
 4677TIP3   OH214036   0.261   4.172   3.580 -0.0615  0.2040  0.6211
 4677TIP3    H114037   0.336   4.186   3.522 -0.1166 -2.4405 -0.2244
 4677TIP3    H214038   0.298   4.128   3.657 -0.7743 -2.0426 -0.2321
 4678TIP3   OH214039   4.388   3.530   1.051 -0.1372  0.1039  0.0226
 4678TIP3    H114040   4.324   3.569   0.990 -0.8670  0.0067  0.7086
 4678TIP3    H214041   4.472   3.565   1.022 -0.4435 -0.0372 -1.1258
 4679TIP3   OH214042   4.119   2.609   0.721 -0.1919 -0.2141  0.3866
 4679TIP3    H114043   4.079   2.568   0.643  0.9905  0.5378 -0.6560
 4679TIP3    H214044   4.061   2.683   0.741 -1.5557 -1.4968  1.4248
 4680TIP3   OH214045   2.790   1.879   1.760  0.1958 -0.1705  0.2635
 4680TIP3    H114046   2.777   1.862   1.853  0.8813 -1.4783  0.1413
 4680TIP3    H214047   2.843   1.959   1.757  1.2512 -0.8262  1.0354
 4681TIP3   OH214048   6.095   4.602   2.246  0.0367  0.2515 -0.2287
 4681TIP3    H114049   6.115   4.696   2.245  1.2455  0.0072 -0.5920
 4681TIP3    H214050   6.163   4.563   2.191  0.5630 -1.0344  1.2610
 4682TIP3   OH214051   4.453   5.543   3.031  0.6882  0.1908 -0.2001
 4682TIP3    H114052   4.477   5.469   2.976  1.7468 -0.0020  0.4975
 4682TIP3    H214053   4.383   5.510   3.087  0.6093 -0.0409 -0.4368
 4683TIP3   OH214054   2.120   2.215   3.520 -0.0287  0.1137 -0.5783
 4683TIP3    H114055   2.141   2.139   3.574  3.3838  2.1779  1.3885
 4683TIP3    H214056   2.191   2.219   3.456  0.0070  1.7399 -0.4790
 4684TIP3   OH214057   0.350   4.339   5.030  0.4701  0.0561  0.4223
 4684TIP3    H114058   0.381   4.421   5.070  0.1058  0.1302  0.5610
 4684TIP3    H214059   0.254   4.344   5.039  0.2894  0.5806 -1.4174
 4685TIP3   OH214060   4.854   3.759   2.829 -0.1280 -0.0681 -0.2174
 4685TIP3    H114061   4.869   3.811   2.908 -0.8968  0.3290 -0.3228
 4685TIP3    H214062   4.927   3.782   2.771  1.7297 -2.0287  1.1743
 4686TIP3   OH214063   2.192   0.753   1.583  0.1762 -0.3017  0.2108
 4686TIP3    H114064   2.235   0.747   1.668  1.6656 -1.1223 -0.5478
 4686TIP3    H214065   2.151   0.668   1.570 -0.1435 -0.1404  0.1469
 4687TIP3   OH214066   3.259   4.982   1.656  0.3003 -0.8919 -0.1030
 4687TIP3    H114067   3.258   5.054   1.719  0.0364  1.3624 -2.5001
 4687TIP3    H214068   3.170   4.980   1.621  1.0127 -0.4338 -2.0631
 4688TIP3   OH214069   2.930   4.780   2.572 -0.0529 -0.4738  0.1976
 4688TIP3    H114070   3.011   4.785   2.622 -0.2236 -1.2263  0.5760
 4688TIP3    H214071   2.931   4.692   2.534 -1.3872 -1.0834  1.4569
 4689TIP3   OH214072   2.238   1.885   3.383  0.1690 -0.1796  0.3803
 4689TIP3    H114073   2.302   1.876   3.453 -0.8673  0.1029  1.3921
 4689TIP3    H214074   2.155   1.858   3.422 -0.7564  1.6548 -0.1874
 4690TIP3   OH214075   2.129   3.014   1.866 -0.1010 -0.1251 -0.2832
 4690TIP3    H114076   2.142   2.922   1.888  0.5969 -0.4410 -1.9119
 4690TIP3    H214077   2.201   3.060   1.909 -1.0193 -0.1696  1.3811
 4691TIP3   OH214078   3.483   2.360   1.130  0.4265 -0.1209  0.6030
 4691TIP3    H114079   3.544   2.433   1.124  0.2982  0.0074  0.8495
 4691TIP3    H214080   3.474   2.343   1.224 -0.4466  0.3195  0.6086
 4692TIP3   OH214081   1.687   1.116   3.301  0.0607  0.5403  0.0654
 4692TIP3    H114082   1.699   1.069   3.384 -0.2087  1.0630  0.4052
 4692TIP3    H214083   1.626   1.062   3.252  1.8179 -0.8918 -0.6913
 4693TIP3   OH214084   2.321   4.552   1.034  0.3171  0.4957  0.5526
 4693TIP3    H114085   2.332   4.642   1.065 -0.3247  0.0720  2.0805
 4693TIP3    H214086   2.401   4.507   1.062  0.2062  0.3664  0.6652
 4694TIP3   OH214087   5.505   4.250   0.765  0.0551 -0.0501  0.0541
 4694TIP3    H114088   5.473   4.333   0.801  0.3926 -0.1284  0.5412
 4694TIP3    H214089   5.486   4.186   0.834  0.7422 -0.1930  0.1162
 4695TIP3   OH214090   4.473   5.251   2.081  0.3343 -0.2710 -0.0343
 4695TIP3    H114091   4.472   5.197   2.002  0.2807  1.2432 -1.0912
 4695TIP3    H214092   4.380   5.265   2.101  0.3263  1.1554 -0.9890
 4696TIP3   OH214093   3.278   3.055   0.062  0.1277  0.0168  0.0587
 4696TIP3    H114094   3.229   3.054  -0.020 -0.0564 -2.6120  0.1128
 4696TIP3    H214095   3.215   3.088   0.127 -0.9485 -1.2999 -0.2562
 4697TIP3   OH214096   1.542   1.434   0.285 -0.1281 -0.3229  0.3625
 4697TIP3    H114097   1.629   1.451   0.250 -0.2120 -1.9965 -0.7683
 4697TIP3    H214098   1.512   1.519   0.317  1.4081  0.5369 -0.3757
 4698TIP3   OH214099   5.990   3.358   1.867  0.2045  0.2046  0.1761
 4698TIP3    H114100   5.906   3.401   1.878  0.6469  1.2857 -0.5192
 4698TIP3    H214101   5.970   3.264   1.871 -0.6964  0.4356  2.2711
 4699TIP3   OH214102   1.780   2.046   4.411  0.2309  0.2536 -0.0399
 4699TIP3    H114103   1.730   2.126   4.426  0.8238  0.8769 -1.3034
 4699TIP3    H214104   1.860   2.074   4.368  0.1219 -1.0881 -1.1953
 4700TIP3   OH214105   4.048   3.685   3.737 -0.3250 -0.7344  0.2236
 4700TIP3    H114106   4.137   3.651   3.732  0.3851  0.4951  2.8799
 4700TIP3    H214107   4.005   3.629   3.802 -0.7446  0.1461  0.7180
 4701TIP3   OH214108   5.827   4.647   0.405  0.3378 -0.3663  0.3928
 4701TIP3    H114109   5.761   4.657   0.336 -0.2576  1.0498  1.1275
 4701TIP3    H214110   5.793   4.577   0.461 -0.7404  0.5778  0.9573
 4702TIP3   OH214111   2.158   1.206   2.273 -0.0438 -0.1298 -0.8566
 4702TIP3    H114112   2.159   1.274   2.206  0.9408  1.0205  0.2887
 4702TIP3    H214113   2.075   1.217   2.318 -1.2898 -1.6880 -2.5710
 4703TIP3   OH214114   1.987   2.134   4.236 -0.5214 -0.2144  0.0433
 4703TIP3    H114115   2.044   2.061   4.212 -0.5835  0.2754 -1.6910
 4703TIP3    H214116   2.030   2.212   4.201 -1.0839  0.4492  0.7680
 4704TIP3   OH214117   0.413   4.448   2.986  0.9821 -0.1769  0.2902
 4704TIP3    H114118   0.369   4.368   2.955  3.3139 -0.6777 -2.1343
 4704TIP3    H214119   0.387   4.455   3.078 -1.2298 -2.3503 -0.0450
 4705TIP3   OH214120   0.579   5.168   4.854 -0.0926  0.2968  0.4527
 4705TIP3    H114121   0.577   5.097   4.790  0.9631  1.0476 -0.4514
 4705TIP3    H214122   0.586   5.247   4.801 -1.6438  1.1229  1.4305
 4706TIP3   OH214123   1.223   1.600   0.421 -0.4183  0.1230  0.2393
 4706TIP3    H114124   1.282   1.627   0.350 -0.1413  0.9385  0.7626
 4706TIP3    H214125   1.144   1.654   0.407 -0.4755  0.0768  0.3859
 4707TIP3   OH214126   1.801   1.770   1.204  0.5179  0.4628 -0.2180
 4707TIP3    H114127   1.835   1.697   1.153  1.0344  0.3521  0.2839
 4707TIP3    H214128   1.724   1.734   1.249  2.1906 -0.5550  2.0436
 4708TIP3   OH214129   4.819   3.759   2.283 -0.0926  0.1150  0.3110
 4708TIP3    H114130   4.913   3.760   2.268  0.5459  1.6118  3.5098
 4708TIP3    H214131   4.787   3.839   2.242  0.5348  0.9409  1.3593
 4709TIP3   OH214132   2.863   1.574   4.777  0.9766  0.5346  0.5337
 4709TIP3    H114133   2.852   1.479   4.777 -0.7172  0.7066 -0.1084
 4709TIP3    H214134   2.776   1.609   4.759  2.1113  2.1334 -2.5816
 4710TIP3   OH214135   4.874   4.897   0.145  0.2545 -0.7087  0.1961
 4710TIP3    H114136   4.789   4.928   0.176  1.0178  1.1293  0.5702
 4710TIP3    H214137   4.923   4.977   0.125  2.7565 -1.5971  2.2985
 4711TIP3   OH214138   1.482   1.819   2.449  0.6878 -0.0299  0.1474
 4711TIP3    H114139   1.388   1.820   2.464  0.3834 -2.3539 -1.0496
 4711TIP3    H214140   1.496   1.881   2.378  0.3615  1.6244  1.4731
 4712TIP3   OH214141   4.711   1.743   2.485  0.3942  0.1447 -0.3398
 4712TIP3    H114142   4.720   1.815   2.422  0.8966  1.0140  0.6776
 4712TIP3    H214143   4.622   1.710   2.472  0.4504  0.3809 -1.4116
 4713TIP3   OH214144   2.823   4.058   4.496  0.1819 -0.3755  0.5529
 4713TIP3    H114145   2.888   4.007   4.544  1.4447  1.4546  0.8784
 4713TIP3    H214146   2.862   4.145   4.486 -0.6397 -0.2126 -2.4983
 4714TIP3   OH214147   4.669   2.405   2.067  0.7329  0.0525  0.2112
 4714TIP3    H114148   4.621   2.478   2.029  1.4074  0.4409  0.0882
 4714TIP3    H214149   4.731   2.379   1.999  1.1262 -0.0286  0.5964
 4715TIP3   OH214150   0.851   4.956   4.932 -0.2678 -0.6638 -0.2845
 4715TIP3    H114151   0.837   4.863   4.914 -0.0331 -0.2350 -2.9375
 4715TIP3    H214152   0.781   4.978   4.994 -2.8602 -1.7505 -2.6121
 4716TIP3   OH214153   0.203   3.426   2.763  0.4698  0.0520  0.6663
 4716TIP3    H114154   0.136   3.391   2.704 -1.4583  0.5932  2.3994
 4716TIP3    H214155   0.251   3.349   2.794  0.0066 -0.4607  0.1289
 4717TIP3   OH214156   5.608   4.783   0.628 -0.1080  0.2105 -0.7345
 4717TIP3    H114157   5.633   4.814   0.541  1.1659 -1.8420 -1.1746
 4717TIP3    H214158   5.513   4.776   0.625 -0.0667  0.0024 -2.0373
 4718TIP3   OH214159   0.613   2.465   0.121  0.3421  0.0695 -0.1465
 4718TIP3    H114160   0.653   2.467   0.034  0.9286 -0.9290  0.0964
 4718TIP3    H214161   0.546   2.398   0.115  1.1562 -0.8282  0.4867
 4719TIP3   OH214162   4.768   4.764   3.289  0.3474  0.0617 -0.3251
 4719TIP3    H114163   4.743   4.707   3.361  1.8873 -0.3718 -0.0948
 4719TIP3    H214164   4.687   4.777   3.239 -0.1721 -1.9037 -0.0924
 4720TIP3   OH214165   4.861   4.320   0.002 -0.0201  0.3427  0.4662
 4720TIP3    H114166   4.783   4.333   0.056 -0.2154 -0.6914  0.4564
 4720TIP3    H214167   4.874   4.226   0.001 -0.0193  0.3227 -1.2929
 4721TIP3   OH214168   5.527   4.472   1.427  0.4021  0.3552  0.5747
 4721TIP3    H114169   5.493   4.429   1.349  1.8177  1.6820 -0.8553
 4721TIP3    H214170   5.563   4.401   1.480  1.2089 -0.4020 -0.9285
 4722TIP3   OH214171   4.776   2.133   2.019  1.1490  0.2096 -0.3597
 4722TIP3    H114172   4.826   2.058   1.986  0.5108 -0.2458 -0.3269
 4722TIP3    H214173   4.815   2.209   1.977  2.0036 -0.1111 -0.1659
 4723TIP3   OH214174   0.643   1.968   4.917 -0.2806  0.0631  0.0121
 4723TIP3    H114175   0.585   1.897   4.943 -0.3426 -0.6548 -1.9176
 4723TIP3    H214176   0.588   2.047   4.921 -1.3774 -0.5746 -1.6099
 4724TIP3   OH214177   1.323   1.568   1.887 -0.1283 -0.5409  0.5063
 4724TIP3    H114178   1.250   1.617   1.926 -0.2006  0.0912 -0.3921
 4724TIP3    H214179   1.316   1.481   1.925  1.4209  0.6899  4.0024
 4725TIP3   OH214180   4.483   3.599   3.420 -0.1279  0.2663 -0.2875
 4725TIP3    H114181   4.404   3.575   3.470  0.8091 -1.1681  0.5751
 4725TIP3    H214182   4.552   3.603   3.486  0.3297  2.8398 -0.8118
 4726TIP3   OH214183   1.164   2.447   0.930  0.5038 -0.1251 -0.2547
 4726TIP3    H114184   1.078   2.475   0.960  1.0554  1.0438  0.2582
 4726TIP3    H214185   1.176   2.491   0.846  0.7814  0.0410 -0.1270
 4727TIP3   OH214186   2.303   5.024   0.861 -0.3861  0.7118 -0.4417
 4727TIP3    H114187   2.226   4.983   0.820 -0.6373 -1.5638  2.0513
 4727TIP3    H214188   2.267   5.098   0.910 -1.1631 -0.6882  1.1891
 4728TIP3   OH214189   1.491   2.859   1.620 -0.1068  0.1614 -0.1398
 4728TIP3    H114190   1.507   2.778   1.571  0.9865  0.6134 -0.5568
 4728TIP3    H214191   1.536   2.846   1.703  1.7056  1.0381 -0.9250
 4729TIP3   OH214192   4.681   0.462   3.840 -0.0846 -0.4123 -0.5882
 4729TIP3    H114193   4.763   0.499   3.807  0.5848 -1.5675 -0.2407
 4729TIP3    H214194   4.663   0.388   3.783 -1.2783  0.2347 -1.1014
 4730TIP3   OH214195   4.054   5.192   2.346  0.6446 -0.1789  0.1715
 4730TIP3    H114196   3.986   5.216   2.283  2.1121  0.6254 -1.1950
 4730TIP3    H214197   4.057   5.096   2.343 -2.8677 -0.5976  3.0482
 4731TIP3   OH214198   3.553   5.522   1.106  0.0031  0.5235  0.0440
 4731TIP3    H114199   3.558   5.430   1.081 -1.2504  0.4925 -0.1507
 4731TIP3    H214200   3.587   5.525   1.195  1.5455  0.1362 -0.5029
 4732TIP3   OH214201   2.297   0.371   3.301  0.0474 -0.2368  0.0030
 4732TIP3    H114202   2.252   0.289   3.282 -0.8360 -0.2578  1.9669
 4732TIP3    H214203   2.254   0.436   3.246 -0.0881 -0.8621 -0.6417
 4733TIP3   OH214204   0.957   5.043   1.739 -0.3351  0.4225 -0.2005
 4733TIP3    H114205   0.917   4.956   1.742 -2.9235  1.4567 -1.3599
 4733TIP3    H214206   0.991   5.057   1.828  1.1780 -2.1622 -0.2946
 4734TIP3   OH214207   3.342   5.197   4.859 -0.2427  0.5876 -0.4610
 4734TIP3    H114208   3.438   5.199   4.862 -0.2432  1.1858 -0.6543
 4734TIP3    H214209   3.321   5.106   4.838  0.2396  0.2035  0.6640
 4735TIP3   OH214210   2.733   5.691   2.768  0.2723 -0.6535 -0.0654
 4735TIP3    H114211   2.716   5.784   2.755  0.4704 -0.5008  0.7297
 4735TIP3    H214212   2.816   5.688   2.816  0.1376 -1.2305  0.1391
 4736TIP3   OH214213   3.175   1.942   1.620 -0.6966  0.2303  0.1073
 4736TIP3    H114214   3.156   1.855   1.586 -0.4690 -0.7941  2.3852
 4736TIP3    H214215   3.267   1.957   1.598 -0.9069  0.1853 -0.8336
 4737TIP3   OH214216   0.457   2.134   2.312  0.1977  0.4054 -0.5439
 4737TIP3    H114217   0.394   2.195   2.350  0.1778  0.1588 -0.1764
 4737TIP3    H214218   0.470   2.067   2.379  0.1530 -0.0460 -0.9758
 4738TIP3   OH214219   3.576   1.967   2.420 -0.0602 -0.3197 -0.4738
 4738TIP3    H114220   3.655   1.956   2.473  0.2015  0.5534 -0.6727
 4738TIP3    H214221   3.553   2.060   2.430 -0.5802 -0.3794 -1.0875
 4739TIP3   OH214222   5.113   0.289   4.392  0.2001 -0.8966 -0.3068
 4739TIP3    H114223   5.073   0.262   4.309 -0.1467  1.4819 -0.9724
 4739TIP3    H214224   5.071   0.372   4.413  2.2409 -0.0839  0.8406
 4740TIP3   OH214225   2.314   3.652   0.432  0.3453 -0.0741 -0.0692
 4740TIP3    H114226   2.358   3.582   0.480 -0.0483 -0.8985 -0.9015
 4740TIP3    H214227   2.333   3.731   0.483  1.5892 -0.6317  0.3582
 4741TIP3   OH214228   2.438   3.530   3.425  0.5166 -0.0749 -0.0349
 4741TIP3    H114229   2.484   3.570   3.351 -0.9300  0.1893 -0.8366
 4741TIP3    H214230   2.365   3.483   3.384 -1.7654  2.0546  1.3140
 4742TIP3   OH214231   2.393   3.320   4.622 -0.3350  0.1493 -0.2139
 4742TIP3    H114232   2.456   3.254   4.651 -0.7799  0.3812  1.3587
 4742TIP3    H214233   2.416   3.336   4.530 -0.0360 -1.9641 -0.5568
 4743TIP3   OH214234   1.634   4.052   0.922 -0.0762  0.0166 -0.2466
 4743TIP3    H114235   1.714   4.092   0.889 -1.2448  0.9813 -2.0127
 4743TIP3    H214236   1.638   4.067   1.017  1.3254  0.9313 -0.4176
 4744TIP3   OH214237   5.989   1.161   3.826 -0.4786 -0.6094 -0.5627
 4744TIP3    H114238   6.065   1.208   3.861 -2.0061  2.4378 -0.9360
 4744TIP3    H214239   5.932   1.147   3.902 -1.1188  0.5095 -0.8061
 4745TIP3   OH214240   5.288   5.557   2.359  0.0854  0.0409 -0.1109
 4745TIP3    H114241   5.226   5.602   2.416 -0.5345  0.9291 -1.4254
 4745TIP3    H214242   5.235   5.495   2.309  0.5109 -0.2685 -0.1846
 4746TIP3   OH214243   6.178   1.289   0.236 -0.1137 -0.4224  0.1951
 4746TIP3    H114244   6.244   1.356   0.254 -0.4059 -0.4412  1.4516
 4746TIP3    H214245   6.171   1.240   0.318 -2.7092  0.4955  0.6144
 4747TIP3   OH214246   0.318   1.452   1.666  0.0987  0.3215  0.2144
 4747TIP3    H114247   0.275   1.376   1.627  0.0789  1.0268 -1.1898
 4747TIP3    H214248   0.324   1.516   1.595  0.4253  1.5110  1.2697
 4748TIP3   OH214249   4.040   4.078   1.834 -0.1850 -0.0893  0.3629
 4748TIP3    H114250   4.028   4.018   1.760 -0.3462 -1.6726  1.6254
 4748TIP3    H214251   4.122   4.123   1.814  0.3711 -1.3117 -0.2481
 4749TIP3   OH214252   6.294   0.283   4.420  0.0245 -0.4655 -0.3653
 4749TIP3    H114253   6.266   0.363   4.465 -3.0674 -0.9768 -1.1533
 4749TIP3    H214254   6.386   0.298   4.399 -0.1204  2.3486  0.5994
 4750TIP3   OH214255   3.505   0.824   2.836  0.1040  0.0133  0.5640
 4750TIP3    H114256   3.457   0.850   2.914 -0.7407  1.7152 -0.4687
 4750TIP3    H214257   3.592   0.863   2.846  0.9908 -2.1251  1.9048
 4751TIP3   OH214258   1.252   4.914   4.217  0.4630 -0.0427  0.1253
 4751TIP3    H114259   1.287   5.003   4.207 -0.9120  0.6150  0.8428
 4751TIP3    H214260   1.319   4.857   4.178  1.1775  1.3303 -0.7276
 4752TIP3   OH214261   5.243   3.918   4.210  0.4708  0.1080 -0.1689
 4752TIP3    H114262   5.308   3.972   4.164  1.0589  0.5589  1.1579
 4752TIP3    H214263   5.253   3.941   4.302 -0.2021 -1.2979  0.2844
 4753TIP3   OH214264   0.864   4.695   2.096  0.1557  0.4397 -0.1603
 4753TIP3    H114265   0.908   4.619   2.135 -1.1395 -1.6743 -2.4696
 4753TIP3    H214266   0.935   4.752   2.066  1.2140 -0.5582  0.3691
 4754TIP3   OH214267   1.432   0.922   3.391  0.0663  0.2628  0.4448
 4754TIP3    H114268   1.473   0.941   3.307  0.0177  0.2068  0.4085
 4754TIP3    H214269   1.342   0.898   3.369  0.3239 -0.6970  0.4314
 4755TIP3   OH214270   5.635   1.236   3.577 -0.0914 -0.0794 -0.1349
 4755TIP3    H114271   5.545   1.210   3.558  0.0628 -0.0478 -0.9269
 4755TIP3    H214272   5.629   1.287   3.658 -0.6936 -0.6292  0.1742
 4756TIP3   OH214273   2.852   5.976   4.839  0.7761  0.4352 -0.4502
 4756TIP3    H114274   2.781   5.911   4.843  0.1293  1.2205  1.8721
 4756TIP3    H214275   2.924   5.929   4.797 -0.0947 -1.3848 -0.0159
 4757TIP3   OH214276   1.803   0.166   5.065 -0.1269  0.2891  0.6441
 4757TIP3    H114277   1.858   0.095   5.098  2.7630  1.3003 -1.6024
 4757TIP3    H214278   1.803   0.231   5.136 -0.9718 -0.9623  1.8353
 4758TIP3   OH214279   1.483   0.102   4.138 -0.2401 -0.0052 -0.2073
 4758TIP3    H114280   1.471   0.142   4.224 -0.1079 -0.2734 -0.0642
 4758TIP3    H214281   1.394   0.095   4.103 -0.3686 -0.6284  0.2379
 4759TIP3   OH214282   0.504   2.288   1.718 -0.0169  0.2589 -0.2376
 4759TIP3    H114283   0.536   2.213   1.768 -1.4354 -1.5657 -1.9317
 4759TIP3    H214284   0.453   2.339   1.781  0.3618 -0.5670  0.7670
 4760TIP3   OH214285   5.805   1.653   5.123 -0.0935  0.1426  0.0431
 4760TIP3    H114286   5.737   1.659   5.057 -0.7831  2.3998  0.8515
 4760TIP3    H214287   5.849   1.738   5.119 -0.2187  0.3899  2.5016
 4761TIP3   OH214288   0.927   1.090   4.756 -0.3510  0.0503  0.0833
 4761TIP3    H114289   0.938   1.000   4.784 -0.7986 -0.3213 -0.8868
 4761TIP3    H214290   1.016   1.119   4.734  0.0016  0.3370  1.7578
 4762TIP3   OH214291   3.499   0.445   4.064  0.1817  0.2058 -0.3597
 4762TIP3    H114292   3.411   0.479   4.078  0.0840 -0.4939  0.9453
 4762TIP3    H214293   3.486   0.351   4.052  0.6789  0.2256 -1.1183
 4763TIP3   OH214294   4.127   2.317   4.171  0.4533  0.5192  0.1195
 4763TIP3    H114295   4.136   2.366   4.253  1.6670 -0.9610  0.9156
 4763TIP3    H214296   4.200   2.255   4.173 -1.1572 -1.4744 -0.7308
 4764TIP3   OH214297   1.455   5.419   4.440 -0.1889  0.2458  0.1236
 4764TIP3    H114298   1.383   5.425   4.378  0.0933 -2.0689 -0.5604
 4764TIP3    H214299   1.414   5.408   4.525 -0.6004  1.0552  0.0357
 4765TIP3   OH214300   5.412   5.130   4.982 -0.0958  0.3478  0.2959
 4765TIP3    H114301   5.507   5.115   4.976  0.1354  1.7573  0.2125
 4765TIP3    H214302   5.398   5.154   5.073 -0.7083 -1.8321  0.8368
 4766TIP3   OH214303   1.449   2.731   2.958  0.6546 -0.3940 -0.3468
 4766TIP3    H114304   1.368   2.757   3.001 -0.0741 -0.5970 -1.5427
 4766TIP3    H214305   1.486   2.813   2.925  2.0723 -0.0051  1.9957
 4767TIP3   OH214306   5.740   3.298   4.757  0.1607 -0.3572  0.5984
 4767TIP3    H114307   5.835   3.307   4.745  0.2302  0.0285  1.4201
 4767TIP3    H214308   5.731   3.227   4.820 -0.1502 -1.1775 -0.3387
 4768TIP3   OH214309   4.175   2.325   3.051  0.2980  0.1176 -0.0194
 4768TIP3    H114310   4.233   2.342   3.125  0.2464 -0.6837  0.2222
 4768TIP3    H214311   4.232   2.285   2.985 -0.0488 -1.1044  0.3961
 4769TIP3   OH214312   6.052   2.921   3.054  0.5343 -0.0074 -0.5421
 4769TIP3    H114313   5.978   2.900   3.111 -0.3531 -1.5558 -2.1749
 4769TIP3    H214314   6.129   2.893   3.105 -0.1517 -0.4648  0.2901
 4770TIP3   OH214315   3.145   4.931   1.355  0.4708 -0.3799 -0.3290
 4770TIP3    H114316   3.083   4.953   1.425 -1.8989 -0.1504 -2.3821
 4770TIP3    H214317   3.199   4.861   1.393 -1.6917 -1.3016  1.2645
 4771TIP3   OH214318   5.201   5.546   3.170 -0.3151  0.5167 -0.1330
 4771TIP3    H114319   5.250   5.562   3.089 -1.0022 -0.9843 -0.8897
 4771TIP3    H214320   5.267   5.551   3.239  0.7237 -0.3258 -1.0189
 4772TIP3   OH214321   1.419   2.046   4.609 -1.3642  0.3176 -0.2033
 4772TIP3    H114322   1.464   2.044   4.693 -1.5119  1.6958 -0.0603
 4772TIP3    H214323   1.457   1.975   4.558 -0.7231 -0.0307  0.7550
 4773TIP3   OH214324   1.769   0.535   0.352 -0.3706 -0.6010 -0.4916
 4773TIP3    H114325   1.822   0.455   0.360 -1.4682 -1.3903 -0.8475
 4773TIP3    H214326   1.696   0.521   0.412 -0.6778  0.0474 -0.7124
 4774TIP3   OH214327   0.282   2.459   0.005  0.0771 -0.0736 -0.3867
 4774TIP3    H114328   0.376   2.451   0.015  0.2258 -0.2007 -1.6890
 4774TIP3    H214329   0.254   2.514   0.079  1.2322  0.3788 -0.2731
 4775TIP3   OH214330   0.948   2.094   1.167  0.3451 -0.1759 -0.6472
 4775TIP3    H114331   0.900   2.115   1.086  0.9604  1.5670 -0.5995
 4775TIP3    H214332   1.025   2.150   1.164 -0.2987  0.9628  1.7947
 4776TIP3   OH214333   6.293   3.295   1.964 -0.4763  0.3566 -0.9418
 4776TIP3    H114334   6.204   3.268   1.988 -0.8345  0.9637 -1.5706
 4776TIP3    H214335   6.305   3.262   1.875  0.1692 -0.2582 -0.6469
 4777TIP3   OH214336   5.208   4.125   2.894 -0.0502 -0.3759 -0.3474
 4777TIP3    H114337   5.117   4.129   2.863 -0.2733 -0.4708  0.2863
 4777TIP3    H214338   5.260   4.119   2.814 -0.5606  0.3367 -0.7405
 4778TIP3   OH214339   4.642   1.774   5.036 -0.1009 -0.3274  0.2262
 4778TIP3    H114340   4.549   1.755   5.019  0.1185 -0.9522 -0.3679
 4778TIP3    H214341   4.656   1.861   5.000 -0.3144 -0.4920 -0.2640
 4779TIP3   OH214342   1.934   3.215   2.034 -0.1955  0.2342  0.6549
 4779TIP3    H114343   1.990   3.276   2.082 -0.0536  0.6653 -0.0472
 4779TIP3    H214344   1.986   3.134   2.030  0.2662  0.5367  0.2783
 4780TIP3   OH214345   1.000   1.263   0.435  0.0463  0.7665  0.3011
 4780TIP3    H114346   0.907   1.262   0.458  0.1686 -1.5556  0.9190
 4780TIP3    H214347   1.002   1.249   0.340 -0.2521  4.5263 -0.4402
 4781TIP3   OH214348   5.213   0.098   4.087  0.0141  0.0066  0.0676
 4781TIP3    H114349   5.265   0.018   4.081  0.1597 -0.1387  2.2677
 4781TIP3    H214350   5.276   0.169   4.079 -0.0332 -0.0798 -1.2684
 4782TIP3   OH214351   2.388   5.341   3.178 -0.4626  0.1587  0.1048
 4782TIP3    H114352   2.442   5.311   3.251  0.2363  1.9353  0.3884
 4782TIP3    H214353   2.442   5.327   3.100 -0.6179 -0.3817  0.0907
 4783TIP3   OH214354   3.637   1.589   4.256  0.1319 -0.1494 -0.4949
 4783TIP3    H114355   3.686   1.506   4.246  3.1729  1.5774 -1.3079
 4783TIP3    H214356   3.644   1.610   4.348  0.4932 -0.1631 -0.5176
 4784TIP3   OH214357   5.653   0.867   3.847 -0.1000 -1.1094 -0.4459
 4784TIP3    H114358   5.645   0.961   3.832 -0.5364 -1.0137  0.3181
 4784TIP3    H214359   5.562   0.836   3.850 -0.0066 -1.3133  0.6924
 4785TIP3   OH214360   0.452   1.247   0.149 -0.2163  0.6219 -0.6420
 4785TIP3    H114361   0.527   1.188   0.154 -1.7172 -1.7195 -3.1595
 4785TIP3    H214362   0.458   1.288   0.063 -0.2354  2.8239  0.3277
 4786TIP3   OH214363   4.220   4.461   2.370 -0.1607 -0.2868 -0.5096
 4786TIP3    H114364   4.223   4.376   2.415 -1.0883 -0.8098 -1.4016
 4786TIP3    H214365   4.129   4.469   2.339 -0.2767  1.3427  0.1377
 4787TIP3   OH214366   2.528   5.679   0.195  0.2184 -0.4428 -0.2269
 4787TIP3    H114367   2.537   5.638   0.109  1.1740 -0.9385  0.0877
 4787TIP3    H214368   2.509   5.606   0.255 -0.3042 -0.1211  0.0077
 4788TIP3   OH214369   0.947   0.428   3.733 -0.3903  0.5822  0.7642
 4788TIP3    H114370   0.945   0.523   3.731  0.4806  0.6020  0.2683
 4788TIP3    H214371   1.040   0.405   3.739 -0.3929 -0.2384 -1.2943
 4789TIP3   OH214372   0.494   1.604   0.246  0.2691  0.0498  0.6545
 4789TIP3    H114373   0.430   1.558   0.300  0.4314 -0.1814  0.6507
 4789TIP3    H214374   0.473   1.578   0.157  0.3407  0.0094  0.6495
 4790TIP3   OH214375   5.034   2.773   3.297  0.3708 -0.3318 -0.6255
 4790TIP3    H114376   5.051   2.685   3.262 -1.1399 -0.8700 -0.0980
 4790TIP3    H214377   4.943   2.790   3.275  0.6718  1.1751 -0.8083
 4791TIP3   OH214378   4.330   2.348   0.936 -0.0249  0.1979 -0.0773
 4791TIP3    H114379   4.251   2.392   0.968 -0.7367 -1.0817 -0.0209
 4791TIP3    H214380   4.300   2.297   0.860  1.0308  0.7738 -0.9120
 4792TIP3   OH214381   3.979   3.071   2.026  0.2809 -0.4868  0.4840
 4792TIP3    H114382   4.051   3.019   1.990  0.3394  0.8780 -1.5445
 4792TIP3    H214383   3.901   3.019   2.008  0.5050 -0.7029  0.1178
 4793TIP3   OH214384   6.246   3.990   1.859 -0.0920  0.3883 -0.4127
 4793TIP3    H114385   6.260   3.963   1.768  1.3909 -1.2217  0.2341
 4793TIP3    H214386   6.182   3.927   1.893  1.3900 -0.7457  0.3740
 4794TIP3   OH214387   1.156   4.489   4.120  0.2378 -0.4207 -0.6086
 4794TIP3    H114388   1.212   4.482   4.198  0.7553  1.3376 -0.7947
 4794TIP3    H214389   1.145   4.398   4.091  3.2586 -0.8481 -0.7497
 4795TIP3   OH214390   1.434   3.918   2.020 -0.4483  0.6180 -0.3660
 4795TIP3    H114391   1.443   4.007   1.985 -1.9461  0.5603 -0.9455
 4795TIP3    H214392   1.423   3.863   1.942 -0.4515  0.0443  0.0361
 4796TIP3   OH214393   5.381   3.056   0.146  0.3182 -1.0317  0.2520
 4796TIP3    H114394   5.436   3.066   0.068 -0.2878  2.9786  0.1086
 4796TIP3    H214395   5.316   3.126   0.139  0.5539 -0.0648  4.5841
 4797TIP3   OH214396   5.042   5.392   4.749 -0.2322 -0.1706 -0.1079
 4797TIP3    H114397   5.088   5.452   4.808  2.4993 -0.6079 -1.6247
 4797TIP3    H214398   4.975   5.351   4.803 -2.6234  4.4648  0.9383
 4798TIP3   OH214399   4.014   3.412   0.510  0.6447  0.3970  0.2364
 4798TIP3    H114400   4.038   3.321   0.491 -2.3297  0.0314 -2.6752
 4798TIP3    H214401   3.997   3.413   0.604  2.8697 -1.4223  0.7745
 4799TIP3   OH214402   5.508   0.546   3.803 -0.5604 -0.2418  0.0000
 4799TIP3    H114403   5.440   0.490   3.764 -0.4131 -0.7823  0.5079
 4799TIP3    H214404   5.459   0.615   3.848 -0.7795 -0.6074  0.3299
 4800TIP3   OH214405   3.876   4.075   1.567  0.7892  0.4798 -0.0966
 4800TIP3    H114406   3.863   4.109   1.656  1.0163 -1.2922  0.6520
 4800TIP3    H214407   3.958   4.114   1.538  0.9026  0.8011  0.6217
 4801TIP3   OH214408   1.079   0.162   4.822 -0.0539  0.1993  0.2190
 4801TIP3    H114409   1.039   0.108   4.890 -0.7769  1.7479  1.0655
 4801TIP3    H214410   1.162   0.191   4.861  0.1771 -0.0188 -0.1044
 4802TIP3   OH214411   5.428   4.287   0.480  0.1039 -0.3201 -0.0138
 4802TIP3    H114412   5.350   4.318   0.526  1.2490  1.3264  0.9358
 4802TIP3    H214413   5.484   4.251   0.549  0.1832 -1.5437 -0.6928
 4803TIP3   OH214414   1.071   4.050   1.225  0.0518  0.6331 -0.0988
 4803TIP3    H114415   1.025   3.966   1.214  1.1772  0.0242 -0.3459
 4803TIP3    H214416   1.012   4.115   1.186 -1.4608  0.1739  1.3410
 4804TIP3   OH214417   3.260   1.226   2.714 -0.5796  0.5079 -0.4245
 4804TIP3    H114418   3.272   1.321   2.710 -1.0091  0.7719  2.4546
 4804TIP3    H214419   3.188   1.214   2.775 -0.0465 -1.7150 -0.1631
 4805TIP3   OH214420   2.908   1.741   1.278  0.2768  0.0015 -0.3802
 4805TIP3    H114421   2.867   1.794   1.210 -1.4811 -0.6770  0.1146
 4805TIP3    H214422   2.835   1.700   1.324  1.4575 -0.0926  1.4937
 4806TIP3   OH214423   2.572   3.405   0.827  0.1618  0.3468 -0.2488
 4806TIP3    H114424   2.513   3.421   0.900  1.3732  0.9180  0.6334
 4806TIP3    H214425   2.609   3.491   0.806 -0.3359  0.2311 -1.6911
 4807TIP3   OH214426   0.506   4.685   0.101 -0.5123 -0.1463  0.1482
 4807TIP3    H114427   0.438   4.702   0.166 -0.9110  0.2164 -0.3575
 4807TIP3    H214428   0.479   4.734   0.024 -0.3236 -0.9920 -0.4791
 4808TIP3   OH214429   3.066   4.337   1.548  0.1259  0.2583 -0.2156
 4808TIP3    H114430   3.015   4.318   1.627  1.5799  0.7214  0.8991
 4808TIP3    H214431   3.010   4.394   1.495 -1.1690 -0.6778  0.1293
 4809TIP3   OH214432   1.108   5.139   1.932 -0.2747  0.3902  0.5410
 4809TIP3    H114433   1.149   5.210   1.882 -1.1577  1.6044  1.4752
 4809TIP3    H214434   1.133   5.156   2.023  2.5371 -2.6139  0.4987
 4810TIP3   OH214435   4.118   4.787   4.538  0.1504  0.8481  0.3841
 4810TIP3    H114436   4.024   4.778   4.555  0.3665  1.0909  1.8510
 4810TIP3    H214437   4.128   4.878   4.508 -0.1883  0.5612 -0.6076
 4811TIP3   OH214438   3.434   0.897   1.780  0.2079  0.2520  0.3843
 4811TIP3    H114439   3.491   0.820   1.777 -1.2714 -0.9094  1.0738
 4811TIP3    H214440   3.451   0.936   1.866  0.2732  0.1497  0.4184
 4812TIP3   OH214441   2.498   5.934   1.327  0.2427 -0.1301 -0.1866
 4812TIP3    H114442   2.421   5.974   1.367  1.6822  1.9796  0.6678
 4812TIP3    H214443   2.519   5.992   1.253  0.5620 -1.1368 -0.9127
 4813TIP3   OH214444   3.930   3.929   4.983 -0.1547  0.2699  0.6491
 4813TIP3    H114445   4.016   3.927   4.943 -0.8610  1.6457 -1.0293
 4813TIP3    H214446   3.936   3.998   5.049  0.2238 -0.1639  1.0812
 4814TIP3   OH214447   4.753   0.773   1.415 -0.5249 -0.8434 -0.1263
 4814TIP3    H114448   4.799   0.722   1.348  2.3101  0.0179  1.0075
 4814TIP3    H214449   4.817   0.785   1.485 -0.6169  4.7125 -0.4991
 4815TIP3   OH214450   4.933   0.483   4.283 -0.2693 -0.1227  0.4049
 4815TIP3    H114451   4.883   0.536   4.221  0.5275  0.9777  0.6698
 4815TIP3    H214452   4.881   0.403   4.293 -1.4406  0.5345 -0.1152
 4816TIP3   OH214453   6.130   3.378   3.359 -1.0050 -0.0378 -0.4566
 4816TIP3    H114454   6.060   3.387   3.424  0.9599 -0.2390  1.7951
 4816TIP3    H214455   6.165   3.290   3.374 -1.1253 -0.4812 -2.5045
 4817TIP3   OH214456   5.034   5.620   1.565 -0.4302  0.2333 -0.6352
 4817TIP3    H114457   4.941   5.613   1.587 -0.3839  0.1599 -0.4567
 4817TIP3    H214458   5.063   5.701   1.608  0.2377 -1.1460  1.7277
 4818TIP3   OH214459   3.000   4.199   0.683 -0.2007  0.5244 -0.1695
 4818TIP3    H114460   3.009   4.108   0.711 -1.8194 -0.3952 -2.3214
 4818TIP3    H214461   3.013   4.250   0.763 -0.9247 -1.6722  1.4493
 4819TIP3   OH214462   1.852   2.383   4.823 -0.3692  0.5005  0.7825
 4819TIP3    H114463   1.892   2.464   4.853 -1.0659  1.2897 -0.3180
 4819TIP3    H214464   1.921   2.338   4.775 -0.1755  0.7861  0.7932
 4820TIP3   OH214465   2.597   5.519   2.097  0.1918 -0.3703  0.0693
 4820TIP3    H114466   2.651   5.495   2.022  1.2411  0.0198  0.6754
 4820TIP3    H214467   2.511   5.483   2.077  0.2946  0.2033 -1.5828
 4821TIP3   OH214468   1.321   2.341   3.597  0.5930 -0.0470 -0.0535
 4821TIP3    H114469   1.272   2.411   3.641  1.1609  1.0715 -1.1367
 4821TIP3    H214470   1.351   2.285   3.668 -0.8934  0.1265  0.7594
 4822TIP3   OH214471   1.288   1.324   1.997 -0.2310 -0.1302  0.1304
 4822TIP3    H114472   1.262   1.239   1.961 -2.1995  0.0294  1.0705
 4822TIP3    H214473   1.259   1.322   2.088  0.5028  1.2250  0.4231
 4823TIP3   OH214474   3.073   3.963   0.823 -0.0219 -0.1146 -0.2218
 4823TIP3    H114475   3.158   3.994   0.853 -0.1629  1.1670 -1.0460
 4823TIP3    H214476   3.091   3.924   0.737  0.0831 -1.9986  0.6241
 4824TIP3   OH214477   5.095   1.963   4.755 -0.5205 -0.0686  0.1412
 4824TIP3    H114478   5.096   2.025   4.828  0.0379  0.6391 -0.4533
 4824TIP3    H214479   5.003   1.936   4.749 -1.5718  3.2797 -1.6685
 4825TIP3   OH214480   2.865   2.996   0.055 -0.1031 -0.6937 -0.0733
 4825TIP3    H114481   2.879   3.041   0.138  1.0362 -0.4937 -0.3491
 4825TIP3    H214482   2.841   2.907   0.079 -0.2336 -0.5139  0.4664
 4826TIP3   OH214483   0.890   4.277   1.659 -0.3046 -0.6620  0.6155
 4826TIP3    H114484   0.800   4.274   1.691 -0.8283  0.0390 -0.6872
 4826TIP3    H214485   0.881   4.273   1.563  1.0154  0.0056  0.4451
 4827TIP3   OH214486   2.278   2.150   1.303 -0.0139 -0.1969  0.4600
 4827TIP3    H114487   2.288   2.068   1.255  0.8728 -0.7614  1.5690
 4827TIP3    H214488   2.348   2.149   1.368 -0.2380  1.2591  0.7638
 4828TIP3   OH214489   1.928   5.042   0.920  0.3494  0.0383  0.5071
 4828TIP3    H114490   1.833   5.043   0.932  0.1933 -2.3749  0.0937
 4828TIP3    H214491   1.947   5.121   0.870 -1.9018 -0.8402 -1.9798
 4829TIP3   OH214492   6.009   3.340   3.019 -0.3420  0.1248 -0.0615
 4829TIP3    H114493   6.069   3.300   3.082 -1.5107 -0.7987  0.5004
 4829TIP3    H214494   5.983   3.269   2.961 -1.5966  0.2745  0.2740
 4830TIP3   OH214495   4.878   1.194   3.625  0.4732  0.1937  0.1383
 4830TIP3    H114496   4.793   1.237   3.636  0.1228 -0.5671  0.4748
 4830TIP3    H214497   4.928   1.254   3.570  0.3595  1.5218  1.4233
 4831TIP3   OH214498   5.978   0.234   3.484  0.2158 -0.5572 -0.2079
 4831TIP3    H114499   6.052   0.201   3.433  0.1241  1.5216 -1.8206
 4831TIP3    H214500   5.901   0.202   3.438  0.1182 -1.0167  0.2729
 4832TIP3   OH214501   3.449   3.489   1.356  0.2653 -0.4639  0.2103
 4832TIP3    H114502   3.459   3.574   1.314 -1.4837 -0.1189  0.4119
 4832TIP3    H214503   3.419   3.509   1.445  0.6585 -1.2804  0.5451
 4833TIP3   OH214504   3.539   0.602   4.444  0.0259  0.2181  0.5889
 4833TIP3    H114505   3.458   0.555   4.461  0.2338  0.3175  1.9219
 4833TIP3    H214506   3.590   0.542   4.388  0.5854 -1.5305  2.8017
 4834TIP3   OH214507   1.138   2.800   3.103 -0.0361 -0.3864 -0.0338
 4834TIP3    H114508   1.095   2.729   3.150 -2.4630  2.3040  2.1267
 4834TIP3    H214509   1.067   2.850   3.063  1.4573  1.4678 -0.5623
 4835TIP3   OH214510   0.175   0.929   2.707 -0.6342  0.1782  0.3088
 4835TIP3    H114511   0.217   1.005   2.667  2.4860 -1.6782 -0.2684
 4835TIP3    H214512   0.165   0.953   2.799  0.2537  1.3045  0.1330
 4836TIP3   OH214513   2.483   5.821   4.567 -0.5185 -0.4808  0.1270
 4836TIP3    H114514   2.489   5.898   4.511  1.8583 -0.1652  0.7013
 4836TIP3    H214515   2.448   5.752   4.511 -2.6338  0.9717 -0.4098
 4837TIP3   OH214516   5.754   1.859   0.345  0.2793  0.1007 -0.1466
 4837TIP3    H114517   5.675   1.806   0.342  0.1819  0.0487  2.1627
 4837TIP3    H214518   5.825   1.797   0.327 -0.0089 -0.3799  0.3437
 4838TIP3   OH214519   2.885   3.258   1.703 -0.0001  0.1164 -0.4984
 4838TIP3    H114520   2.922   3.334   1.748 -0.1589 -0.0525 -0.0732
 4838TIP3    H214521   2.908   3.270   1.611  0.2829  0.4966 -0.3783
 4839TIP3   OH214522   3.714   5.356   1.956 -0.5230 -0.5714  0.0358
 4839TIP3    H114523   3.774   5.428   1.973 -0.8878 -0.3988  0.6221
 4839TIP3    H214524   3.627   5.396   1.961 -0.6843 -0.6464 -1.6047
 4840TIP3   OH214525   1.132   4.470   0.850  0.3735  0.4905 -0.6150
 4840TIP3    H114526   1.157   4.403   0.914  2.9141  1.5015 -0.4405
 4840TIP3    H214527   1.127   4.423   0.767 -0.4253 -0.3464 -0.1214
 4841TIP3   OH214528   4.233   3.954   3.595  0.1290  0.2245  0.0919
 4841TIP3    H114529   4.154   4.008   3.592 -1.3915 -1.8811 -0.4454
 4841TIP3    H214530   4.249   3.941   3.689 -1.3873 -0.9245  0.2282
 4842TIP3   OH214531   3.853   0.111   0.284  0.2190  0.6898 -0.5617
 4842TIP3    H114532   3.869   0.205   0.276 -0.7154  0.9048 -0.0374
 4842TIP3    H214533   3.830   0.083   0.195  1.8120  0.6818 -0.9944
 4843TIP3   OH214534   1.837   5.496   2.457  0.2174 -0.3184 -0.2617
 4843TIP3    H114535   1.747   5.499   2.490  0.4308  0.7164  0.2798
 4843TIP3    H214536   1.838   5.555   2.383  0.7442  0.7175  0.5444
 4844TIP3   OH214537   5.930   5.464   1.089  0.0789 -0.1739 -0.1299
 4844TIP3    H114538   6.013   5.421   1.074 -0.5871 -1.3421 -0.5614
 4844TIP3    H214539   5.919   5.463   1.184  0.1898 -0.7245 -0.1220
 4845TIP3   OH214540   2.038   0.664   1.970 -0.3510 -0.1622  0.4200
 4845TIP3    H114541   1.975   0.639   1.903 -0.2941 -0.9068  0.6405
 4845TIP3    H214542   2.005   0.625   2.051  1.2064 -1.9396  0.2670
 4846TIP3   OH214543   4.444   1.936   0.982 -0.5500 -0.4544  0.0982
 4846TIP3    H114544   4.516   1.998   0.965  0.3828 -1.6277 -0.3789
 4846TIP3    H214545   4.388   1.943   0.905  1.0022 -2.1042 -1.3003
 4847TIP3   OH214546   3.433   3.200   0.469  0.5899  0.1186  0.2680
 4847TIP3    H114547   3.436   3.109   0.437 -1.3313  0.1470 -0.0960
 4847TIP3    H214548   3.493   3.201   0.543 -1.8260 -2.3639  2.4740
 4848TIP3   OH214549   4.005   4.924   3.866 -0.2641 -0.3746 -0.2661
 4848TIP3    H114550   3.937   4.856   3.860  0.0718 -0.6273 -1.7034
 4848TIP3    H214551   4.069   4.889   3.927 -1.2152 -0.3126  0.7997
 4849TIP3   OH214552   4.966   1.902   2.237  0.0621  0.1006  0.1691
 4849TIP3    H114553   4.880   1.922   2.201  0.2667  1.6185  0.4702
 4849TIP3    H214554   4.971   1.953   2.318  0.5391 -1.3912  1.1295
 4850TIP3   OH214555   3.609   4.050   4.126  0.0922 -0.4440 -0.5816
 4850TIP3    H114556   3.662   4.083   4.054  0.5395  1.3417  0.4855
 4850TIP3    H214557   3.521   4.084   4.108  0.2070  0.0145 -0.3061
 4851TIP3   OH214558   2.576   0.968   1.382 -0.0533  0.2572 -0.5416
 4851TIP3    H114559   2.517   0.960   1.457  1.9749 -0.4263  1.0966
 4851TIP3    H214560   2.523   1.008   1.314 -2.4814 -0.6244  0.6893
 4852TIP3   OH214561   0.571   4.711   2.154 -0.1829  0.1434 -0.4688
 4852TIP3    H114562   0.649   4.656   2.157 -0.5896 -0.4541 -0.7109
 4852TIP3    H214563   0.503   4.659   2.195 -0.5030  0.5845 -0.4384
 4853TIP3   OH214564   5.814   5.206   3.773 -0.3813  0.5564  0.7148
 4853TIP3    H114565   5.797   5.243   3.687  2.5325 -1.6758 -0.9806
 4853TIP3    H214566   5.766   5.123   3.775 -0.5395  0.6516  1.3119
 4854TIP3   OH214567   4.787   2.226   0.648 -0.3100  0.4165  0.1227
 4854TIP3    H114568   4.800   2.139   0.611  2.2567  1.1359 -0.8708
 4854TIP3    H214569   4.806   2.215   0.741 -0.9826 -0.2593  0.1909
 4855TIP3   OH214570   0.981   5.487   2.854  0.6889 -0.6423  0.6905
 4855TIP3    H114571   1.029   5.529   2.925  0.8057  0.6808 -0.1319
 4855TIP3    H214572   0.892   5.476   2.888  0.4908  0.8657  0.7375
 4856TIP3   OH214573   2.250   2.728   1.099  0.0636  0.2603  0.3899
 4856TIP3    H114574   2.286   2.670   1.166 -0.5777  0.1246  0.6288
 4856TIP3    H214575   2.161   2.747   1.129 -0.4376 -0.2746 -0.7107
 4857TIP3   OH214576   2.131   2.078   0.913  0.1423 -0.3277  0.1303
 4857TIP3    H114577   2.036   2.085   0.924  0.0812  0.3325 -0.7399
 4857TIP3    H214578   2.159   2.022   0.985 -0.7192  0.6267  1.2387
 4858TIP3   OH214579   2.599   2.622   3.548  0.5954 -0.4153  0.3686
 4858TIP3    H114580   2.668   2.562   3.579  0.7255  0.3434  1.6351
 4858TIP3    H214581   2.560   2.657   3.629 -0.5058  0.0498 -0.3374
 4859TIP3   OH214582   1.949   5.501   4.066 -0.0889 -0.0904  0.6474
 4859TIP3    H114583   2.009   5.568   4.034  0.5495 -0.0230  1.9014
 4859TIP3    H214584   1.982   5.419   4.028 -0.8944  0.2737 -0.9156
 4860TIP3   OH214585   4.587   0.218   2.235  0.6632 -0.0220  0.3516
 4860TIP3    H114586   4.548   0.131   2.243  2.2656 -0.5845  3.7648
 4860TIP3    H214587   4.528   0.275   2.284  1.8408 -0.1114  1.9680
 4861TIP3   OH214588   3.911   0.802   3.128  0.0725 -0.4844 -0.3571
 4861TIP3    H114589   3.904   0.754   3.210 -0.3163  0.0452 -0.0811
 4861TIP3    H214590   3.876   0.889   3.147 -1.0074 -0.6729 -1.3448
 4862TIP3   OH214591   3.281   3.814   0.319 -0.2365  0.0651  0.6861
 4862TIP3    H114592   3.255   3.790   0.230 -0.6141 -1.0058  1.0722
 4862TIP3    H214593   3.376   3.817   0.317 -0.2121 -0.7312  0.4279
 4863TIP3   OH214594   4.463   1.657   1.888  0.2237  0.1683  0.1367
 4863TIP3    H114595   4.497   1.664   1.978 -0.8432  0.0720  0.5631
 4863TIP3    H214596   4.541   1.661   1.833  0.8142  1.5288  0.9976
 4864TIP3   OH214597   5.788   5.074   1.698 -0.1810 -0.1889 -0.3419
 4864TIP3    H114598   5.762   5.147   1.753 -0.4567 -1.5466  1.4033
 4864TIP3    H214599   5.713   5.058   1.641  0.1028  1.2152 -1.1593
 4865TIP3   OH214600   0.461   4.224   2.821  0.1883 -1.0157  0.3403
 4865TIP3    H114601   0.533   4.283   2.843 -1.4658  1.7037 -1.1343
 4865TIP3    H214602   0.489   4.182   2.739  0.2005 -0.1007 -0.1363
 4866TIP3   OH214603   0.816   3.224   1.389 -0.0276  0.4479  0.0908
 4866TIP3    H114604   0.786   3.153   1.446  2.1173 -0.1882  0.4929
 4866TIP3    H214605   0.842   3.294   1.450 -0.8176  1.0696 -0.2611
 4867TIP3   OH214606   2.494   3.838   4.501 -0.2915 -0.6130 -0.1506
 4867TIP3    H114607   2.508   3.776   4.430  0.5305 -1.3594  0.6329
 4867TIP3    H214608   2.401   3.859   4.497 -0.6147 -1.9757 -0.3875
 4868TIP3   OH214609   5.509   0.724   4.877 -0.0393  0.1394 -0.7622
 4868TIP3    H114610   5.445   0.700   4.945 -0.0148 -0.4941 -0.9511
 4868TIP3    H214611   5.464   0.707   4.795 -0.1500  1.1288 -0.9168
 4869TIP3   OH214612   5.224   0.929   2.322 -0.5593 -0.0712  0.1806
 4869TIP3    H114613   5.316   0.915   2.341 -0.4333  1.5120  0.8991
 4869TIP3    H214614   5.210   0.890   2.236  0.6981 -0.5817  0.1987
 4870TIP3   OH214615   5.700   3.104   4.965 -0.6324  0.3643 -0.1962
 4870TIP3    H114616   5.687   3.163   5.039 -0.9761 -0.1736  0.1747
 4870TIP3    H214617   5.679   3.018   4.999 -1.5758  0.2056 -1.1362
 4871TIP3   OH214618   1.675   1.243   0.437  0.4853  0.4593 -0.3746
 4871TIP3    H114619   1.726   1.201   0.368  0.3595  1.0457 -0.8329
 4871TIP3    H214620   1.680   1.337   0.417  1.5518  0.7599  1.1700
 4872TIP3   OH214621   6.269   3.176   1.725  0.2842 -0.0331 -0.7087
 4872TIP3    H114622   6.239   3.225   1.648  0.2622 -0.5622 -1.0414
 4872TIP3    H214623   6.347   3.131   1.694 -0.5401 -1.4104 -0.8512
 4873TIP3   OH214624   0.867   2.531   0.134 -0.3179 -0.1133 -0.2207
 4873TIP3    H114625   0.772   2.532   0.141 -0.2114  0.7711  2.4881
 4873TIP3    H214626   0.895   2.468   0.200  0.9995 -0.3384 -0.9588
 4874TIP3   OH214627   2.990   2.240   4.224  0.6725  0.0054  0.1268
 4874TIP3    H114628   2.946   2.158   4.248  0.9177 -0.2190 -0.1904
 4874TIP3    H214629   3.013   2.279   4.308 -0.3050  0.2252  0.3079
 4875TIP3   OH214630   0.444   2.938   0.127 -0.3930  0.3678 -0.0399
 4875TIP3    H114631   0.486   2.869   0.178 -0.4765  2.3025  2.9562
 4875TIP3    H214632   0.411   2.999   0.193 -1.7560  2.4593 -2.4629
 4876TIP3   OH214633   6.070   5.257   4.905  0.1603  0.9205  0.2693
 4876TIP3    H114634   6.102   5.207   4.830  1.7175  0.4854  1.1717
 4876TIP3    H214635   5.975   5.259   4.894  0.0901 -1.6658 -0.1813
 4877TIP3   OH214636   1.770   3.396   1.146 -0.1466  0.0826 -0.8251
 4877TIP3    H114637   1.800   3.457   1.080  0.2345  0.1922 -0.5544
 4877TIP3    H214638   1.832   3.406   1.219  0.0373 -0.7499 -0.8492
 4878TIP3   OH214639   6.280   5.029   4.298  0.6376 -0.7466 -0.3762
 4878TIP3    H114640   6.265   4.950   4.245  1.9979 -0.6478 -0.9518
 4878TIP3    H214641   6.295   5.098   4.233 -0.8049  0.0678  0.1196
 4879TIP3   OH214642   5.441   3.425   5.140 -0.4196 -0.3273  0.2639
 4879TIP3    H114643   5.461   3.515   5.168 -2.0789  0.6408 -1.3820
 4879TIP3    H214644   5.526   3.387   5.119  0.3044  1.0040  0.6183
 4880TIP3   OH214645   0.164   5.884   5.163  0.3777 -0.4344  0.2697
 4880TIP3    H114646   0.089   5.826   5.176  1.3425 -2.0964 -1.1708
 4880TIP3    H214647   0.193   5.866   5.074  2.3765  0.2889  0.7239
 4881TIP3   OH214648   4.020   1.030   0.558  0.2963 -0.4550  0.0314
 4881TIP3    H114649   4.064   1.111   0.532 -0.1524 -0.4757 -0.8511
 4881TIP3    H214650   3.929   1.055   0.573  0.6979 -0.2791  2.5572
 4882TIP3   OH214651   0.939   1.628   3.612 -0.2022 -0.1885 -0.1395
 4882TIP3    H114652   1.028   1.665   3.617  0.0637 -0.5911 -1.4643
 4882TIP3    H214653   0.945   1.547   3.663 -0.1051  0.2866  0.6368
 4883TIP3   OH214654   5.260   3.253   1.135 -0.1526 -0.4448 -0.2573
 4883TIP3    H114655   5.236   3.190   1.203 -1.5217  0.0063 -0.2929
 4883TIP3    H214656   5.263   3.337   1.181 -2.1041  0.0297 -0.8933
 4884TIP3   OH214657   0.276   2.122   1.255  0.8035  0.2106  0.1574
 4884TIP3    H114658   0.313   2.131   1.343 -3.8515 -1.4678  2.6257
 4884TIP3    H214659   0.207   2.188   1.251  0.0288 -0.6369 -1.7256
 4885TIP3   OH214660   2.714   0.496   0.056  0.1167 -0.0093 -0.2164
 4885TIP3    H114661   2.743   0.469  -0.031  1.2842  2.5497 -0.7005
 4885TIP3    H214662   2.626   0.459   0.064 -0.1957  0.0528 -2.6688
 4886TIP3   OH214663   5.576   4.322   3.899 -0.5764 -0.3486 -0.4152
 4886TIP3    H114664   5.664   4.297   3.869 -1.1261 -1.4236 -1.1992
 4886TIP3    H214665   5.574   4.417   3.891  0.0862 -0.4209 -1.6268
 4887TIP3   OH214666   5.497   4.686   1.948  0.3937  0.2312  0.2608
 4887TIP3    H114667   5.437   4.617   1.976 -0.3767  1.1764  1.0042
 4887TIP3    H214668   5.495   4.682   1.852 -0.9026  0.2862  0.2763
 4888TIP3   OH214669   1.885   0.293   0.403 -0.1131  0.0793 -0.0559
 4888TIP3    H114670   1.927   0.316   0.486 -0.9763  2.1750 -0.1430
 4888TIP3    H214671   1.931   0.215   0.373  2.6216  1.3169  0.6438
 4889TIP3   OH214672   1.526   2.501   4.023  0.7893  0.2974 -0.5584
 4889TIP3    H114673   1.466   2.552   3.968  1.9825  0.8440 -1.3981
 4889TIP3    H214674   1.518   2.539   4.110 -0.8851 -0.3588 -0.3905
 4890TIP3   OH214675   4.191   3.609   3.435  0.2322  0.4464  0.5831
 4890TIP3    H114676   4.148   3.690   3.462  0.5768  0.1640  2.0723
 4890TIP3    H214677   4.145   3.540   3.484  0.1210 -0.2383 -0.4553
 4891TIP3   OH214678   1.057   2.785   2.109  0.0562 -0.4230 -0.2076
 4891TIP3    H114679   0.974   2.829   2.128  0.9497  0.9850  0.5894
 4891TIP3    H214680   1.109   2.796   2.188  0.9096 -1.5788 -0.5699
 4892TIP3   OH214681   4.839   5.723   1.298 -0.2681 -0.1651  0.1192
 4892TIP3    H114682   4.853   5.635   1.264 -1.5839  0.0156 -0.9900
 4892TIP3    H214683   4.795   5.770   1.227 -0.0325  1.2471  0.8605
 4893TIP3   OH214684   5.509   4.429   2.344 -0.2950 -0.0307  0.7621
 4893TIP3    H114685   5.461   4.467   2.271 -0.7047 -1.4955  0.2295
 4893TIP3    H214686   5.575   4.494   2.366 -0.7889  0.8530 -0.2779
 4894TIP3   OH214687   4.219   5.834   4.953 -0.4203 -0.3810  0.1598
 4894TIP3    H114688   4.251   5.876   4.873  1.8501  0.2163  1.2804
 4894TIP3    H214689   4.294   5.836   5.012 -1.8702 -1.2608  2.1386
 4895TIP3   OH214690   5.614   4.415   3.453  0.2965 -0.2686  0.0707
 4895TIP3    H114691   5.686   4.356   3.479 -0.2673 -1.1080 -0.2195
 4895TIP3    H214692   5.613   4.409   3.358  1.8033  2.1308 -0.1661
 4896TIP3   OH214693   0.039   0.339   0.288  0.2689  0.2424 -0.4763
 4896TIP3    H114694   0.029   0.348   0.382  0.2262  0.1583 -0.4726
 4896TIP3    H214695   0.095   0.263   0.276  1.8321  1.3535 -0.4676
 4897TIP3   OH214696   3.369   2.677   0.948  0.3193  0.5725 -0.6813
 4897TIP3    H114697   3.451   2.654   0.904  0.0418 -2.4300  0.1836
 4897TIP3    H214698   3.397   2.717   1.030  0.9504 -0.6117 -0.3010
 4898TIP3   OH214699   2.322   2.142   3.316 -0.8371 -0.9643  0.6254
 4898TIP3    H114700   2.388   2.144   3.246 -0.2114 -1.4082  1.1917
 4898TIP3    H214701   2.322   2.052   3.347 -4.1795 -1.8913 -1.6313
 4899TIP3   OH214702   5.725   0.740   0.372  0.3308 -0.1543 -0.3006
 4899TIP3    H114703   5.725   0.764   0.279  2.3599 -0.6108 -0.4619
 4899TIP3    H214704   5.787   0.667   0.377 -0.0914 -0.4285  1.3607
 4900TIP3   OH214705   3.819   1.677   2.664  0.7173 -0.0610 -0.1221
 4900TIP3    H114706   3.772   1.712   2.740  0.7215  0.1288 -0.2077
 4900TIP3    H214707   3.850   1.754   2.617  1.3303 -0.1865  0.0660
 4901TIP3   OH214708   6.247   4.021   3.724 -0.2341 -0.0316  0.3750
 4901TIP3    H114709   6.311   3.975   3.778 -1.0245  0.3343  1.6744
 4901TIP3    H214710   6.177   4.044   3.785 -1.2861  0.1728 -0.8722
 4902TIP3   OH214711   4.743   5.698   2.804 -0.7327 -0.1276 -0.2769
 4902TIP3    H114712   4.661   5.657   2.776 -1.1275 -0.6646  1.5369
 4902TIP3    H214713   4.777   5.639   2.872  0.6267  0.6303 -0.2691
 4903TIP3   OH214714   4.491   4.279   2.862 -0.0655 -0.0648 -0.3631
 4903TIP3    H114715   4.453   4.192   2.863  1.4018 -0.8883 -3.4684
 4903TIP3    H214716   4.555   4.278   2.934  0.5467 -1.8993 -0.8715
 4904TIP3   OH214717   5.830   4.441   4.565  0.0498 -0.3872 -0.7114
 4904TIP3    H114718   5.741   4.415   4.587 -0.3859  2.1266  0.9402
 4904TIP3    H214719   5.868   4.469   4.648  1.3988  1.3006 -1.8204
 4905TIP3   OH214720   0.334   4.199   0.275  0.1215  0.6656 -0.0833
 4905TIP3    H114721   0.293   4.161   0.352 -2.3366 -1.4933 -2.2418
 4905TIP3    H214722   0.291   4.284   0.264 -1.1441  0.0276 -0.2469
 4906TIP3   OH214723   2.574   1.788   0.087  0.2226  0.1593  0.5228
 4906TIP3    H114724   2.666   1.781   0.109  0.1002  0.5481  1.1874
 4906TIP3    H214725   2.569   1.859   0.022  0.6817 -1.5121 -1.4403
 4907TIP3   OH214726   2.400   3.720   5.144  0.4378 -0.1196 -0.0984
 4907TIP3    H114727   2.486   3.683   5.164  1.0744  1.0100 -0.6395
 4907TIP3    H214728   2.419   3.803   5.100 -0.9363  0.3752  0.1851
 4908TIP3   OH214729   5.208   1.951   0.568 -0.0095 -0.7025 -0.3328
 4908TIP3    H114730   5.230   1.881   0.507  2.4063  1.4103 -2.1299
 4908TIP3    H214731   5.292   1.988   0.594 -1.1444  1.2876  0.8248
 4909TIP3   OH214732   0.509   5.278   1.177 -0.3332  0.5403 -0.3781
 4909TIP3    H114733   0.458   5.197   1.182  0.2184  0.2478  0.7355
 4909TIP3    H214734   0.597   5.249   1.152 -0.1371  0.8042  0.0050
 4910TIP3   OH214735   5.830   0.276   1.564  0.6327 -0.2105  0.1177
 4910TIP3    H114736   5.787   0.222   1.498 -1.6996  0.3987  1.0155
 4910TIP3    H214737   5.858   0.214   1.631 -1.3733 -0.4507  0.7997
 4911TIP3   OH214738   0.498   0.014   1.225  0.1404 -0.1521 -0.1941
 4911TIP3    H114739   0.542   0.098   1.235  1.4112 -0.7543 -0.5535
 4911TIP3    H214740   0.412   0.027   1.265  0.9919  0.7628  1.4520
 4912TIP3   OH214741   0.285   2.044   0.702 -0.0470 -0.4419  0.0921
 4912TIP3    H114742   0.370   2.042   0.658 -0.4510  0.6294 -0.7908
 4912TIP3    H214743   0.279   2.133   0.738 -0.4311 -0.7833  0.9039
 4913TIP3   OH214744   3.080   4.001   4.621  0.0977  0.0970  0.8444
 4913TIP3    H114745   3.045   3.923   4.578  0.7784  0.2650 -0.0487
 4913TIP3    H214746   3.127   3.967   4.697 -0.5468 -0.2664  1.0858
 4914TIP3   OH214747   0.746   1.589   2.994  0.0028  0.4574 -0.0964
 4914TIP3    H114748   0.754   1.658   2.928 -0.3522 -0.1871 -0.8223
 4914TIP3    H214749   0.657   1.597   3.027 -0.3461 -0.2373 -0.8469
 4915TIP3   OH214750   0.484   2.643   3.282 -0.1799  0.1479 -0.7119
 4915TIP3    H114751   0.466   2.731   3.250 -0.0650  0.4171 -0.0506
 4915TIP3    H214752   0.570   2.648   3.323 -1.3935  0.4975  1.9906
 4916TIP3   OH214753   0.302   4.700   0.274 -0.0191  0.5136 -0.3047
 4916TIP3    H114754   0.294   4.717   0.368  0.2893  2.2000 -0.5487
 4916TIP3    H214755   0.247   4.767   0.233 -2.5437 -2.0144 -1.3042
 4917TIP3   OH214756   3.890   2.262   4.966  0.0779  0.2908  0.0146
 4917TIP3    H114757   3.856   2.173   4.971 -0.7178  0.6353  1.2763
 4917TIP3    H214758   3.834   2.305   4.901  0.0326  0.0333 -0.1156
 4918TIP3   OH214759   3.623   4.374   0.522  0.2907  0.0282  0.3470
 4918TIP3    H114760   3.703   4.426   0.514  1.0814 -0.9276  1.6371
 4918TIP3    H214761   3.622   4.319   0.444  1.3914 -0.5986  0.7597
 4919TIP3   OH214762   6.323   4.190   2.032  0.4064 -0.5280 -0.3875
 4919TIP3    H114763   6.301   4.139   1.954 -2.0936  0.4646 -0.4209
 4919TIP3    H214764   6.269   4.153   2.101 -1.8755  2.1639 -0.5062
 4920TIP3   OH214765   6.070   5.550   0.853 -0.6061 -0.4249 -0.0209
 4920TIP3    H114766   6.002   5.559   0.920 -0.5090  0.5120 -0.0414
 4920TIP3    H214767   6.023   5.561   0.770 -0.6975 -1.4225 -0.1228
 4921TIP3   OH214768   0.386   2.974   1.762 -0.3663 -0.0247  0.2035
 4921TIP3    H114769   0.435   2.891   1.767  0.3076  0.0611 -3.1563
 4921TIP3    H214770   0.447   3.039   1.796 -0.4199 -0.6859  1.6530
 4922TIP3   OH214771   0.047   2.347   0.602 -0.6613  0.3607  0.0317
 4922TIP3    H114772  -0.016   2.407   0.561 -2.0423 -1.0329  0.0224
 4922TIP3    H214773  -0.002   2.266   0.615  1.0745 -0.6994  0.2800
 4923TIP3   OH214774   1.991   0.375   3.857  0.6068  0.5699 -0.1479
 4923TIP3    H114775   1.947   0.396   3.775 -0.7487 -1.1187  0.1021
 4923TIP3    H214776   1.946   0.427   3.923 -1.8209 -1.8345  0.2588
 4924TIP3   OH214777   4.289   4.163   2.162 -0.6642 -0.1677 -0.0066
 4924TIP3    H114778   4.264   4.072   2.178 -0.5102  0.0472  1.6110
 4924TIP3    H214779   4.326   4.193   2.245 -0.4803  1.2997 -0.5869
 4925TIP3   OH214780   4.280   4.879   3.057  0.8541  0.1726  0.0912
 4925TIP3    H114781   4.369   4.915   3.051  1.0000 -0.2010 -0.0486
 4925TIP3    H214782   4.283   4.820   3.132 -0.5183  3.5708  3.0988
 4926TIP3   OH214783   4.873   2.747   1.312 -0.2324 -0.0740  0.0030
 4926TIP3    H114784   4.932   2.672   1.312  1.9935  1.5621 -0.2877
 4926TIP3    H214785   4.898   2.798   1.389 -2.6391 -0.2376  0.9910
 4927TIP3   OH214786   1.654   4.806   4.548  0.3884 -0.4515  0.1962
 4927TIP3    H114787   1.709   4.807   4.470  0.5003  1.5934  0.2421
 4927TIP3    H214788   1.683   4.730   4.598  0.6045 -1.5547 -1.5277
 4928TIP3   OH214789   3.521   5.404   3.612  0.5288 -0.1382 -0.4069
 4928TIP3    H114790   3.613   5.414   3.589 -0.1850  1.7389 -3.0127
 4928TIP3    H214791   3.482   5.361   3.535 -0.6902 -1.4967  0.9163
 4929TIP3   OH214792   5.247   1.709   0.360  0.0686 -0.4027  0.0043
 4929TIP3    H114793   5.194   1.736   0.285  0.1198 -0.9735 -0.2425
 4929TIP3    H214794   5.203   1.631   0.394 -0.0357 -0.0612  0.6619
 4930TIP3   OH214795   1.908   1.318   3.569  0.1237 -0.4898  0.5271
 4930TIP3    H114796   1.859   1.379   3.625 -0.5209 -0.4670 -0.0450
 4930TIP3    H214797   1.847   1.247   3.552 -0.5211  0.5126 -1.8919
 4931TIP3   OH214798   0.880   0.469   2.072  0.0850  0.0447 -0.2452
 4931TIP3    H114799   0.894   0.564   2.074 -0.7316  0.2330 -1.8865
 4931TIP3    H214800   0.961   0.434   2.034  0.3192  0.0938  0.2028
 4932TIP3   OH214801   5.899   1.837   0.754  0.0752 -0.2879 -0.3037
 4932TIP3    H114802   5.815   1.850   0.711 -0.6247  0.3581  1.1631
 4932TIP3    H214803   5.906   1.909   0.816  1.1049 -1.0556  0.5258
 4933TIP3   OH214804   6.365   1.613   2.999  0.2179 -0.4189 -0.3167
 4933TIP3    H114805   6.298   1.593   2.935  1.5698  0.2555 -2.0381
 4933TIP3    H214806   6.374   1.709   2.996  0.8732 -0.4472  0.2730
 4934TIP3   OH214807   0.783   5.311   3.847 -0.2640  0.0503 -0.2737
 4934TIP3    H114808   0.797   5.404   3.863 -1.2284  0.1457  0.0662
 4934TIP3    H214809   0.737   5.280   3.925  0.4445 -0.8144 -0.1828
 4935TIP3   OH214810   1.977   2.450   3.855  0.6792 -0.0577  0.3705
 4935TIP3    H114811   1.991   2.428   3.763  1.4228  1.2458  0.1468
 4935TIP3    H214812   1.883   2.440   3.868  0.5869 -0.4071 -0.4813
 4936TIP3   OH214813   4.758   3.480   2.996 -0.0206 -0.1220 -0.3676
 4936TIP3    H114814   4.708   3.516   2.923  1.2178  0.1876 -1.0858
 4936TIP3    H214815   4.742   3.385   2.991 -0.0386 -0.0903 -0.9630
 4937TIP3   OH214816   3.335   4.045   3.443 -0.6791 -0.4632  0.2133
 4937TIP3    H114817   3.398   4.009   3.382 -1.0663 -0.4065 -0.2269
 4937TIP3    H214818   3.267   4.084   3.388 -0.6663  0.2327  0.6769
 4938TIP3   OH214819   5.777   5.809   1.695  0.1674  0.2902 -0.4925
 4938TIP3    H114820   5.863   5.839   1.666  0.6601 -0.6824 -0.0922
 4938TIP3    H214821   5.788   5.792   1.788 -0.4867  0.2286 -0.4196
 4939TIP3   OH214822   0.486   5.532   1.736 -0.4721  0.5475  0.1566
 4939TIP3    H114823   0.500   5.460   1.675 -1.9336 -0.7013  1.2092
 4939TIP3    H214824   0.535   5.506   1.814 -1.8855  0.1137  0.9320
 4940TIP3   OH214825   1.139   3.773   1.387  0.4371 -0.2064 -0.1921
 4940TIP3    H114826   1.056   3.731   1.361 -0.2611 -0.2359  1.9575
 4940TIP3    H214827   1.113   3.848   1.440  1.7705 -1.3559  2.2143
 4941TIP3   OH214828   5.182   0.675   1.753  0.4965 -0.5274  0.3277
 4941TIP3    H114829   5.212   0.720   1.674  0.6797  1.9879  1.7172
 4941TIP3    H214830   5.261   0.661   1.805  0.1953 -0.8167  0.7215
 4942TIP3   OH214831   3.894   5.547   2.496  0.6920 -0.0773 -0.2992
 4942TIP3    H114832   3.986   5.572   2.482  0.3682  0.7764 -0.9759
 4942TIP3    H214833   3.897   5.489   2.572  2.0539 -1.7457 -1.5260
 4943TIP3   OH214834   4.884   4.399   4.363  0.3743  0.1592 -0.3897
 4943TIP3    H114835   4.957   4.342   4.341  0.5465 -0.2503  1.1574
 4943TIP3    H214836   4.924   4.478   4.399  0.0889  0.6317 -1.0773
 4944TIP3   OH214837   3.437   5.913   5.029  0.3169  0.3776 -0.1676
 4944TIP3    H114838   3.424   5.883   5.119 -0.4571 -0.2755 -0.4900
 4944TIP3    H214839   3.530   5.938   5.025  0.4537  0.0227  0.6940
 4945TIP3   OH214840   3.180   0.844   3.197 -0.3100  0.0481 -0.2005
 4945TIP3    H114841   3.212   0.772   3.250  1.1161  0.8290  0.0306
 4945TIP3    H214842   3.112   0.805   3.142 -2.0416 -0.7444  2.3229
 4946TIP3   OH214843   5.892   1.707   4.365  0.4145 -0.1988 -0.1899
 4946TIP3    H114844   5.818   1.732   4.421  1.5391  0.5048  1.0157
 4946TIP3    H214845   5.867   1.740   4.278 -0.1747  1.1118  0.4388
 4947TIP3   OH214846   4.210   3.726   5.154  0.3630 -0.4055  0.4594
 4947TIP3    H114847   4.249   3.746   5.069  1.7343 -3.7346  0.1606
 4947TIP3    H214848   4.137   3.668   5.134 -1.5644  1.5260  1.4290
 4948TIP3   OH214849   4.169   2.777   3.647 -0.3207 -0.0171 -0.6911
 4948TIP3    H114850   4.208   2.808   3.565  2.3753  0.1315  0.5200
 4948TIP3    H214851   4.170   2.682   3.640  1.9794 -0.1036 -0.0645
 4949TIP3   OH214852   1.373   2.100   3.360  0.3270  0.5872  0.3054
 4949TIP3    H114853   1.396   2.176   3.413  2.0026  0.3414 -0.0042
 4949TIP3    H214854   1.457   2.059   3.339 -0.4233 -0.4146 -0.9112
 4950TIP3   OH214855   1.919   2.964   3.654  1.0579 -0.1846 -0.0183
 4950TIP3    H114856   1.882   2.890   3.605  0.0155 -0.2292  0.7838
 4950TIP3    H214857   1.864   3.038   3.628 -0.1036 -0.3825  1.7074
 4951TIP3   OH214858   3.450   1.199   2.475 -0.1478  0.1206 -0.3499
 4951TIP3    H114859   3.424   1.109   2.493 -1.1413  0.3339 -0.6130
 4951TIP3    H214860   3.538   1.207   2.511  0.6764 -1.4442 -1.8755
 4952TIP3   OH214861   5.630   2.925   2.286  0.3285  0.4861  0.4052
 4952TIP3    H114862   5.555   2.890   2.237  0.1931 -0.2206  1.0998
 4952TIP3    H214863   5.697   2.940   2.219  0.6379 -1.7708  0.1282
 4953TIP3   OH214864   5.245   4.080   3.610 -0.5324 -0.0480  0.2990
 4953TIP3    H114865   5.200   4.113   3.532 -1.6278 -1.9946  0.0306
 4953TIP3    H214866   5.314   4.143   3.627 -2.7297  2.6143  0.1234
 4954TIP3   OH214867   4.772   2.499   1.654 -0.1079 -0.2499 -0.3025
 4954TIP3    H114868   4.734   2.478   1.569 -0.9834 -0.7835  0.2162
 4954TIP3    H214869   4.710   2.560   1.695 -0.2751 -0.8889  0.4225
 4955TIP3   OH214870   2.832   3.927   4.810 -0.9588 -0.4175 -0.0928
 4955TIP3    H114871   2.909   3.872   4.818 -0.1792  0.4491 -1.2368
 4955TIP3    H214872   2.773   3.878   4.752 -1.0616 -0.8395  0.3578
 4956TIP3   OH214873   4.300   0.125   5.009 -0.9389 -0.1143 -0.3426
 4956TIP3    H114874   4.231   0.173   5.054  1.0112  2.6856 -0.0798
 4956TIP3    H214875   4.280   0.136   4.916  0.3749  2.8843 -0.3624
 4957TIP3   OH214876   0.698   1.434   0.321 -0.9250 -0.3626 -0.5499
 4957TIP3    H114877   0.647   1.502   0.277  0.5198 -0.2112 -2.1186
 4957TIP3    H214878   0.652   1.353   0.301 -2.2404  0.0402  0.6973
 4958TIP3   OH214879   0.825   1.390   1.542 -0.2900 -0.1292  0.4836
 4958TIP3    H114880   0.829   1.478   1.503  1.4640  0.5211  1.9471
 4958TIP3    H214881   0.795   1.406   1.632 -0.3359 -1.0882  0.6427
 4959TIP3   OH214882   3.771   1.781   4.092  0.1621  0.3638 -0.2543
 4959TIP3    H114883   3.730   1.717   4.149  1.6568 -1.5257 -1.1597
 4959TIP3    H214884   3.713   1.786   4.016  1.4259 -2.3683 -1.5784
 4960TIP3   OH214885   0.745   1.776   2.774  0.2696  0.0562  0.4656
 4960TIP3    H114886   0.747   1.732   2.689 -0.0587 -3.4504  2.1143
 4960TIP3    H214887   0.679   1.845   2.763 -1.7857 -2.0230 -1.4130
 4961TIP3   OH214888   2.046   5.618   0.867  0.5308  0.6759  0.6932
 4961TIP3    H114889   2.025   5.635   0.958 -0.9933  0.6230  0.3782
 4961TIP3    H214890   2.052   5.705   0.827 -3.0159  0.7689 -0.0006
 4962TIP3   OH214891   0.863   1.521   4.211  0.0587  0.1510  0.5307
 4962TIP3    H114892   0.941   1.577   4.212 -0.1954  0.5204  2.4395
 4962TIP3    H214893   0.825   1.530   4.298 -1.9154 -0.3521 -0.2189
 4963TIP3   OH214894   0.841   2.285   2.593 -0.3508 -0.4425  0.2681
 4963TIP3    H114895   0.924   2.294   2.639  0.1190 -1.1106 -0.4292
 4963TIP3    H214896   0.783   2.348   2.636  0.7111  0.5521  0.2975
 4964TIP3   OH214897   1.514   5.906   0.545  0.3740 -0.2208  0.4097
 4964TIP3    H114898   1.509   5.871   0.634  2.6467 -0.9604  0.3175
 4964TIP3    H214899   1.563   5.988   0.553  0.4783 -0.2241 -0.1247
 4965TIP3   OH214900   3.053   1.189   0.811 -0.5421 -0.2914 -0.1195
 4965TIP3    H114901   3.121   1.154   0.869 -1.3661 -0.1265  0.9750
 4965TIP3    H214902   2.976   1.135   0.829 -1.3076  0.8893  0.2447
 4966TIP3   OH214903   0.562   4.184   1.543  0.6588  0.0988  0.9066
 4966TIP3    H114904   0.512   4.153   1.467  3.3475 -0.8421 -0.5908
 4966TIP3    H214905   0.570   4.107   1.600  1.2913 -0.0504  0.6223
 4967TIP3   OH214906   5.071   4.859   1.442  0.3358 -0.1014  0.4524
 4967TIP3    H114907   5.064   4.789   1.377  0.4411  1.0316 -0.8192
 4967TIP3    H214908   5.142   4.914   1.411 -0.6865  1.3675  0.6392
 4968TIP3   OH214909   5.118   2.806   4.770  0.3669 -0.6973  0.0429
 4968TIP3    H114910   5.119   2.900   4.750  1.5036 -1.0035 -1.5344
 4968TIP3    H214911   5.084   2.765   4.691 -0.4234 -1.6255  0.8348
 4969TIP3   OH214912   6.346   5.448   3.678  0.4065  1.1223 -0.6066
 4969TIP3    H114913   6.257   5.421   3.657  1.4347 -2.3260 -1.1241
 4969TIP3    H214914   6.393   5.444   3.595  1.2602  1.9957 -0.1833
 4970TIP3   OH214915   6.130   1.924   1.689 -0.3402  0.0036 -0.1538
 4970TIP3    H114916   6.067   1.875   1.637 -1.0153 -0.4023  1.0123
 4970TIP3    H214917   6.161   1.862   1.755  1.4530  0.1384 -0.8157
 4971TIP3   OH214918   2.482   1.800   4.212 -0.4313 -0.0812  0.3309
 4971TIP3    H114919   2.388   1.812   4.219 -0.6899 -0.3570 -1.9348
 4971TIP3    H214920   2.496   1.769   4.123  2.0469  2.6127 -0.3686
 4972TIP3   OH214921   0.354   5.159   3.298  0.1207  0.1533  0.1491
 4972TIP3    H114922   0.334   5.166   3.391 -0.1427 -1.1690  0.2093
 4972TIP3    H214923   0.440   5.118   3.295  0.0702  0.0694 -0.1837
 4973TIP3   OH214924   3.154   1.106   4.673 -0.3554  0.0906  0.0272
 4973TIP3    H114925   3.222   1.062   4.725  2.4559  3.1709 -0.7315
 4973TIP3    H214926   3.116   1.036   4.619  0.8877 -2.0870  1.7864
 4974TIP3   OH214927   5.114   4.281   1.063  0.4429  0.1895 -0.4166
 4974TIP3    H114928   5.086   4.248   0.978  1.8754  0.8729 -1.1725
 4974TIP3    H214929   5.157   4.364   1.045  0.8653  0.3073  0.9635
 4975TIP3   OH214930   4.307   3.069   0.712 -0.0174  0.4906 -0.3311
 4975TIP3    H114931   4.333   3.002   0.649  0.5304  1.2627 -0.9426
 4975TIP3    H214932   4.222   3.039   0.744  0.3040 -0.5955 -0.4427
 4976TIP3   OH214933   0.332   2.409   4.709  0.0814  0.0925  0.0348
 4976TIP3    H114934   0.268   2.432   4.641 -1.7136 -1.3033  1.1368
 4976TIP3    H214935   0.311   2.466   4.782 -0.3868 -0.8288  0.6391
 4977TIP3   OH214936   0.981   3.586   1.726 -0.1655  0.0102 -0.0675
 4977TIP3    H114937   0.964   3.559   1.817 -2.7584 -1.3199 -0.8535
 4977TIP3    H214938   0.936   3.670   1.718  0.9874  0.6673  0.1346
 4978TIP3   OH214939   0.268   0.227   1.577 -0.1372 -0.2022 -0.4183
 4978TIP3    H114940   0.260   0.271   1.493  3.4490  2.1276  0.2381
 4978TIP3    H214941   0.188   0.251   1.624 -2.1279 -1.4201 -3.0034
 4979TIP3   OH214942   1.346   3.664   2.707  0.0758 -0.0073  0.5283
 4979TIP3    H114943   1.426   3.715   2.703 -1.1434  2.0536  0.7106
 4979TIP3    H214944   1.370   3.577   2.676  2.1471  0.8242 -0.3236
 4980TIP3   OH214945   3.273   3.406   2.239 -0.1399 -0.0632 -0.0397
 4980TIP3    H114946   3.256   3.489   2.194  2.0047  0.3801 -0.1558
 4980TIP3    H214947   3.260   3.340   2.172  0.1432  0.3597 -0.5219
 4981TIP3   OH214948   2.199   0.025   0.515 -0.1997  0.0418  0.3733
 4981TIP3    H114949   2.161   0.050   0.431 -0.1044 -0.9005  0.0303
 4981TIP3    H214950   2.187  -0.070   0.519  0.1229  0.0245  1.2658
 4982TIP3   OH214951   0.451   1.971   3.517  0.2508 -0.2518  0.1813
 4982TIP3    H114952   0.516   2.017   3.570  0.2743 -0.2346  0.1373
 4982TIP3    H214953   0.453   1.881   3.548 -0.0989 -0.1312  0.5672
 4983TIP3   OH214954   4.956   0.084   0.963 -0.3605  0.3844  0.2828
 4983TIP3    H114955   4.871   0.061   0.926 -0.4393  0.7685  0.2120
 4983TIP3    H214956   4.994   0.001   0.991 -1.2368  0.3182  1.3382
 4984TIP3   OH214957   1.519   0.098   3.853 -0.0205  0.1843 -0.4302
 4984TIP3    H114958   1.547   0.072   3.765  0.4837 -0.6737 -0.0200
 4984TIP3    H214959   1.446   0.039   3.873  0.1941  0.0422 -0.0702
 4985TIP3   OH214960   4.601   3.430   4.058 -0.0475 -0.2709 -0.5812
 4985TIP3    H114961   4.588   3.441   4.152 -0.7224  2.1394 -0.8680
 4985TIP3    H214962   4.678   3.373   4.051 -0.1796 -0.7810  1.4057
 4986TIP3   OH214963   5.801   0.023   4.990 -0.2240  0.1385 -0.3703
 4986TIP3    H114964   5.882  -0.024   5.007 -1.0304 -1.0915  0.1931
 4986TIP3    H214965   5.828   0.115   4.979  1.0501  0.0293  1.4148
 4987TIP3   OH214966   1.251   3.571   1.542  0.0925  0.0803  0.1778
 4987TIP3    H114967   1.196   3.585   1.620  1.3278 -1.6514  1.4221
 4987TIP3    H214968   1.233   3.647   1.487 -0.5775  1.5475  2.2948
 4988TIP3   OH214969   3.307   4.684   0.947  0.1022 -0.0792 -0.0829
 4988TIP3    H114970   3.268   4.644   0.869  0.3424 -1.1860  0.3422
 4988TIP3    H214971   3.396   4.708   0.919 -0.2804  0.8413 -0.5466
 4989TIP3   OH214972   3.230   2.369   1.769  0.0809 -0.2398 -0.4728
 4989TIP3    H114973   3.249   2.305   1.701  0.2767 -0.7768  0.0828
 4989TIP3    H214974   3.169   2.431   1.727 -0.9193 -1.3430 -0.7084
 4990TIP3   OH214975   3.680   5.548   4.341 -0.1863  0.0265 -0.5573
 4990TIP3    H114976   3.652   5.629   4.385  0.7972  0.2158 -0.2657
 4990TIP3    H214977   3.763   5.526   4.382  0.1834 -0.4298 -1.5313
 4991TIP3   OH214978   1.558   1.915   3.301 -0.4088 -0.3684 -0.3727
 4991TIP3    H114979   1.601   1.898   3.217  0.9000  1.5400 -0.1647
 4991TIP3    H214980   1.591   1.846   3.359 -0.6542 -1.1922 -1.1857
 4992TIP3   OH214981   3.705   2.706   4.173  0.4623  0.2789 -0.3407
 4992TIP3    H114982   3.708   2.773   4.241  2.5348  0.7662 -0.8599
 4992TIP3    H214983   3.740   2.628   4.215  1.1285  0.4097 -0.6354
 4993TIP3   OH214984   5.648   5.497   2.212 -0.4008  0.2502 -0.1690
 4993TIP3    H114985   5.662   5.516   2.119 -0.0473  0.6230 -0.0406
 4993TIP3    H214986   5.622   5.581   2.250  0.6946  0.3799  0.3123
 4994TIP3   OH214987   1.126   4.986   1.539 -0.3497  0.1226 -0.3087
 4994TIP3    H114988   1.118   5.042   1.461  0.8160 -0.6028 -0.9934
 4994TIP3    H214989   1.072   5.028   1.605 -2.1308  0.2786 -1.7786
 4995TIP3   OH214990   5.273   3.750   1.285  0.2983 -0.6560 -0.5996
 4995TIP3    H114991   5.182   3.766   1.310  0.7483  0.8311  0.1902
 4995TIP3    H214992   5.310   3.705   1.361  0.5695  0.0242 -0.3189
 4996TIP3   OH214993   1.767   2.255   3.185 -0.4304 -0.3041 -0.2189
 4996TIP3    H114994   1.818   2.199   3.244 -1.1860 -0.3572  0.3984
 4996TIP3    H214995   1.757   2.337   3.232 -0.0527  0.0652 -0.7700
 4997TIP3   OH214996   3.079   1.841   4.443 -0.3256 -0.0964  0.3278
 4997TIP3    H114997   3.082   1.763   4.499 -0.6386 -0.2884  0.0824
 4997TIP3    H214998   3.023   1.902   4.491 -0.8433 -0.3751  0.0851
 4998TIP3   OH214999   4.351   5.712   0.552  0.1715 -0.0617 -0.7931
 4998TIP3    H115000   4.257   5.727   0.538 -0.3231 -0.3068  1.8667
 4998TIP3    H215001   4.390   5.800   0.548 -0.2334  0.1018 -1.3229
 4999TIP3   OH215002   2.799   1.063   2.670  0.0088  0.0605 -0.5533
 4999TIP3    H115003   2.773   1.034   2.583 -1.7983  1.4271 -0.5343
 4999TIP3    H215004   2.813   1.158   2.661  1.2512 -0.0072  0.3410
 5000TIP3   OH215005   1.318   0.213   4.934  0.0836  0.1294  0.2751
 5000TIP3    H115006   1.376   0.139   4.952 -0.5653 -0.2342  0.9782
 5000TIP3    H215007   1.362   0.289   4.971  0.8635  0.1491 -0.6545
 5001TIP3   OH215008   1.190   1.007   2.353  0.3111 -0.3491 -0.0618
 5001TIP3    H115009   1.253   0.984   2.284 -0.5657 -1.8669 -0.4137
 5001TIP3    H215010   1.177   0.926   2.402 -0.6367  0.1814  0.6045
 5002TIP3   OH215011   2.326   4.816   1.098 -0.4134 -0.5432 -1.2762
 5002TIP3    H115012   2.410   4.857   1.073 -0.4116  0.7642  0.7022
 5002TIP3    H215013   2.262   4.858   1.040 -0.5783  3.2616  1.2954
 5003TIP3   OH215014   5.012   3.855   0.793 -0.2421  0.3720 -0.3846
 5003TIP3    H115015   5.079   3.787   0.787 -0.2362  0.4728 -1.5192
 5003TIP3    H215016   4.954   3.825   0.863  0.6690  0.0095  0.2389
 5004TIP3   OH215017   0.618   0.088   3.267  0.2884 -0.3735  0.4786
 5004TIP3    H115018   0.631   0.002   3.227  0.8732 -0.0616 -0.0303
 5004TIP3    H215019   0.652   0.078   3.356 -0.1903 -0.8280  0.6119
 5005TIP3   OH215020   1.659   1.382   4.717 -0.1217 -0.4541  0.3052
 5005TIP3    H115021   1.667   1.455   4.778  0.3048  0.0543 -0.3446
 5005TIP3    H215022   1.718   1.315   4.751  1.0759  0.3093 -0.2268
 5006TIP3   OH215023   4.100   5.906   1.863 -0.4294 -0.6260  0.6476
 5006TIP3    H115024   4.128   5.996   1.847  1.2009 -1.3534 -0.9832
 5006TIP3    H215025   4.124   5.890   1.954 -0.0017  0.3340  0.7214
 5007TIP3   OH215026   6.067   5.834   0.611  0.3859  0.0514 -0.2060
 5007TIP3    H115027   6.036   5.763   0.667 -0.0340  0.5591  0.2168
 5007TIP3    H215028   6.093   5.903   0.672 -0.3162  0.7071 -0.6267
 5008TIP3   OH215029   4.228   5.892   0.858 -0.4107 -0.3227  0.4571
 5008TIP3    H115030   4.156   5.908   0.798  0.2330  0.3179 -0.1653
 5008TIP3    H215031   4.239   5.974   0.906 -0.1974 -0.4663  0.6619
 5009TIP3   OH215032   4.409   1.051   3.532 -0.3709  0.0697 -0.4294
 5009TIP3    H115033   4.420   0.957   3.514  0.3915  0.1399 -0.3235
 5009TIP3    H215034   4.472   1.094   3.474  1.7065  0.3487  1.8851
 5010TIP3   OH215035   5.634   1.806   0.876  0.0774 -0.1730 -0.1771
 5010TIP3    H115036   5.663   1.790   0.786 -0.1409 -2.6783  0.1300
 5010TIP3    H215037   5.587   1.726   0.901 -3.6263  2.0698  0.7691
 5011TIP3   OH215038   1.959   0.173   4.423 -0.5151 -0.3122  0.1456
 5011TIP3    H115039   2.041   0.166   4.473  0.4911  1.8994 -1.0294
 5011TIP3    H215040   1.895   0.206   4.487 -0.0553 -0.4802  0.7027
 5012TIP3   OH215041   2.580   0.178   4.850  0.3303  0.2637  0.5001
 5012TIP3    H115042   2.496   0.220   4.865  0.4651  0.1867  1.5417
 5012TIP3    H215043   2.558   0.094   4.809 -0.2295 -0.4785  2.2352
 5013TIP3   OH215044   0.715   4.296   1.880 -0.0438 -0.2338  0.1506
 5013TIP3    H115045   0.647   4.356   1.910 -0.2808  0.7495 -2.1702
 5013TIP3    H215046   0.676   4.209   1.887 -1.5561  0.3066 -1.0952
 5014TIP3   OH215047   3.242   3.202   2.071 -0.1925  0.2673 -0.3602
 5014TIP3    H115048   3.225   3.178   1.980  1.6373  0.0115 -0.6820
 5014TIP3    H215049   3.217   3.124   2.121 -2.8738  1.0246 -0.4094
 5015TIP3   OH215050   3.542   4.032   3.661  0.2479  0.3114  0.0646
 5015TIP3    H115051   3.544   3.983   3.579 -0.1494 -0.0964  0.2922
 5015TIP3    H215052   3.461   4.083   3.656  0.9726  1.4501 -0.4510
 5016TIP3   OH215053   1.171   3.542   2.903  0.3744 -0.1091 -0.2226
 5016TIP3    H115054   1.190   3.448   2.905 -0.5016 -0.2976 -0.3769
 5016TIP3    H215055   1.211   3.574   2.822 -0.7890 -0.6878 -1.0507
 5017TIP3   OH215056   3.799   4.070   3.512 -0.1128 -0.3242 -0.4575
 5017TIP3    H115057   3.815   3.990   3.561  0.7252  0.2568  0.2546
 5017TIP3    H215058   3.726   4.112   3.558 -0.4576 -0.5906 -0.7467
 5018TIP3   OH215059   6.230   5.922   1.925  0.6387  0.6898 -0.3220
 5018TIP3    H115060   6.281   5.958   1.852  1.2885  1.9060  0.6940
 5018TIP3    H215061   6.283   5.941   2.002  0.3151 -1.2307  0.4250
 5019TIP3   OH215062   1.732   2.638   0.820  0.2371 -0.2384  0.5031
 5019TIP3    H115063   1.794   2.567   0.802  0.2851  0.0275 -0.4536
 5019TIP3    H215064   1.683   2.648   0.738  0.9460  1.5257  0.2549
 5020TIP3   OH215065   0.636   1.170   2.158  0.1289  0.1468 -0.3688
 5020TIP3    H115066   0.699   1.226   2.113  0.5681 -0.0784 -0.0396
 5020TIP3    H215067   0.684   1.089   2.175 -0.1179  0.1257  0.2487
 5021TIP3   OH215068   2.088   3.810   0.977 -0.0951  0.2020  0.2815
 5021TIP3    H115069   2.167   3.852   0.943 -0.0408 -0.2466 -0.1619
 5021TIP3    H215070   2.032   3.800   0.901 -0.1494 -0.4320  0.4007
 5022TIP3   OH215071   6.177   3.119   4.809 -0.2479  0.3972 -0.0309
 5022TIP3    H115072   6.159   3.046   4.869 -0.7469  0.1128 -0.5185
 5022TIP3    H215073   6.238   3.175   4.857 -0.6192  0.1578  0.7246
 5023TIP3   OH215074   6.108   0.390   2.088  0.7718  0.1623  0.3414
 5023TIP3    H115075   6.082   0.324   2.024 -0.0854  1.1929 -0.4129
 5023TIP3    H215076   6.027   0.411   2.135  0.6446  1.8755 -0.5781
 5024TIP3   OH215077   3.637   5.551   4.800  0.3711  0.2604  0.1986
 5024TIP3    H115078   3.636   5.548   4.896 -0.4512  2.4067  0.3314
 5024TIP3    H215079   3.544   5.557   4.776  0.5304 -0.9100 -0.8012
 5025TIP3   OH215080   6.311   1.878   3.479  0.3663 -0.6388 -0.0158
 5025TIP3    H115081   6.309   1.934   3.402  1.2078 -0.8488 -0.1998
 5025TIP3    H215082   6.265   1.798   3.453 -0.4262 -0.2276  0.0989
 5026TIP3   OH215083   1.820   3.575   2.341  0.1505  0.3862  0.1827
 5026TIP3    H115084   1.797   3.564   2.249 -3.3549  0.1554  0.9437
 5026TIP3    H215085   1.870   3.496   2.363 -0.3309 -0.3104 -1.1350
 5027TIP3   OH215086   3.250   2.504   1.489  0.0225  0.1755  0.2018
 5027TIP3    H115087   3.212   2.497   1.401  2.1029 -0.3825 -0.7181
 5027TIP3    H215088   3.278   2.415   1.509 -0.1048  0.3746  1.2917
 5028TIP3   OH215089   2.541   2.249   2.599 -0.1027 -0.3237  0.1312
 5028TIP3    H115090   2.556   2.174   2.541  0.3511  0.3140 -0.5947
 5028TIP3    H215091   2.476   2.302   2.554 -0.3070 -0.1986  0.5681
 5029TIP3   OH215092   4.525   0.991  -0.010 -0.2593  0.1731  0.2030
 5029TIP3    H115093   4.490   0.902  -0.003  1.4532 -0.5247  0.2287
 5029TIP3    H215094   4.590   0.997   0.060  0.9659  0.7975 -0.9489
 5030TIP3   OH215095   1.428   0.896   0.362 -0.2100  0.0404 -0.2798
 5030TIP3    H115096   1.384   0.980   0.368 -1.0423 -0.3908 -0.1549
 5030TIP3    H215097   1.363   0.833   0.393  0.7905 -0.5325  0.7173
 5031TIP3   OH215098   2.767   5.874   5.145  0.1579  0.1703 -0.2324
 5031TIP3    H115099   2.688   5.900   5.193  0.6136  2.1952 -0.4778
 5031TIP3    H215100   2.821   5.831   5.211 -0.7588 -0.4256  0.1518
 5032TIP3   OH215101   3.625   3.899   0.559  0.0909  0.0919  0.5833
 5032TIP3    H115102   3.586   3.955   0.626 -0.7587 -0.0966  0.2672
 5032TIP3    H215103   3.708   3.870   0.597 -1.0698 -1.3083  2.2755
 5033TIP3   OH215104   6.090   2.472   0.260 -0.2063  0.2244  0.1678
 5033TIP3    H115105   6.147   2.496   0.187  0.4006 -2.1461 -0.2423
 5033TIP3    H215106   6.017   2.425   0.218 -0.7569  0.3786  0.9453
 5034TIP3   OH215107   4.295   1.662   2.950 -0.4679 -0.0357  0.0731
 5034TIP3    H115108   4.231   1.654   2.879 -0.2656  0.4745 -0.1695
 5034TIP3    H215109   4.295   1.576   2.991 -1.5817  0.0511  0.3037
 5035TIP3   OH215110   6.082   0.672   4.963 -0.7693 -0.1266 -0.0546
 5035TIP3    H115111   6.168   0.694   4.998 -1.1238 -1.0976  1.5039
 5035TIP3    H215112   6.052   0.752   4.920  0.7133  0.3524 -0.2724
 5036TIP3   OH215113   4.439   0.462   0.789  0.6958 -0.7799  0.0265
 5036TIP3    H115114   4.384   0.523   0.838  1.7599  0.4067 -0.2002
 5036TIP3    H215115   4.396   0.377   0.800 -0.8570 -0.0035  0.3260
 5037TIP3   OH215116   5.094   4.567   2.522  0.1661  0.0411 -0.4066
 5037TIP3    H115117   5.131   4.618   2.594  0.0826  0.8858 -0.9382
 5037TIP3    H215118   5.159   4.499   2.504  0.5221  0.2720 -0.0059
 5038TIP3   OH215119   3.848   1.099   3.129 -0.7955  0.0020 -0.0011
 5038TIP3    H115120   3.763   1.090   3.172 -1.0735  1.5063 -0.1621
 5038TIP3    H215121   3.834   1.170   3.065  1.3630  2.4698  2.0725
 5039TIP3   OH215122   4.984   2.295   1.510  0.1699  0.1889  0.0726
 5039TIP3    H115123   5.065   2.266   1.467  0.6573  1.3220  0.1923
 5039TIP3    H215124   4.914   2.253   1.460  0.7861  0.2468 -0.8701
 5040TIP3   OH215125   2.828   2.921   2.552 -0.3642  0.2073 -0.7770
 5040TIP3    H115126   2.880   2.844   2.526  0.0563 -0.1403  0.9817
 5040TIP3    H215127   2.878   2.961   2.623 -1.3914  1.1973 -0.5851
 5041TIP3   OH215128   5.587   4.009   3.768  0.1026  0.4090  0.0580
 5041TIP3    H115129   5.549   4.082   3.815 -0.8352  0.7181 -1.1332
 5041TIP3    H215130   5.568   3.932   3.822 -1.2120  0.7155  0.0550
 5042TIP3   OH215131   5.904   0.541   4.341  0.2557  0.1940 -0.8080
 5042TIP3    H115132   5.931   0.580   4.258  3.1795 -1.0282 -0.5220
 5042TIP3    H215133   5.888   0.449   4.320 -0.5841  0.2123 -0.2961
 5043TIP3   OH215134   4.485   2.768   3.726 -0.4003 -0.9196  0.5026
 5043TIP3    H115135   4.390   2.759   3.714 -0.6649  0.4120  1.2884
 5043TIP3    H215136   4.521   2.768   3.638 -1.3314  0.1743  0.0836
 5044TIP3   OH215137   0.575   0.324   3.691  0.0239  0.2189 -0.4810
 5044TIP3    H115138   0.630   0.341   3.767 -0.8598 -0.5990  0.3669
 5044TIP3    H215139   0.600   0.391   3.627 -0.5965  2.2179  1.2597
 5045TIP3   OH215140   2.794   3.067   1.887 -0.5226 -0.5726  0.2643
 5045TIP3    H115141   2.704   3.044   1.862 -0.3860 -0.3123 -0.4884
 5045TIP3    H215142   2.816   3.141   1.831  0.4900 -1.2122 -0.2036
 5046TIP3   OH215143   3.366   2.799   1.200  0.1351  0.2195  0.2069
 5046TIP3    H115144   3.352   2.888   1.232  0.8054 -0.0418  1.2509
 5046TIP3    H215145   3.443   2.767   1.247  2.6383  0.5887 -3.2128
 5047TIP3   OH215146   6.295   2.435   3.804  0.7766 -0.6406 -0.1843
 5047TIP3    H115147   6.242   2.466   3.877  0.5267 -2.1153  0.2838
 5047TIP3    H215148   6.333   2.353   3.834  2.8266  0.0395 -0.7502
 5048TIP3   OH215149   2.916   2.595   4.730  0.4299 -0.0251 -0.4153
 5048TIP3    H115150   2.897   2.502   4.721  0.2427  0.0586 -0.9153
 5048TIP3    H215151   2.959   2.603   4.816  0.1096 -0.5120 -0.2095
 5049TIP3   OH215152   6.229   5.789   2.374  1.4654  0.6085  0.0544
 5049TIP3    H115153   6.303   5.846   2.358  1.8109  0.2400  0.3146
 5049TIP3    H215154   6.156   5.829   2.326  2.3432 -0.2244 -2.0927
 5050TIP3   OH215155   4.529   3.945   2.331 -0.3347  0.0848  0.0372
 5050TIP3    H115156   4.607   3.939   2.275  0.7579 -1.7747  1.6472
 5050TIP3    H215157   4.456   3.922   2.273  0.7457 -1.6122 -0.7332
 5051TIP3   OH215158   3.239   2.356   3.556 -0.1153 -0.0099 -0.3515
 5051TIP3    H115159   3.232   2.375   3.649  1.2339  1.3765 -0.4974
 5051TIP3    H215160   3.326   2.315   3.546 -0.8192 -1.4641 -0.8199
 5052TIP3   OH215161   3.680   2.111   0.290 -0.4788 -0.0893 -0.0268
 5052TIP3    H115162   3.722   2.026   0.297 -0.2333  0.0489  0.2189
 5052TIP3    H215163   3.658   2.134   0.380 -1.0775 -0.1577 -0.1532
 5053TIP3   OH215164   6.101   3.719   2.288  0.0454 -0.0727  0.4606
 5053TIP3    H115165   6.146   3.653   2.235  0.3352  1.1157 -0.8392
 5053TIP3    H215166   6.017   3.731   2.245 -0.6227 -0.6287  1.5570
 5054TIP3   OH215167   0.989   2.992   2.987  0.4944 -0.2341 -0.0957
 5054TIP3    H115168   1.007   3.006   2.894 -0.3832  1.3565 -0.0541
 5054TIP3    H215169   0.900   3.024   3.000 -0.9305 -3.9502  0.5531
 5055TIP3   OH215170   0.760   5.043   0.678 -0.5201  0.2640 -0.2004
 5055TIP3    H115171   0.836   5.010   0.727  0.4579  0.6780 -1.4003
 5055TIP3    H215172   0.720   5.107   0.737 -0.2383 -0.3006  0.6363
 5056TIP3   OH215173   4.472   5.195   0.396 -0.1417 -0.1403  0.3844
 5056TIP3    H115174   4.415   5.247   0.452 -0.2288 -1.2010  1.3317
 5056TIP3    H215175   4.433   5.107   0.397  0.8462 -0.6043  0.0942
 5057TIP3   OH215176   2.702   1.492   0.394 -0.1345  0.1232  0.3917
 5057TIP3    H115177   2.734   1.464   0.480  0.4354  1.3673  0.6156
 5057TIP3    H215178   2.753   1.571   0.375 -0.1370 -0.2303 -1.1715
 5058TIP3   OH215179   3.788   5.861   0.530 -0.2085 -0.2158  0.0700
 5058TIP3    H115180   3.771   5.925   0.461 -0.7176 -0.6027 -0.1729
 5058TIP3    H215181   3.796   5.778   0.484 -2.1655 -0.7442  0.5847
 5059TIP3   OH215182   3.315   3.343   0.247 -0.3872 -0.7122 -0.1608
 5059TIP3    H115183   3.340   3.307   0.333 -1.5179 -0.3202  0.3519
 5059TIP3    H215184   3.241   3.401   0.266 -1.1026 -1.1540 -1.4933
 5060TIP3   OH215185   5.431   5.633   1.353 -0.1981  0.7352 -0.5267
 5060TIP3    H115186   5.385   5.613   1.435  0.5339  0.8704 -0.0684
 5060TIP3    H215187   5.522   5.647   1.380 -0.0608  1.3834 -1.2835
 5061TIP3   OH215188   0.051   1.478   3.342 -0.1026 -0.1120  0.4745
 5061TIP3    H115189   0.052   1.386   3.316 -0.1606  0.2539 -0.8723
 5061TIP3    H215190   0.142   1.507   3.333 -0.0489 -0.0793  1.0784
 5062TIP3   OH215191   0.331   5.596   0.650  0.0362 -0.5073  0.3403
 5062TIP3    H115192   0.301   5.618   0.738  1.4066  0.0686  0.6893
 5062TIP3    H215193   0.273   5.525   0.621 -0.8934 -0.1953  1.4062
 5063TIP3   OH215194   2.367   5.371   2.000 -0.2572  0.1315  0.2792
 5063TIP3    H115195   2.327   5.360   1.914  1.4663  0.0811 -0.5648
 5063TIP3    H215196   2.309   5.326   2.060 -1.5409  0.2282 -0.8423
 5064TIP3   OH215197   3.350   5.775   3.100 -0.2370  0.0903 -0.0006
 5064TIP3    H115198   3.413   5.704   3.116 -0.5145  0.3621  2.9921
 5064TIP3    H215199   3.275   5.731   3.059 -0.3990 -1.4511  1.7719
 5065TIP3   OH215200   2.926   0.697   1.644  0.4891 -0.0804  0.0751
 5065TIP3    H115201   2.890   0.703   1.733  0.0299  0.1692 -0.1225
 5065TIP3    H215202   2.849   0.683   1.588  0.6562  0.8359 -0.3968
 5066TIP3   OH215203   4.816   1.410   3.202 -0.8644  0.1981 -0.5262
 5066TIP3    H115204   4.828   1.453   3.287  0.8716  0.4297 -0.8442
 5066TIP3    H215205   4.902   1.371   3.183 -1.5760 -0.9177 -1.6039
 5067TIP3   OH215206   0.343   3.805   2.497  0.1798  0.3335 -0.2708
 5067TIP3    H115207   0.294   3.790   2.417  0.7948 -0.7297 -0.4730
 5067TIP3    H215208   0.277   3.807   2.566 -0.1818 -0.7989 -0.5696
 5068TIP3   OH215209   2.359   5.726   3.314 -0.5920  0.3497 -0.2893
 5068TIP3    H115210   2.398   5.659   3.259  1.1402  2.7817 -2.2336
 5068TIP3    H215211   2.418   5.801   3.306 -1.8120  1.7755  2.6748
 5069TIP3   OH215212   3.545   3.002   3.227  0.6957  0.1241 -0.2954
 5069TIP3    H115213   3.459   2.968   3.252  0.5515  1.0445  0.5398
 5069TIP3    H215214   3.603   2.973   3.298  0.7629  0.7896 -0.0744
 5070TIP3   OH215215   1.002   3.874   0.088 -0.3647  0.4971  0.2731
 5070TIP3    H115216   0.907   3.873   0.083 -0.4024 -0.4596  0.8793
 5070TIP3    H215217   1.029   3.944   0.028 -1.5380  2.7527  2.2455
 5071TIP3   OH215218   4.339   2.905   3.461  0.2633  0.0141  0.9243
 5071TIP3    H115219   4.341   2.978   3.399  1.3897 -1.6015 -1.0656
 5071TIP3    H215220   4.421   2.912   3.509  0.1334  0.3499  1.0971
 5072TIP3   OH215221   2.208   0.279   0.907 -0.1393 -0.4760 -0.2812
 5072TIP3    H115222   2.295   0.300   0.942  0.2811  0.8344 -1.9344
 5072TIP3    H215223   2.226   0.226   0.829 -0.7032  0.8140 -1.3301
 5073TIP3   OH215224   2.745   2.450   4.350 -0.0728  0.1172 -0.0675
 5073TIP3    H115225   2.791   2.534   4.349  1.6497 -0.7044  1.5936
 5073TIP3    H215226   2.745   2.421   4.259  1.2288  0.9669 -0.3679
 5074TIP3   OH215227   0.505   4.939   1.088  0.6458  0.0840 -0.4423
 5074TIP3    H115228   0.590   4.980   1.073  1.3574 -0.8234  0.8804
 5074TIP3    H215229   0.484   4.960   1.179 -0.2297 -0.2705 -0.5511
 5075TIP3   OH215230   2.942   1.069   1.660 -0.1200  0.5029  0.1043
 5075TIP3    H115231   2.987   1.048   1.741 -0.3504  1.3723  0.4669
 5075TIP3    H215232   2.880   0.997   1.647  0.2576  0.1135  0.4286
 5076TIP3   OH215233   4.430   3.821   3.020 -0.6111 -0.6404  0.1795
 5076TIP3    H115234   4.509   3.785   3.059  0.3206  0.9402 -0.1602
 5076TIP3    H215235   4.359   3.769   3.058  0.4887 -1.2153  1.5426
 5077TIP3   OH215236   3.296   1.706   3.637  0.0077 -0.2806  0.8322
 5077TIP3    H115237   3.312   1.671   3.725 -0.9621  0.9276  1.5242
 5077TIP3    H215238   3.359   1.778   3.629 -0.3781  0.0618  0.8352
 5078TIP3   OH215239   5.528   0.847   4.301  0.1438 -0.0225 -0.3600
 5078TIP3    H115240   5.499   0.777   4.244  0.8066 -0.0692 -0.6486
 5078TIP3    H215241   5.624   0.842   4.298  0.1996 -0.3233  1.1042
 5079TIP3   OH215242   4.641   1.557  -0.010  0.3420 -0.7213  0.1149
 5079TIP3    H115243   4.582   1.557   0.066  1.0532 -0.6078  0.6763
 5079TIP3    H215244   4.702   1.628   0.007  2.0557 -2.2380  0.6649
 5080TIP3   OH215245   3.632   4.569   2.436 -0.1793 -0.0805  0.2169
 5080TIP3    H115246   3.650   4.641   2.375 -0.2792 -1.5726 -1.6417
 5080TIP3    H215247   3.718   4.532   2.455 -0.1974  0.0681  0.5968
 5081TIP3   OH215248   0.539   4.322   3.419 -0.0349  0.3651  0.3183
 5081TIP3    H115249   0.549   4.335   3.513  2.6180  1.3981 -0.0038
 5081TIP3    H215250   0.619   4.276   3.392 -0.3492  0.7940 -1.5284
 5082TIP3   OH215251   5.470   1.003   3.291  0.7824  0.3513  0.3243
 5082TIP3    H115252   5.390   0.951   3.289  1.6255 -1.0391 -1.9321
 5082TIP3    H215253   5.451   1.075   3.350 -2.5171  0.7096 -0.9683
 5083TIP3   OH215254   3.950   1.581   2.415  0.5620 -0.2095  0.4099
 5083TIP3    H115255   4.031   1.540   2.449  0.1760 -1.6868 -0.3573
 5083TIP3    H215256   3.896   1.594   2.493  0.7662 -1.0427  0.7041
 5084TIP3   OH215257   0.557   0.418   0.411  0.3583 -0.7719 -0.3545
 5084TIP3    H115258   0.466   0.445   0.421  0.7072 -0.1526  1.4893
 5084TIP3    H215259   0.565   0.395   0.319 -1.0860  1.2648 -1.0524
 5085TIP3   OH215260   1.651   5.117   4.561 -0.0178 -0.0827  0.0847
 5085TIP3    H115261   1.729   5.129   4.615 -1.5479  0.5283  2.3162
 5085TIP3    H215262   1.641   5.022   4.556  0.5189 -0.1568  0.2944
 5086TIP3   OH215263   1.972   2.437   1.854  0.3353 -0.7193 -0.2023
 5086TIP3    H115264   1.936   2.351   1.832  0.9138 -0.7325 -1.1422
 5086TIP3    H215265   1.909   2.474   1.916 -1.0243 -0.9411 -1.4041
 5087TIP3   OH215266   5.114   4.996   3.174  0.2975  0.1580  0.3966
 5087TIP3    H115267   5.046   5.051   3.135 -0.6972 -2.9360 -2.7422
 5087TIP3    H215268   5.192   5.013   3.121  0.2988 -0.5983  0.1451
 5088TIP3   OH215269   5.966   4.796   1.548 -0.0396  0.2114  0.2817
 5088TIP3    H115270   5.871   4.782   1.549 -0.1829  0.9100 -1.3605
 5088TIP3    H215271   5.981   4.867   1.610 -0.5531 -0.0894  0.7547
 5089TIP3   OH215272   2.411   5.896   3.537  0.3796 -0.2735 -0.5206
 5089TIP3    H115273   2.364   5.823   3.497 -0.5115 -0.4083  0.7375
 5089TIP3    H215274   2.423   5.870   3.629  1.0507  0.6812 -0.3235
 5090TIP3   OH215275   0.025   2.677   4.536  0.4817 -0.3385  0.0312
 5090TIP3    H115276   0.115   2.649   4.521  0.4995  0.2901 -1.1823
 5090TIP3    H215277  -0.007   2.701   4.449 -1.1775 -1.4397  0.3060
 5091TIP3   OH215278   4.546   0.175   4.747  0.0966  0.4417  0.5211
 5091TIP3    H115279   4.486   0.216   4.809  0.3331  0.7266  0.5618
 5091TIP3    H215280   4.500   0.179   4.663  1.0153  2.8240  0.0646
 5092TIP3   OH215281   4.774   4.656   2.808  0.2990  0.5210 -0.6518
 5092TIP3    H115282   4.686   4.618   2.812 -0.0135  0.9814 -2.4837
 5092TIP3    H215283   4.814   4.632   2.892 -1.8330  0.9933  0.5788
 5093TIP3   OH215284   2.935   4.204   5.029 -0.0534  0.1119 -0.0695
 5093TIP3    H115285   2.998   4.131   5.031 -0.7025 -0.4485  0.8726
 5093TIP3    H215286   2.877   4.187   5.104 -0.7200  1.1537 -0.3368
 5094TIP3   OH215287   3.972   4.049   3.838 -0.2334 -0.1013  0.3273
 5094TIP3    H115288   3.914   4.100   3.894 -2.1472 -0.4668 -1.2274
 5094TIP3    H215289   4.007   3.981   3.896 -1.1187  0.3144  1.3887
 5095TIP3   OH215290   0.580   5.477   2.722  0.1276  0.1289 -0.1845
 5095TIP3    H115291   0.508   5.485   2.785  1.6535  1.2722  1.5415
 5095TIP3    H215292   0.619   5.392   2.741  0.5015  0.4138  0.3498
 5096TIP3   OH215293   0.155   3.000   4.839 -0.8224 -0.0121 -0.0373
 5096TIP3    H115294   0.198   3.048   4.910 -0.7453  0.5342 -0.4452
 5096TIP3    H215295   0.179   3.048   4.760 -1.3113 -0.3275 -0.3821
 5097TIP3   OH215296   4.847   5.189   0.835 -0.6180 -0.6699 -0.1911
 5097TIP3    H115297   4.770   5.240   0.810 -0.2164 -0.6358 -1.3887
 5097TIP3    H215298   4.855   5.204   0.930 -1.3219  0.3671 -0.2775
 5098TIP3   OH215299   5.424   5.665   0.752  0.0286 -0.0872  0.1293
 5098TIP3    H115300   5.491   5.667   0.821  1.0332 -0.4855 -0.8115
 5098TIP3    H215301   5.352   5.716   0.788  0.5419 -0.2653  1.4693
 5099TIP3   OH215302   3.809   2.253   1.388  0.1518 -0.3253 -0.5305
 5099TIP3    H115303   3.772   2.165   1.393  0.5490 -0.4657  0.1640
 5099TIP3    H215304   3.864   2.251   1.310  3.8988 -2.2535  1.8091
 5100TIP3   OH215305   0.060   3.090   4.428  0.3218 -0.2390 -0.0517
 5100TIP3    H115306   0.004   3.030   4.477  2.2355 -2.0963  0.0306
 5100TIP3    H215307   0.005   3.123   4.357 -1.5552  0.0066  1.4470
 5101TIP3   OH215308  -0.030   2.205   0.194  0.1523  0.1699  0.3548
 5101TIP3    H115309   0.058   2.190   0.159  0.0258  0.4977 -0.1131
 5101TIP3    H215310  -0.016   2.265   0.267  0.1504  1.6597 -0.8162
 5102TIP3   OH215311   3.815   0.977   2.330  0.2957 -0.0420  0.1593
 5102TIP3    H115312   3.732   0.931   2.316 -0.1460  0.6851  0.3182
 5102TIP3    H215313   3.834   0.964   2.423 -0.1696  0.6135  0.3626
 5103TIP3   OH215314   5.550   2.515   3.027 -0.2666 -0.1659  0.3846
 5103TIP3    H115315   5.537   2.491   3.119  4.2582  1.4533  1.6688
 5103TIP3    H215316   5.600   2.442   2.990  0.7416  0.6181  0.1649
 5104TIP3   OH215317   2.215   3.144   1.231  0.5173 -0.3408  0.2732
 5104TIP3    H115318   2.137   3.142   1.176 -1.0529 -0.0821  2.3609
 5104TIP3    H215319   2.281   3.095   1.181 -0.7716 -0.0592 -1.8154
 5105TIP3   OH215320   5.224   4.561   0.031  0.2242 -0.2578 -0.0823
 5105TIP3    H115321   5.253   4.548  -0.059  0.1267 -1.4758  0.0539
 5105TIP3    H215322   5.200   4.654   0.035 -0.3732 -0.3278 -1.4909
 5106TIP3   OH215323   4.491   0.687   1.398 -0.0603 -0.1557  0.0267
 5106TIP3    H115324   4.439   0.765   1.379 -0.5027 -0.5340 -0.3524
 5106TIP3    H215325   4.580   0.719   1.407 -0.2900  0.4451  0.2476
 5107TIP3   OH215326   3.049   1.852   3.891 -0.7213 -0.1073 -0.5436
 5107TIP3    H115327   2.968   1.903   3.901 -0.3502  0.2652  0.7220
 5107TIP3    H215328   3.086   1.848   3.979  1.8333  1.6858 -1.4137
 5108TIP3   OH215329   0.039   3.268   0.218 -0.3349  0.0796 -0.5766
 5108TIP3    H115330   0.124   3.252   0.177 -0.8699  1.1902 -2.2382
 5108TIP3    H215331  -0.022   3.211   0.171 -0.9322  1.2692 -1.3062
 5109TIP3   OH215332   1.396   1.040   0.785 -0.6584  0.1747 -0.3178
 5109TIP3    H115333   1.409   1.109   0.720  1.6395 -0.4123 -0.5760
 5109TIP3    H215334   1.438   0.963   0.747 -1.7622 -0.9594  0.6550
 5110TIP3   OH215335   0.051   5.756   1.706  0.3160  0.3062 -0.0138
 5110TIP3    H115336   0.022   5.843   1.679 -1.3233  0.0570  0.8357
 5110TIP3    H215337   0.143   5.752   1.679  0.3267  2.1571 -0.3741
 5111TIP3   OH215338   3.691   5.376   2.728 -0.2869  0.2642 -0.4313
 5111TIP3    H115339   3.655   5.373   2.817 -2.5796  0.0926 -1.3201
 5111TIP3    H215340   3.704   5.285   2.704 -0.0152  0.2992 -0.4253
 5112TIP3   OH215341   3.166   0.101   2.024  0.1805  0.0274 -0.7871
 5112TIP3    H115342   3.094   0.148   1.982  0.2637 -0.1475 -1.1302
 5112TIP3    H215343   3.138   0.089   2.115  0.1452  0.7084 -0.7062
 5113TIP3   OH215344   4.468   2.078   3.155 -0.4136 -0.3450  0.1963
 5113TIP3    H115345   4.467   2.011   3.224 -2.9445  0.1474  0.7272
 5113TIP3    H215346   4.444   2.030   3.076 -1.3584 -0.2434  0.4123
 5114TIP3   OH215347   0.940   3.672   2.849 -0.2885 -0.0117 -0.4838
 5114TIP3    H115348   1.020   3.625   2.874 -0.7896  0.3337  2.1579
 5114TIP3    H215349   0.970   3.758   2.821  0.2945  0.1071  0.4646
 5115TIP3   OH215350   1.248   5.964   0.488 -0.2224  0.2905  0.2744
 5115TIP3    H115351   1.342   5.949   0.479 -0.0352  0.4056  1.8344
 5115TIP3    H215352   1.229   5.944   0.579 -2.0078 -1.1560 -0.3638
 5116TIP3   OH215353   4.080   3.513   1.433  0.0089 -0.0227  0.0508
 5116TIP3    H115354   4.028   3.535   1.511  0.2330 -1.5615  0.6792
 5116TIP3    H215355   4.015   3.489   1.367 -0.1659  0.7534 -0.0659
 5117TIP3   OH215356   2.419   5.167   0.156  0.4587 -0.0367 -0.1297
 5117TIP3    H115357   2.438   5.104   0.086  0.0695 -0.5373  0.2097
 5117TIP3    H215358   2.435   5.118   0.237 -0.0619  0.2390  0.1413
 5118TIP3   OH215359   0.688   1.008   1.904  0.3124  0.0967  0.2323
 5118TIP3    H115360   0.747   1.041   1.971 -0.5306 -0.1232  1.1018
 5118TIP3    H215361   0.640   0.937   1.947  0.5436 -0.8050 -0.9366
 5119TIP3   OH215362   6.031   2.558   1.098 -0.2236  0.0044  0.4604
 5119TIP3    H115363   6.018   2.647   1.065 -1.2152 -0.0354  0.7203
 5119TIP3    H215364   5.947   2.515   1.085  0.3046 -0.9725  0.1425
 5120TIP3   OH215365   5.749   3.964   2.647 -0.0081 -0.6353  0.1855
 5120TIP3    H115366   5.810   3.986   2.577 -1.0316 -1.1834 -0.9244
 5120TIP3    H215367   5.705   4.046   2.668  1.1074 -0.2225  1.0372
 5121TIP3   OH215368   4.950   4.159   4.048  0.3084  0.6916  0.1436
 5121TIP3    H115369   5.043   4.160   4.071  0.4208 -1.8519  0.1353
 5121TIP3    H215370   4.948   4.187   3.956  1.1864  0.0810 -0.0840
 5122TIP3   OH215371   5.413   1.302   1.316  0.3789  0.0125 -0.3419
 5122TIP3    H115372   5.424   1.347   1.233  0.1157  0.4698 -0.1331
 5122TIP3    H215373   5.502   1.297   1.352  0.5125 -0.3145 -0.7115
 5123TIP3   OH215374   1.948   2.215   1.511 -0.2146 -0.2393 -0.3506
 5123TIP3    H115375   2.007   2.208   1.586 -0.3021 -1.6066 -0.3859
 5123TIP3    H215376   1.866   2.177   1.543 -0.6467  0.3806 -0.7315
 5124TIP3   OH215377   6.020   0.199   1.901  0.1683 -0.5426  0.1232
 5124TIP3    H115378   6.028   0.145   1.822  0.1073 -0.1909 -0.1253
 5124TIP3    H215379   5.930   0.185   1.930 -0.3444  0.6364 -0.8322
 5125TIP3   OH215380   3.416   4.072   1.274  0.0708 -0.4363 -0.0465
 5125TIP3    H115381   3.413   4.140   1.207 -0.0369  1.1162  1.4873
 5125TIP3    H215382   3.443   4.117   1.354  0.7329 -2.3314  0.8683
 5126TIP3   OH215383   5.129   3.142   2.835  0.2108  0.0139  0.8038
 5126TIP3    H115384   5.214   3.102   2.852  0.8914  1.3232  0.6344
 5126TIP3    H215385   5.069   3.100   2.896  1.2931  0.1088  1.9539
 5127TIP3   OH215386   1.743   5.724   2.292  0.0497  0.3643  0.1459
 5127TIP3    H115387   1.799   5.725   2.215  0.9692 -3.0125  0.5989
 5127TIP3    H215388   1.656   5.745   2.259  0.7175  0.6724 -1.4902
 5128TIP3   OH215389   3.218   2.813   3.965 -0.2752 -0.0310  0.1081
 5128TIP3    H115390   3.311   2.800   3.949 -0.2884  0.1702 -0.1318
 5128TIP3    H215391   3.174   2.759   3.899 -0.3328 -1.1542  1.0484
 5129TIP3   OH215392   0.355   0.809   3.906 -0.0355 -0.8993 -0.0502
 5129TIP3    H115393   0.387   0.759   3.981  0.5949  1.0554  1.0501
 5129TIP3    H215394   0.373   0.753   3.830  3.3966 -1.1289  0.7872
 5130TIP3   OH215395   1.047   0.547   1.250  0.0310 -0.5644  0.0795
 5130TIP3    H115396   1.048   0.640   1.271 -0.7729 -0.9394  1.8730
 5130TIP3    H215397   0.987   0.540   1.175  0.2230  0.3590 -0.1725
 5131TIP3   OH215398   1.766   4.982   2.885 -0.2068 -0.0055  0.2457
 5131TIP3    H115399   1.726   5.039   2.819 -1.6436  0.5218  1.5168
 5131TIP3    H215400   1.846   5.027   2.911 -0.2982  0.4240 -0.1958
 5132TIP3   OH215401   2.000   2.696   1.196 -0.3224  0.2864 -0.0961
 5132TIP3    H115402   1.921   2.746   1.176 -1.1573 -0.7432  0.5261
 5132TIP3    H215403   1.992   2.676   1.289 -0.7953 -2.2742 -0.6200
 5133TIP3   OH215404   0.657   2.877   0.625  0.5186 -0.1905  0.4823
 5133TIP3    H115405   0.565   2.852   0.616  0.5291 -1.2354  2.6042
 5133TIP3    H215406   0.706   2.800   0.597  0.8939  0.9981 -2.4929
 5134TIP3   OH215407   4.464   4.451   3.568  0.7208  0.3770  0.1721
 5134TIP3    H115408   4.461   4.358   3.545  0.4875  0.0306  1.5058
 5134TIP3    H215409   4.392   4.463   3.630  0.9631  1.3780  0.2775
 5135TIP3   OH215410   2.998   1.754   3.624 -0.3254  0.0490  0.3959
 5135TIP3    H115411   3.079   1.725   3.582 -0.1492  0.3568  0.5200
 5135TIP3    H215412   3.016   1.747   3.718 -1.2951 -2.2876  0.4821
 5136TIP3   OH215413   4.067   3.291   3.927  0.1126  0.3172  0.8334
 5136TIP3    H115414   4.161   3.299   3.945  0.4602 -1.2670  0.0105
 5136TIP3    H215415   4.059   3.204   3.888 -1.5380  0.8837 -0.1702
 5137TIP3   OH215416   1.680   3.296   2.008  0.1910  0.3970 -0.6346
 5137TIP3    H115417   1.768   3.260   2.022 -0.6658 -1.0372  1.4895
 5137TIP3    H215418   1.681   3.325   1.917  2.6963 -0.0403 -0.8322
 5138TIP3   OH215419   0.648   4.141   4.763 -0.2945 -0.0135 -0.1507
 5138TIP3    H115420   0.577   4.090   4.724 -1.4729  0.7666  0.8992
 5138TIP3    H215421   0.623   4.150   4.855  0.9686  0.6389  0.1540
 5139TIP3   OH215422   2.968   5.026   4.389  0.4006 -0.1948 -0.2190
 5139TIP3    H115423   2.963   4.938   4.425  0.2638 -0.8324 -1.7125
 5139TIP3    H215424   2.913   5.079   4.446 -3.4425 -1.9996 -1.8548
 5140TIP3   OH215425   2.220   4.832   2.979 -0.3110 -0.0321 -0.2764
 5140TIP3    H115426   2.301   4.871   3.012 -1.8810  2.0706  1.4138
 5140TIP3    H215427   2.218   4.744   3.017  0.7262  0.2358  0.4463
 5141TIP3   OH215428   0.451   3.238   2.730  0.1844  0.0181  0.0140
 5141TIP3    H115429   0.495   3.155   2.710  0.4937  0.6738 -2.3897
 5141TIP3    H215430   0.400   3.220   2.809  0.8423 -2.2206  0.0024
 5142TIP3   OH215431   3.074   5.483   2.397  0.3405  0.1554  1.1857
 5142TIP3    H115432   3.132   5.555   2.371  0.7849 -1.0837 -1.6197
 5142TIP3    H215433   2.993   5.499   2.347  0.1568 -0.8388  1.1471
 5143TIP3   OH215434   4.580   5.882   4.550  0.7367  0.0637 -0.2019
 5143TIP3    H115435   4.630   5.938   4.490  0.1067 -0.4364 -1.2239
 5143TIP3    H215436   4.568   5.800   4.502 -1.0031  0.1453  0.0334
 5144TIP3   OH215437   1.481   1.918   2.919 -0.0530 -0.5840  0.7018
 5144TIP3    H115438   1.475   1.956   2.831 -1.7055 -0.7201  0.7251
 5144TIP3    H215439   1.523   1.986   2.972 -3.4312  1.6042  0.8844
 5145TIP3   OH215440   5.694   2.156   3.978 -0.0092 -0.4017  0.0548
 5145TIP3    H115441   5.778   2.195   4.002 -0.5179  0.2710  0.7750
 5145TIP3    H215442   5.718   2.077   3.929  1.0280  0.6198 -1.1343
 5146TIP3   OH215443   0.596   5.594   0.514 -0.3581  0.8472 -0.2816
 5146TIP3    H115444   0.501   5.594   0.526 -0.5492  2.0015 -1.5596
 5146TIP3    H215445   0.608   5.555   0.427  0.5478 -1.6758  0.8684
 5147TIP3   OH215446   1.502   2.050   1.480 -0.1707 -0.1858  0.0626
 5147TIP3    H115447   1.557   1.981   1.518  0.4627  1.3363  2.0822
 5147TIP3    H215448   1.562   2.101   1.425 -0.3701 -0.5279 -0.4801
 5148TIP3   OH215449   3.541   3.709   2.603 -0.5483 -0.7400 -0.5649
 5148TIP3    H115450   3.501   3.654   2.670 -0.3788  0.2874  0.4043
 5148TIP3    H215451   3.530   3.799   2.636  1.5844 -0.3604 -0.7850
 5149TIP3   OH215452   1.476   3.103   3.273 -0.6684  0.1682 -0.8247
 5149TIP3    H115453   1.432   3.166   3.216  1.3876  3.5531  0.9238
 5149TIP3    H215454   1.565   3.138   3.282 -0.6465 -0.3865  3.7928
 5150TIP3   OH215455   5.065   5.590   2.819  0.3792  0.2894 -0.0576
 5150TIP3    H115456   5.037   5.665   2.871  2.5274  1.1530 -0.0160
 5150TIP3    H215457   5.105   5.629   2.741  1.6930 -0.7615  0.0499
 5151TIP3   OH215458   5.054   5.117   2.299  0.0462 -0.7963  0.2693
 5151TIP3    H115459   5.022   5.182   2.236  2.0477 -0.8767 -0.9091
 5151TIP3    H215460   5.001   5.039   2.280  0.8001 -0.9162 -1.5855
 5152TIP3   OH215461   3.501   2.567   4.886  0.1470  0.3967  0.6980
 5152TIP3    H115462   3.571   2.630   4.904 -0.1027  1.0967 -0.6488
 5152TIP3    H215463   3.517   2.539   4.796 -0.0665 -1.0722  1.1023
 5153TIP3   OH215464   0.401   0.499   3.211  0.1606  0.1701 -0.0788
 5153TIP3    H115465   0.388   0.408   3.236  0.6212  0.3974  1.0430
 5153TIP3    H215466   0.388   0.549   3.292 -0.9209  1.1954 -0.8454
 5154TIP3   OH215467   0.837   4.766   1.676  0.7265 -0.3927 -0.2566
 5154TIP3    H115468   0.793   4.732   1.599 -0.5967 -0.2070  0.3816
 5154TIP3    H215469   0.845   4.691   1.735  2.7400 -0.7974 -0.9669
 5155TIP3   OH215470   1.171   0.628   3.816  0.7956 -0.4255  0.7971
 5155TIP3    H115471   1.238   0.692   3.839 -1.9113  3.0285 -0.0602
 5155TIP3    H215472   1.215   0.570   3.753  3.0323  1.5126  0.4195
 5156TIP3   OH215473   3.985   3.566   3.988  0.5919 -0.1222 -0.1847
 5156TIP3    H115474   4.009   3.616   4.066  1.0692 -0.3000 -0.2151
 5156TIP3    H215475   4.022   3.479   4.003 -0.4832 -0.5596  0.0031
 5157TIP3   OH215476   4.917   3.665   0.961 -0.4591 -0.0255  0.4321
 5157TIP3    H115477   4.915   3.704   1.048 -1.6496  0.7883  0.0589
 5157TIP3    H215478   4.990   3.603   0.964 -0.6332 -0.1912  2.0822
 5158TIP3   OH215479   5.875   0.463   2.608 -0.0165  0.7894 -0.0578
 5158TIP3    H115480   5.820   0.539   2.592 -2.3012 -0.3795  1.7274
 5158TIP3    H215481   5.823   0.406   2.664  3.2599 -0.1100  2.4444
 5159TIP3   OH215482   1.147   5.259   3.384 -0.8041  0.3080  0.1073
 5159TIP3    H115483   1.065   5.291   3.347 -2.0652 -0.3356  2.1855
 5159TIP3    H215484   1.138   5.163   3.382  0.1438  0.2157 -0.1396
 5160TIP3   OH215485   2.970   0.467   4.300  0.3281 -0.1650 -0.1116
 5160TIP3    H115486   2.883   0.426   4.296 -0.2253  0.6890  1.7974
 5160TIP3    H215487   3.031   0.394   4.297 -0.5531 -0.9627  0.6679
 5161TIP3   OH215488   4.637   3.609   0.989  0.0309 -0.5258 -0.4468
 5161TIP3    H115489   4.636   3.704   0.979 -0.7609 -0.4073  0.5332
 5161TIP3    H215490   4.728   3.588   1.009  0.0798  0.1292  0.0840
 5162TIP3   OH215491   2.135   4.028   3.972  0.7202  0.5793 -0.4470
 5162TIP3    H115492   2.072   4.087   3.931  2.4342  1.4906 -1.9454
 5162TIP3    H215493   2.088   3.945   3.983 -0.4561  0.9452 -2.3550
 5163TIP3   OH215494   3.371   0.181   0.278 -0.0635  0.4240  0.6121
 5163TIP3    H115495   3.439   0.136   0.227 -1.0112 -1.0376  0.5909
 5163TIP3    H215496   3.380   0.146   0.367 -2.2041 -1.5604  0.1392
 5164TIP3   OH215497   2.418   5.114   2.360  0.7131 -0.1414 -0.3873
 5164TIP3    H115498   2.376   5.180   2.305  0.2394  0.4063  0.5892
 5164TIP3    H215499   2.511   5.136   2.357  0.5115  0.9106  0.3180
 5165TIP3   OH215500   4.465   0.005   2.524  0.6118 -0.9436  0.5761
 5165TIP3    H115501   4.395   0.060   2.557  0.3805  0.0673 -1.4324
 5165TIP3    H215502   4.420  -0.061   2.471  1.1244 -0.5271 -0.4011
 5166TIP3   OH215503   1.705   0.995   0.979  0.0428  0.4963  0.4758
 5166TIP3    H115504   1.677   0.908   1.007  3.4254 -0.3862  1.6021
 5166TIP3    H215505   1.714   0.988   0.884  1.4514 -0.8424  0.6695
 5167TIP3   OH215506   2.342   0.893   3.315  0.1484  0.0071  0.1547
 5167TIP3    H115507   2.405   0.931   3.254  1.4506  0.4479  1.7034
 5167TIP3    H215508   2.393   0.873   3.393 -1.5903  0.1476  1.3916
 5168TIP3   OH215509   4.263   1.119   4.202 -0.3242 -0.3416 -0.2481
 5168TIP3    H115510   4.172   1.147   4.200  0.1041  1.1923  0.2954
 5168TIP3    H215511   4.302   1.156   4.123 -0.0896 -0.6841 -0.2949
 5169TIP3   OH215512   2.197   4.814   1.349  0.8106 -0.7372  0.0481
 5169TIP3    H115513   2.225   4.902   1.372 -1.7260  0.5771 -1.3979
 5169TIP3    H215514   2.243   4.795   1.267  0.6806 -0.3594 -0.1145
 5170TIP3   OH215515   2.544   3.500   4.071 -0.3263 -0.2850 -0.0945
 5170TIP3    H115516   2.452   3.490   4.044 -0.1915  0.5707 -0.9333
 5170TIP3    H215517   2.593   3.446   4.008 -0.1571  0.2727 -0.4480
 5171TIP3   OH215518   5.842   4.546   1.653  0.0517  0.7595 -0.2467
 5171TIP3    H115519   5.788   4.595   1.591  0.9393  0.6584 -1.1380
 5171TIP3    H215520   5.902   4.496   1.597  0.5415  0.2680  0.6933
 5172TIP3   OH215521   2.453   2.676   0.842  0.1497 -0.2744  0.0075
 5172TIP3    H115522   2.542   2.642   0.849  0.1602 -0.1045  0.6678
 5172TIP3    H215523   2.430   2.705   0.930 -0.4114  0.0594 -0.2402
 5173TIP3   OH215524   0.500   1.662   2.684  0.5279 -0.3497  0.3922
 5173TIP3    H115525   0.512   1.752   2.656  1.7974 -0.8205 -0.6832
 5173TIP3    H215526   0.407   1.655   2.706  0.3052  1.0600 -0.0401
 5174TIP3   OH215527   0.189   4.254   2.887  0.3268 -0.7601 -0.1538
 5174TIP3    H115528   0.175   4.161   2.904 -0.7240 -0.4111  1.0936
 5174TIP3    H215529   0.267   4.257   2.832  0.3523 -2.3737 -0.2638
 5175TIP3   OH215530   1.897   1.908   3.246 -0.0942 -0.2818  0.5224
 5175TIP3    H115531   1.938   1.824   3.265 -0.3821 -0.4746  0.3062
 5175TIP3    H215532   1.884   1.948   3.332  0.4364 -0.2670  0.5975
 5176TIP3   OH215533   5.010   1.979   1.286 -0.3176 -0.2100 -0.3660
 5176TIP3    H115534   4.986   1.975   1.378 -1.0691  0.1900 -0.5290
 5176TIP3    H215535   4.929   1.958   1.239 -0.1165  0.2473 -0.9375
 5177TIP3   OH215536   5.997   5.835   2.235 -0.0771  0.5350 -0.5397
 5177TIP3    H115537   5.971   5.745   2.255  1.7543  0.1397  0.2973
 5177TIP3    H215538   5.955   5.854   2.151 -1.4844 -0.6421 -0.1560
 5178TIP3   OH215539   3.204   0.216   0.061 -0.2133  0.0668 -0.0109
 5178TIP3    H115540   3.250   0.210   0.144 -2.0109 -0.0557  1.0163
 5178TIP3    H215541   3.257   0.276   0.008 -0.6767  2.7168  2.3506
 5179TIP3   OH215542  -0.007   2.848   0.149  0.3947 -0.8719  0.4665
 5179TIP3    H115543   0.079   2.835   0.108 -0.4884 -1.7174 -1.2380
 5179TIP3    H215544  -0.023   2.942   0.143  1.9446 -0.4142  2.4815
 5180TIP3   OH215545   5.460   5.939   2.519 -0.2452  0.0301 -0.3713
 5180TIP3    H115546   5.410   5.985   2.451  0.9667  2.8327  0.4599
 5180TIP3    H215547   5.409   5.953   2.599 -0.4405 -1.1664 -0.2672
 5181TIP3   OH215548   1.431   4.969   1.958  0.0035 -0.9156  0.1540
 5181TIP3    H115549   1.455   5.051   2.002  1.3403 -0.7513 -0.8126
 5181TIP3    H215550   1.387   4.996   1.878  0.4346 -1.1333 -0.1607
 5182TIP3   OH215551   1.821   3.435   5.007 -0.2970 -0.4527 -0.8606
 5182TIP3    H115552   1.834   3.450   5.101  0.0538  0.9321 -1.1094
 5182TIP3    H215553   1.794   3.343   5.001 -0.7981 -0.4367  0.6371
 5183TIP3   OH215554   6.058   2.282   4.927  0.7153 -0.1298 -0.1474
 5183TIP3    H115555   6.114   2.235   4.988  0.3678 -0.2380  0.0898
 5183TIP3    H215556   5.971   2.281   4.967  0.6857  0.6526 -0.1715
 5184TIP3   OH215557   5.579   1.507   2.692  0.2682  0.8341 -0.2535
 5184TIP3    H115558   5.485   1.509   2.672  0.4489  0.8228 -1.1314
 5184TIP3    H215559   5.603   1.600   2.698 -0.1895  0.8682  1.9838
 5185TIP3   OH215560   6.281   5.469   0.580 -0.1617  0.4650  0.3285
 5185TIP3    H115561   6.200   5.424   0.557 -0.3019  0.9208 -0.0826
 5185TIP3    H215562   6.332   5.404   0.627 -0.5875  0.0436  0.2129
 5186TIP3   OH215563   5.282   1.433   3.590 -0.5893  0.3194  0.3782
 5186TIP3    H115564   5.216   1.499   3.567 -0.6360  0.0492 -0.2772
 5186TIP3    H215565   5.287   1.437   3.686 -1.1664  0.7159  0.3991
 5187TIP3   OH215566   6.005   5.764   4.892 -0.1433  0.1854  0.2343
 5187TIP3    H115567   5.971   5.675   4.879 -1.8109  0.6911  0.8586
 5187TIP3    H215568   5.966   5.815   4.822 -0.9593  0.8475  1.1471
 5188TIP3   OH215569   5.798   2.615   3.977  0.5497 -0.4907  0.0514
 5188TIP3    H115570   5.803   2.677   4.049 -1.0010  0.4750 -0.6267
 5188TIP3    H215571   5.791   2.529   4.019 -2.1068  0.1646  1.1730
 5189TIP3   OH215572   1.460   1.599   3.289  0.3067 -0.4274 -0.1325
 5189TIP3    H115573   1.507   1.519   3.267  2.4203  0.3427  1.2819
 5189TIP3    H215574   1.432   1.587   3.379 -2.0188 -0.6993 -0.8114
 5190TIP3   OH215575   2.564   1.443   2.623 -0.2519  0.5335 -0.7344
 5190TIP3    H115576   2.496   1.409   2.565 -0.7618  0.4276 -0.0847
 5190TIP3    H215577   2.566   1.383   2.697  0.2304  0.7927 -0.5294
 5191TIP3   OH215578   4.679   3.041   4.656  0.3039  0.5853  0.1067
 5191TIP3    H115579   4.630   3.105   4.708  1.2049  1.0340  0.4337
 5191TIP3    H215580   4.728   2.990   4.722  1.2265  0.9637 -0.2620
 5192TIP3   OH215581   2.717   2.845   3.413  0.1531  0.5338  0.0063
 5192TIP3    H115582   2.692   2.754   3.425  0.3855  0.5762  0.8794
 5192TIP3    H215583   2.653   2.895   3.464 -0.0406  0.8750 -0.5543
 5193TIP3   OH215584   1.529   2.355   2.520 -0.0239 -0.4524  0.4533
 5193TIP3    H115585   1.480   2.281   2.555 -1.7896  0.8159  0.7916
 5193TIP3    H215586   1.554   2.405   2.598  2.7190 -1.5332  0.3767
 5194TIP3   OH215587   2.994   5.889   2.147 -0.1388  0.3621  0.2418
 5194TIP3    H115588   2.937   5.928   2.082 -0.5586 -2.3097 -1.1595
 5194TIP3    H215589   3.075   5.870   2.100  0.5788  0.8257  1.2467
 5195TIP3   OH215590   4.903   1.614   2.010 -0.3110 -0.2223 -0.2012
 5195TIP3    H115591   4.992   1.640   2.035 -0.3420  0.2322 -0.5668
 5195TIP3    H215592   4.909   1.519   1.997  0.1212 -0.1952 -0.2092
 5196TIP3   OH215593   4.093   2.328   2.266  0.2467  0.3741  0.1698
 5196TIP3    H115594   4.161   2.261   2.261 -0.0190  0.1807 -1.7964
 5196TIP3    H215595   4.021   2.293   2.213 -1.6593  0.3187  2.6257
 5197TIP3   OH215596   4.565   3.369   4.785  0.2074  0.0701 -0.3816
 5197TIP3    H115597   4.510   3.447   4.781  0.6513  0.4940  1.1943
 5197TIP3    H215598   4.638   3.389   4.726  1.6888  2.0315  1.8934
 5198TIP3   OH215599   5.336   3.603   4.548 -0.5271  0.5689  0.0213
 5198TIP3    H115600   5.326   3.674   4.611 -1.4843 -0.2118  0.7864
 5198TIP3    H215601   5.372   3.531   4.599 -0.0061  0.3584 -0.6408
 5199TIP3   OH215602   5.107   4.724   3.152  0.5269  0.1053  0.1498
 5199TIP3    H115603   5.043   4.697   3.218 -1.2255  0.6771 -1.2365
 5199TIP3    H215604   5.105   4.820   3.154  1.4021  0.1383  0.0969
 5200TIP3   OH215605   2.489   3.480   1.464  0.1995  0.3199 -0.4154
 5200TIP3    H115606   2.555   3.500   1.530 -1.0693  0.2820  0.9136
 5200TIP3    H215607   2.447   3.400   1.495 -1.0532  0.8286 -0.7584
 5201TIP3   OH215608   1.055   4.472   1.418 -0.2372 -0.3813  0.0661
 5201TIP3    H115609   0.971   4.468   1.371 -0.0195 -0.0904 -0.3501
 5201TIP3    H215610   1.047   4.404   1.486 -0.6697 -0.6044 -0.1999
 5202TIP3   OH215611   4.614   3.756   4.104 -0.2184  0.3339 -0.2146
 5202TIP3    H115612   4.681   3.713   4.157 -0.1809  0.7355  0.0676
 5202TIP3    H215613   4.654   3.839   4.078 -0.1473  0.0354 -1.0687
 5203TIP3   OH215614   1.233   2.417   2.465  0.0359 -0.1841  0.5800
 5203TIP3    H115615   1.292   2.476   2.511 -0.6043  0.9736 -0.0557
 5203TIP3    H215616   1.249   2.331   2.505  3.9745 -0.5069 -1.2011
 5204TIP3   OH215617   1.651   2.620   4.402  0.6818  0.0224 -0.4159
 5204TIP3    H115618   1.615   2.570   4.476  0.6288 -0.8805 -1.0286
 5204TIP3    H215619   1.603   2.702   4.404 -0.1758 -0.4660 -0.1547
 5205TIP3   OH215620   4.350   4.585   3.344  0.4207  0.2799 -0.2031
 5205TIP3    H115621   4.275   4.528   3.361  0.1401  0.6757 -0.0932
 5205TIP3    H215622   4.389   4.600   3.430  0.7576 -0.0960 -0.2853
 5206TIP3   OH215623   3.090   0.036   4.789  0.2538 -0.0761 -0.0501
 5206TIP3    H115624   3.080  -0.057   4.810  0.0811 -0.1097 -0.2729
 5206TIP3    H215625   3.184   0.052   4.796  0.5994 -0.8071 -2.1818
 5207TIP3   OH215626   5.294   1.118   0.904 -0.5066 -0.1134 -0.1478
 5207TIP3    H115627   5.365   1.138   0.965 -0.2553  0.2296 -0.5485
 5207TIP3    H215628   5.229   1.187   0.920 -1.2924 -1.1082  1.0566
 5208TIP3   OH215629   0.099   1.099   2.402 -0.1284  0.3079  0.0093
 5208TIP3    H115630   0.090   1.147   2.319 -0.7551  0.2013  0.0097
 5208TIP3    H215631   0.029   1.135   2.457  0.3443  0.4432  0.5259
 5209TIP3   OH215632   2.976   3.472   2.502 -0.2298  0.0569 -0.3169
 5209TIP3    H115633   2.881   3.469   2.515 -0.0767 -0.0114  0.8717
 5209TIP3    H215634   3.012   3.490   2.588  0.8989 -1.0079 -0.5254
 5210TIP3   OH215635   4.553   1.038   4.752 -0.1922  0.1483 -0.0679
 5210TIP3    H115636   4.492   1.056   4.680 -0.6523  1.2384  0.5683
 5210TIP3    H215637   4.586   1.124   4.778  0.0368 -0.2347  0.9737
 5211TIP3   OH215638   3.874   5.628   2.875  0.2938  0.4866  0.2241
 5211TIP3    H115639   3.882   5.671   2.960 -0.4373  1.8030 -0.3436
 5211TIP3    H215640   3.831   5.692   2.820  1.6318  0.0130 -1.4298
 5212TIP3   OH215641   0.119   0.506   3.582  0.2977  0.3974  0.9783
 5212TIP3    H115642   0.105   0.427   3.530 -0.0691  1.3218 -0.3989
 5212TIP3    H215643   0.039   0.557   3.569  1.3094  1.8671  0.2154
 5213TIP3   OH215644   1.401   4.370   4.636  0.5498 -0.1181 -0.4204
 5213TIP3    H115645   1.417   4.443   4.576  1.1630  0.3405  0.2807
 5213TIP3    H215646   1.330   4.400   4.692  0.8588 -0.0118 -0.0772
 5214TIP3   OH215647   4.895   4.589   4.023  0.0372 -0.2089  0.1851
 5214TIP3    H115648   4.833   4.561   3.956 -1.1423 -0.6331  1.4204
 5214TIP3    H215649   4.975   4.608   3.974 -1.4292  1.7222 -1.6535
 5215TIP3   OH215650   1.571   2.515   4.658 -0.3095 -0.0319 -0.4376
 5215TIP3    H115651   1.605   2.601   4.685  0.0362 -0.1685 -0.4307
 5215TIP3    H215652   1.485   2.509   4.701 -0.2833  0.2612 -0.3410
 5216TIP3   OH215653   6.136   2.849   1.964 -0.3239  0.0635  0.1832
 5216TIP3    H115654   6.173   2.850   2.053  0.6481 -0.6923 -0.1969
 5216TIP3    H215655   6.208   2.823   1.908 -1.3326 -1.1082 -0.6318
 5217TIP3   OH215656   4.880   2.806   3.580 -0.1838 -0.0115 -0.4350
 5217TIP3    H115657   4.791   2.817   3.546 -0.7069 -1.6197  0.3102
 5217TIP3    H215658   4.874   2.830   3.672  0.0078 -0.6708 -0.2444
 5218TIP3   OH215659   1.587   0.841   4.749  0.4865  0.2375 -0.5650
 5218TIP3    H115660   1.499   0.865   4.777  0.2762 -0.1004 -0.9243
 5218TIP3    H215661   1.575   0.802   4.662  0.9032 -0.4249 -0.3368
 5219TIP3   OH215662   4.226   5.871   3.885 -0.1020  0.5569 -0.0597
 5219TIP3    H115663   4.194   5.944   3.832  1.4691  0.4204 -1.2589
 5219TIP3    H215664   4.236   5.908   3.973 -2.2447  0.9301  0.0888
 5220TIP3   OH215665   6.178   4.445   3.713 -0.4590 -0.2285  0.0168
 5220TIP3    H115666   6.241   4.374   3.698 -1.2127 -1.4265  2.0268
 5220TIP3    H215667   6.153   4.474   3.626  1.2545 -1.1910 -0.8475
 5221TIP3   OH215668   3.503   2.885   3.776  0.0983 -1.0349  0.3830
 5221TIP3    H115669   3.492   2.799   3.734  1.0659 -0.0029 -2.2120
 5221TIP3    H215670   3.597   2.903   3.770  0.0258 -0.1280  1.6333
 5222TIP3   OH215671   0.444   5.014   1.348  0.4516  0.4813 -0.3569
 5222TIP3    H115672   0.408   4.942   1.401  1.8179 -1.0830 -1.4373
 5222TIP3    H215673   0.521   5.042   1.398 -0.1752  1.3439  0.1470
 5223TIP3   OH215674   4.196   3.483   4.488  0.0499  0.2491  0.2864
 5223TIP3    H115675   4.113   3.452   4.452  0.0554 -1.2496  1.4446
 5223TIP3    H215676   4.262   3.434   4.440  0.1818  0.2997  0.4184
 5224TIP3   OH215677   2.534   2.827   4.757  0.1491 -0.1013 -0.2927
 5224TIP3    H115678   2.580   2.750   4.791  0.9033  0.0145 -1.0112
 5224TIP3    H215679   2.501   2.799   4.672  0.2696  0.3143 -0.4779
 5225TIP3   OH215680   3.974   1.296   1.379 -0.3179  0.1831 -0.5318
 5225TIP3    H115681   3.962   1.251   1.463 -0.7917  0.4755 -0.4395
 5225TIP3    H215682   3.887   1.295   1.339 -0.1345  0.2196 -0.9317
 5226TIP3   OH215683   5.146   1.431   1.936  0.2756  0.1800  0.2221
 5226TIP3    H115684   5.188   1.362   1.986  0.6349  0.4809  0.3401
 5226TIP3    H215685   5.090   1.385   1.873 -1.5191 -0.2153  1.9925
 5227TIP3   OH215686   2.131   2.555   0.931  0.3470 -0.4018  0.0623
 5227TIP3    H115687   2.174   2.622   0.985 -2.4806  1.8753 -0.2699
 5227TIP3    H215688   2.063   2.518   0.987 -1.0167  0.2499 -1.0893
 5228TIP3   OH215689   4.878   1.681   3.817  0.4790 -0.1410 -0.4444
 5228TIP3    H115690   4.886   1.718   3.729 -0.4268 -0.7182 -0.7778
 5228TIP3    H215691   4.964   1.697   3.857  0.8663  0.2197 -1.3895
 5229TIP3   OH215692   5.741   2.623   0.239  0.0771  0.8004 -0.2116
 5229TIP3    H115693   5.761   2.637   0.147  0.2321 -2.2727 -0.7488
 5229TIP3    H215694   5.649   2.647   0.248 -0.6551 -1.2083 -1.8123
 5230TIP3   OH215695   5.731   2.906   1.821  0.0788  0.3718  0.4987
 5230TIP3    H115696   5.759   2.815   1.826  0.7663  0.6238  1.6171
 5230TIP3    H215697   5.767   2.938   1.738  1.5311  0.1544  1.0198
 5231TIP3   OH215698   6.174   5.783   1.010  0.0658 -0.0382 -0.2643
 5231TIP3    H115699   6.246   5.809   0.952 -0.8916  0.1758 -1.4146
 5231TIP3    H215700   6.189   5.690   1.027  0.4901 -0.0518 -0.6820
 5232TIP3   OH215701   0.557   2.619   2.507 -0.0140 -0.8176  0.4845
 5232TIP3    H115702   0.463   2.603   2.517 -0.7104  1.7027 -1.0640
 5232TIP3    H215703   0.590   2.622   2.597 -1.4475 -1.5019  1.0644
 5233TIP3   OH215704   0.779   3.332   4.476 -0.2672 -0.2860  0.4656
 5233TIP3    H115705   0.809   3.422   4.486  0.0356 -0.4185  0.8166
 5233TIP3    H215706   0.855   3.285   4.442  0.1695 -0.7563  1.9733
 5234TIP3   OH215707   4.278   0.918   1.352  0.0343 -0.5569 -0.0879
 5234TIP3    H115708   4.321   0.975   1.417  0.7542 -0.5242 -0.5815
 5234TIP3    H215709   4.229   0.856   1.405  0.6537 -0.5634  0.5049
 5235TIP3   OH215710   6.231   2.382   3.537  0.0004 -0.4563  0.2100
 5235TIP3    H115711   6.261   2.462   3.494  0.4113 -1.0201 -0.5963
 5235TIP3    H215712   6.262   2.390   3.627 -0.3536  0.4850  0.2631
 5236TIP3   OH215713   3.812   0.548   1.817 -0.2851  0.1790 -0.3017
 5236TIP3    H115714   3.799   0.453   1.824 -0.9403  0.3793  1.7217
 5236TIP3    H215715   3.854   0.573   1.899  0.8903  1.5251 -1.2526
 5237TIP3   OH215716   0.572   3.355   3.561 -0.0252 -0.0613 -0.0651
 5237TIP3    H115717   0.555   3.387   3.473 -0.1851  1.8116  0.6150
 5237TIP3    H215718   0.487   3.356   3.604  0.5561  2.6833  1.2230
 5238TIP3   OH215719   1.067   0.063   3.953 -0.2720 -0.3727 -0.1424
 5238TIP3    H115720   1.110   0.054   3.868  0.7176 -0.0942  0.3063
 5238TIP3    H215721   1.098   0.147   3.986  1.1362 -1.4237  1.4267
 5239TIP3   OH215722   4.400   2.730   1.060 -0.1118  1.2135 -0.2192
 5239TIP3    H115723   4.318   2.691   1.090  1.3422 -0.7237  1.5649
 5239TIP3    H215724   4.442   2.761   1.140  0.4763  3.1297 -1.2155
 5240TIP3   OH215725   1.566   1.662   2.921  0.1090 -0.3063 -0.6349
 5240TIP3    H115726   1.496   1.617   2.873  0.3072  0.4678 -1.6838
 5240TIP3    H215727   1.536   1.752   2.929 -0.6380 -0.7039  2.1410
 5241TIP3   OH215728   0.896   2.626   0.760 -0.4298 -0.0346  0.1008
 5241TIP3    H115729   0.888   2.718   0.783 -2.1270  0.4192 -2.0035
 5241TIP3    H215730   0.981   2.620   0.715 -0.0664  0.3560  0.7189
 5242TIP3   OH215731   1.183   4.236   1.024 -0.0417 -0.4821 -0.0491
 5242TIP3    H115732   1.253   4.271   1.080 -0.7844 -0.7504  1.0678
 5242TIP3    H215733   1.217   4.151   0.995 -0.1726 -0.9147  1.0372
 5243TIP3   OH215734   5.251   5.631   0.496  0.5008 -0.6506 -0.1590
 5243TIP3    H115735   5.214   5.643   0.409  1.6826  0.3886 -0.5599
 5243TIP3    H215736   5.186   5.670   0.555  0.4145  0.1115 -0.7350
 5244TIP3   OH215737   4.302   4.687   0.374 -0.0580 -0.0297  0.1818
 5244TIP3    H115738   4.258   4.616   0.329 -0.0706 -1.2069  1.9670
 5244TIP3    H215739   4.394   4.662   0.374  0.2024  0.8337 -0.6749
 5245TIP3   OH215740   1.334   3.825   3.325  0.2956 -0.2883 -0.7818
 5245TIP3    H115741   1.291   3.904   3.360 -0.2607 -0.8438 -0.1751
 5245TIP3    H215742   1.409   3.811   3.382 -0.1564 -0.7379 -0.2847
 5246TIP3   OH215743   4.016   1.728   4.418  0.1593 -0.1922  0.0183
 5246TIP3    H115744   3.959   1.784   4.366 -0.1770 -0.0703  0.5071
 5246TIP3    H215745   4.031   1.650   4.364 -1.1779 -0.6184  0.2335
 5247TIP3   OH215746   2.352   2.163   4.288  0.5813  0.4408 -0.2489
 5247TIP3    H115747   2.346   2.110   4.368  0.9267 -1.7027 -1.5574
 5247TIP3    H215748   2.446   2.164   4.267  0.3533 -0.2492 -1.3766
 5248TIP3   OH215749   6.091   2.038   3.577  0.1470 -0.2145  0.0018
 5248TIP3    H115750   6.049   2.064   3.495 -0.3159 -3.7782 -1.0936
 5248TIP3    H215751   6.175   2.002   3.550  0.6285 -0.0829  1.2837
 5249TIP3   OH215752   3.335   2.627   0.251  0.3359 -0.3722 -0.3236
 5249TIP3    H115753   3.290   2.711   0.245  0.7824  0.0803  1.9616
 5249TIP3    H215754   3.427   2.648   0.240  0.3975 -0.6619 -0.3731
 5250TIP3   OH215755   2.011   1.764   3.500 -0.2655  0.3227 -0.2395
 5250TIP3    H115756   2.020   1.694   3.565 -1.6325  0.8906  0.6181
 5250TIP3    H215757   1.953   1.828   3.542  1.4796  2.3108 -0.7296
 5251TIP3   OH215758   1.747   5.285   1.813 -0.7011 -0.2130 -0.1962
 5251TIP3    H115759   1.816   5.257   1.873 -2.0451 -0.6116  1.2370
 5251TIP3    H215760   1.767   5.376   1.793 -0.1843 -0.0921  0.8136
 5252TIP3   OH215761   6.166   5.346   1.652  0.8122  0.0762  0.4017
 5252TIP3    H115762   6.188   5.292   1.728 -0.4037 -1.5483 -0.3347
 5252TIP3    H215763   6.084   5.388   1.676  0.9746  0.4035  0.3852
 5253TIP3   OH215764   0.351   4.048   2.241  0.2769 -0.1764  0.0172
 5253TIP3    H115765   0.269   4.092   2.220 -0.5889 -1.3956  0.7381
 5253TIP3    H215766   0.367   3.991   2.166 -0.3211 -1.0216  0.5195
 5254TIP3   OH215767   0.855   2.767   1.548 -0.1771  0.0155 -0.2924
 5254TIP3    H115768   0.834   2.685   1.504 -0.1961 -0.8425  1.2479
 5254TIP3    H215769   0.949   2.761   1.566 -0.3985 -0.2284  0.8756
 5255TIP3   OH215770   3.148   3.268   2.484  0.1959 -0.3599 -0.5026
 5255TIP3    H115771   3.210   3.308   2.423 -0.1130 -0.4953 -0.9090
 5255TIP3    H215772   3.071   3.324   2.480 -0.9547 -1.9506 -2.4606
 5256TIP3   OH215773   5.708   4.318   1.021 -0.0150 -0.3872  0.8126
 5256TIP3    H115774   5.612   4.323   1.020  0.0436  1.1128  0.2469
 5256TIP3    H215775   5.735   4.344   0.933  0.9211 -0.9199  0.9259
 5257TIP3   OH215776   1.208   4.125   4.861 -0.2550  0.7950  0.0591
 5257TIP3    H115777   1.124   4.092   4.894 -0.5879 -1.3093 -2.5481
 5257TIP3    H215778   1.269   4.112   4.933 -1.8333  1.0058  1.5125
 5258TIP3   OH215779   5.078   1.253   0.693 -0.8699 -0.1597  0.2393
 5258TIP3    H115780   5.005   1.289   0.644 -0.3566 -0.4605 -0.7768
 5258TIP3    H215781   5.084   1.307   0.772 -2.0279  0.0052  0.2207
 5259TIP3   OH215782   0.799   4.999   3.494 -0.0672  0.2133 -0.1108
 5259TIP3    H115783   0.734   5.015   3.425 -0.5642  1.0797  0.5295
 5259TIP3    H215784   0.835   5.086   3.513  0.6299 -0.1308  0.1818
 5260TIP3   OH215785   2.250   1.318   3.368  0.2246  0.1989 -0.1211
 5260TIP3    H115786   2.338   1.286   3.389 -0.2345 -3.2352 -2.6055
 5260TIP3    H215787   2.198   1.299   3.446  1.6765  3.0213  1.6999
 5261TIP3   OH215788   2.526   4.070   0.985 -0.2233  0.1118 -0.2814
 5261TIP3    H115789   2.610   4.041   0.948  0.6869  1.0914  0.9123
 5261TIP3    H215790   2.531   4.166   0.984 -1.1423  0.1761  0.2182
 5262TIP3   OH215791   3.496   0.689   1.099  0.5397 -0.2211  0.4344
 5262TIP3    H115792   3.576   0.742   1.105  1.3683 -1.0911 -1.7795
 5262TIP3    H215793   3.491   0.664   1.007 -2.6522  0.2828  0.3671
 5263TIP3   OH215794   3.499   5.038   0.197 -0.0186 -0.0144  0.5485
 5263TIP3    H115795   3.414   5.079   0.185  0.7474  1.5585  0.2775
 5263TIP3    H215796   3.483   4.944   0.183 -1.3225  0.4490 -1.4325
 5264TIP3   OH215797   2.476   2.984   0.668 -0.0055  0.2125  0.5402
 5264TIP3    H115798   2.435   3.016   0.748 -0.5294 -0.2114  0.4451
 5264TIP3    H215799   2.527   2.908   0.696 -2.3860 -1.6546  0.0685
 5265TIP3   OH215800   4.530   3.243   1.135  0.1278 -0.5364  0.0528
 5265TIP3    H115801   4.605   3.298   1.158 -0.9096  0.5770  0.8693
 5265TIP3    H215802   4.513   3.263   1.043  0.0650  0.1641  0.2076
 5266TIP3   OH215803   2.355   3.007   1.048 -0.5195 -0.1260  0.0701
 5266TIP3    H115804   2.316   2.921   1.061 -1.6694  0.6379  2.1322
 5266TIP3    H215805   2.315   3.039   0.967 -0.8382 -1.1113 -0.1819
 5267TIP3   OH215806   4.691   1.542   4.788 -0.3371  0.5120 -0.6113
 5267TIP3    H115807   4.678   1.534   4.883  0.6165 -0.8235 -0.5619
 5267TIP3    H215808   4.631   1.612   4.761 -0.1663  1.3657  1.0671
 5268TIP3   OH215809   5.521   2.038   5.151  0.3568  0.2668  0.1611
 5268TIP3    H115810   5.427   2.047   5.169  0.4121 -0.7880  1.1607
 5268TIP3    H215811   5.549   1.967   5.209  1.5037 -0.3531 -1.0852
 5269TIP3   OH215812   0.302   3.197   3.993 -0.2306 -0.0167 -0.0076
 5269TIP3    H115813   0.274   3.219   3.904 -0.7512 -0.4170  0.0497
 5269TIP3    H215814   0.278   3.273   4.046 -0.7975 -0.1645 -0.0450
 5270TIP3   OH215815   4.458   3.330   2.128 -0.3628  0.0222 -0.0327
 5270TIP3    H115816   4.383   3.356   2.073 -1.6460  0.4000  1.8045
 5270TIP3    H215817   4.423   3.261   2.185  0.7097  0.1562  0.8152
 5271TIP3   OH215818   5.093   4.408   1.347 -0.4003 -0.2901  0.1210
 5271TIP3    H115819   5.115   4.494   1.311 -0.5235 -0.3285 -0.0506
 5271TIP3    H215820   5.160   4.391   1.413  0.3802 -0.6338 -0.7494
 5272TIP3   OH215821   5.158   5.235   3.578  0.0479 -0.2467 -0.5670
 5272TIP3    H115822   5.073   5.219   3.618 -0.2493 -0.1248 -1.1464
 5272TIP3    H215823   5.139   5.283   3.497  0.8102  1.8506  0.4303
 5273TIP3   OH215824   6.331   2.802   4.279 -0.2025  0.4223 -0.6444
 5273TIP3    H115825   6.236   2.796   4.286 -0.2613  0.2841 -1.4758
 5273TIP3    H215826   6.346   2.871   4.214  0.2771  0.8028 -0.1423
 5274TIP3   OH215827   0.659   1.187   2.658  0.4928  0.0755  0.0086
 5274TIP3    H115828   0.680   1.157   2.747  0.2601 -1.4198 -0.4205
 5274TIP3    H215829   0.654   1.282   2.666  1.6689  0.0668  1.3465
 5275TIP3   OH215830   3.375   4.336   0.768  0.0049  0.0482 -0.2842
 5275TIP3    H115831   3.390   4.361   0.677 -0.1244  0.2427 -0.2533
 5275TIP3    H215832   3.285   4.365   0.786  0.5724  1.4881  0.3941
 5276TIP3   OH215833   2.648   3.507   4.883 -0.0511 -0.0421  0.1781
 5276TIP3    H115834   2.652   3.459   4.966  1.9137  0.1806  0.2573
 5276TIP3    H215835   2.694   3.451   4.821 -1.2342 -0.0602 -0.7247
 5277TIP3   OH215836   6.132   1.192   4.443 -0.0788 -0.0683 -0.2100
 5277TIP3    H115837   6.214   1.171   4.487  0.2382 -0.1280 -0.8193
 5277TIP3    H215838   6.158   1.246   4.368 -0.6490  0.3642 -0.1006
 5278TIP3   OH215839   2.424   4.845   2.156 -0.2413 -0.8905  0.7266
 5278TIP3    H115840   2.344   4.896   2.145  0.6303  0.5235  0.6701
 5278TIP3    H215841   2.428   4.827   2.250 -2.1028 -3.5715  0.4179
 5279TIP3   OH215842   2.737   4.477   0.335  0.5925  0.7746 -0.2747
 5279TIP3    H115843   2.784   4.437   0.262 -0.3541  0.7647 -0.8952
 5279TIP3    H215844   2.749   4.415   0.407 -0.4589 -0.4333 -1.0960
 5280TIP3   OH215845   1.777   0.036   1.096  0.7022  0.9956 -0.2937
 5280TIP3    H115846   1.701   0.089   1.119 -0.0861 -0.6010  1.0030
 5280TIP3    H215847   1.846   0.066   1.156  0.2575  0.5856  0.4409
 5281TIP3   OH215848   1.646   5.440   0.679  0.9323  0.6310  0.2649
 5281TIP3    H115849   1.642   5.489   0.597 -0.3436  3.6172  1.9514
 5281TIP3    H215850   1.723   5.384   0.669  0.6734  0.6504 -3.0133
 5282TIP3   OH215851   1.351   1.497   1.374 -0.2621 -0.1072 -0.1779
 5282TIP3    H115852   1.319   1.407   1.381 -1.1665  0.2299  0.2739
 5282TIP3    H215853   1.275   1.551   1.397  0.1768  0.7832 -0.7566
 5283TIP3   OH215854   3.757   4.140   3.253 -0.2902  0.1525 -0.3261
 5283TIP3    H115855   3.772   4.150   3.347 -1.8446  0.4344 -0.0850
 5283TIP3    H215856   3.671   4.178   3.238 -1.7189 -3.0536 -1.2360
 5284TIP3   OH215857   4.183   2.719  -0.008 -0.0897 -0.0884 -0.5065
 5284TIP3    H115858   4.089   2.702  -0.019  0.1855 -1.4552 -0.9267
 5284TIP3    H215859   4.209   2.662   0.064  0.7226 -0.8838 -1.4098
 5285TIP3   OH215860   4.776   1.402   2.351 -0.6104 -0.0993  0.5755
 5285TIP3    H115861   4.842   1.464   2.320  0.4169 -1.1758  0.5404
 5285TIP3    H215862   4.740   1.443   2.430 -0.4490  0.8470  0.1699
 5286TIP3   OH215863   6.360   3.990   1.395 -0.7811 -0.1542  0.1380
 5286TIP3    H115864   6.286   4.026   1.346 -0.7700 -0.1556  0.1201
 5286TIP3    H215865   6.328   3.983   1.485 -0.6519  0.2803  0.2201
 5287TIP3   OH215866   1.071   0.075   2.738  0.0449 -0.1404 -0.0166
 5287TIP3    H115867   1.108   0.103   2.822 -1.3060 -1.7461  1.1794
 5287TIP3    H215868   1.011   0.146   2.714  1.1577  0.7881 -0.1646
 5288TIP3   OH215869   0.656   3.815   5.049 -0.2553  1.0245  0.3759
 5288TIP3    H115870   0.680   3.841   5.138  0.1679  0.6089  0.3875
 5288TIP3    H215871   0.580   3.757   5.061  0.4194  0.1529  0.5559
 5289TIP3   OH215872   4.130   2.152   3.560  0.7715  0.2443 -0.4308
 5289TIP3    H115873   4.068   2.133   3.490  1.8614 -2.4550 -0.7607
 5289TIP3    H215874   4.212   2.175   3.515  0.8940  0.6701 -0.0069
 5290TIP3   OH215875   0.876   2.271   0.241  0.0265 -0.6405 -0.1871
 5290TIP3    H115876   0.794   2.250   0.285 -0.7316  1.7289 -0.3439
 5290TIP3    H215877   0.852   2.283   0.149  0.9318 -1.8717 -0.6074
 5291TIP3   OH215878   4.256   1.800   4.588 -0.1920  0.7753 -0.3919
 5291TIP3    H115879   4.166   1.773   4.570  0.0000  0.7883 -1.4354
 5291TIP3    H215880   4.273   1.870   4.525  1.1956 -0.5514 -1.5734
 5292TIP3   OH215881   0.427   0.337   4.019 -0.2213 -0.3607  0.4012
 5292TIP3    H115882   0.522   0.352   4.012 -0.3000  0.2234  0.5347
 5292TIP3    H215883   0.419   0.256   4.070  0.1803  1.2667  3.2733
 5293TIP3   OH215884   3.772   2.895   2.015  0.3365 -0.7346 -0.9160
 5293TIP3    H115885   3.691   2.944   2.002  0.5712 -0.7307 -2.4683
 5293TIP3    H215886   3.750   2.805   1.992  0.9202 -0.6258 -1.9131
 5294TIP3   OH215887   2.566   4.100   4.571  0.0532 -0.1918 -0.2172
 5294TIP3    H115888   2.546   4.007   4.557 -1.1532  0.3845 -2.7869
 5294TIP3    H215889   2.652   4.112   4.532 -0.0319 -0.1279 -0.3871
 5295TIP3   OH215890   2.200   0.657   3.166  0.3048 -0.3488  0.3298
 5295TIP3    H115891   2.210   0.740   3.212  0.2605 -0.4949  0.6057
 5295TIP3    H215892   2.289   0.632   3.143  0.1558  1.1395 -2.2257
 5296TIP3   OH215893   5.172   2.411   0.605 -0.3485 -0.4663  0.1916
 5296TIP3    H115894   5.262   2.384   0.587 -0.4070 -0.6890  0.2274
 5296TIP3    H215895   5.122   2.382   0.528 -0.4695 -0.7587  0.3801
 5297TIP3   OH215896   2.562   0.165   0.092  0.0734 -0.1288  0.7240
 5297TIP3    H115897   2.655   0.144   0.098  0.5147  1.9675  1.9108
 5297TIP3    H215898   2.527   0.099   0.031  2.7053  0.2341 -1.3850
 5298TIP3   OH215899   4.682   0.490   2.220  0.4333  0.3499  0.0616
 5298TIP3    H115900   4.660   0.557   2.285 -0.3852 -1.2064  1.4731
 5298TIP3    H215901   4.680   0.536   2.136 -1.6428  1.7629  0.8104
 5299TIP3   OH215902   6.277   0.598   1.967 -0.3022 -0.3124  0.2126
 5299TIP3    H115903   6.227   0.558   2.039 -0.9109  0.2877  0.1347
 5299TIP3    H215904   6.230   0.679   1.948 -0.7491 -0.9331 -1.5384
 5300TIP3   OH215905   4.727   2.399   0.071  0.4313 -0.0412 -0.0488
 5300TIP3    H115906   4.680   2.315   0.072  0.0662  0.1082 -1.5254
 5300TIP3    H215907   4.673   2.456   0.016  2.6976 -0.1343 -2.5853
 5301TIP3   OH215908   3.039   1.775   2.981  0.2998 -0.1777  0.5303
 5301TIP3    H115909   3.089   1.840   3.030  0.1714  1.1079 -0.9687
 5301TIP3    H215910   2.962   1.822   2.948 -0.1854 -1.2723  0.0180
 5302TIP3   OH215911   5.319   1.802   1.242  0.3600 -0.3025  0.3019
 5302TIP3    H115912   5.234   1.846   1.250 -0.0225 -1.1122  0.8192
 5302TIP3    H215913   5.383   1.872   1.252 -0.2342  0.1500  1.0796
 5303TIP3   OH215914   0.170   5.653   2.619  0.6541 -0.1511  0.2907
 5303TIP3    H115915   0.163   5.631   2.526 -1.4230  0.5948  0.2046
 5303TIP3    H215916   0.121   5.585   2.664  1.0850 -0.1394  0.7865
 5304TIP3   OH215917   2.894   1.068   0.015 -0.0897 -0.2825  0.8354
 5304TIP3    H115918   2.942   1.151   0.007  0.7739 -0.8656 -0.5065
 5304TIP3    H215919   2.889   1.053   0.109 -1.4037  1.9035  1.1946
 5305TIP3   OH215920   3.567   3.815   0.308  1.0151  0.5044 -0.2883
 5305TIP3    H115921   3.588   3.848   0.395 -2.2233 -0.7045  1.1235
 5305TIP3    H215922   3.649   3.780   0.274  2.6895  2.3558  1.6098
 5306TIP3   OH215923   3.642   0.698   0.061 -0.1439 -0.2403  0.2708
 5306TIP3    H115924   3.728   0.663   0.083 -0.7419 -1.3435  0.9258
 5306TIP3    H215925   3.642   0.703  -0.035  1.7478  2.7153  0.3208
 5307TIP3   OH215926   5.914   3.056   5.195  0.0062 -0.1087 -0.6987
 5307TIP3    H115927   6.009   3.062   5.184 -0.0359  0.2109 -0.8918
 5307TIP3    H215928   5.879   3.062   5.106 -0.1336 -1.5517 -0.7602
 5308TIP3   OH215929   3.988   2.248   2.036 -0.7413 -0.0818 -0.2496
 5308TIP3    H115930   4.044   2.174   2.059  1.4816  1.6590  0.2573
 5308TIP3    H215931   3.968   2.235   1.943  0.7388 -0.6420 -0.5220
 5309TIP3   OH215932   4.787   4.886   2.474  0.3532  0.1650  0.0208
 5309TIP3    H115933   4.759   4.796   2.490  0.6200 -0.0042 -0.4498
 5309TIP3    H215934   4.738   4.912   2.396 -2.2579  1.5653  1.9610
 5310TIP3   OH215935   2.501   5.171   2.962  0.0482 -0.2823 -0.3447
 5310TIP3    H115936   2.574   5.224   2.931  0.1038 -0.6313 -0.8309
 5310TIP3    H215937   2.534   5.081   2.960  0.1021 -0.3062  0.8878
 5311TIP3   OH215938   0.900   0.834   4.864 -0.0278 -0.1053  0.2418
 5311TIP3    H115939   0.949   0.821   4.945 -1.0089  0.6880  0.9883
 5311TIP3    H215940   0.810   0.850   4.892 -0.4938 -0.3516 -1.0361
 5312TIP3   OH215941   0.671   0.560   3.544 -0.5522 -0.0477  0.0830
 5312TIP3    H115942   0.729   0.601   3.607  0.2047  0.9618 -1.2241
 5312TIP3    H215943   0.600   0.623   3.531 -0.2238  0.1679 -0.7400
 5313TIP3   OH215944   3.823   2.302   2.851  0.4650  0.0964  0.2523
 5313TIP3    H115945   3.767   2.380   2.853 -1.2335 -1.0770  2.3485
 5313TIP3    H215946   3.832   2.277   2.942  3.8306 -0.2961 -0.0442
 5314TIP3   OH215947   2.285   1.759   2.082  0.6863 -0.1940 -0.2191
 5314TIP3    H115948   2.221   1.699   2.044  0.6581  1.2097 -2.5578
 5314TIP3    H215949   2.369   1.714   2.072  0.5105 -0.4203 -0.7186
 5315TIP3   OH215950   1.967   1.756   1.812 -0.3724 -0.3666  0.5063
 5315TIP3    H115951   1.874   1.756   1.790 -0.5255 -1.0192  1.0969
 5315TIP3    H215952   1.974   1.816   1.887 -0.5092 -1.1727  1.1741
 5316TIP3   OH215953   1.236   3.106   1.138 -0.4607 -0.6863 -0.0583
 5316TIP3    H115954   1.205   3.117   1.228 -0.6708 -2.3878  0.1208
 5316TIP3    H215955   1.235   3.011   1.125  3.7825 -0.8381 -0.3911
 5317TIP3   OH215956   3.025   5.439   1.583 -0.2214 -0.2883 -0.1554
 5317TIP3    H115957   2.971   5.415   1.508 -0.7858  2.9682 -0.9427
 5317TIP3    H215958   2.970   5.422   1.660 -1.5184  0.8613 -0.8120
 5318TIP3   OH215959   2.090   2.314   4.474 -0.7473 -0.2188  0.1101
 5318TIP3    H115960   2.032   2.263   4.417 -2.5046  0.0803  1.5042
 5318TIP3    H215961   2.092   2.264   4.556  1.8817 -0.7565 -0.1931
 5319TIP3   OH215962   0.077   5.534   4.967 -0.4669 -0.3813  0.2985
 5319TIP3    H115963   0.045   5.600   5.028 -1.6687 -1.7941  1.2732
 5319TIP3    H215964   0.029   5.455   4.990  1.4027 -1.7971 -0.3678
 5320TIP3   OH215965   3.779   2.137   3.843 -0.2744 -0.9226  0.1692
 5320TIP3    H115966   3.692   2.166   3.816 -0.0280 -1.1666 -0.9419
 5320TIP3    H215967   3.784   2.158   3.936 -1.5545 -0.9971  0.2672
 5321TIP3   OH215968   0.538   5.379   1.988  0.0741  0.4603 -0.1159
 5321TIP3    H115969   0.586   5.372   2.071 -0.5004 -0.6081  0.1392
 5321TIP3    H215970   0.446   5.373   2.013 -0.0895 -0.5678 -0.8844
 5322TIP3   OH215971   1.473   3.084   0.939  0.5941  0.1575  0.1240
 5322TIP3    H115972   1.415   3.052   1.008  0.0965 -2.1433 -1.2788
 5322TIP3    H215973   1.414   3.121   0.873  0.9888  1.2203  0.3499
 5323TIP3   OH215974   6.169   1.100   0.434  0.2610  0.2364 -0.4162
 5323TIP3    H115975   6.109   1.033   0.403  0.6660 -0.7607  0.8836
 5323TIP3    H215976   6.249   1.087   0.384  0.2458 -0.0707 -0.3576
 5324TIP3   OH215977   2.837   3.461   4.173 -0.3175 -0.4023  0.1005
 5324TIP3    H115978   2.843   3.542   4.224 -2.9566 -0.1619  0.1862
 5324TIP3    H215979   2.873   3.394   4.231  0.2194  0.4445  0.7694
 5325TIP3   OH215980   0.526   3.356   1.054  0.2415 -0.3371  0.0670
 5325TIP3    H115981   0.543   3.288   1.119  0.2091 -0.9368 -0.5386
 5325TIP3    H215982   0.610   3.401   1.044 -0.0120  0.4423  1.2760
 5326TIP3   OH215983   0.022   1.340   1.228 -0.3121  0.3055  0.5817
 5326TIP3    H115984   0.105   1.388   1.227 -0.1521  0.1100  2.0843
 5326TIP3    H215985   0.000   1.332   1.321 -0.9450 -1.5093  0.3183
 5327TIP3   OH215986   1.886   5.707   1.702 -0.3365 -0.3604  0.0417
 5327TIP3    H115987   1.961   5.767   1.699  0.8412 -1.5970  2.3319
 5327TIP3    H215988   1.815   5.760   1.738 -0.1879  0.4288 -0.7681
 5328TIP3   OH215989   2.430   0.352   2.021  0.1067 -0.2039  0.9243
 5328TIP3    H115990   2.443   0.301   2.102 -0.1375  0.3997  1.3476
 5328TIP3    H215991   2.388   0.433   2.050  0.6608  0.3260  0.2816
 5329TIP3   OH215992   3.192   2.248   4.651 -0.3246 -0.7577 -0.2221
 5329TIP3    H115993   3.244   2.316   4.694  0.3995 -0.8205 -0.9835
 5329TIP3    H215994   3.170   2.186   4.721  0.4898 -0.6465  0.1374
 5330TIP3   OH215995   4.628   1.281   0.137 -0.0384  0.2066 -0.0979
 5330TIP3    H115996   4.624   1.282   0.042 -0.8944  2.0345 -0.0852
 5330TIP3    H215997   4.661   1.367   0.161 -0.8429  0.1655  1.2754
 5331TIP3   OH215998   3.713   2.091   2.020  0.3614 -0.1133  0.7199
 5331TIP3    H115999   3.706   2.148   2.097 -0.9333 -0.2920  0.7572
 5331TIP3    H216000   3.696   2.003   2.054  0.1579 -0.2361  0.3013
 5332TIP3   OH216001   5.677   0.049   4.752  0.0251  0.0263  0.1936
 5332TIP3    H116002   5.735   0.082   4.683 -0.4254  2.7862  0.9980
 5332TIP3    H216003   5.732   0.041   4.829  0.1233 -1.1674  0.0097
 5333TIP3   OH216004   0.570   4.421   4.237  0.2678 -0.4689 -0.2864
 5333TIP3    H116005   0.615   4.482   4.296 -1.5938  1.2633 -0.5517
 5333TIP3    H216006   0.529   4.357   4.295 -1.6466  1.2852  0.4165
 5334TIP3   OH216007   4.975   5.016   1.659  0.4515 -0.0253 -0.0988
 5334TIP3    H116008   5.027   4.986   1.733 -0.6796 -0.9285  0.3545
 5334TIP3    H216009   5.004   4.962   1.585  0.3520 -0.3510  0.0973
 5335TIP3   OH216010   1.119   2.568   5.186 -0.2514  0.3320  0.0801
 5335TIP3    H116011   1.050   2.632   5.171  0.8778  1.2913 -1.3513
 5335TIP3    H216012   1.092   2.491   5.136 -0.0137  0.9411 -1.0313
 5336TIP3   OH216013   1.332   2.376   0.592 -0.3754 -0.0560  0.1902
 5336TIP3    H116014   1.303   2.298   0.544 -0.2158 -0.0761  0.1239
 5336TIP3    H216015   1.425   2.383   0.571 -0.2016 -0.3272  0.8627
 5337TIP3   OH216016   0.976   0.336   0.754 -0.6511  0.9436  0.1382
 5337TIP3    H116017   0.983   0.266   0.820 -1.1911  1.2618  0.5367
 5337TIP3    H216018   0.884   0.334   0.727  0.3376 -2.3036 -4.0399
 5338TIP3   OH216019   4.842   4.454   2.610  0.7030  0.2021  0.3396
 5338TIP3    H116020   4.931   4.484   2.591  0.8376 -0.5390 -0.2209
 5338TIP3    H216021   4.801   4.528   2.655  1.4917  0.6744  0.2970
 5339TIP3   OH216022   0.316   1.094   4.121 -0.1942  0.2671  0.1341
 5339TIP3    H116023   0.276   1.030   4.063 -1.0191  1.3381 -0.5055
 5339TIP3    H216024   0.257   1.099   4.196  0.8838 -1.1356  1.1390
 5340TIP3   OH216025   2.332   2.036   4.527 -0.3555  0.2321 -0.3947
 5340TIP3    H116026   2.401   2.040   4.593  0.1063  1.3064 -0.9215
 5340TIP3    H216027   2.299   1.946   4.533  2.1053 -0.8053 -1.1707
 5341TIP3   OH216028   6.358   2.143   2.651 -0.0356  0.4351  0.1229
 5341TIP3    H116029   6.375   2.128   2.558  1.3216 -0.1264  0.4457
 5341TIP3    H216030   6.263   2.133   2.659 -0.2659  1.1583 -1.3121
 5342TIP3   OH216031   1.012   0.957   3.681  0.5152  0.1465 -0.2723
 5342TIP3    H116032   0.922   0.981   3.662  0.0059 -0.5367  1.1539
 5342TIP3    H216033   1.059   0.973   3.599 -0.5492  2.1020 -0.5595
 5343TIP3   OH216034   1.426   5.110   4.156 -0.0545  0.3686  0.3863
 5343TIP3    H116035   1.492   5.056   4.112 -0.7794  0.4537 -0.8350
 5343TIP3    H216036   1.478   5.172   4.207  0.7975 -0.5816  0.7317
 5344TIP3   OH216037   0.129   5.467   1.256  0.2648  0.7359 -0.2247
 5344TIP3    H116038   0.199   5.510   1.206  1.4359 -0.5158  0.2679
 5344TIP3    H216039   0.148   5.490   1.347  0.6071 -0.3564 -0.0033
 5345TIP3   OH216040   2.926   5.512   0.056 -0.5089  0.4900  0.1325
 5345TIP3    H116041   2.984   5.502   0.131 -1.6818  0.1476  1.0170
 5345TIP3    H216042   2.915   5.607   0.047  0.9973  0.6248 -0.7190
 5346TIP3   OH216043   0.913   2.807   1.260 -0.3818 -0.0052  0.0950
 5346TIP3    H116044   0.898   2.811   1.354  1.6795  1.5593  0.4121
 5346TIP3    H216045   0.862   2.880   1.224  0.0473  0.3436  0.1912
 5347TIP3   OH216046   4.347   0.196   2.049 -0.0774 -0.0717 -0.4444
 5347TIP3    H116047   4.277   0.260   2.059 -0.0008 -0.3510  2.8771
 5347TIP3    H216048   4.426   0.241   2.079 -0.2148 -1.8812  3.0841
 5348TIP3   OH216049   1.060   0.502   0.144 -0.3452 -0.0830 -0.0989
 5348TIP3    H116050   1.018   0.496   0.058 -2.2474 -0.6468  0.8160
 5348TIP3    H216051   1.094   0.592   0.147 -3.0181  1.0446 -0.2841
 5349TIP3   OH216052   2.622   4.308   3.926 -0.4441  0.0503  0.6429
 5349TIP3    H116053   2.685   4.279   3.992 -0.2989  0.7576  0.8227
 5349TIP3    H216054   2.570   4.230   3.906  1.7503 -1.1175 -0.9547
 5350TIP3   OH216055   1.088   0.296   2.495  0.9910 -0.0249 -0.6004
 5350TIP3    H116056   1.144   0.261   2.426  0.5209 -0.3687 -0.8062
 5350TIP3    H216057   1.002   0.258   2.479  1.1946 -1.2989  1.0316
 5351TIP3   OH216058   5.660   0.064   2.856 -0.0920  0.0748 -0.0606
 5351TIP3    H116059   5.725   0.012   2.904 -2.6617 -3.2739  0.2015
 5351TIP3    H216060   5.583   0.065   2.913 -0.8717  2.5051 -1.0286
 5352TIP3   OH216061   4.745   0.450   2.534 -0.7846  0.0857 -0.1947
 5352TIP3    H116062   4.732   0.545   2.531  0.4561  0.3182  0.9284
 5352TIP3    H216063   4.840   0.439   2.534 -0.9171 -1.1885 -0.7430
 5353TIP3   OH216064   0.857   4.108   2.639  0.2951 -0.2084 -0.3607
 5353TIP3    H116065   0.867   4.203   2.648  1.1029 -0.0490 -2.4643
 5353TIP3    H216066   0.875   4.090   2.547  0.6542 -2.4788  0.0868
 5354TIP3   OH216067   2.437   3.555   2.628 -0.2732 -0.0763  0.0088
 5354TIP3    H116068   2.476   3.506   2.556 -0.8924  0.8944 -0.9973
 5354TIP3    H216069   2.512   3.594   2.674  0.0007  2.3855 -2.3337
 5355TIP3   OH216070   0.014   3.698   2.532 -0.4046 -0.0781 -0.4733
 5355TIP3    H116071   0.008   3.604   2.520  0.7339 -0.0899 -1.0656
 5355TIP3    H216072   0.054   3.709   2.618  0.8784 -0.1708 -1.0469
 5356TIP3   OH216073   3.623   5.172   4.892  0.3096 -0.3725 -0.2037
 5356TIP3    H116074   3.620   5.127   4.977  0.6433 -0.2364 -0.1181
 5356TIP3    H216075   3.687   5.242   4.904  0.2028 -0.2213 -0.5066
 5357TIP3   OH216076   0.160   1.646   3.569  0.1114 -0.0389  0.0548
 5357TIP3    H116077   0.102   1.719   3.549  1.0734  0.8513  0.4305
 5357TIP3    H216078   0.102   1.570   3.576 -0.9307  0.7267 -0.1200
 5358TIP3   OH216079   1.304   1.606   2.312 -0.3671  0.0529 -0.0987
 5358TIP3    H116080   1.263   1.640   2.391 -0.7818  0.5348 -0.5066
 5358TIP3    H216081   1.239   1.545   2.275 -0.1407 -0.2361 -0.0248
 5359TIP3   OH216082   2.593   1.558   2.221 -0.0768 -0.1702  0.2330
 5359TIP3    H116083   2.684   1.582   2.237  0.3220 -0.6549 -1.1736
 5359TIP3    H216084   2.571   1.598   2.137 -1.2676  0.1713  0.6805
 5360TIP3   OH216085   4.865   2.603   0.919 -0.1977 -0.4039 -0.2510
 5360TIP3    H116086   4.934   2.540   0.898  0.6053  0.2691  0.2598
 5360TIP3    H216087   4.815   2.562   0.989 -0.4629 -1.0016 -0.7906
 5361TIP3   OH216088   4.015   3.030   4.311  0.2159 -0.0462 -0.0692
 5361TIP3    H116089   3.978   3.093   4.373 -0.5447  0.8849 -1.4110
 5361TIP3    H216090   4.012   2.946   4.357 -1.1868  0.4553  0.8223
 5362TIP3   OH216091   3.930   4.076   0.643  0.0328 -0.4908  0.5938
 5362TIP3    H116092   3.931   4.000   0.586 -0.6430  1.3119 -2.0132
 5362TIP3    H216093   4.006   4.064   0.701  1.3702 -1.9625 -1.3521
 5363TIP3   OH216094   0.448   3.404   4.939  0.1693 -0.4572 -0.7102
 5363TIP3    H116095   0.538   3.432   4.920  0.1407  0.5004  0.4387
 5363TIP3    H216096   0.400   3.486   4.952 -0.5500 -0.9872  0.0789
 5364TIP3   OH216097   2.415   0.370   0.196 -0.1427 -0.0416  0.0465
 5364TIP3    H116098   2.476   0.306   0.159  0.0353  0.0885  0.1126
 5364TIP3    H216099   2.380   0.329   0.274  0.2234  0.0731  0.2738
 5365TIP3   OH216100   3.447   5.013   2.068 -1.0582 -0.2663 -0.0510
 5365TIP3    H116101   3.405   4.927   2.071 -1.9524  0.1638  0.0987
 5365TIP3    H216102   3.536   4.997   2.099 -1.1487 -1.1689 -0.2073
 5366TIP3   OH216103   6.104   2.370   0.775 -0.2873  0.0210 -0.1080
 5366TIP3    H116104   6.140   2.414   0.698 -1.4692  1.1776 -0.0395
 5366TIP3    H216105   6.162   2.394   0.846  0.1382 -0.0743 -0.4225
 5367TIP3   OH216106   4.477   5.765   4.066  0.1600 -0.4788  0.0969
 5367TIP3    H116107   4.559   5.792   4.107 -0.8092 -1.1998  2.6660
 5367TIP3    H216108   4.418   5.839   4.079 -0.3155 -0.9178  0.4514
 5368TIP3   OH216109   3.440   3.445   1.953  0.1346 -0.7891 -0.1575
 5368TIP3    H116110   3.454   3.529   1.910  2.3481 -1.3731 -0.7057
 5368TIP3    H216111   3.346   3.443   1.972 -0.0048  1.7020 -0.2805
 5369TIP3   OH216112   4.174   3.153   4.921  0.0712  0.0345  0.0798
 5369TIP3    H116113   4.164   3.091   4.993  0.4863  1.4120  1.3783
 5369TIP3    H216114   4.085   3.178   4.898 -0.1081 -1.1043 -0.5524
 5370TIP3   OH216115   0.110   4.978   0.988  0.1782  0.2897 -0.5576
 5370TIP3    H116116   0.129   5.047   1.051  0.4249  3.0418 -3.3556
 5370TIP3    H216117   0.019   4.954   1.004  0.0936  1.2682  0.5194
 5371TIP3   OH216118   5.558   0.156   0.055  0.1836 -0.0450 -0.9051
 5371TIP3    H116119   5.558   0.062   0.072  0.9683  0.3387  1.6979
 5371TIP3    H216120   5.633   0.169  -0.003  2.5721 -0.6774  1.8091
 5372TIP3   OH216121   5.183   0.016   2.388  0.2557  0.3239 -0.2838
 5372TIP3    H116122   5.272   0.048   2.376  1.3042 -1.6405  1.5911
 5372TIP3    H216123   5.161  -0.023   2.303  1.8156 -0.5601 -0.3225
 5373TIP3   OH216124   1.699   5.412   2.991 -0.2316 -1.1783  0.1224
 5373TIP3    H116125   1.607   5.426   3.014 -0.0171 -1.6872  1.3416
 5373TIP3    H216126   1.747   5.422   3.073  0.7472 -1.4410 -0.3981
 5374TIP3   OH216127   4.455   1.578   0.201  0.4308 -0.6747 -0.3929
 5374TIP3    H116128   4.468   1.533   0.285  0.3842  0.0019 -0.0152
 5374TIP3    H216129   4.368   1.551   0.173 -0.2609  0.4057  0.6193
 5375TIP3   OH216130   4.362   1.762   4.904  0.0658 -0.0352 -0.2082
 5375TIP3    H116131   4.302   1.687   4.908 -1.3453  1.0821  0.1470
 5375TIP3    H216132   4.389   1.765   4.812 -1.9713  0.5717 -0.8478
 5376TIP3   OH216133   2.648   5.094   2.631 -0.2195 -0.3005  0.2854
 5376TIP3    H116134   2.648   5.029   2.701  0.7197  0.9083  1.4763
 5376TIP3    H216135   2.731   5.140   2.642 -0.2252  0.1748 -1.4129
 5377TIP3   OH216136   1.263   4.653   2.226 -0.6426 -0.1447  0.3314
 5377TIP3    H116137   1.201   4.720   2.256 -0.3607  0.4331 -0.3569
 5377TIP3    H216138   1.330   4.702   2.179  0.9709 -0.6182  2.0227
 5378TIP3   OH216139   6.158   0.102   0.273  0.5161 -0.4069 -0.0282
 5378TIP3    H116140   6.202   0.093   0.188  2.0014  1.3174  0.4924
 5378TIP3    H216141   6.100   0.178   0.262  0.8655 -0.0519  0.5391
 5379TIP3   OH216142   4.974   3.065   2.289 -0.1749  0.2266  0.2421
 5379TIP3    H116143   4.961   3.070   2.383  0.6861  0.4109  0.3541
 5379TIP3    H216144   4.979   2.972   2.270  0.4208  0.2045  0.4899
 5380TIP3   OH216145   3.665   1.719   1.418 -0.6323  0.0790  0.5021
 5380TIP3    H116146   3.710   1.685   1.495 -0.1161  0.7915  0.5268
 5380TIP3    H216147   3.598   1.654   1.399  0.5909 -1.1676  0.2815
 5381TIP3   OH216148   2.876   5.019   1.259  0.4035  0.0850  0.5893
 5381TIP3    H116149   2.938   5.082   1.295  0.6866 -0.1466  0.5168
 5381TIP3    H216150   2.803   5.072   1.226  0.6928  0.3783  0.4180
 5382TIP3   OH216151   1.655   1.405   2.616 -0.5438 -0.6063 -0.3626
 5382TIP3    H116152   1.746   1.376   2.625 -1.2641 -2.9210 -0.0519
 5382TIP3    H216153   1.662   1.498   2.594  1.8409 -0.0803  2.1370
 5383TIP3   OH216154   1.653   3.340   0.896 -0.2618  0.3561 -0.3586
 5383TIP3    H116155   1.674   3.410   0.957 -2.1865  0.7400 -0.0723
 5383TIP3    H216156   1.639   3.263   0.952 -0.5085  0.3304 -0.4550
 5384TIP3   OH216157   4.103   0.372   4.429  0.0100  0.1460 -0.3471
 5384TIP3    H116158   4.077   0.450   4.479  1.3596 -1.4650  3.1830
 5384TIP3    H216159   4.079   0.298   4.485  2.2455 -1.8299 -1.8120
 5385TIP3   OH216160   2.955   0.462   1.380 -0.5364  0.2222  0.2187
 5385TIP3    H116161   2.905   0.523   1.434 -1.2788 -0.4727  0.3455
 5385TIP3    H216162   2.888   0.418   1.326 -0.2622 -1.7158  1.3599
 5386TIP3   OH216163   4.533   3.595   3.867 -0.0934  0.0198  0.3690
 5386TIP3    H116164   4.566   3.515   3.908 -0.0487  0.2810  0.8477
 5386TIP3    H216165   4.505   3.650   3.940  0.4920  0.7141  0.0790
 5387TIP3   OH216166   3.046   5.262   1.309 -0.2480  0.1651  0.0500
 5387TIP3    H116167   3.116   5.322   1.283 -0.8324  1.4726  1.3288
 5387TIP3    H216168   2.970   5.318   1.323 -2.0099 -1.3614 -2.5790
 5388TIP3   OH216169   4.404   3.119   2.335  0.3272 -0.0388  0.1873
 5388TIP3    H116170   4.498   3.124   2.316  1.1788 -0.0714  3.7944
 5388TIP3    H216171   4.385   3.025   2.338 -0.0205 -0.0315 -1.1650
 5389TIP3   OH216172   0.262   1.868   2.653 -0.5162 -0.1392  0.6820
 5389TIP3    H116173   0.274   1.840   2.562  2.7477 -1.6304  1.4156
 5389TIP3    H216174   0.297   1.957   2.655  0.0358 -0.3508  0.5901
 5390TIP3   OH216175   3.893   0.256   1.067  0.1932  0.2130  0.1748
 5390TIP3    H116176   3.853   0.338   1.096  0.5729  0.7025 -0.6682
 5390TIP3    H216177   3.833   0.221   1.002 -0.9774 -1.2069  1.9329
 5391TIP3   OH216178   0.881   5.811   0.340  0.7361  0.2359 -0.7486
 5391TIP3    H116179   0.891   5.906   0.333 -1.1866  0.4508 -0.9899
 5391TIP3    H216180   0.911   5.778   0.255  0.2558  0.7336 -1.1141
 5392TIP3   OH216181   4.564   4.638   1.191  0.3312  0.0723  0.1696
 5392TIP3    H116182   4.562   4.730   1.218  0.9246  0.0352  0.3543
 5392TIP3    H216183   4.473   4.608   1.199  0.2342  0.4881  0.6355
 5393TIP3   OH216184   0.486   0.831   3.498 -0.1081  0.0254  0.2538
 5393TIP3    H116185   0.454   0.906   3.547 -1.8538 -1.6528  1.8269
 5393TIP3    H216186   0.407   0.780   3.477  1.1368 -2.4293  1.1020
 5394TIP3   OH216187   3.202   4.768   2.350  0.4080  0.0617 -0.1303
 5394TIP3    H116188   3.109   4.778   2.329  0.3589  2.3353  0.8546
 5394TIP3    H216189   3.247   4.779   2.266 -0.1502  0.4012 -0.3909
 5395TIP3   OH216190   2.271   1.659   3.011  0.1842 -0.6217  0.0410
 5395TIP3    H116191   2.197   1.674   3.070 -0.7116 -0.1711 -1.1383
 5395TIP3    H216192   2.328   1.599   3.058 -1.8484 -2.4983  0.2747
 5396TIP3   OH216193   5.355   0.658   4.101  0.0393 -0.1325  0.6195
 5396TIP3    H116194   5.380   0.692   4.016 -0.5922  0.5520  0.7040
 5396TIP3    H216195   5.393   0.570   4.103  0.0540 -0.1615 -0.3669
 5397TIP3   OH216196   5.529   2.132   4.193 -0.4687 -0.0765  0.5516
 5397TIP3    H116197   5.503   2.224   4.198 -1.4892 -0.3023 -0.3212
 5397TIP3    H216198   5.606   2.131   4.136 -0.6337  0.1970  0.3279
 5398TIP3   OH216199   4.465   3.910   3.460  0.0671 -0.2163 -0.1853
 5398TIP3    H116200   4.441   3.824   3.425 -1.2206  0.6016 -1.4169
 5398TIP3    H216201   4.385   3.942   3.501  0.4135  0.5775 -0.1236
 5399TIP3   OH216202   5.402   1.559   2.097  0.3812 -0.0350 -0.4924
 5399TIP3    H116203   5.323   1.560   2.044 -0.1998 -0.0977  0.3632
 5399TIP3    H216204   5.372   1.542   2.186  1.4892 -1.6668 -0.3889
 5400TIP3   OH216205   4.132   3.300   2.070 -0.1440 -0.6852 -0.5920
 5400TIP3    H116206   4.119   3.302   2.165 -1.1818  2.2099 -0.6975
 5400TIP3    H216207   4.066   3.238   2.038 -1.9199  0.6192  0.3843
 5401TIP3   OH216208   5.988   4.157   0.611 -0.2292  0.3336  0.5361
 5401TIP3    H116209   5.895   4.156   0.588 -0.0871 -0.1383 -0.0631
 5401TIP3    H216210   6.024   4.229   0.560 -0.4555  1.2201  1.6009
 5402TIP3   OH216211   1.077   3.748   3.291  0.6326  0.2368  0.2010
 5402TIP3    H116212   1.166   3.766   3.319  0.8447 -0.4345 -0.0233
 5402TIP3    H216213   1.073   3.780   3.201  0.7022  0.1022  0.1498
 5403TIP3   OH216214   4.148   5.418   1.320 -0.2543 -0.1720 -0.3260
 5403TIP3    H116215   4.133   5.487   1.256 -1.3695 -1.1619 -1.1781
 5403TIP3    H216216   4.243   5.407   1.321 -0.0956  1.0135 -0.5388
 5404TIP3   OH216217   0.572   1.725   1.419  0.0256 -0.3660  0.4939
 5404TIP3    H116218   0.574   1.756   1.510  1.0227  1.7489 -0.1973
 5404TIP3    H216219   0.663   1.703   1.399 -0.0822 -0.1778 -0.2059
 5405TIP3   OH216220   3.390   5.655   2.610  0.2956 -0.3950 -0.6535
 5405TIP3    H116221   3.298   5.653   2.637  0.3784  1.0116 -0.1790
 5405TIP3    H216222   3.388   5.629   2.518 -0.3235 -2.3551 -0.1311
 5406TIP3   OH216223   0.105   5.222   4.137 -0.1088  0.3359 -0.1812
 5406TIP3    H116224   0.185   5.262   4.170  0.5730 -0.7420 -0.4966
 5406TIP3    H216225   0.089   5.266   4.053 -0.9527  1.9267  0.7541
 5407TIP3   OH216226   0.365   4.058   1.824  0.6651 -0.2124 -0.4790
 5407TIP3    H116227   0.441   4.048   1.880  1.2169  1.1381 -0.9473
 5407TIP3    H216228   0.290   4.041   1.881  1.2537  0.1420  0.4126
 5408TIP3   OH216229   0.002   5.125   0.539 -0.2217 -0.0328 -0.0206
 5408TIP3    H116230   0.089   5.094   0.563 -0.2669 -0.5781 -0.5377
 5408TIP3    H216231   0.005   5.132   0.443 -0.5948  0.4019 -0.0026
 5409TIP3   OH216232   4.402   3.470   1.326 -0.4632  0.1438  0.1240
 5409TIP3    H116233   4.315   3.438   1.349 -1.0048  1.3429 -0.1841
 5409TIP3    H216234   4.406   3.464   1.231 -0.9129  1.7682 -0.0180
 5410TIP3   OH216235   1.386   1.902   4.897 -0.3439 -0.3585  0.3105
 5410TIP3    H116236   1.445   1.944   4.959  0.7474  0.1265 -0.9996
 5410TIP3    H216237   1.317   1.967   4.882 -0.0529 -0.0566  0.2477
 5411TIP3   OH216238   0.825   0.041   0.749  0.0091 -0.7756 -0.4657
 5411TIP3    H116239   0.857   0.081   0.668  0.2147  1.4365  0.6356
 5411TIP3    H216240   0.731   0.056   0.748  0.2304  1.1134  0.5574
 5412TIP3   OH216241   0.369   3.526   0.651 -0.0054  0.4353  0.3046
 5412TIP3    H116242   0.352   3.605   0.599 -2.7228 -0.4082 -0.2583
 5412TIP3    H216243   0.400   3.560   0.735 -1.5903  2.1913  0.2701
 5413TIP3   OH216244   4.627   4.591   1.778  0.0682 -0.2516 -0.1954
 5413TIP3    H116245   4.649   4.680   1.748  1.3365 -0.8057 -0.9878
 5413TIP3    H216246   4.589   4.548   1.701 -3.2699  0.4158  0.9226
 5414TIP3   OH216247   5.950   5.149   3.179  0.3976 -0.2132 -0.1132
 5414TIP3    H116248   6.007   5.073   3.173 -1.6661 -1.8835  0.2564
 5414TIP3    H216249   5.891   5.141   3.103  0.9713  1.7705 -0.8181
 5415TIP3   OH216250   0.089   5.576   4.667  0.2051  0.1228 -0.1035
 5415TIP3    H116251   0.109   5.557   4.758 -4.1205 -1.8292  0.7099
 5415TIP3    H216252   0.015   5.637   4.670  0.2292  0.3609 -2.3152
 5416TIP3   OH216253   1.301   0.894   4.863 -0.7437 -0.0670  0.3812
 5416TIP3    H116254   1.309   0.869   4.955 -1.1407 -0.5506  0.2908
 5416TIP3    H216255   1.281   0.988   4.865 -1.4060 -0.2110  0.8142
 5417TIP3   OH216256   4.053   5.793   3.645 -0.0181 -0.0836 -0.4077
 5417TIP3    H116257   3.988   5.860   3.661 -0.5833 -1.3446  3.6289
 5417TIP3    H216258   4.137   5.834   3.668 -0.0608 -0.0710 -0.2766
 5418TIP3   OH216259   3.185   5.707   2.288  0.2618  0.2496  0.4252
 5418TIP3    H116260   3.112   5.741   2.237  1.2687 -0.9821 -1.9615
 5418TIP3    H216261   3.262   5.753   2.254  1.2845 -2.3317 -0.9849
 5419TIP3   OH216262   0.351   5.839   0.521  0.8093 -0.4706  0.5076
 5419TIP3    H116263   0.441   5.838   0.491  0.4306 -0.5446 -0.6559
 5419TIP3    H216264   0.337   5.752   0.559  0.9565 -0.7855 -0.1496
 5420TIP3   OH216265   4.966   3.185   5.107 -0.2159 -0.2980 -0.4725
 5420TIP3    H116266   5.021   3.237   5.165  0.3793 -0.5995 -0.7684
 5420TIP3    H216267   5.023   3.116   5.075 -1.2191 -1.6876  0.6050
 5421TIP3   OH216268   4.655   1.823   3.372  0.0584 -0.7295 -0.2669
 5421TIP3    H116269   4.592   1.821   3.300  0.3705  0.5921 -0.6048
 5421TIP3    H216270   4.739   1.841   3.330  0.4655 -1.2165  0.3094
 5422TIP3   OH216271   1.886   1.780   5.077  0.2061  0.7036 -0.2663
 5422TIP3    H116272   1.799   1.752   5.104  0.3170  0.4730 -0.1478
 5422TIP3    H216273   1.943   1.706   5.098  0.5023  1.0233  0.0679
 5423TIP3   OH216274   3.034   2.662   3.789 -0.4103 -0.0697 -0.1094
 5423TIP3    H116275   2.973   2.701   3.726 -1.1537 -1.7801 -0.4886
 5423TIP3    H216276   3.116   2.653   3.739 -1.0460 -1.5906 -0.9488
 5424TIP3   OH216277   6.065   3.578   1.689 -0.1504  0.0649  0.1217
 5424TIP3    H116278   6.152   3.551   1.658 -0.7248 -1.3556 -0.2993
 5424TIP3    H216279   6.018   3.497   1.703 -1.2310  0.8109  0.9380
 5425TIP3   OH216280   5.216   0.287   2.279 -0.3761 -0.1403  0.0250
 5425TIP3    H116281   5.165   0.351   2.328 -1.6311 -1.0888  0.0189
 5425TIP3    H216282   5.161   0.264   2.204 -0.5884 -2.1750  0.7278
 5426TIP3   OH216283   0.410   4.982   2.114 -0.1800  0.1403  0.1710
 5426TIP3    H116284   0.370   5.060   2.074  0.5999  0.7813  0.5945
 5426TIP3    H216285   0.484   4.961   2.057 -1.3180 -1.2875 -0.8370
 5427TIP3   OH216286   5.668   1.042   1.284  0.0749 -0.0974 -0.0418
 5427TIP3    H116287   5.743   1.086   1.246 -0.2492 -0.5992 -1.3072
 5427TIP3    H216288   5.602   1.041   1.215 -0.3146 -1.5862  0.2964
 5428TIP3   OH216289   4.283   3.529   3.761 -0.4084  0.4344  0.2804
 5428TIP3    H116290   4.376   3.550   3.773 -0.5724  1.0558  0.4803
 5428TIP3    H216291   4.279   3.434   3.773  0.2705  0.3365 -0.1889
 5429TIP3   OH216292   4.206   2.131   1.435 -0.3620  0.4386 -0.4290
 5429TIP3    H116293   4.247   2.163   1.355  1.0376  1.9935  0.8061
 5429TIP3    H216294   4.218   2.037   1.434  3.2907  0.7762 -0.2369
 5430TIP3   OH216295   5.526   3.871   4.406  0.0118  0.1793  0.5351
 5430TIP3    H116296   5.580   3.892   4.482 -1.8915 -1.3827  2.4070
 5430TIP3    H216297   5.524   3.776   4.404 -1.0151  0.2041 -0.7373
 5431TIP3   OH216298   1.503   5.635   3.348 -0.3559  0.7291 -0.1031
 5431TIP3    H116299   1.484   5.665   3.437 -0.9303 -0.2258  0.1089
 5431TIP3    H216300   1.439   5.566   3.332  1.9479 -1.5585  0.0352
 5432TIP3   OH216301   1.275   2.809   2.287  0.3086  0.2560  0.0794
 5432TIP3    H116302   1.266   2.883   2.348 -0.3104 -0.1000  0.4279
 5432TIP3    H216303   1.342   2.838   2.224  2.4171 -0.0849  2.0147
 5433TIP3   OH216304   5.874   3.546   5.009  0.1163  0.2481  0.5415
 5433TIP3    H116305   5.956   3.580   5.043  0.9107 -0.4198 -0.6286
 5433TIP3    H216306   5.888   3.539   4.915 -0.5872 -1.6932  0.5377
 5434TIP3   OH216307   1.243   2.201   2.650 -0.2474 -0.8282  0.1676
 5434TIP3    H116308   1.257   2.126   2.707  0.3753  0.5352  1.8950
 5434TIP3    H216309   1.179   2.256   2.696  0.3619  0.3791 -0.3560
 5435TIP3   OH216310   6.219   0.902   3.036 -0.1094  0.4518  0.4378
 5435TIP3    H116311   6.266   0.968   2.985  1.5759 -0.1761  1.1247
 5435TIP3    H216312   6.246   0.819   2.998  0.6464  0.0044  1.8806
 5436TIP3   OH216313   2.662   5.314   4.228 -0.3631  0.7377 -0.0398
 5436TIP3    H116314   2.707   5.373   4.289 -0.3245 -0.2063  0.8677
 5436TIP3    H216315   2.720   5.309   4.152  0.3035  0.7929  0.4557
 5437TIP3   OH216316   1.070   2.209   3.551 -0.3423 -0.0458 -0.1715
 5437TIP3    H116317   1.065   2.183   3.459 -0.9731  1.6984 -0.6777
 5437TIP3    H216318   1.150   2.262   3.557  0.7272 -1.6875  0.7439
 5438TIP3   OH216319   1.295   1.276   2.744 -0.2629 -0.1543  0.5052
 5438TIP3    H116320   1.322   1.221   2.818 -1.9037 -0.9101  0.5748
 5438TIP3    H216321   1.207   1.246   2.723 -1.4523  2.8219  0.8793
 5439TIP3   OH216322   0.860   0.703   3.745  0.1767  0.8505  0.6128
 5439TIP3    H116323   0.921   0.776   3.752  0.7273  0.2257  3.4171
 5439TIP3    H216324   0.819   0.698   3.831 -0.9370 -1.2361  0.0141
 5440TIP3   OH216325   1.041   1.985   4.745 -0.1162  0.2235  0.2935
 5440TIP3    H116326   0.983   2.060   4.737 -2.1062 -1.2791 -0.3070
 5440TIP3    H216327   1.079   1.993   4.833  0.2104  2.2082  0.0118
 5441TIP3   OH216328   1.731   2.149   2.707  0.0130  0.3333  0.2841
 5441TIP3    H116329   1.655   2.109   2.663 -0.4552 -0.9270  2.1509
 5441TIP3    H216330   1.807   2.110   2.663 -0.4243 -0.0588 -0.1427
 5442TIP3   OH216331   1.868   1.567   4.495  0.1768  0.0665  0.7017
 5442TIP3    H116332   1.777   1.546   4.473  0.1655  1.2094 -0.5084
 5442TIP3    H216333   1.866   1.590   4.588 -0.8476  0.4266  0.6013
 5443TIP3   OH216334   2.412   0.755   1.111  0.1275  0.1824  0.5379
 5443TIP3    H116335   2.363   0.826   1.071  0.8989 -0.0591 -0.8913
 5443TIP3    H216336   2.392   0.762   1.205 -0.3256  1.8512  0.3467
 5444TIP3   OH216337   4.258   2.090   0.148 -0.0115 -0.2724 -0.0186
 5444TIP3    H116338   4.228   2.018   0.203 -0.4722  0.4593  0.7171
 5444TIP3    H216339   4.182   2.112   0.094  0.7674 -1.7312 -1.8218
 5445TIP3   OH216340   1.845   5.703   3.025  0.3460 -0.0148 -0.2667
 5445TIP3    H116341   1.859   5.721   2.932 -0.3368  0.0752 -0.3525
 5445TIP3    H216342   1.751   5.713   3.038  0.5045  0.5200  0.5554
 5446TIP3   OH216343   4.986   5.619   4.050 -0.0084  0.0316  0.0737
 5446TIP3    H116344   5.063   5.587   4.003  0.9934  0.6014  1.2727
 5446TIP3    H216345   5.022   5.680   4.115 -1.3960 -0.3270  1.2118
 5447TIP3   OH216346   4.391   2.172   5.150 -0.0650  0.2152  0.2263
 5447TIP3    H116347   4.422   2.253   5.108 -0.4197  0.4527  0.4170
 5447TIP3    H216348   4.297   2.173   5.136 -0.2074  0.3576  1.1256
 5448TIP3   OH216349   4.833   4.584   3.057 -0.3732 -0.2977  0.3049
 5448TIP3    H116350   4.912   4.535   3.078  1.4921  2.1783 -0.4715
 5448TIP3    H216351   4.806   4.623   3.140  1.8332  2.3059 -0.0663
 5449TIP3   OH216352   3.924   0.613   5.006  0.3432 -0.1920  0.2897
 5449TIP3    H116353   3.845   0.664   4.993  0.2907 -0.3133  0.1343
 5449TIP3    H216354   3.987   0.675   5.042  0.1830 -0.0920  0.3996
 5450TIP3   OH216355   1.213   5.724   4.902 -0.4208 -0.4541 -0.0538
 5450TIP3    H116356   1.221   5.654   4.966  1.4526 -0.1490  0.1067
 5450TIP3    H216357   1.120   5.726   4.879 -0.7953 -1.8124  1.2336
 5451TIP3   OH216358   2.949   4.685   0.399  0.1621 -0.0149  0.3340
 5451TIP3    H116359   2.910   4.771   0.385 -2.0040 -1.0355 -0.3664
 5451TIP3    H216360   3.043   4.698   0.386 -0.2733  1.9371 -1.2735
 5452TIP3   OH216361   4.178   3.254   1.218  0.1206 -0.0556 -0.1175
 5452TIP3    H116362   4.269   3.239   1.191  0.1896 -0.7674  0.4890
 5452TIP3    H216363   4.145   3.319   1.155  1.1899  0.5844 -0.0459
 5453TIP3   OH216364   6.045   1.157   0.965 -0.0517 -0.6318 -0.1894
 5453TIP3    H116365   6.117   1.130   1.023 -0.1471  0.1319  0.2989
 5453TIP3    H216366   6.063   1.112   0.882  0.8098 -0.7069  0.0289
 5454TIP3   OH216367   4.042   0.836   0.045 -0.4730 -0.5403  0.5767
 5454TIP3    H116368   4.107   0.902   0.021  1.2168 -2.2076  0.3118
 5454TIP3    H216369   4.018   0.858   0.135 -0.4280  0.7945  0.2829
 5455TIP3   OH216370   5.994   0.503   3.364 -0.3546 -0.5922 -0.3461
 5455TIP3    H116371   6.076   0.540   3.398 -0.8601  0.4516 -0.2310
 5455TIP3    H216372   5.959   0.454   3.438 -2.1314  2.7750  1.2803
 5456TIP3   OH216373   1.020   0.190   2.068  0.2675 -0.3750 -0.4126
 5456TIP3    H116374   1.014   0.117   2.006  1.9134 -2.2259  1.4553
 5456TIP3    H216375   1.073   0.256   2.021 -0.2415 -0.8418 -1.6981
 5457TIP3   OH216376   5.205   1.017   3.414 -0.4964  0.2022  0.7104
 5457TIP3    H116377   5.145   1.014   3.488  0.2933 -0.6395  1.3324
 5457TIP3    H216378   5.225   0.926   3.395  0.6813  0.4659  0.5943
 5458TIP3   OH216379   4.269   5.940   2.494 -0.1138 -0.6158 -0.4033
 5458TIP3    H116380   4.290   6.033   2.481  3.0391 -0.8993  1.6112
 5458TIP3    H216381   4.305   5.897   2.417  3.6188 -0.6004  1.1081
 5459TIP3   OH216382   4.749   3.566   1.477 -0.0435  0.0860 -0.5672
 5459TIP3    H116383   4.697   3.627   1.425  0.0450 -0.0927 -0.8702
 5459TIP3    H216384   4.691   3.491   1.491  0.0596 -0.0231 -0.7230
 5460TIP3   OH216385   4.570   5.326   2.916 -0.0189  0.2238  0.3017
 5460TIP3    H116386   4.663   5.312   2.900  0.1734  1.7730 -0.0841
 5460TIP3    H216387   4.556   5.290   3.004  0.1511 -3.1269 -0.8785
 5461TIP3   OH216388   1.904   5.662   1.098  0.0439  0.3078  0.1383
 5461TIP3    H116389   1.906   5.716   1.177  0.0651 -1.0224  1.0842
 5461TIP3    H216390   1.849   5.586   1.122 -1.2739  0.6315 -1.6402
 5462TIP3   OH216391   3.213   1.142   3.676 -0.2315 -0.1504 -0.3391
 5462TIP3    H116392   3.192   1.201   3.749  2.2340  2.2649 -1.4188
 5462TIP3    H216393   3.164   1.177   3.602 -0.4560 -0.8262 -0.5163
 5463TIP3   OH216394   2.729   3.857   1.155 -0.1894 -0.0248 -0.0398
 5463TIP3    H116395   2.661   3.924   1.165  0.9971  1.4532 -1.3516
 5463TIP3    H216396   2.810   3.907   1.147  0.7012 -1.6058 -1.4856
 5464TIP3   OH216397   1.746   0.850   4.485  0.0780 -0.5828  0.1693
 5464TIP3    H116398   1.762   0.846   4.580  0.9787 -4.2838  0.0034
 5464TIP3    H216399   1.656   0.818   4.475 -0.0637 -0.0639 -0.2159
 5465TIP3   OH216400   0.324   3.717   0.473 -0.2091  0.0517  0.3527
 5465TIP3    H116401   0.312   3.789   0.534 -0.3444  0.2166  0.1311
 5465TIP3    H216402   0.236   3.697   0.441 -0.1331 -0.0010  0.1744
 5466TIP3   OH216403   4.636   5.657   0.768 -0.6199  0.1471 -0.1340
 5466TIP3    H116404   4.625   5.698   0.682  1.5741  1.3136  0.0502
 5466TIP3    H216405   4.568   5.697   0.823  1.7912  4.3327  0.2102
 5467TIP3   OH216406   5.553   5.876   3.855 -0.3521  0.3527 -0.1222
 5467TIP3    H116407   5.537   5.850   3.764  0.2811 -1.4548  0.2425
 5467TIP3    H216408   5.470   5.857   3.900 -0.3589  0.3572 -0.1328
 5468TIP3   OH216409   3.910   5.662   2.109  0.1190  0.6671 -0.5134
 5468TIP3    H116410   3.925   5.754   2.133  0.8645  0.4364 -0.0218
 5468TIP3    H216411   3.999   5.625   2.101 -0.1705 -0.1650 -0.0501
 5469TIP3   OH216412   3.474   2.460   3.118 -0.0440  0.1352 -0.0309
 5469TIP3    H116413   3.441   2.545   3.145  0.3092 -0.2098  1.5598
 5469TIP3    H216414   3.497   2.472   3.026 -2.2565  1.0695 -0.5473
 5470TIP3   OH216415   5.423   4.299   3.647  0.3058  0.3916  0.0755
 5470TIP3    H116416   5.457   4.342   3.726  0.8714  0.1716 -0.0427
 5470TIP3    H216417   5.488   4.319   3.579  0.7932 -0.9839  0.1086
 5471TIP3   OH216418   1.357   4.415   0.212 -0.2087  0.9926  0.5088
 5471TIP3    H116419   1.338   4.411   0.118  2.3870 -2.0151 -0.0423
 5471TIP3    H216420   1.443   4.456   0.218  1.4432 -2.2848  1.1029
 5472TIP3   OH216421   4.866   2.541   3.867  0.2051  0.3475 -0.0555
 5472TIP3    H116422   4.855   2.487   3.946 -0.0324  0.9447  0.3316
 5472TIP3    H216423   4.960   2.535   3.847 -0.1495 -1.9342 -1.3062
 5473TIP3   OH216424   4.082   1.639   0.689  0.1648 -0.0359 -0.0506
 5473TIP3    H116425   4.005   1.655   0.635  0.3559  0.8474 -0.0861
 5473TIP3    H216426   4.155   1.675   0.637  0.6999 -1.4365 -0.3095
 5474TIP3   OH216427   2.068   5.306   3.892  0.0480  0.0605 -0.0058
 5474TIP3    H116428   2.095   5.218   3.868  1.2418  0.5475 -0.5821
 5474TIP3    H216429   2.141   5.362   3.862 -0.1088  1.0970  1.4434
 5475TIP3   OH216430   0.072   0.634   0.245  0.2970 -0.1075 -0.0045
 5475TIP3    H116431   0.036   0.674   0.166  1.3076 -1.8630 -1.4551
 5475TIP3    H216432   0.059   0.540   0.232  0.5060 -0.4556  1.9401
 5476TIP3   OH216433   2.599   3.926   2.690 -0.2381  0.1385 -0.1889
 5476TIP3    H116434   2.525   3.914   2.630  0.8149 -0.3036 -1.4289
 5476TIP3    H216435   2.642   3.841   2.692  1.8128  1.0909 -1.6117
 5477TIP3   OH216436   2.425   5.462   4.100  0.0835 -0.3386 -0.3259
 5477TIP3    H116437   2.442   5.556   4.108  0.4527 -0.5257  1.8212
 5477TIP3    H216438   2.409   5.448   4.007  0.8021  1.7156 -0.8169
 5478TIP3   OH216439   2.295   5.204   4.128  0.1420 -0.3698  0.6153
 5478TIP3    H116440   2.209   5.232   4.097  0.8344  0.2399 -0.8597
 5478TIP3    H216441   2.285   5.111   4.146 -0.7385 -0.3711  0.1639
 5479TIP3   OH216442   0.528   4.094   4.381  0.4735  0.0590 -0.3581
 5479TIP3    H116443   0.574   4.041   4.447  0.8824 -1.1046 -1.5371
 5479TIP3    H216444   0.518   4.180   4.422  0.2896 -0.7593  1.3958
 5480TIP3   OH216445   4.186   4.812   4.051 -0.5724 -0.0521  1.0743
 5480TIP3    H116446   4.231   4.744   4.102 -2.2505 -0.7351  1.7086
 5480TIP3    H216447   4.255   4.876   4.030  1.0996 -1.9848  0.3240
 5481TIP3   OH216448   3.124   1.710   1.025  0.6695 -0.2200 -0.5384
 5481TIP3    H116449   3.141   1.624   1.064  2.1193  1.1203  2.0744
 5481TIP3    H216450   3.205   1.733   0.980  1.1470  0.6805  0.7198
 5482TIP3   OH216451   4.970   2.353   0.460  0.1180 -0.0151  0.1380
 5482TIP3    H116452   4.908   2.415   0.420 -0.8406 -1.0035  0.0482
 5482TIP3    H216453   4.926   2.324   0.540  1.0845  0.3136  0.8028
 5483TIP3   OH216454   5.180   5.199   0.682  0.1132  0.0484 -0.1317
 5483TIP3    H116455   5.259   5.177   0.731 -0.0275  3.4699  2.0142
 5483TIP3    H216456   5.123   5.123   0.692  2.0401 -1.3506  0.7266
 5484TIP3   OH216457   2.984   0.184   1.792  0.4860  0.1435 -0.1393
 5484TIP3    H116458   3.044   0.239   1.743 -2.1223  1.7335 -1.7787
 5484TIP3    H216459   2.978   0.103   1.740  1.5072 -0.2528  0.3160
 5485TIP3   OH216460   4.780   4.741   0.852  0.4977  0.6242  0.0226
 5485TIP3    H116461   4.815   4.749   0.764 -1.3790 -1.0424 -0.9453
 5485TIP3    H216462   4.699   4.792   0.851  0.5281  0.7100  0.8301
 5486TIP3   OH216463   3.913   4.014   4.168  0.2382  0.0004  0.2462
 5486TIP3    H116464   3.966   3.936   4.154  0.7395  0.0348  1.7932
 5486TIP3    H216465   3.903   4.020   4.263 -1.3200  0.8212  0.0592
 5487TIP3   OH216466   4.698   5.611   3.796 -0.6735 -0.4969 -0.5328
 5487TIP3    H116467   4.619   5.664   3.799 -0.9025 -0.5250 -3.3333
 5487TIP3    H216468   4.667   5.521   3.802 -0.8135 -0.4799 -0.9392
 5488TIP3   OH216469   1.176   0.475   2.175 -0.3828  0.3315  0.0784
 5488TIP3    H116470   1.202   0.518   2.094 -1.4739  0.5197 -0.1850
 5488TIP3    H216471   1.208   0.534   2.244  0.2792  0.3249 -0.2151
 5489TIP3   OH216472   1.644   4.140   2.298 -0.6517 -0.4864  0.2254
 5489TIP3    H116473   1.550   4.155   2.311 -0.9626 -0.2605 -1.9472
 5489TIP3    H216474   1.681   4.227   2.283 -0.2246 -0.6531  0.2872
 5490TIP3   OH216475   3.359   5.830   1.635 -0.0101  0.3914 -0.1918
 5490TIP3    H116476   3.350   5.812   1.729  0.8264 -1.1699 -0.3907
 5490TIP3    H216477   3.291   5.777   1.594  1.6095 -1.3813 -0.6825
 5491TIP3   OH216478   1.554   0.953   1.387  0.3352  0.8082 -0.7510
 5491TIP3    H116479   1.543   0.863   1.357  0.8621  0.4234  0.1564
 5491TIP3    H216480   1.554   1.005   1.307  0.4879 -0.0468 -1.3250
 5492TIP3   OH216481   1.921   4.399   1.205 -0.6927  0.8525  0.4887
 5492TIP3    H116482   1.978   4.462   1.162 -0.3654 -0.1336 -0.5613
 5492TIP3    H216483   1.960   4.385   1.292 -0.5196  1.7307  0.5554
 5493TIP3   OH216484   4.250   3.659   3.166 -0.0236 -0.3959  0.0760
 5493TIP3    H116485   4.157   3.680   3.156  0.1349 -0.3401 -1.4336
 5493TIP3    H216486   4.262   3.648   3.261 -1.1500  1.5406  0.4949
 5494TIP3   OH216487   5.801   0.924   2.564  0.2095  0.1198  0.7961
 5494TIP3    H116488   5.733   0.957   2.623  0.2282 -0.0848  0.9322
 5494TIP3    H216489   5.786   0.971   2.482 -0.3868 -0.2423  0.6837
 5495TIP3   OH216490   5.725   5.503   3.885 -0.3672 -0.5253 -0.1341
 5495TIP3    H116491   5.638   5.464   3.884 -0.3875 -0.4976  0.3337
 5495TIP3    H216492   5.784   5.432   3.910 -0.5949  0.0759  2.3320
 5496TIP3   OH216493   1.571   4.507   3.263 -0.1253  0.2166  0.4499
 5496TIP3    H116494   1.659   4.508   3.227 -0.6262 -1.3812 -0.9623
 5496TIP3    H216495   1.526   4.580   3.220 -0.1224 -0.3826 -0.5849
 5497TIP3   OH216496   0.945   1.532   4.924 -0.4522 -0.1723  0.5449
 5497TIP3    H116497   0.875   1.596   4.941 -1.2621 -0.5384 -1.2313
 5497TIP3    H216498   0.930   1.463   4.989 -2.7930 -1.0175 -0.7548
 5498TIP3   OH216499   3.965   2.038   2.315  0.1940 -0.5308 -0.6753
 5498TIP3    H116500   4.042   2.059   2.262  0.6865 -0.3711  0.0865
 5498TIP3    H216501   3.897   2.098   2.284  0.2325 -0.9590 -1.6435
 5499TIP3   OH216502   1.970   2.083   2.580  0.6705  0.5827 -0.2552
 5499TIP3    H116503   2.016   2.083   2.664 -0.0456 -0.2846  0.1632
 5499TIP3    H216504   2.039   2.088   2.514  1.2410  1.2805  0.3855
 5500TIP3   OH216505   6.181   4.958   1.003 -0.3004  0.0560 -0.2118
 5500TIP3    H116506   6.118   4.896   1.041 -0.7001  1.8888  2.4472
 5500TIP3    H216507   6.155   4.965   0.911 -1.2648 -2.3884 -0.2139
 5501TIP3   OH216508   1.816   3.858   4.401  0.0917  0.0961  0.1532
 5501TIP3    H116509   1.872   3.780   4.399 -1.3589 -1.1430  2.9807
 5501TIP3    H216510   1.812   3.883   4.493 -0.9193  2.5143 -0.4591
 5502TIP3   OH216511   3.851   4.480   0.163  0.1315 -1.1406  0.6982
 5502TIP3    H116512   3.889   4.538   0.228 -0.5161  2.3751 -1.7676
 5502TIP3    H216513   3.770   4.447   0.204 -0.7593  1.7200  1.4486
 5503TIP3   OH216514   5.714   2.321   3.397 -0.2577  0.3839 -0.6209
 5503TIP3    H116515   5.775   2.253   3.372  0.2148  1.1572 -1.6384
 5503TIP3    H216516   5.768   2.388   3.440 -0.6524  0.3185  0.0016
 5504TIP3   OH216517   2.733   1.799   3.714 -0.2031  0.1000  0.8007
 5504TIP3    H116518   2.825   1.780   3.699 -0.3504 -0.2384  0.3165
 5504TIP3    H216519   2.687   1.721   3.685 -0.6361  0.2020  1.1937
 5505TIP3   OH216520   1.958   0.711   5.031  0.2741 -0.2188  0.1982
 5505TIP3    H116521   2.022   0.781   5.044  0.0451  0.0079  0.1191
 5505TIP3    H216522   1.998   0.633   5.070  0.0836  0.1970  1.2523
 5506TIP3   OH216523   0.156   0.614   5.167 -0.4776  0.1048 -0.0094
 5506TIP3    H116524   0.093   0.541   5.170 -0.7970  0.1998 -2.2829
 5506TIP3    H216525   0.241   0.573   5.183 -0.8930 -0.3847  0.9764
 5507TIP3   OH216526   4.879   3.748   0.233  0.2461 -0.5875 -0.5834
 5507TIP3    H116527   4.911   3.658   0.242  1.0411 -0.2012  0.7273
 5507TIP3    H216528   4.942   3.801   0.281 -1.6358  0.3563  1.0036
 5508TIP3   OH216529   0.771   5.594   4.413  0.7451 -0.2339  0.7319
 5508TIP3    H116530   0.856   5.582   4.455  1.0287  2.5051  1.0599
 5508TIP3    H216531   0.787   5.656   4.342 -0.3559 -2.3307 -1.5531
 5509TIP3   OH216532   4.096   5.750   3.347 -0.0040  0.4614  0.3119
 5509TIP3    H116533   4.057   5.736   3.434  0.4491 -1.1884  0.2958
 5509TIP3    H216534   4.182   5.708   3.353  0.9310  2.1893 -0.3004
 5510TIP3   OH216535   4.400   1.418   0.938 -0.0374 -0.5221  0.0830
 5510TIP3    H116536   4.336   1.486   0.917  0.3380 -0.6482 -1.5560
 5510TIP3    H216537   4.366   1.377   1.018 -1.0287  0.6070  0.2781
 5511TIP3   OH216538   1.179   3.731   4.423 -0.0954  0.1243 -0.0899
 5511TIP3    H116539   1.216   3.816   4.447 -1.2843  0.6935 -0.1788
 5511TIP3    H216540   1.251   3.683   4.384  0.3740  1.4514 -0.9111
 5512TIP3   OH216541   0.912   2.007   2.541 -0.3517 -0.4978 -0.7451
 5512TIP3    H116542   0.999   2.025   2.504 -0.2584 -1.2831 -0.9262
 5512TIP3    H216543   0.897   2.078   2.603  1.0605 -1.1215  0.3765
 5513TIP3   OH216544   1.186   1.162   4.795  0.2084 -0.6447  0.7701
 5513TIP3    H116545   1.270   1.180   4.753  0.6602 -2.3157  0.8809
 5513TIP3    H216546   1.178   1.229   4.863  0.9794  0.1219  0.1265
 5514TIP3   OH216547   0.753   4.711   1.017  0.2708  0.1418  0.0395
 5514TIP3    H116548   0.820   4.686   0.954  1.1539  1.7544  0.2739
 5514TIP3    H216549   0.671   4.710   0.967  0.7257 -0.1686 -0.7141
 5515TIP3   OH216550   0.838   4.864   2.552  0.1570 -0.3198  0.8441
 5515TIP3    H116551   0.756   4.879   2.599  0.1704  0.8083  0.5303
 5515TIP3    H216552   0.825   4.905   2.467  0.3256 -1.8924  0.0161
 5516TIP3   OH216553   3.869   3.398   3.418 -0.1666  0.5033  0.4268
 5516TIP3    H116554   3.923   3.358   3.350  0.1361  0.4751  0.6854
 5516TIP3    H216555   3.890   3.351   3.498 -1.1871 -0.0641  0.3793
 5517TIP3   OH216556   1.016   5.054   3.717  0.3692  0.2105 -0.3756
 5517TIP3    H116557   0.970   4.980   3.758  0.1924 -0.3146 -1.4627
 5517TIP3    H216558   0.957   5.082   3.647 -0.1142  2.1937  0.7609
 5518TIP3   OH216559   0.189   4.637   5.005  0.2219 -0.0145 -0.0881
 5518TIP3    H116560   0.149   4.553   5.024  0.6553 -0.2848 -0.3465
 5518TIP3    H216561   0.280   4.628   5.036  0.5298  0.0321 -0.9563
 5519TIP3   OH216562   3.411   0.561   3.002 -0.1061  0.8408  0.0063
 5519TIP3    H116563   3.416   0.651   2.969  4.9315  0.1116 -2.2276
 5519TIP3    H216564   3.465   0.562   3.081  0.2811 -0.2244 -0.2309
 5520TIP3   OH216565   5.973   0.942   4.867 -0.6620  0.5932  0.6388
 5520TIP3    H116566   5.944   0.979   4.950 -1.7453  0.7447  0.2189
 5520TIP3    H216567   5.896   0.894   4.834 -0.2662  0.5653 -0.2799
 5521TIP3   OH216568   4.044   1.686   1.485  0.0118 -0.6493  0.0606
 5521TIP3    H116569   3.987   1.646   1.420  0.0669 -0.9958  0.2215
 5521TIP3    H216570   4.012   1.653   1.569 -1.2634  1.2513  0.3967
 5522TIP3   OH216571   5.137   3.015   3.382 -0.6402  0.1326  0.5632
 5522TIP3    H116572   5.115   2.922   3.378 -1.2704  0.3054 -0.0852
 5522TIP3    H216573   5.169   3.027   3.472  0.2045 -0.8621  0.4192
 5523TIP3   OH216574   5.105   1.848   4.429  0.7088 -0.0780 -0.7000
 5523TIP3    H116575   5.053   1.768   4.419  1.3843 -0.3663 -2.1215
 5523TIP3    H216576   5.164   1.829   4.502  0.2109 -0.4975 -0.3924
 5524TIP3   OH216577   3.424   0.877   3.867 -0.2384 -0.4286  0.1463
 5524TIP3    H116578   3.466   0.814   3.925 -1.3799 -1.2542  0.0970
 5524TIP3    H216579   3.330   0.868   3.884 -0.4853  0.5840 -0.5497
 5525TIP3   OH216580   2.373   1.307   1.341 -0.6698 -0.0226 -0.7512
 5525TIP3    H116581   2.291   1.357   1.342  0.7105  2.3678 -0.4791
 5525TIP3    H216582   2.435   1.363   1.296  1.5124 -0.6003  1.3674
 5526TIP3   OH216583   4.864   3.570   3.296  0.4688  0.2096 -0.1250
 5526TIP3    H116584   4.936   3.580   3.234 -0.1595  2.0713 -0.6271
 5526TIP3    H216585   4.791   3.616   3.256  0.1645  1.9328  2.1791
 5527TIP3   OH216586   0.818   0.297   4.415 -0.7072  0.2099  0.1114
 5527TIP3    H116587   0.856   0.308   4.502 -1.5730 -1.3904  0.7413
 5527TIP3    H216588   0.887   0.326   4.355  0.2844  0.3826  1.2988
 5528TIP3   OH216589   5.457   0.210   0.320 -0.5025  0.3756 -0.0876
 5528TIP3    H116590   5.381   0.159   0.295  0.5626 -0.8785 -0.9407
 5528TIP3    H216591   5.519   0.197   0.248  0.6325  1.0838  0.7254
 5529TIP3   OH216592   5.277   3.662   1.776  0.4496 -0.1533 -0.0424
 5529TIP3    H116593   5.199   3.614   1.749  0.8194  0.2554 -1.9598
 5529TIP3    H216594   5.243   3.740   1.820 -0.1875 -0.6022  0.2733
 5530TIP3   OH216595   3.898   2.691   2.550  0.2289  0.6791  0.3880
 5530TIP3    H116596   3.924   2.755   2.483 -0.6815  0.6255 -0.0206
 5530TIP3    H216597   3.941   2.610   2.524  0.1188  0.7343  0.0342
 5531TIP3   OH216598   2.051   2.377   4.113 -0.5117 -0.2703 -0.8409
 5531TIP3    H116599   1.979   2.421   4.158  0.0448  0.2270 -0.4219
 5531TIP3    H216600   2.040   2.401   4.021 -0.6622  0.1177 -0.7235
 5532TIP3   OH216601   2.657   5.573   1.137 -0.4224 -0.0346 -0.4029
 5532TIP3    H116602   2.649   5.651   1.192 -1.3957  0.3399 -1.0613
 5532TIP3    H216603   2.638   5.603   1.048  4.2802  0.0990 -1.6308
 5533TIP3   OH216604   1.336   1.538   4.660  0.0743 -0.3368  0.1388
 5533TIP3    H116605   1.299   1.494   4.584  1.8245 -1.2989 -0.1977
 5533TIP3    H216606   1.265   1.594   4.692 -0.1303  1.6097 -3.3255
 5534TIP3   OH216607   5.909   5.887   0.851  0.4177 -0.7338 -0.8943
 5534TIP3    H116608   5.863   5.970   0.836 -0.1553 -0.4429  1.9249
 5534TIP3    H216609   5.857   5.822   0.804 -1.1519  0.0333 -0.2935
 5535TIP3   OH216610   2.298   5.490   1.492 -0.1557 -0.0265  0.0594
 5535TIP3    H116611   2.307   5.515   1.400 -1.8717 -0.4209 -0.2350
 5535TIP3    H216612   2.212   5.524   1.518  0.5124  0.5311  1.6833
 5536TIP3   OH216613   4.656   0.249   1.613 -0.4417  0.1504  0.7422
 5536TIP3    H116614   4.570   0.290   1.616  0.3558  1.8393  1.2157
 5536TIP3    H216615   4.691   0.273   1.527 -1.5102 -2.9108 -0.6999
 5537TIP3   OH216616   0.046   4.074   3.294 -0.4587  0.3190  0.3506
 5537TIP3    H116617   0.127   4.113   3.260 -1.0064 -0.5719 -2.2000
 5537TIP3    H216618   0.068   4.046   3.382  1.7378  0.9462  0.0632
 5538TIP3   OH216619   2.417   3.466   0.585 -0.2489 -0.5157  0.2631
 5538TIP3    H116620   2.410   3.371   0.578 -0.2529 -0.6592  1.7145
 5538TIP3    H216621   2.444   3.480   0.676  0.3687  0.8453 -0.1172
 5539TIP3   OH216622   1.270   2.574   4.466  0.1833 -0.5025  0.4018
 5539TIP3    H116623   1.265   2.664   4.433 -0.9973 -0.2794  1.1197
 5539TIP3    H216624   1.257   2.582   4.560  1.6033 -1.3073  0.6973
 5540TIP3   OH216625   3.876   2.955   2.725 -0.5124 -0.2523 -0.2026
 5540TIP3    H116626   3.914   3.029   2.773 -0.0978  1.1702 -2.5651
 5540TIP3    H216627   3.949   2.893   2.715 -0.3388 -0.1042  0.1303
 5541TIP3   OH216628   1.657   0.410   4.499  0.5238 -0.0650 -0.0736
 5541TIP3    H116629   1.701   0.488   4.533 -1.9186  1.1887  0.4558
 5541TIP3    H216630   1.681   0.341   4.560 -1.0999  1.4124  2.4587
 5542TIP3   OH216631   6.186   0.212   3.304  0.0547  0.3555 -0.1320
 5542TIP3    H116632   6.239   0.287   3.279  0.5591  0.1957  0.4255
 5542TIP3    H216633   6.211   0.143   3.242 -0.3142  0.6015 -0.5613
 5543TIP3   OH216634   1.263   5.659   2.131  0.4213 -0.1457 -0.1195
 5543TIP3    H116635   1.232   5.658   2.041 -0.1317  3.0865 -0.0957
 5543TIP3    H216636   1.185   5.675   2.184  1.1999  2.0664  0.4875
 5544TIP3   OH216637   1.876   0.153   3.551 -0.3497 -0.3490  0.0729
 5544TIP3    H116638   1.847   0.159   3.460  0.4079 -1.5183 -0.2727
 5544TIP3    H216639   1.859   0.240   3.587 -1.5206 -0.1394 -0.9106
 5545TIP3   OH216640   1.038   4.651   3.276 -0.2421 -0.5476 -0.0713
 5545TIP3    H116641   1.001   4.664   3.363  2.5489 -0.5150  1.2280
 5545TIP3    H216642   1.047   4.557   3.268 -0.5003 -0.5501 -0.3281
 5546TIP3   OH216643   4.655   3.713   4.682 -0.1300  0.1149 -0.5643
 5546TIP3    H116644   4.577   3.768   4.692  0.0825  0.5677 -1.2798
 5546TIP3    H216645   4.728   3.775   4.691  0.1621 -0.3539  0.4060
 5547TIP3   OH216646   5.689   2.657   1.247 -0.2516 -0.0365  0.0642
 5547TIP3    H116647   5.676   2.651   1.152 -3.3615 -0.2989  0.3958
 5547TIP3    H216648   5.727   2.573   1.272  0.0167 -0.2058 -0.8847
 5548TIP3   OH216649   5.490   3.002   3.463  0.0573 -0.1222  0.3238
 5548TIP3    H116650   5.523   2.957   3.385  0.4369  0.5481  0.0956
 5548TIP3    H216651   5.474   2.931   3.526 -2.5573 -0.9649 -1.1328
 5549TIP3   OH216652   2.647   2.502   4.848 -0.6587  0.1155  1.0619
 5549TIP3    H116653   2.736   2.470   4.865 -0.3608  0.7711  0.7530
 5549TIP3    H216654   2.614   2.442   4.781 -1.0953 -1.2052  2.4122
 5550TIP3   OH216655   1.893   1.000   2.539 -0.4947  0.4727  0.0315
 5550TIP3    H116656   1.829   1.003   2.610  0.3535  0.0153  0.8417
 5550TIP3    H216657   1.978   0.995   2.584  0.0372 -0.1146 -1.0123
 5551TIP3   OH216658   6.379   4.375   1.354  0.2219 -0.5395 -0.0013
 5551TIP3    H116659   6.335   4.370   1.439 -0.8610  0.5737 -0.4851
 5551TIP3    H216660   6.317   4.338   1.292  0.4331 -0.0266 -0.5262
 5552TIP3   OH216661   0.639   1.767   0.443 -0.4315  0.6500  0.3406
 5552TIP3    H116662   0.625   1.846   0.391  2.1555 -0.1798 -1.8698
 5552TIP3    H216663   0.621   1.695   0.382  1.3097 -0.3749  0.9654
 5553TIP3   OH216664   2.904   0.744   0.546 -0.3765  0.1264 -0.0839
 5553TIP3    H116665   2.873   0.828   0.580  1.0923  0.0554  1.6125
 5553TIP3    H216666   2.883   0.746   0.453 -0.2693  2.4390 -0.1050
 5554TIP3   OH216667   4.991   2.264   1.183  0.0552  0.0437  0.1142
 5554TIP3    H116668   4.990   2.168   1.180  0.8824 -0.0215  1.2259
 5554TIP3    H216669   5.035   2.290   1.102 -1.7507 -0.4161 -1.0818
 5555TIP3   OH216670   3.773   2.607   1.932 -0.7473 -0.4297  0.0499
 5555TIP3    H116671   3.685   2.626   1.899  0.4167  0.9290 -2.5535
 5555TIP3    H216672   3.807   2.540   1.873  0.6365  0.5100 -0.2921
 5556TIP3   OH216673   1.185   4.966   2.582 -0.5030 -0.0605 -0.9264
 5556TIP3    H116674   1.140   4.896   2.630  0.9163 -0.4989 -0.1733
 5556TIP3    H216675   1.164   5.045   2.631 -2.0844  0.0679 -1.7599
 5557TIP3   OH216676   3.510   4.286   3.237 -0.6641 -0.3332  0.2756
 5557TIP3    H116677   3.420   4.273   3.267 -0.9431  0.9953  0.0803
 5557TIP3    H216678   3.504   4.359   3.175  0.3040 -1.3008 -1.0036
 5558TIP3   OH216679   0.078   5.144   3.421  0.0957 -0.4122 -0.0073
 5558TIP3    H116680   0.132   5.123   3.497 -1.8875 -0.2859  1.5242
 5558TIP3    H216681   0.107   5.231   3.394  0.1658 -0.0184  1.2701
 5559TIP3   OH216682   0.034   0.797   4.480 -0.2110  0.2930  0.0551
 5559TIP3    H116683   0.106   0.860   4.481 -0.7247  0.9485  2.8366
 5559TIP3    H216684  -0.023   0.828   4.410  1.3990  0.6311 -1.1881
 5560TIP3   OH216685   3.058   1.614   4.594  0.1078 -0.5885  0.0539
 5560TIP3    H116686   2.986   1.621   4.657  0.3675 -1.5687  0.4924
 5560TIP3    H216687   3.133   1.589   4.648  0.8183  0.5492 -0.3818
 5561TIP3   OH216688   6.257   3.864   1.625  0.2349  0.0487  0.1804
 5561TIP3    H116689   6.180   3.841   1.573 -1.0424 -1.1060  2.4677
 5561TIP3    H216690   6.293   3.779   1.653  1.5158  0.6180  0.3460
 5562TIP3   OH216691   5.982   1.532   3.027 -0.3152  0.2110 -0.3314
 5562TIP3    H116692   6.050   1.522   2.961  0.1158  0.2905  0.0933
 5562TIP3    H216693   5.976   1.446   3.069 -1.8588 -0.3834 -1.6611
 5563TIP3   OH216694   4.073   2.045   1.059  0.0689 -1.2524  0.2704
 5563TIP3    H116695   4.021   2.007   0.988  0.3739  1.6326 -1.6574
 5563TIP3    H216696   4.009   2.096   1.110  0.6152  0.7913 -1.0068
 5564TIP3   OH216697   5.321   3.219   2.260 -0.4660 -0.0153  0.2731
 5564TIP3    H116698   5.308   3.185   2.348  0.3309  0.6067  0.6449
 5564TIP3    H216699   5.324   3.314   2.271 -1.2185  0.1222 -0.5479
 5565TIP3   OH216700   4.971   0.628   4.575  0.2038  0.3965 -0.1023
 5565TIP3    H116701   4.988   0.624   4.481  0.2133 -1.4776 -0.0626
 5565TIP3    H216702   4.913   0.554   4.592  0.7910  0.2572  1.4682
 5566TIP3   OH216703   3.161   2.459   0.370 -0.4250 -0.5345  0.3094
 5566TIP3    H116704   3.136   2.516   0.443 -1.0324 -0.3000 -0.0739
 5566TIP3    H216705   3.205   2.517   0.309 -3.1782  0.1323 -1.2251
 5567TIP3   OH216706   2.782   2.614   0.906  0.0055  0.6193 -0.3725
 5567TIP3    H116707   2.857   2.661   0.942  1.1707  0.2797 -2.2321
 5567TIP3    H216708   2.819   2.555   0.841 -1.5606 -2.0009  0.9818
 5568TIP3   OH216709   0.948   2.955   2.423 -0.0516 -0.6375  0.1325
 5568TIP3    H116710   0.889   2.883   2.398 -1.0242 -0.2056  1.0760
 5568TIP3    H216711   0.894   3.034   2.414 -0.1426 -0.3694  2.4770
 5569TIP3   OH216712   0.546   3.629   3.406 -0.1282 -0.6157 -0.0416
 5569TIP3    H116713   0.534   3.617   3.312  1.0738  0.7388 -0.3996
 5569TIP3    H216714   0.630   3.674   3.414  1.2213 -3.1882  1.8447
 5570TIP3   OH216715   5.016   2.646   5.008 -0.9015 -0.0967  0.3434
 5570TIP3    H116716   5.055   2.682   4.928 -2.3590 -0.3275 -0.5108
 5570TIP3    H216717   5.080   2.581   5.038  0.5410  1.3191  0.4507
 5571TIP3   OH216718   5.682   5.551   1.266 -0.1448 -0.7036 -0.2014
 5571TIP3    H116719   5.754   5.510   1.314  1.1078  0.9054 -0.6305
 5571TIP3    H216720   5.604   5.502   1.294  0.8573 -1.3735  1.6174
 5572TIP3   OH216721   5.059   1.129   2.463 -0.9334 -0.1291 -0.3724
 5572TIP3    H116722   5.037   1.174   2.381  1.5438  0.6374 -0.7009
 5572TIP3    H216723   5.136   1.076   2.441 -1.1586 -1.1376  1.1019
 5573TIP3   OH216724   0.336   5.286   2.574  0.3199  0.3352  0.5179
 5573TIP3    H116725   0.353   5.322   2.487 -1.6022 -0.3411 -0.2155
 5573TIP3    H216726   0.272   5.347   2.612  0.7371  0.3278  1.2276
 5574TIP3   OH216727   0.700   3.002   0.349  0.1769 -0.0629  0.5411
 5574TIP3    H116728   0.713   3.000   0.444  0.7872 -2.8845  0.4783
 5574TIP3    H216729   0.667   2.915   0.327 -0.9788  0.8696 -1.7430
 5575TIP3   OH216730   1.747   5.649   1.365 -0.6515 -0.6309  0.4047
 5575TIP3    H116731   1.753   5.735   1.408  1.3070  0.1324 -1.2487
 5575TIP3    H216732   1.662   5.650   1.320 -0.6416  0.4519  0.3955
 5576TIP3   OH216733   5.533   1.340   0.350  0.4562 -0.8219  0.7774
 5576TIP3    H116734   5.579   1.337   0.266  2.3830 -1.8448  1.7864
 5576TIP3    H216735   5.467   1.271   0.344  0.2630 -0.5739 -0.0479
 5577TIP3   OH216736   0.919   5.783   0.605 -0.3037 -0.3521 -0.0472
 5577TIP3    H116737   1.006   5.743   0.605  1.0546  2.2231 -2.3858
 5577TIP3    H216738   0.888   5.773   0.516 -1.6328  0.3072  0.3172
 5578TIP3   OH216739   5.048   1.770   0.052  0.5343 -0.0025 -0.2345
 5578TIP3    H116740   5.065   1.753  -0.041 -0.4491 -1.2198 -0.2121
 5578TIP3    H216741   5.133   1.796   0.087  0.8558  0.8369 -1.5411
 5579TIP3   OH216742   4.374   0.086   3.169 -0.3298 -0.1889  0.0208
 5579TIP3    H116743   4.296   0.054   3.125 -0.4227  0.6903 -0.4886
 5579TIP3    H216744   4.447   0.052   3.118 -0.4314  0.5521 -0.6439
 5580TIP3   OH216745   2.951   4.485   4.928 -0.2311  0.3765  0.3551
 5580TIP3    H116746   2.973   4.392   4.925  1.4716  0.7446  0.1955
 5580TIP3    H216747   2.964   4.516   4.838 -0.8661  0.7620  0.3875
 5581TIP3   OH216748   1.622   5.235   4.306  0.1984 -0.0561 -0.4792
 5581TIP3    H116749   1.569   5.307   4.341 -2.1261 -1.4941 -0.8598
 5581TIP3    H216750   1.650   5.187   4.384 -1.5716 -0.9455 -0.3521
 5582TIP3   OH216751   3.420   1.939   1.217  0.6581 -0.0365  0.2028
 5582TIP3    H116752   3.422   1.923   1.312  2.3608 -0.1281  0.1912
 5582TIP3    H216753   3.421   1.852   1.178  1.3545  0.0044  0.1172
 5583TIP3   OH216754   0.396   2.764   0.628  0.5262  0.3079 -0.1131
 5583TIP3    H116755   0.433   2.677   0.615  3.0308  1.4628 -1.6680
 5583TIP3    H216756   0.384   2.771   0.723  2.3688 -0.9814  0.2822
 5584TIP3   OH216757   4.217   1.089   1.711  0.4788  0.4067  0.2962
 5584TIP3    H116758   4.129   1.123   1.695  0.3285 -0.5858 -1.2261
 5584TIP3    H216759   4.252   1.144   1.781 -1.1238  1.2013  0.5192
 5585TIP3   OH216760   0.822   1.611   1.370  0.6173 -0.2756 -0.0043
 5585TIP3    H116761   0.873   1.691   1.356  0.2460 -0.2375 -1.2149
 5585TIP3    H216762   0.858   1.549   1.307  0.7705 -1.0148  0.7953
 5586TIP3   OH216763   5.095   3.225   2.085 -0.0112  0.2046 -0.3136
 5586TIP3    H116764   5.056   3.149   2.129 -0.1362  1.3203  1.5957
 5586TIP3    H216765   5.182   3.233   2.123  0.3605  0.4829 -1.1904
 5587TIP3   OH216766   4.099   4.934   2.303 -0.1787  0.3872  0.3853
 5587TIP3    H116767   4.089   4.858   2.360 -0.6492  0.5840  0.5731
 5587TIP3    H216768   4.152   4.903   2.230 -1.5370 -0.5073 -0.2533
 5588TIP3   OH216769   4.271   1.310   4.431 -0.0882  0.3424  0.0175
 5588TIP3    H116770   4.309   1.224   4.449 -0.2207  0.4326  0.7417
 5588TIP3    H216771   4.328   1.372   4.475 -1.3715  0.4394  1.6497
 5589TIP3   OH216772   1.372   1.352   3.778  0.2085 -0.6961 -0.6605
 5589TIP3    H116773   1.372   1.370   3.684  1.0545  0.0396 -0.5298
 5589TIP3    H216774   1.281   1.362   3.804 -0.6468 -3.8197 -1.9120
 5590TIP3   OH216775   6.211   1.365   3.176  0.1719 -0.5547  0.6061
 5590TIP3    H116776   6.206   1.429   3.248 -1.5528 -0.8210  0.7822
 5590TIP3    H216777   6.151   1.296   3.202 -1.1273 -0.2917 -1.4251
 5591TIP3   OH216778   0.134   5.756   1.210 -0.4070  0.5965  0.2799
 5591TIP3    H116779   0.113   5.685   1.271 -1.2340  0.2215 -0.4290
 5591TIP3    H216780   0.213   5.796   1.247  0.7632 -1.4096  0.0881
 5592TIP3   OH216781   6.121   1.577   1.292 -0.0994 -0.3656  0.0294
 5592TIP3    H116782   6.168   1.498   1.265  0.0541 -0.7714  1.4323
 5592TIP3    H216783   6.190   1.644   1.300  0.2818 -0.9588  2.0799
 5593TIP3   OH216784   2.543   3.674   2.185  0.8651 -0.4580  0.0304
 5593TIP3    H116785   2.583   3.587   2.176  0.0261 -0.7226 -1.2692
 5593TIP3    H216786   2.582   3.726   2.115 -0.1911 -0.3910 -0.5212
 5594TIP3   OH216787   1.478   1.127   3.558 -0.7316 -0.2416 -0.1448
 5594TIP3    H116788   1.414   1.194   3.536 -1.1489 -0.2354  0.9864
 5594TIP3    H216789   1.463   1.057   3.496 -1.5950 -0.0828 -0.1234
 5595TIP3   OH216790   1.697   1.757   1.754  0.1492 -0.0253 -0.2163
 5595TIP3    H116791   1.642   1.773   1.678  0.0866 -1.6569 -0.5664
 5595TIP3    H216792   1.641   1.778   1.829 -0.9156 -1.3812 -0.5776
 5596TIP3   OH216793   4.776   5.128   0.508 -0.5257 -0.0315 -0.1715
 5596TIP3    H116794   4.704   5.187   0.486  1.4199  2.3227 -0.5707
 5596TIP3    H216795   4.843   5.184   0.547  0.5047 -2.3851  1.6872
 5597TIP3   OH216796   1.361   5.115   4.932  0.1688  0.5091  0.0230
 5597TIP3    H116797   1.391   5.030   4.899  0.8123  0.8517 -0.2782
 5597TIP3    H216798   1.285   5.135   4.879 -1.8213 -1.2178  1.9707
 5598TIP3   OH216799   5.143   1.694   2.175 -0.3232 -0.4652  0.3806
 5598TIP3    H116800   5.071   1.755   2.194 -0.5935 -0.3041 -1.0821
 5598TIP3    H216801   5.220   1.738   2.211 -1.1522 -1.7606  4.3087
 5599TIP3   OH216802   3.195   5.577   2.972 -0.0975 -0.3562 -0.5115
 5599TIP3    H116803   3.103   5.558   2.952 -0.8369 -0.2717  2.4047
 5599TIP3    H216804   3.243   5.506   2.930 -1.6131 -1.2118 -0.8868
 5600TIP3   OH216805   0.854   2.227   1.670  0.3277 -0.0592  0.0877
 5600TIP3    H116806   0.823   2.185   1.589  0.0404  0.3614 -0.0290
 5600TIP3    H216807   0.920   2.167   1.705 -0.9210 -1.2064  0.5674
 5601TIP3   OH216808   2.403   2.285   2.851  0.0301  0.1403  0.3789
 5601TIP3    H116809   2.470   2.267   2.784 -0.8207 -1.3996 -0.1059
 5601TIP3    H216810   2.451   2.285   2.933  0.4395 -3.0211  0.2825
 5602TIP3   OH216811   2.898   0.841   3.356  0.5346 -0.1370  0.2500
 5602TIP3    H116812   2.960   0.877   3.419  0.3017  0.6285  0.0549
 5602TIP3    H216813   2.933   0.866   3.270 -0.3860  0.9196  0.1564
 5603TIP3   OH216814   0.385   3.649   1.680  0.7353  0.3255 -0.3249
 5603TIP3    H116815   0.326   3.684   1.613 -0.6584  0.6721  1.0211
 5603TIP3    H216816   0.470   3.646   1.637 -0.7077 -3.5068 -3.5743
 5604TIP3   OH216817   3.746   2.918   3.387  0.7716 -0.3397 -0.2257
 5604TIP3    H116818   3.793   2.957   3.460  0.9179 -2.2615  0.7719
 5604TIP3    H216819   3.793   2.837   3.368 -1.6617 -2.0070  0.3543
 5605TIP3   OH216820   0.236   4.485   1.936 -0.3609 -0.4121  0.4636
 5605TIP3    H116821   0.235   4.444   2.023 -1.5938 -0.3204  0.5088
 5605TIP3    H216822   0.206   4.575   1.952 -0.1358 -0.2560  0.0069
 5606TIP3   OH216823   5.908   1.889   1.312 -0.3514  0.6162 -0.0661
 5606TIP3    H116824   5.818   1.857   1.312  0.0521 -0.5664  0.3814
 5606TIP3    H216825   5.956   1.826   1.366  0.6217  1.5964  0.2477
 5607TIP3   OH216826   4.116   4.668   4.849 -0.0285  0.2754  0.6395
 5607TIP3    H116827   4.086   4.757   4.835 -1.1935 -0.4036 -1.8495
 5607TIP3    H216828   4.039   4.614   4.831  0.9186 -1.2743  1.0413
 5608TIP3   OH216829   3.208   3.044   2.651 -0.4779 -0.1663 -0.0244
 5608TIP3    H116830   3.140   3.010   2.709 -0.9612 -0.1460 -0.5599
 5608TIP3    H216831   3.160   3.096   2.586  0.0759  0.0486 -0.2705
 5609TIP3   OH216832   3.283   3.064   4.611  0.2284  0.0672 -0.9790
 5609TIP3    H116833   3.270   3.134   4.674  1.4006  0.8322 -1.5618
 5609TIP3    H216834   3.209   3.072   4.550  1.0595  1.6648 -1.8233
 5610TIP3   OH216835   1.855   3.050   5.047 -0.0966  0.2498 -0.1429
 5610TIP3    H116836   1.778   3.020   5.096  1.8589 -4.2749  0.6408
 5610TIP3    H216837   1.832   3.034   4.955 -0.9644  1.4436 -0.1592
 5611TIP3   OH216838   0.708   2.940   4.794  0.6475 -0.0281  0.0718
 5611TIP3    H116839   0.631   2.884   4.805 -0.0105  0.8144 -0.1678
 5611TIP3    H216840   0.755   2.903   4.719  1.1237 -1.2584  0.9533
 5612TIP3   OH216841   1.425   0.424   0.306  0.1377  0.1832 -0.1005
 5612TIP3    H116842   1.406   0.443   0.398 -0.0514 -0.0073 -0.0979
 5612TIP3    H216843   1.445   0.509   0.267 -2.1007  0.6277 -0.4314
 5613TIP3   OH216844   1.486   2.813   1.235 -0.1793  0.5334 -0.1196
 5613TIP3    H116845   1.436   2.865   1.299 -1.9582 -1.0863 -0.1112
 5613TIP3    H216846   1.441   2.828   1.152 -1.3749 -1.7170  0.0595
 5614TIP3   OH216847   4.295   0.162   0.806 -0.8664 -0.2089 -0.3610
 5614TIP3    H116848   4.238   0.215   0.863 -0.3689 -0.2978  0.2270
 5614TIP3    H216849   4.375   0.149   0.857 -0.6540 -0.8177 -0.8370
 5615TIP3   OH216850   4.185   3.896   0.632 -0.1829 -0.6417 -0.3143
 5615TIP3    H116851   4.186   3.833   0.704 -2.1949 -0.4398 -0.0421
 5615TIP3    H216852   4.106   3.874   0.582  0.3624  0.1796 -1.5859
 5616TIP3   OH216853   1.556   4.147   4.629 -0.3092 -0.0255  0.0496
 5616TIP3    H116854   1.474   4.101   4.646 -0.0152 -0.7856 -0.5769
 5616TIP3    H216855   1.533   4.240   4.636 -1.2701 -0.2288 -0.3430
 5617TIP3   OH216856   2.531   3.827   0.625 -0.2528 -0.4795  0.8086
 5617TIP3    H116857   2.472   3.899   0.604 -0.8867 -0.7039  1.7276
 5617TIP3    H216858   2.477   3.767   0.677  0.2645 -1.6059  0.0794
 5618TIP3   OH216859   3.466   3.595   2.871 -0.4339 -0.0033 -0.1688
 5618TIP3    H116860   3.466   3.522   2.933 -1.2509  0.2154  0.1013
 5618TIP3    H216861   3.374   3.617   2.860 -0.2850  0.1599 -1.2388
 5619TIP3   OH216862   5.386   3.494   3.524  0.0635  0.3657 -0.3662
 5619TIP3    H116863   5.459   3.505   3.463  0.8949 -3.4229 -0.2827
 5619TIP3    H216864   5.309   3.483   3.468  0.5540 -1.3826 -0.7554
 5620TIP3   OH216865   0.148   5.829   4.894 -0.2371  0.4784 -0.1072
 5620TIP3    H116866   0.223   5.803   4.841 -1.2847  0.2900 -1.5528
 5620TIP3    H216867   0.093   5.750   4.898  0.0808  0.2977  1.7902
 5621TIP3   OH216868   2.027   5.632   3.670 -0.0060 -0.2088 -0.0890
 5621TIP3    H116869   2.092   5.579   3.715  1.5045  0.9279 -0.8386
 5621TIP3    H216870   2.071   5.662   3.590 -1.6492  0.1441 -0.9111
 5622TIP3   OH216871   6.368   2.709   0.392 -0.1562  0.1527  1.1024
 5622TIP3    H116872   6.335   2.753   0.313 -1.3631 -1.1433  0.8494
 5622TIP3    H216873   6.304   2.730   0.460 -1.4340 -2.1134  0.6889
 5623TIP3   OH216874   5.813   2.945   3.307  0.1227  0.1029 -0.1939
 5623TIP3    H116875   5.783   2.944   3.216 -1.5161  0.5241  0.3061
 5623TIP3    H216876   5.763   2.875   3.350  0.2836  0.4346  0.5579
 5624TIP3   OH216877   0.923   4.663   4.143 -0.5022 -0.3296 -0.0889
 5624TIP3    H116878   0.965   4.747   4.162 -0.1719 -0.6399  0.5917
 5624TIP3    H216879   0.996   4.605   4.121 -0.4539 -1.0980  1.9288
 5625TIP3   OH216880   5.363   1.744   2.332  0.1074  0.2355  0.3752
 5625TIP3    H116881   5.431   1.796   2.375 -2.6355  1.9225  3.0925
 5625TIP3    H216882   5.349   1.669   2.390 -0.9831  0.4020  0.3416
 5626TIP3   OH216883   0.996   3.437   2.577  0.5876  0.1530  0.1135
 5626TIP3    H116884   0.946   3.509   2.537 -0.7352 -0.8752 -0.1845
 5626TIP3    H216885   0.946   3.415   2.656  0.7678 -0.6510  0.0125
 5627TIP3   OH216886   0.291   5.090   3.583  0.3254 -0.1922  0.2407
 5627TIP3    H116887   0.340   5.142   3.646 -1.7713  1.8628  0.2958
 5627TIP3    H216888   0.280   5.005   3.626 -0.2279  0.8537  2.2454
 5628TIP3   OH216889   4.984   5.833   0.024 -0.8665 -0.2386 -0.0678
 5628TIP3    H116890   5.072   5.866   0.041 -0.5205 -1.1973  0.0232
 5628TIP3    H216891   4.928   5.910   0.034 -0.0670  0.3422  0.0598
 5629TIP3   OH216892   5.749   3.868   3.018  0.1593  0.0842  0.1745
 5629TIP3    H116893   5.838   3.841   2.997  1.1411  2.9493  0.2491
 5629TIP3    H216894   5.748   3.876   3.113  0.1406  1.0079  0.1040
 5630TIP3   OH216895   3.525   3.551   0.129  0.3407  0.0005 -0.5253
 5630TIP3    H116896   3.515   3.460   0.100  2.1910 -0.4974  0.2482
 5630TIP3    H216897   3.533   3.544   0.224  0.5854  0.9658 -0.4703
 5631TIP3   OH216898   2.590   4.818   1.321  0.0490  0.0843  0.0005
 5631TIP3    H116899   2.637   4.770   1.388  0.8949  0.2793 -0.4415
 5631TIP3    H216900   2.521   4.865   1.368 -0.1258 -0.7132  0.5655
 5632TIP3   OH216901   1.616   3.184   2.415  0.2202  0.1370 -0.5718
 5632TIP3    H116902   1.612   3.129   2.493 -2.4549 -0.2917 -0.9290
 5632TIP3    H216903   1.663   3.263   2.444  2.2958 -1.3997  0.5005
 5633TIP3   OH216904   1.980   5.423   2.690 -0.3020 -0.5076 -0.1248
 5633TIP3    H116905   1.910   5.373   2.731  0.2886 -2.0064 -0.8573
 5633TIP3    H216906   1.953   5.434   2.599 -0.7132  1.1074  0.1616
 5634TIP3   OH216907   0.469   1.659   3.041 -0.2409 -0.8444  1.2008
 5634TIP3    H116908   0.425   1.626   2.962 -1.5892 -1.7333  2.2628
 5634TIP3    H216909   0.518   1.735   3.011 -0.9989 -0.9492 -0.4297
 5635TIP3   OH216910   1.254   4.883   0.678  0.2945 -0.1268 -0.0319
 5635TIP3    H116911   1.229   4.926   0.761  0.9446 -0.1383  0.1726
 5635TIP3    H216912   1.349   4.874   0.683  0.4528  0.6953 -1.1745
 5636TIP3   OH216913   1.652   0.431   3.271 -0.1730  0.4392 -0.3606
 5636TIP3    H116914   1.673   0.518   3.237  1.8065 -1.0257 -3.2513
 5636TIP3    H216915   1.654   0.442   3.366  0.6516  3.4042 -0.6137
 5637TIP3   OH216916   3.364   5.600   3.381  0.5257  0.5443  0.1990
 5637TIP3    H116917   3.319   5.548   3.447 -0.4449  0.3065 -0.6241
 5637TIP3    H216918   3.299   5.665   3.353  0.2774 -0.4824 -1.7851
 5638TIP3   OH216919   1.395   4.439   2.089  0.0684  0.1761 -0.9796
 5638TIP3    H116920   1.312   4.437   2.042  0.3391 -1.3238 -1.4393
 5638TIP3    H216921   1.386   4.512   2.150 -1.8919 -0.4741 -0.4267
 5639TIP3   OH216922   5.868   2.151   1.345 -0.1262 -0.0022  0.1057
 5639TIP3    H116923   5.774   2.156   1.360  0.2903 -0.7780  3.8643
 5639TIP3    H216924   5.887   2.057   1.342  0.7885  0.0651  2.1807
 5640TIP3   OH216925   2.917   5.709   1.883 -0.3017  0.6649  0.5999
 5640TIP3    H116926   2.908   5.803   1.903 -0.7487  0.3942  1.7617
 5640TIP3    H216927   2.831   5.672   1.903  0.0276 -0.0811  0.6803
 5641TIP3   OH216928   1.416   5.192   3.846  0.4912 -0.6443 -0.1829
 5641TIP3    H116929   1.390   5.148   3.927 -0.8069 -0.2641 -0.3714
 5641TIP3    H216930   1.338   5.187   3.790 -0.0396  2.5544  0.0683
 5642TIP3   OH216931   4.199   2.474   2.704 -0.1363  0.4214 -0.3493
 5642TIP3    H116932   4.272   2.432   2.658  0.6955  0.3179  1.0138
 5642TIP3    H216933   4.125   2.415   2.690  0.7643 -1.0319  0.6978
 5643TIP3   OH216934   2.860   3.981   2.104 -0.1055 -0.1386 -0.0789
 5643TIP3    H116935   2.796   3.995   2.035 -1.6628 -0.5197  1.2375
 5643TIP3    H216936   2.839   4.047   2.170  0.7614 -0.3645  0.4458
 5644TIP3   OH216937   2.951   4.616   0.666  0.2560  0.3512 -0.0782
 5644TIP3    H116938   2.909   4.619   0.581 -3.1552  0.9251  1.4657
 5644TIP3    H216939   2.900   4.552   0.716  0.9692  1.3457  2.0620
 5645TIP3   OH216940   6.031   5.842   0.052 -0.5827  0.1922 -0.1498
 5645TIP3    H116941   6.041   5.819   0.145 -1.0138 -2.0391 -0.5870
 5645TIP3    H216942   5.958   5.903   0.050 -0.2013  0.7263  1.0251
 5646TIP3   OH216943   3.049   5.822   4.747  0.0342  0.6731  0.0571
 5646TIP3    H116944   3.131   5.824   4.697  0.1551  1.5579  0.2669
 5646TIP3    H216945   3.047   5.734   4.785  0.9988  0.7006  0.2172
 5647TIP3   OH216946   0.515   5.141   3.754 -1.2601 -0.8342  0.0355
 5647TIP3    H116947   0.603   5.177   3.767 -0.8955 -0.8179 -2.1246
 5647TIP3    H216948   0.529   5.047   3.743 -1.5907 -0.9038  0.2011
 5648TIP3   OH216949   0.237   0.854   3.317 -0.2495 -0.1159 -0.1132
 5648TIP3    H116950   0.185   0.904   3.379  1.3285 -0.4585  1.5522
 5648TIP3    H216951   0.174   0.797   3.273 -1.4692  0.4728  0.8208
 5649TIP3   OH216952   0.241   0.179   2.250  0.3078  0.1259  0.6420
 5649TIP3    H116953   0.278   0.245   2.191  0.3451 -0.9001 -0.5196
 5649TIP3    H216954   0.173   0.226   2.299 -0.4282  0.7797 -0.9445
 5650TIP3   OH216955   1.732   4.546   4.175 -0.2021  0.0143 -0.0341
 5650TIP3    H116956   1.798   4.486   4.139  1.0070  0.9526  0.5323
 5650TIP3    H216957   1.667   4.488   4.216  0.1567 -0.9413 -0.7761
 5651TIP3   OH216958   2.412   1.785   1.576  0.4728 -0.5131 -0.1347
 5651TIP3    H116959   2.376   1.825   1.655  1.0529 -0.5156  0.1363
 5651TIP3    H216960   2.506   1.801   1.582  0.4167  0.4351 -1.3555
 5652TIP3   OH216961   2.736   1.201   0.351 -0.2774 -0.3193 -0.5944
 5652TIP3    H116962   2.787   1.207   0.270  0.7970 -1.0082  0.0135
 5652TIP3    H216963   2.717   1.292   0.374  0.5541 -0.0563 -0.9098
 5653TIP3   OH216964   2.461   5.817   0.510 -0.1343  0.7462 -0.6131
 5653TIP3    H116965   2.485   5.726   0.493 -2.7450 -0.0761 -0.3310
 5653TIP3    H216966   2.401   5.840   0.439 -0.9109  1.6403  0.3045
 5654TIP3   OH216967   3.137   3.198   3.902 -0.1840 -0.2108 -0.2434
 5654TIP3    H116968   3.142   3.194   3.997  0.2787  1.7820 -0.1289
 5654TIP3    H216969   3.156   3.109   3.872 -2.8794 -1.5009  1.5578
 5655TIP3   OH216970   5.433   2.031   3.935  0.8932  0.2603  0.1176
 5655TIP3    H116971   5.339   2.040   3.924  1.1728  1.4097 -1.6620
 5655TIP3    H216972   5.452   2.076   4.018 -0.0973  0.1235  0.4244
 5656TIP3   OH216973   2.754   4.404   4.239 -0.1160  0.1965 -0.1102
 5656TIP3    H116974   2.662   4.377   4.238 -0.3701  1.0208  0.1953
 5656TIP3    H216975   2.751   4.499   4.247  0.7626  0.3809 -1.7200
 5657TIP3   OH216976   3.792   1.331   2.960 -0.5758  0.0069  0.2620
 5657TIP3    H116977   3.758   1.372   3.039 -0.6043  0.2781  0.1084
 5657TIP3    H216978   3.714   1.304   2.911 -0.5991  1.4005 -0.5016
 5658TIP3   OH216979   4.308   2.194   2.224  0.0224 -0.7772  0.3273
 5658TIP3    H116980   4.376   2.195   2.156  1.9596  0.4144  2.1387
 5658TIP3    H216981   4.286   2.102   2.235  0.1618 -1.0559 -1.3834
 5659TIP3   OH216982   5.620   4.940   1.888 -0.2467  0.4261 -0.6990
 5659TIP3    H116983   5.610   4.849   1.917  0.2774 -0.0118 -1.8278
 5659TIP3    H216984   5.699   4.939   1.833  1.4846  2.1278  1.5273
 5660TIP3   OH216985   1.449   3.799   3.736 -0.4934 -0.3688  0.1966
 5660TIP3    H116986   1.486   3.714   3.757 -1.9932 -1.2264 -0.5006
 5660TIP3    H216987   1.400   3.825   3.814 -0.8047 -0.5905  0.0774
 5661TIP3   OH216988   5.535   3.105   2.658  0.3161 -0.3717 -0.0401
 5661TIP3    H116989   5.611   3.136   2.706  0.0225 -1.8292  1.4499
 5661TIP3    H216990   5.478   3.181   2.650 -0.1255 -0.3002  2.9603
 5662TIP3   OH216991   3.674   3.347   0.869  0.4680 -0.2577  0.3984
 5662TIP3    H116992   3.642   3.426   0.825  0.7384 -0.4451 -0.1423
 5662TIP3    H216993   3.595   3.298   0.891  0.3648 -0.8876 -1.2407
 5663TIP3   OH216994   1.781   0.769   2.904 -0.1861  0.0227 -0.1183
 5663TIP3    H116995   1.691   0.801   2.899 -0.3113  0.0710  1.6656
 5663TIP3    H216996   1.835   0.842   2.873 -0.6628  0.7985  0.8244
 5664TIP3   OH216997   3.212   2.247   0.558  0.2697 -0.0686 -0.7648
 5664TIP3    H116998   3.198   2.305   0.483 -2.0877 -0.4493 -0.7176
 5664TIP3    H216999   3.194   2.302   0.634 -1.9509 -0.7502 -0.7196
 5665TIP3   OH217000   5.647   3.567   1.087  0.0860 -0.2310  0.0963
 5665TIP3    H117001   5.661   3.586   0.994 -1.3123 -0.7990 -0.2521
 5665TIP3    H217002   5.664   3.473   1.095 -2.1882 -0.7161 -0.1210
 5666TIP3   OH217003   5.508   3.070   1.606 -0.1953  0.2290 -0.0213
 5666TIP3    H117004   5.468   3.139   1.554 -2.6847 -1.0826 -0.0320
 5666TIP3    H217005   5.482   2.989   1.561  0.1471 -0.8058  1.5797
 5667TIP3   OH217006   2.233   5.837   0.360 -0.6918 -0.1126  0.0563
 5667TIP3    H117007   2.227   5.759   0.304 -0.8448  0.5209 -0.8372
 5667TIP3    H217008   2.193   5.906   0.307 -1.0386  0.4602  1.0524
 5668TIP3   OH217009   6.172   0.277   1.555 -0.4209  0.0769  0.2671
 5668TIP3    H117010   6.207   0.330   1.484  0.2218  0.2820  0.7310
 5668TIP3    H217011   6.114   0.214   1.512 -1.2884  1.2264 -0.2718
 5669TIP3   OH217012   4.902   3.100   3.694 -0.4549 -0.2756  0.4187
 5669TIP3    H117013   4.904   3.070   3.603 -0.2743  1.5421 -0.2072
 5669TIP3    H217014   4.993   3.125   3.713 -1.0365  2.4334 -0.0229
 5670TIP3   OH217015   0.909   3.540   4.322 -0.0961 -0.3047  0.5009
 5670TIP3    H117016   0.873   3.613   4.272  0.9315  0.0733  0.2863
 5670TIP3    H217017   0.948   3.580   4.399 -0.1369 -0.7070  0.7334
 5671TIP3   OH217018   5.694   3.012   4.110  0.4495 -0.1366 -0.1163
 5671TIP3    H117019   5.637   3.070   4.161 -0.4532 -1.1125  0.0227
 5671TIP3    H217020   5.783   3.037   4.136  0.0415  0.2941  0.9278
 5672TIP3   OH217021   5.136   1.247   2.681  0.3932 -0.2769 -0.2041
 5672TIP3    H117022   5.186   1.318   2.640 -0.0906  0.6918  0.8166
 5672TIP3    H217023   5.092   1.203   2.608 -1.6498  2.3004 -0.7147
 5673TIP3   OH217024   5.087   1.295   5.011 -0.4310 -0.3311  0.4414
 5673TIP3    H117025   5.087   1.280   5.106 -0.3136 -1.4188  0.2786
 5673TIP3    H217026   5.040   1.221   4.975 -1.9535  0.9212 -0.2517
 5674TIP3   OH217027   3.030   1.982   1.084 -0.5118 -0.4009  0.2764
 5674TIP3    H117028   3.088   2.018   1.017  0.3218  0.8591  1.6154
 5674TIP3    H217029   3.070   1.899   1.108  1.0704  0.6458  1.4926
 5675TIP3   OH217030   3.643   2.243   3.095 -0.1599  0.4152 -0.3848
 5675TIP3    H117031   3.723   2.280   3.133 -0.0236 -0.8036  0.5782
 5675TIP3    H217032   3.580   2.315   3.098  0.1086  0.6377  1.3958
 5676TIP3   OH217033   1.657   4.420   2.150 -0.4821  0.0577  0.4298
 5676TIP3    H117034   1.567   4.413   2.118 -0.5775  2.1997  0.0694
 5676TIP3    H217035   1.649   4.453   2.239 -0.0687 -0.7435  0.7721
 5677TIP3   OH217036   5.282   3.013   0.386  0.1263 -0.5396  0.4149
 5677TIP3    H117037   5.305   3.103   0.410 -1.5527  0.2305 -0.7036
 5677TIP3    H217038   5.321   3.001   0.299 -1.7595  0.0431 -0.5622
 5678TIP3   OH217039   0.320   3.357   1.721 -0.3129 -0.2394 -0.3796
 5678TIP3    H117040   0.330   3.450   1.701  0.5020 -0.0408  0.8521
 5678TIP3    H217041   0.366   3.312   1.651 -0.3682  0.2927 -0.7650
 5679TIP3   OH217042   0.017   3.534   1.873  0.0106  0.0866 -0.4286
 5679TIP3    H117043  -0.002   3.456   1.925  1.8565  0.0637  0.2707
 5679TIP3    H217044   0.014   3.503   1.782  1.0597 -0.8821 -0.1432
 5680TIP3   OH217045   4.742   4.025   1.268 -0.2640 -0.3757 -0.4078
 5680TIP3    H117046   4.786   4.107   1.291  0.3249 -0.6064 -0.7022
 5680TIP3    H217047   4.663   4.052   1.221  0.7208 -0.0115 -1.8953
 5681TIP3   OH217048   4.875   1.785   4.804  0.3769  0.3589  0.0032
 5681TIP3    H117049   4.842   1.695   4.799 -2.3434  1.3108 -1.4859
 5681TIP3    H217050   4.899   1.797   4.895 -1.4571 -1.1779  0.7648
 5682TIP3   OH217051   5.928   2.690   1.833  0.4054 -0.8918 -0.8123
 5682TIP3    H117052   5.983   2.709   1.910  1.3581 -0.4040 -1.5950
 5682TIP3    H217053   5.874   2.616   1.861 -0.3463  0.2081  0.8421
 5683TIP3   OH217054   1.960   3.565   1.754 -0.1302  0.0581 -0.4478
 5683TIP3    H117055   1.994   3.597   1.837  0.9079 -0.0358 -0.8202
 5683TIP3    H217056   1.875   3.527   1.775  0.0187  0.2547  0.5271
 5684TIP3   OH217057   5.844   0.853   4.356 -0.4005 -0.0160  0.4576
 5684TIP3    H117058   5.896   0.839   4.435  0.3619  0.6911  0.0951
 5684TIP3    H217059   5.866   0.941   4.327 -0.9852 -0.1070 -0.3189
 5685TIP3   OH217060   1.954   0.502   4.371  0.2034  0.3908 -0.1536
 5685TIP3    H117061   1.940   0.487   4.465 -0.4611 -1.0274 -0.4508
 5685TIP3    H217062   1.940   0.596   4.359 -2.2474  0.2110  0.7567
 5686TIP3   OH217063   5.410   1.381   1.746  0.3139 -0.5458 -0.1757
 5686TIP3    H117064   5.336   1.324   1.723  0.3269 -0.6219 -0.0350
 5686TIP3    H217065   5.436   1.351   1.833  0.6597 -0.6713 -0.3193
 5687TIP3   OH217066   4.286   5.086   1.378 -0.2879 -0.2877 -0.0496
 5687TIP3    H117067   4.322   5.168   1.343  0.8119 -0.9484 -0.5164
 5687TIP3    H217068   4.333   5.072   1.460 -1.0947 -0.0290  0.4771
 5688TIP3   OH217069   5.945   0.301   1.240 -0.1963 -0.1925 -0.1066
 5688TIP3    H117070   5.987   0.359   1.304 -0.8617 -0.3089  0.4417
 5688TIP3    H217071   5.909   0.230   1.292 -1.2304 -0.0073 -0.5440
 5689TIP3   OH217072   1.496   0.343   2.363  0.3392  0.6249  0.4312
 5689TIP3    H117073   1.484   0.276   2.431  0.1168 -1.4371 -1.5272
 5689TIP3    H217074   1.415   0.338   2.311  1.8915 -0.3819 -2.0392
 5690TIP3   OH217075   5.695   2.252   0.763 -0.2461 -0.0380  0.2051
 5690TIP3    H117076   5.626   2.301   0.716 -0.1852 -0.0781  0.0720
 5690TIP3    H217077   5.684   2.162   0.733  0.7560  0.1811 -0.9104
 5691TIP3   OH217078   0.140   0.074   0.201 -0.2563  0.0495  0.2745
 5691TIP3    H117079   0.080   0.040   0.134 -0.6164  1.6972 -0.2860
 5691TIP3    H217080   0.225   0.077   0.158 -0.1292 -0.5571  0.4757
 5692TIP3   OH217081   6.221   1.425   2.214 -0.0592 -0.3476  0.5521
 5692TIP3    H117082   6.275   1.455   2.287  0.2222 -1.9373  1.0488
 5692TIP3    H217083   6.227   1.329   2.218  0.7940 -0.4985 -2.1664
 5693TIP3   OH217084   2.349   0.330   4.817 -0.0919  0.2357 -0.2266
 5693TIP3    H117085   2.350   0.422   4.845  0.0791  0.2466 -0.2680
 5693TIP3    H217086   2.302   0.332   4.733  1.1081  0.4879 -0.9133
 5694TIP3   OH217087   4.125   3.038   3.791 -0.4199  0.2813  0.2091
 5694TIP3    H117088   4.116   2.953   3.749 -2.7396  0.3296  0.4672
 5694TIP3    H217089   4.145   3.018   3.883 -1.2649 -0.0120  0.3361
 5695TIP3   OH217090   2.511   4.285   0.739 -0.3385  0.2828  0.3503
 5695TIP3    H117091   2.505   4.190   0.733 -0.7228  0.1776  1.9807
 5695TIP3    H217092   2.433   4.311   0.787 -0.2011  1.4219 -0.0194
 5696TIP3   OH217093   3.028   5.204   3.603 -0.0762 -0.2984 -0.1799
 5696TIP3    H117094   2.977   5.257   3.542 -0.3799 -0.9713 -0.5209
 5696TIP3    H217095   2.970   5.192   3.678 -0.0761 -0.2990 -0.1797
 5697TIP3   OH217096   4.009   0.161   4.973 -0.2652 -0.6106  0.3344
 5697TIP3    H117097   3.979   0.231   4.916  0.1024 -1.1684 -0.5761
 5697TIP3    H217098   3.953   0.087   4.952  1.9472 -1.8366 -1.8012
 5698TIP3   OH217099   6.081   0.481   1.726  0.0938  0.0429 -0.3243
 5698TIP3    H117100   6.076   0.459   1.820  2.9494  1.7930  0.3516
 5698TIP3    H217101   6.108   0.399   1.685  3.4425  0.2078  1.1543
 5699TIP3   OH217102   3.565   5.444   3.249 -0.2640  0.0808  0.1821
 5699TIP3    H117103   3.536   5.361   3.288 -2.9385  0.6956 -0.3690
 5699TIP3    H217104   3.486   5.495   3.238  0.7876  1.2926 -2.9248
 5700TIP3   OH217105   1.644   4.410   4.475  0.2172 -0.0510 -0.0419
 5700TIP3    H117106   1.587   4.333   4.483 -1.5512  1.3106  1.4340
 5700TIP3    H217107   1.732   4.374   4.478 -0.5453 -2.0520  0.4466
 5701TIP3   OH217108   3.733   1.030   0.566  0.0157  0.7820  0.2083
 5701TIP3    H117109   3.678   1.092   0.614 -2.4936  1.5399 -3.2380
 5701TIP3    H217110   3.684   0.948   0.568 -0.7309  1.1081 -1.7465
 5702TIP3   OH217111   3.217   1.777   0.320  0.1401 -0.1998  0.7931
 5702TIP3    H117112   3.273   1.710   0.358  1.4916  0.2242 -0.3753
 5702TIP3    H217113   3.224   1.851   0.379  1.0178 -0.0673  0.5285
 5703TIP3   OH217114   4.734   4.501   1.998 -0.0018  0.0007 -0.1112
 5703TIP3    H117115   4.672   4.437   2.035  1.6386 -3.4744 -2.7974
 5703TIP3    H217116   4.695   4.526   1.915  0.9587 -0.2177 -0.6400
 5704TIP3   OH217117   1.731   4.584   1.298  0.2380  0.3998 -0.0683
 5704TIP3    H117118   1.654   4.543   1.338  1.0302 -1.0850 -0.0069
 5704TIP3    H217119   1.796   4.515   1.295  0.9119  1.0526 -2.0416
 5705TIP3   OH217120   1.311   2.940   1.396  0.1249 -0.1501 -0.0727
 5705TIP3    H117121   1.350   2.907   1.477  0.1904 -0.6050 -0.2843
 5705TIP3    H217122   1.242   3.000   1.424  0.2927 -0.1403  0.3146
 5706TIP3   OH217123   1.737   4.090   4.248  0.2896 -0.2917 -0.4189
 5706TIP3    H117124   1.788   4.147   4.307  0.3210 -1.2134  0.4787
 5706TIP3    H217125   1.761   4.001   4.275 -1.2991 -0.7497 -0.4141
 5707TIP3   OH217126   0.217   5.510   4.438  0.1876  0.0584 -0.4182
 5707TIP3    H117127   0.184   5.587   4.392 -0.8732 -0.5915 -0.7767
 5707TIP3    H217128   0.176   5.515   4.525  1.2371  0.6363  0.0676
 5708TIP3   OH217129   0.623   5.645   3.984 -0.3574 -0.7390  0.0811
 5708TIP3    H117130   0.580   5.596   3.914 -0.4325  0.7120 -0.9324
 5708TIP3    H217131   0.589   5.734   3.975 -0.0832 -0.4404  1.7534
 5709TIP3   OH217132   1.164   0.456   4.449  0.3651 -0.3010  0.3289
 5709TIP3    H117133   1.111   0.501   4.384 -2.7148 -1.6591  1.6963
 5709TIP3    H217134   1.209   0.387   4.400  0.2203  0.3749 -0.7738
 5710TIP3   OH217135   3.241   3.646   2.070  0.0249  0.0952 -0.0903
 5710TIP3    H117136   3.315   3.676   2.122 -0.1761 -0.5414  0.5793
 5710TIP3    H217137   3.200   3.727   2.038 -0.5249  0.5573  1.6836
 5711TIP3   OH217138   3.072   5.545   3.252  0.0800  0.3084  0.2610
 5711TIP3    H117139   3.131   5.549   3.176  1.5110 -0.2146  1.3113
 5711TIP3    H217140   3.078   5.631   3.292  0.4063  0.1452  0.5660
 5712TIP3   OH217141   2.935   0.788   5.167 -0.0977 -0.3627  0.1945
 5712TIP3    H117142   2.952   0.701   5.202 -0.2857 -0.2610  0.5430
 5712TIP3    H217143   3.019   0.834   5.171 -0.5420  0.3819  2.5725
 5713TIP3   OH217144   0.739   0.754   0.683 -0.4723 -0.4235  0.0464
 5713TIP3    H117145   0.687   0.833   0.667 -0.5811 -0.7768 -1.5024
 5713TIP3    H217146   0.674   0.684   0.690 -0.2970 -0.6612 -0.5885
 5714TIP3   OH217147   2.158   4.518   4.360  0.4876  0.2822  0.5791
 5714TIP3    H117148   2.253   4.522   4.352  0.4482  1.8767  0.5780
 5714TIP3    H217149   2.142   4.509   4.454  0.6370 -1.1419  0.4894
 5715TIP3   OH217150   5.964   0.133   2.514  0.6635 -0.4611  0.0229
 5715TIP3    H117151   6.001   0.186   2.585 -0.9574 -1.6657  1.8908
 5715TIP3    H217152   5.995   0.044   2.532  1.3170 -0.5841 -1.5955
 5716TIP3   OH217153   0.927   1.879   1.331  0.1366  0.0297  0.0172
 5716TIP3    H117154   0.918   1.954   1.272 -0.7632  0.2995  0.4854
 5716TIP3    H217155   0.993   1.823   1.289  1.4854  1.4880  0.0847
 5717TIP3   OH217156   0.332   2.999   1.134  0.1644  0.0287  0.1444
 5717TIP3    H117157   0.293   2.917   1.164  0.7377 -0.6499 -0.8861
 5717TIP3    H217158   0.366   3.041   1.213 -0.7736 -0.3718  0.7760
 5718TIP3   OH217159   5.941   1.141   0.212  0.4512 -0.1974  0.9116
 5718TIP3    H117160   5.926   1.155   0.118 -0.1733 -2.5055  0.6086
 5718TIP3    H217161   6.014   1.200   0.233  0.3567  0.6545 -0.9115
 5719TIP3   OH217162   0.398   3.136   2.111 -0.3159 -0.0604  0.1845
 5719TIP3    H117163   0.347   3.091   2.178  1.5016 -0.8476  1.1415
 5719TIP3    H217164   0.351   3.217   2.094 -2.0195 -0.8911  0.7518
 5720TIP3   OH217165   5.063   1.475   2.316  0.0650 -0.0156 -0.2974
 5720TIP3    H117166   5.093   1.554   2.272 -1.9574  0.9228 -0.1049
 5720TIP3    H217167   5.135   1.450   2.373  1.0817  1.1661 -1.0145
 5721TIP3   OH217168   4.109   1.708   3.291 -0.7043  0.3129 -0.6288
 5721TIP3    H117169   4.147   1.782   3.243 -0.7152 -0.0772 -1.2562
 5721TIP3    H217170   4.101   1.739   3.381 -0.4793  0.9894 -0.8349
 5722TIP3   OH217171   3.959   0.403   4.174  0.4397  0.5180  0.0768
 5722TIP3    H117172   3.994   0.368   4.092 -0.9484 -2.8724  0.7280
 5722TIP3    H217173   4.028   0.387   4.238 -0.1463 -1.1843  0.3499
 5723TIP3   OH217174   2.012   2.515   0.388  0.1525  0.2926  0.0304
 5723TIP3    H117175   1.952   2.470   0.327 -0.3625  2.1132 -0.8808
 5723TIP3    H217176   2.022   2.454   0.461 -1.1488 -0.9507 -0.7737
 5724TIP3   OH217177   4.498   5.092   0.723 -0.4131 -0.0624  0.4993
 5724TIP3    H117178   4.551   5.097   0.644 -2.2377  0.9573 -0.7277
 5724TIP3    H217179   4.524   5.169   0.774 -1.8265  1.4064 -0.8858
 5725TIP3   OH217180   3.848   2.687   3.048 -0.2527 -0.3110 -0.0999
 5725TIP3    H117181   3.925   2.700   2.994 -0.2290  0.8208  0.1955
 5725TIP3    H217182   3.779   2.662   2.986  0.1998 -0.7495 -0.4307
 5726TIP3   OH217183   2.711   0.141   0.800 -0.1927 -0.0927  0.5630
 5726TIP3    H117184   2.649   0.187   0.744  0.6096  1.0088  0.5379
 5726TIP3    H217185   2.790   0.195   0.798  0.6480 -1.2599  0.8939
 5727TIP3   OH217186   3.825   0.253   3.328  0.4139 -0.2954 -0.9458
 5727TIP3    H117187   3.795   0.259   3.418 -0.7898  1.5625 -1.4143
 5727TIP3    H217188   3.915   0.220   3.334 -0.0837 -1.4554  0.8094
 5728TIP3   OH217189   2.397   2.564   1.295 -0.2040  0.5019 -0.2892
 5728TIP3    H117190   2.461   2.493   1.285  1.4368  1.5699  1.7828
 5728TIP3    H217191   2.333   2.530   1.358 -0.5927  0.1159 -0.8928
 5729TIP3   OH217192   5.426   2.354   1.586 -0.1315 -0.4812  0.2144
 5729TIP3    H117193   5.340   2.356   1.545  0.0271 -0.1871 -0.1191
 5729TIP3    H217194   5.410   2.337   1.678 -0.5063 -1.0434  0.0484
 5730TIP3   OH217195   3.649   5.286   2.413 -0.4430 -0.5672  0.4539
 5730TIP3    H117196   3.698   5.221   2.361  0.6899 -1.0642  2.0589
 5730TIP3    H217197   3.715   5.325   2.471 -1.8735 -1.1022  2.5660
 5731TIP3   OH217198   3.507   2.469   0.472  0.4329 -0.2784 -0.1384
 5731TIP3    H117199   3.555   2.548   0.448 -0.2113 -0.1847 -1.1940
 5731TIP3    H217200   3.421   2.479   0.430  0.5163 -1.7583 -0.7417
 5732TIP3   OH217201   0.368   0.227   3.274 -0.2865 -0.1706 -0.6107
 5732TIP3    H117202   0.440   0.163   3.282 -1.5930 -1.6112  0.2412
 5732TIP3    H217203   0.291   0.173   3.258 -1.3107  1.2878 -0.6880
 5733TIP3   OH217204   2.175   1.103   1.908 -0.1973 -0.0311 -0.1129
 5733TIP3    H117205   2.092   1.125   1.866 -0.8404 -0.6694  0.7829
 5733TIP3    H217206   2.185   1.169   1.976  0.2930  0.3494 -0.5485
 5734TIP3   OH217207   2.277   0.073   3.666 -0.0238  0.0315 -0.1945
 5734TIP3    H117208   2.332   0.097   3.592  0.0886  0.8909  0.1595
 5734TIP3    H217209   2.339   0.056   3.738 -0.0645 -1.7765 -0.5353
 5735TIP3   OH217210   2.174   4.390   2.007  0.1101 -0.6501 -0.2683
 5735TIP3    H117211   2.084   4.359   1.998 -0.1812  0.0430  0.1734
 5735TIP3    H217212   2.227   4.321   1.969 -0.5705 -1.3613  0.0444
 5736TIP3   OH217213   4.938   1.979   0.666  0.0681 -0.7006  0.0367
 5736TIP3    H117214   4.882   1.929   0.607  0.1280  0.5923 -1.1671
 5736TIP3    H217215   5.025   1.973   0.628 -0.0003  0.6457 -0.3938
 5737TIP3   OH217216   5.691   4.687   1.448  0.3295 -0.0115 -0.4373
 5737TIP3    H117217   5.640   4.766   1.469  0.9038  0.1864  0.2800
 5737TIP3    H217218   5.626   4.617   1.442 -0.1059  0.3754 -0.3158
 5738TIP3   OH217219   5.952   2.727   5.089  0.0825  0.4382 -0.0271
 5738TIP3    H117220   5.912   2.750   5.173  0.6379 -0.8484  0.6034
 5738TIP3    H217221   5.886   2.675   5.044  0.2401  0.1082  0.1217
 5739TIP3   OH217222   5.761   0.426   1.779  0.6215  0.5254  0.0116
 5739TIP3    H117223   5.692   0.361   1.770  0.5272  0.0578  3.1499
 5739TIP3    H217224   5.810   0.420   1.697 -0.1961 -2.5337 -0.3636
 5740TIP3   OH217225   1.098   1.583   1.536 -0.6606 -0.0919  0.1719
 5740TIP3    H117226   1.024   1.624   1.581  0.1108  0.1411  1.2576
 5740TIP3    H217227   1.108   1.498   1.579 -0.2384 -0.0888  0.0836
 5741TIP3   OH217228   4.191   1.089   3.781 -0.5918  0.4574  0.1634
 5741TIP3    H117229   4.263   1.132   3.827 -1.1769  1.6945 -0.0643
 5741TIP3    H217230   4.235   1.028   3.721  0.5159  3.7184 -2.6082
 5742TIP3   OH217231   5.286   4.377   2.509  0.3032 -0.3053  0.1973
 5742TIP3    H117232   5.309   4.339   2.594  1.6746  0.8149  0.3716
 5742TIP3    H217233   5.371   4.390   2.466 -0.0961  2.1516  0.0130
 5743TIP3   OH217234   3.076   1.457   2.546  0.3936 -0.0264  0.2695
 5743TIP3    H117235   3.012   1.495   2.606  1.3825 -0.7274  1.8374
 5743TIP3    H217236   3.097   1.527   2.484 -2.5155 -0.0236 -0.8977
 5744TIP3   OH217237   1.933   5.111   5.109 -0.4309 -0.2944  0.6766
 5744TIP3    H117238   1.875   5.041   5.139 -0.4980 -0.2241  0.7140
 5744TIP3    H217239   1.971   5.146   5.190 -0.6338 -0.0848  0.6823
 5745TIP3   OH217240   5.583   5.918   4.405  0.2616  0.2272 -0.4223
 5745TIP3    H117241   5.499   5.903   4.363 -0.4840  1.3595  0.6015
 5745TIP3    H217242   5.573   5.879   4.492  0.2571  1.6589  0.2348
 5746TIP3   OH217243   2.080   2.847   1.573  0.0108  0.1605  0.5465
 5746TIP3    H117244   2.109   2.814   1.658  0.5843 -1.5163 -0.2519
 5746TIP3    H217245   2.034   2.773   1.534  1.5420  0.1933 -1.4442
 5747TIP3   OH217246   0.302   2.609   2.971 -0.2679  0.3346 -0.3399
 5747TIP3    H117247   0.359   2.549   3.019 -0.4277  0.4440 -0.0115
 5747TIP3    H217248   0.304   2.577   2.881 -1.8901 -1.3532  0.1742
 5748TIP3   OH217249   0.260   4.722   3.393 -0.2352 -0.1307  0.4614
 5748TIP3    H117250   0.181   4.775   3.394  0.6863  1.3005  0.5645
 5748TIP3    H217251   0.245   4.654   3.459 -1.0945  0.5457  0.9735
 5749TIP3   OH217252   6.294   0.453   5.148  0.2046  0.3301  1.0608
 5749TIP3    H117253   6.294   0.357   5.145 -1.4936  0.3371 -0.5556
 5749TIP3    H217254   6.220   0.475   5.204 -1.1546  0.6616 -0.7769
 5750TIP3   OH217255   1.837   0.125   1.773 -0.2070 -0.0000 -0.0578
 5750TIP3    H117256   1.893   0.085   1.840  0.3530 -0.4283 -0.7764
 5750TIP3    H217257   1.875   0.211   1.757 -0.1212 -0.0450 -0.0959
 5751TIP3   OH217258   5.115   5.135   4.926 -0.0611 -0.3972  0.2704
 5751TIP3    H117259   5.087   5.045   4.941  0.9242 -1.2365 -2.3428
 5751TIP3    H217260   5.209   5.134   4.942  0.0299  0.0636 -0.2041
 5752TIP3   OH217261   4.578   4.118   3.312  0.1315 -0.0988  0.4804
 5752TIP3    H117262   4.540   4.046   3.362 -0.1416 -0.7784 -0.6788
 5752TIP3    H217263   4.634   4.075   3.247  0.2028  0.7521 -0.0282
 5753TIP3   OH217264   4.799   0.160   4.680 -0.2419  0.7628  0.4115
 5753TIP3    H117265   4.859   0.122   4.744  1.2983 -2.0271 -2.4177
 5753TIP3    H217266   4.711   0.139   4.713  0.5201 -1.6132  1.0879
 5754TIP3   OH217267   0.467   1.845   0.842  0.1570 -0.3528 -0.1010
 5754TIP3    H117268   0.444   1.885   0.926 -0.9478  0.2525 -0.6716
 5754TIP3    H217269   0.511   1.915   0.793  0.1537 -0.4893 -0.3004
 5755TIP3   OH217270   2.123   1.194   0.937  0.0007 -0.3382  0.1249
 5755TIP3    H117271   2.046   1.198   0.994 -0.5862  0.9679 -0.6964
 5755TIP3    H217272   2.159   1.283   0.940  0.1916 -0.3561 -1.2136
 5756TIP3   OH217273   1.763   4.048   1.641 -0.1170  0.3491 -0.0415
 5756TIP3    H117274   1.782   3.962   1.602  0.4064  1.0864 -1.5139
 5756TIP3    H217275   1.760   4.032   1.735  1.2172 -1.0661 -0.2021
 5757TIP3   OH217276   0.189   3.945   1.056  0.1744 -0.4094 -0.4919
 5757TIP3    H117277   0.170   4.025   1.105  1.5028  0.0730 -0.7172
 5757TIP3    H217278   0.191   3.974   0.965 -0.0405 -0.8506 -0.6370
 5758TIP3   OH217279   2.226   4.437   0.043  1.0497  0.2932 -0.2566
 5758TIP3    H117280   2.261   4.434   0.132 -1.9940 -0.1229  1.0713
 5758TIP3    H217281   2.237   4.348   0.010 -1.0913 -0.6169  1.2253
 5759TIP3   OH217282   4.558   5.524   2.708  0.1888 -0.2727  0.2432
 5759TIP3    H117283   4.464   5.509   2.697  0.2329 -0.9060  0.6936
 5759TIP3    H217284   4.588   5.450   2.760  0.7282  0.5494  1.1331
 5760TIP3   OH217285   0.257   0.909   1.763  0.1799 -0.1490  0.5704
 5760TIP3    H117286   0.164   0.930   1.778 -0.1004 -0.9217 -0.0426
 5760TIP3    H217287   0.303   0.953   1.835 -0.6852  0.0154  1.0381
 5761TIP3   OH217288   3.957   3.948   0.886 -0.1414  0.2728 -0.2486
 5761TIP3    H117289   3.877   3.906   0.918  0.5809  0.0786  1.4606
 5761TIP3    H217290   4.008   3.876   0.848  0.3488 -0.1305  1.1091
 5762TIP3   OH217291   1.389   4.238   2.313  0.1197 -0.0963  0.0759
 5762TIP3    H117292   1.384   4.311   2.375 -1.4244  0.0422 -0.1615
 5762TIP3    H217293   1.367   4.278   2.229  2.2587 -0.2680 -0.6260
 5763TIP3   OH217294   4.241   5.222   4.284 -0.6163  0.0630 -0.2149
 5763TIP3    H117295   4.334   5.243   4.282 -0.0231 -2.2354  0.1788
 5763TIP3    H217296   4.198   5.307   4.295  1.5708  0.9772  2.6848
 5764TIP3   OH217297   4.550   1.020   1.076  0.3601  0.4073 -0.0954
 5764TIP3    H117298   4.608   0.955   1.037  0.4620 -1.4288  2.8105
 5764TIP3    H217299   4.609   1.090   1.104  1.1216 -0.8874  1.7473
 5765TIP3   OH217300   0.581   4.210   2.330 -0.0152 -0.0812  0.5781
 5765TIP3    H117301   0.651   4.144   2.327  0.2421  0.1884  0.6649
 5765TIP3    H217302   0.511   4.172   2.277  1.0618  0.6566 -1.5069
 5766TIP3   OH217303   0.727   0.281   3.114  0.3048 -0.2511 -0.0040
 5766TIP3    H117304   0.715   0.213   3.181 -1.1628  0.3223  0.3548
 5766TIP3    H217305   0.748   0.360   3.164 -0.4468  0.1009 -0.2392
 5767TIP3   OH217306   4.707   4.258   3.046  0.0949  0.4002  0.1086
 5767TIP3    H117307   4.701   4.173   3.089 -0.4190  0.0271 -0.6980
 5767TIP3    H217308   4.719   4.320   3.119  0.9505 -0.3939  0.6688
 5768TIP3   OH217309   2.620   0.999   3.382 -0.0722  0.3386 -0.1069
 5768TIP3    H117310   2.700   0.953   3.359  0.1510  0.4511  0.4430
 5768TIP3    H217311   2.587   0.953   3.459  0.7983  1.8437  1.1992
 5769TIP3   OH217312   0.128   4.278   0.791 -0.2872 -0.4949  0.0583
 5769TIP3    H117313   0.160   4.209   0.733 -0.2785  0.1131 -0.6799
 5769TIP3    H217314   0.098   4.232   0.870 -0.4436 -1.3437 -0.4893
 5770TIP3   OH217315   3.391   5.283   2.192  0.3655 -0.1095  0.2381
 5770TIP3    H117316   3.333   5.284   2.268 -1.3294  2.5342 -0.9696
 5770TIP3    H217317   3.476   5.309   2.227 -0.4847  1.4891  1.2248
 5771TIP3   OH217318   5.817   1.050   3.213  0.5543  0.3654  0.0250
 5771TIP3    H117319   5.770   1.055   3.130  0.3651 -0.3498  0.0857
 5771TIP3    H217320   5.836   0.957   3.225 -0.5283  0.2866  1.3836
 5772TIP3   OH217321   2.909   0.408   2.404 -0.2010 -0.0115  0.3692
 5772TIP3    H117322   2.930   0.368   2.489 -0.7773 -1.0209  0.0523
 5772TIP3    H217323   2.981   0.470   2.389  1.4550 -1.8171  0.3198
 5773TIP3   OH217324   1.176   0.535   2.634 -0.0538 -0.0188  0.0249
 5773TIP3    H117325   1.104   0.596   2.655  0.6253  0.0855  2.3322
 5773TIP3    H217326   1.132   0.453   2.613 -0.9224  0.7694 -1.4267
 5774TIP3   OH217327   2.920   0.449   3.501  0.4625 -0.1071  0.2796
 5774TIP3    H117328   2.974   0.517   3.543 -0.3704  0.5818  0.2593
 5774TIP3    H217329   2.867   0.413   3.572 -2.7041  2.6894 -0.3908
 5775TIP3   OH217330   4.828   1.329   1.905  0.0837 -0.2870  1.0758
 5775TIP3    H117331   4.766   1.296   1.970  0.2323 -0.9191  0.9034
 5775TIP3    H217332   4.890   1.257   1.892 -1.1609 -1.0453 -1.3457
 5776TIP3   OH217333   6.054   0.898   2.686  0.5870 -0.4902  0.1413
 5776TIP3    H117334   5.968   0.912   2.646 -0.7314  1.1300  3.1741
 5776TIP3    H217335   6.038   0.830   2.752  2.6762 -3.0932 -1.8077
 5777TIP3   OH217336   0.277   0.407   0.739  0.0655 -0.0794 -0.6319
 5777TIP3    H117337   0.271   0.464   0.816  2.4408 -0.5445 -0.0086
 5777TIP3    H217338   0.191   0.413   0.698 -0.7110  1.5854  1.0660
 5778TIP3   OH217339   3.881  -0.018   1.123  0.0669 -0.1600  0.6671
 5778TIP3    H117340   3.883   0.073   1.094 -2.1930  0.2016  1.3998
 5778TIP3    H217341   3.880  -0.013   1.218  1.7663 -1.0649  0.7575
 5779TIP3   OH217342   2.075   3.003   2.183 -0.3047  0.3487 -0.0238
 5779TIP3    H117343   2.166   3.013   2.155 -0.2674  0.5300  0.1622
 5779TIP3    H217344   2.077   3.020   2.278 -0.3876 -0.4838  0.1390
 5780TIP3   OH217345   3.172   5.484   1.140 -0.1527 -0.4200  0.4048
 5780TIP3    H117346   3.202   5.567   1.177  1.7222 -0.5591 -0.7134
 5780TIP3    H217347   3.247   5.425   1.147 -1.1598 -1.7753  0.3554
 5781TIP3   OH217348   5.481   4.931   0.394  0.1625  0.0279  0.3251
 5781TIP3    H117349   5.521   4.986   0.462  1.3118  2.7319 -2.3376
 5781TIP3    H217350   5.387   4.951   0.399  0.0817 -0.5804  1.7069
 5782TIP3   OH217351   0.079   4.026   4.191  0.3173 -0.0506 -0.0779
 5782TIP3    H117352   0.111   3.990   4.108 -1.6145 -0.4132 -0.7182
 5782TIP3    H217353   0.148   4.004   4.254  1.2183 -0.9685 -1.3132
 5783TIP3   OH217354   0.261   5.390   1.525 -0.8513 -0.0172  0.2625
 5783TIP3    H117355   0.193   5.448   1.558 -0.0257  0.9237  0.3828
 5783TIP3    H217356   0.300   5.351   1.603 -0.5505  0.2785  0.2636
 5784TIP3   OH217357   0.258   4.692   4.266  0.2967  0.3964  0.4944
 5784TIP3    H117358   0.345   4.712   4.302 -0.0521 -0.0718  1.6706
 5784TIP3    H217359   0.209   4.773   4.274 -0.0214  0.0953  1.8879
 5785TIP3   OH217360   4.808   3.872   5.149 -0.4575  0.2618 -0.1982
 5785TIP3    H117361   4.884   3.929   5.139  0.4267 -0.8576 -0.1671
 5785TIP3    H217362   4.808   3.819   5.069 -1.0837  0.1108 -0.1041
 5786TIP3   OH217363   5.290   5.870   0.879  0.1499 -0.6177  0.1526
 5786TIP3    H117364   5.213   5.917   0.848  0.2631  0.4096  1.3534
 5786TIP3    H217365   5.301   5.898   0.970  1.2369 -1.6675  0.3778
 5787TIP3   OH217366   1.218   1.311   2.264  0.1169  0.4015  0.5569
 5787TIP3    H117367   1.283   1.341   2.327  0.0082  1.4792  0.1679
 5787TIP3    H217368   1.185   1.229   2.301  2.5641 -0.8489  0.1585
 5788TIP3   OH217369   5.497   2.401   1.178  0.5002 -0.2747  0.2756
 5788TIP3    H117370   5.576   2.351   1.156  1.6300  1.1250  0.9393
 5788TIP3    H217371   5.458   2.353   1.251 -0.4285 -2.0894 -1.3165
 5789TIP3   OH217372   0.097   1.925   5.202  0.2106  0.4560  0.0034
 5789TIP3    H117373   0.056   1.948   5.119  0.3797 -0.3704 -0.3206
 5789TIP3    H217374   0.190   1.918   5.181  0.0862 -1.2563 -0.1056
 5790TIP3   OH217375   1.161   0.397   1.886 -0.6893 -0.5487  0.1669
 5790TIP3    H117376   1.110   0.424   1.810  0.5682  0.2732 -0.4176
 5790TIP3    H217377   1.222   0.469   1.901 -1.8621  0.0024  2.8783
 5791TIP3   OH217378   4.188   3.138   1.733 -0.2407  0.0155 -0.3510
 5791TIP3    H117379   4.100   3.130   1.698 -0.8217  0.8263  0.8475
 5791TIP3    H217380   4.196   3.067   1.796 -0.0504 -0.0356 -0.4313
 5792TIP3   OH217381   4.479   2.779   4.793  0.2410 -0.9766 -0.2637
 5792TIP3    H117382   4.468   2.839   4.719  0.9180 -0.7041 -0.1484
 5792TIP3    H217383   4.410   2.714   4.781 -1.4367  0.5916  0.3759
 5793TIP3   OH217384   6.169   2.034   3.101  0.1995  0.7479  0.0538
 5793TIP3    H117385   6.201   2.070   3.184  0.3574  0.5381  0.0842
 5793TIP3    H217386   6.234   2.061   3.036  1.0593 -0.6270  0.2948
 5794TIP3   OH217387   5.497   0.390   1.495 -0.6692 -0.2317 -0.2843
 5794TIP3    H117388   5.509   0.354   1.583 -2.3103 -0.6024 -0.1726
 5794TIP3    H217389   5.405   0.415   1.492  0.4364  4.8550 -0.0438
 5795TIP3   OH217390   1.443   1.205   4.715  0.1381  0.1403 -0.1172
 5795TIP3    H117391   1.466   1.173   4.628  0.7611 -1.5372  0.6344
 5795TIP3    H217392   1.511   1.270   4.734  0.7402 -0.3950 -0.3824
 5796TIP3   OH217393   3.941   0.961   2.066 -0.1985 -0.1120  0.1572
 5796TIP3    H117394   3.979   1.021   2.002 -0.4903  0.1492  0.2252
 5796TIP3    H217395   3.885   1.016   2.121  0.0852 -0.3250  0.6692
 5797TIP3   OH217396   2.665   4.784   3.275  0.4432 -0.0185  0.0335
 5797TIP3    H117397   2.730   4.714   3.267  0.0510 -0.1808 -2.1457
 5797TIP3    H217398   2.607   4.755   3.346  1.3897 -0.9578  0.4497
 5798TIP3   OH217399   1.712   4.259   3.335 -0.2633  0.3021  0.1949
 5798TIP3    H117400   1.667   4.339   3.305 -0.0078  0.2621 -0.3020
 5798TIP3    H217401   1.798   4.290   3.364 -0.6159  0.3842  1.1872
 5799TIP3   OH217402   5.456   1.194   4.359 -0.2636  0.2344  0.0975
 5799TIP3    H117403   5.401   1.153   4.426  0.5951  0.8930  1.2537
 5799TIP3    H217404   5.448   1.288   4.377  0.1801  0.4020 -0.5735
 5800TIP3   OH217405   5.840   1.398   4.322  0.2926  0.3572 -0.3114
 5800TIP3    H117406   5.893   1.477   4.316 -1.6697  1.7043 -0.6983
 5800TIP3    H217407   5.806   1.400   4.412  3.2372 -2.1759  1.0649
 5801TIP3   OH217408   0.683   1.456   2.685 -0.1997  0.2300  0.5522
 5801TIP3    H117409   0.619   1.526   2.674 -1.3467 -0.8682  0.0870
 5801TIP3    H217410   0.766   1.502   2.702 -1.2095  1.6715  1.8873
 5802TIP3   OH217411   3.448   0.086   3.559  0.3212  0.2650 -0.0716
 5802TIP3    H117412   3.449   0.007   3.505  1.0016  0.8468 -0.9284
 5802TIP3    H217413   3.452   0.053   3.649  0.2859 -0.6871 -0.4084
 5803TIP3   OH217414   3.225   1.828   0.052  0.0907 -0.0137  0.4408
 5803TIP3    H117415   3.198   1.831   0.144 -0.3261 -0.8277  0.3497
 5803TIP3    H217416   3.247   1.737   0.036  2.3483  0.4873  0.3199
 5804TIP3   OH217417   6.005   1.699   1.524  0.3857 -0.1647 -0.1921
 5804TIP3    H117418   5.918   1.661   1.541  1.0795 -1.4554  0.7012
 5804TIP3    H217419   6.036   1.652   1.447  0.8472 -0.7279  0.3274
 5805TIP3   OH217420   2.984   0.222   0.540  0.3490 -0.7523  0.0268
 5805TIP3    H117421   3.013   0.183   0.622  0.2947 -0.4258  0.1990
 5805TIP3    H217422   2.956   0.310   0.563 -0.1621 -0.8368 -0.2520
 5806TIP3   OH217423   2.966   1.489   1.144 -0.8741  0.1144  0.2201
 5806TIP3    H117424   2.976   1.571   1.193  0.9201 -0.3885  0.7946
 5806TIP3    H217425   2.968   1.420   1.211  0.9564 -0.5422 -0.4324
 5807TIP3   OH217426   4.995   1.558   2.971 -0.0377 -0.2384  0.5650
 5807TIP3    H117427   4.942   1.486   2.939  0.2833 -0.9442  1.5765
 5807TIP3    H217428   5.083   1.539   2.940  0.2613 -0.8872  1.7353
 5808TIP3   OH217429   4.774   5.003   2.939 -0.2447  0.1246 -0.9045
 5808TIP3    H117430   4.845   5.063   2.963  1.5019 -1.7140 -1.0908
 5808TIP3    H217431   4.767   5.011   2.844 -0.3419  0.3781 -0.8754
 5809TIP3   OH217432   2.784   2.388   3.624 -0.0523 -0.0798  0.2098
 5809TIP3    H117433   2.855   2.342   3.579 -0.8708 -1.3461  0.1723
 5809TIP3    H217434   2.751   2.326   3.688 -1.4542  0.2893 -0.1139
 5810TIP3   OH217435   6.125   0.164   5.047  0.0726  0.3226 -0.0906
 5810TIP3    H117436   6.119   0.248   5.002 -0.6218  0.2776 -0.0810
 5810TIP3    H217437   6.038   0.125   5.039  0.0913  0.0666  0.7962
 5811TIP3   OH217438   1.222   1.043   1.574  0.2874 -0.0588  0.1705
 5811TIP3    H117439   1.198   1.070   1.663 -0.2458  2.1162 -0.5787
 5811TIP3    H217440   1.226   0.947   1.579 -2.5904 -0.2118  1.8590
 5812TIP3   OH217441   2.159   0.439   4.652 -0.0248  0.0981 -0.6167
 5812TIP3    H117442   2.102   0.503   4.696 -0.8840 -0.2749 -1.1533
 5812TIP3    H217443   2.173   0.476   4.565  0.2628  0.0104 -0.6089
 5813TIP3   OH217444   1.189   5.391   4.930  0.0984  0.4903  0.6416
 5813TIP3    H117445   1.096   5.405   4.943  0.0028  0.8740 -0.3589
 5813TIP3    H217446   1.220   5.355   5.013 -0.6000  2.0116  1.6102
 5814TIP3   OH217447   0.457   2.210   1.448  0.1960  0.5843  0.6537
 5814TIP3    H117448   0.510   2.130   1.453  2.8794  2.2629  1.8147
 5814TIP3    H217449   0.449   2.238   1.539 -2.6910  0.5366  0.5055
 5815TIP3   OH217450   0.018   0.179   1.711 -0.3693  0.2877  0.0068
 5815TIP3    H117451  -0.061   0.202   1.661 -1.1488 -0.8633  0.6510
 5815TIP3    H217452   0.063   0.116   1.655 -0.3655  0.2703  0.0299
 5816TIP3   OH217453   2.988   0.108   2.240  0.2503 -0.1764 -0.2063
 5816TIP3    H117454   3.016   0.068   2.322  1.4936 -1.9036 -1.3945
 5816TIP3    H217455   2.892   0.108   2.245  0.3085  0.6671  1.6161
 5817TIP3   OH217456   5.290   4.597   1.509 -0.3478  0.5222 -0.0140
 5817TIP3    H117457   5.200   4.581   1.537 -0.1488 -0.8279 -0.0820
 5817TIP3    H217458   5.335   4.514   1.524  0.3416  0.4695 -2.0365
 5818TIP3   OH217459   4.089   2.991   4.054  0.2616  0.0238  0.1280
 5818TIP3    H117460   4.033   3.019   4.126 -0.9624  1.4680 -1.3243
 5818TIP3    H217461   4.065   2.899   4.039 -2.8841  0.9484 -1.3622
 5819TIP3   OH217462   1.290   2.901   3.305  0.2224  0.8407 -0.5633
 5819TIP3    H117463   1.340   2.977   3.276  0.2308  0.6714 -0.9986
 5819TIP3    H217464   1.246   2.869   3.226  0.4158  0.2431 -0.4359
 5820TIP3   OH217465   2.818   1.912   0.740 -0.1230  0.2595  0.2033
 5820TIP3    H117466   2.736   1.955   0.719 -0.5063 -1.5157 -2.4313
 5820TIP3    H217467   2.884   1.981   0.736 -1.2515  1.4176  0.8768
 5821TIP3   OH217468   5.285   3.394   0.710 -0.0993  0.3522  0.4525
 5821TIP3    H117469   5.336   3.408   0.790 -0.4358  1.1490  0.5397
 5821TIP3    H217470   5.306   3.469   0.654 -1.7004  1.1047  0.7918
 5822TIP3   OH217471   1.655   4.557   3.908 -0.0859 -0.1054  0.5262
 5822TIP3    H117472   1.656   4.542   4.003  0.7757 -2.1509  0.2375
 5822TIP3    H217473   1.649   4.470   3.870 -2.8436  0.7708 -1.3281
 5823TIP3   OH217474   3.121   3.044   2.249 -0.2282 -0.0681 -0.0129
 5823TIP3    H117475   3.100   3.092   2.329  1.3901  0.0020  0.3918
 5823TIP3    H217476   3.057   3.076   2.185 -0.4551  1.1407  0.7891
 5824TIP3   OH217477   5.393   2.855   5.138 -0.3271  0.2932 -0.3490
 5824TIP3    H117478   5.436   2.878   5.220 -0.2559  1.3414 -0.6577
 5824TIP3    H217479   5.459   2.808   5.088 -0.2319  0.0327  0.0238
 5825TIP3   OH217480   0.260   1.788   0.617 -0.2742  0.3109  0.4964
 5825TIP3    H117481   0.251   1.728   0.692  0.1884  1.8482  1.8516
 5825TIP3    H217482   0.267   1.875   0.657 -1.1303  1.3103 -1.4170
 5826TIP3   OH217483   5.240   3.706   0.803 -0.2140 -0.1756  0.5311
 5826TIP3    H117484   5.318   3.738   0.847 -0.3772 -0.7365  1.2351
 5826TIP3    H217485   5.270   3.682   0.715  0.4541 -0.6311  0.8795
 5827TIP3   OH217486   0.654   5.149   2.998  0.1482 -0.5765  0.3511
 5827TIP3    H117487   0.722   5.124   2.935  0.6719 -3.5406  1.9511
 5827TIP3    H217488   0.577   5.167   2.943  0.5960 -2.9606 -1.2134
 5828TIP3   OH217489   5.179   5.700   3.827 -0.1757  0.3369 -0.0867
 5828TIP3    H117490   5.189   5.605   3.821  0.1626  0.4284 -1.0822
 5828TIP3    H217491   5.249   5.728   3.886  0.7753  0.1398 -1.0895
 5829TIP3   OH217492   6.136   3.768   3.958  0.2273 -0.1575 -0.5000
 5829TIP3    H117493   6.118   3.687   3.910 -0.5059  0.0996 -0.6725
 5829TIP3    H217494   6.228   3.787   3.939  0.0355 -0.2288 -1.5653
 5830TIP3   OH217495   0.486   0.080   1.937 -0.2405  0.1040 -0.0370
 5830TIP3    H117496   0.580   0.098   1.926 -0.0550 -1.0290 -0.4609
 5830TIP3    H217497   0.479   0.040   2.023 -0.1946 -0.6151 -0.3571
 5831TIP3   OH217498   0.678   3.808   1.939  0.1905  0.3810 -0.3821
 5831TIP3    H117499   0.748   3.743   1.943 -0.4637 -0.4247 -1.4423
 5831TIP3    H217500   0.619   3.784   2.010  1.2059  1.3594  0.8288
 5832TIP3   OH217501   4.350   2.284   4.879 -0.0064  0.3640  0.4609
 5832TIP3    H117502   4.349   2.203   4.829 -0.9280  0.6918 -0.0597
 5832TIP3    H217503   4.261   2.317   4.874  0.5243  1.7890  0.0518
 5833TIP3   OH217504   4.778   3.200   1.657  0.4825  0.5384  0.2742
 5833TIP3    H117505   4.868   3.226   1.637  0.2340  0.0866 -1.7006
 5833TIP3    H217506   4.724   3.269   1.619 -0.0125  0.7300  1.3116
 5834TIP3   OH217507   1.184   0.176   4.359  0.2284  0.0216  0.1021
 5834TIP3    H117508   1.168   0.127   4.439  0.1777 -0.5839 -0.2714
 5834TIP3    H217509   1.276   0.201   4.363  0.1342  0.3119  0.5178
 5835TIP3   OH217510   1.355   3.336   4.057  0.6267 -0.6134 -0.0905
 5835TIP3    H117511   1.262   3.359   4.066  0.4219 -0.4764 -2.0563
 5835TIP3    H217512   1.367   3.262   4.116 -0.8497 -0.9000 -0.0985
 5836TIP3   OH217513   3.780   4.809   4.898  0.5058  0.4446  0.3853
 5836TIP3    H117514   3.777   4.716   4.873 -2.3991  0.2892  1.0023
 5836TIP3    H217515   3.795   4.808   4.992 -3.4714  0.2821  1.1812
 5837TIP3   OH217516   1.596   4.288   3.860  0.4239 -0.0232  0.1493
 5837TIP3    H117517   1.546   4.308   3.780  0.5155  1.0450  0.3384
 5837TIP3    H217518   1.628   4.199   3.847 -0.9743 -0.4932 -0.2655
 5838TIP3   OH217519   0.521   4.715   4.074 -0.0490  0.2353  0.1024
 5838TIP3    H117520   0.455   4.649   4.096 -0.5099 -0.0116 -1.8437
 5838TIP3    H217521   0.549   4.750   4.159 -1.2192 -1.0624  1.0771
 5839TIP3   OH217522   3.806   4.018   4.510  0.1418 -0.4389 -0.4508
 5839TIP3    H117523   3.776   4.018   4.601  0.5832  1.6987 -0.2529
 5839TIP3    H217524   3.739   3.969   4.462 -1.4713  0.6435  0.6202
 5840TIP3   OH217525   5.680   5.051   4.971 -0.1788  0.2641 -0.0459
 5840TIP3    H117526   5.738   5.104   4.915 -1.1498  0.3023 -1.0645
 5840TIP3    H217527   5.697   5.082   5.060 -1.0883  2.7229 -0.6486
 5841TIP3   OH217528   2.699   3.311   3.934  1.3500  0.0870 -0.4732
 5841TIP3    H117529   2.706   3.220   3.962 -1.6350 -0.0193  0.2212
 5841TIP3    H217530   2.697   3.308   3.839  1.6656 -0.4956 -0.4649
 5842TIP3   OH217531   4.067   3.857   2.042  0.2137 -0.1924 -0.0655
 5842TIP3    H117532   4.032   3.911   1.972 -0.3690 -1.5850 -0.8907
 5842TIP3    H217533   3.992   3.838   2.098  0.7822  1.4193  1.3535
 5843TIP3   OH217534   5.608   1.403   2.426 -0.2654  0.3123 -0.0993
 5843TIP3    H117535   5.534   1.445   2.469 -0.6666  0.7290 -1.1706
 5843TIP3    H217536   5.682   1.417   2.486 -1.1303 -0.5680  1.2286
 5844TIP3   OH217537   2.476   4.505   4.705  0.3230 -0.5322  0.2196
 5844TIP3    H117538   2.419   4.578   4.731 -0.3709 -0.4508 -1.4068
 5844TIP3    H217539   2.431   4.427   4.739  1.6418 -0.2098  2.9636
 5845TIP3   OH217540   3.768   2.466   4.293  0.2758 -0.2639  0.2304
 5845TIP3    H117541   3.722   2.411   4.356  0.6017 -1.3551 -0.4674
 5845TIP3    H217542   3.821   2.405   4.242 -0.7856  0.4527 -1.8298
 5846TIP3   OH217543   3.018   1.846   2.179 -0.1369  0.0962 -0.4652
 5846TIP3    H117544   3.026   1.874   2.087 -1.4106  1.6521 -0.1447
 5846TIP3    H217545   3.056   1.918   2.229 -1.1083  0.1060  0.2898
 5847TIP3   OH217546   1.999   3.843   2.233 -0.1465  0.0128  0.0967
 5847TIP3    H117547   1.916   3.880   2.205  0.6026  0.4903 -1.6204
 5847TIP3    H217548   1.992   3.749   2.216 -0.7143 -0.1173  0.9979
 5848TIP3   OH217549   1.971   5.692   2.117 -0.1879 -0.2507  0.1021
 5848TIP3    H117550   2.049   5.647   2.150 -1.0467 -1.1950  0.8782
 5848TIP3    H217551   2.006   5.766   2.067  1.1929 -0.0032  1.3708
 5849TIP3   OH217552   0.512   5.449   1.395 -0.0773  0.3500  0.3443
 5849TIP3    H117553   0.430   5.407   1.422  0.4301 -0.6974  0.2871
 5849TIP3    H217554   0.547   5.392   1.327  0.5868  0.9241  0.1909
 5850TIP3   OH217555   0.382   5.566   2.183 -0.1310  0.2129  0.0507
 5850TIP3    H117556   0.341   5.555   2.097 -0.2528 -0.7664  0.2274
 5850TIP3    H217557   0.463   5.615   2.164  0.9950 -1.8972 -0.9653
 5851TIP3   OH217558   5.100   1.515   0.814 -0.4935 -0.0015 -0.1779
 5851TIP3    H117559   5.183   1.529   0.769  0.1154 -0.9705  0.6012
 5851TIP3    H217560   5.034   1.556   0.757  0.4003 -0.0312 -1.2598
 5852TIP3   OH217561   0.174   3.108   1.679  0.1443  0.1836  0.3118
 5852TIP3    H117562   0.250   3.066   1.720  0.2417  2.7004  3.1103
 5852TIP3    H217563   0.194   3.202   1.684 -2.8370  0.8898  0.5061
 5853TIP3   OH217564   6.226   1.349   2.617  0.6275  0.1909 -0.1488
 5853TIP3    H117565   6.230   1.365   2.522  0.4187 -1.3761 -0.4538
 5853TIP3    H217566   6.214   1.255   2.624  0.8871  0.2572  1.4631
 5854TIP3   OH217567   3.876   4.601   2.241  0.1047 -0.5868  0.0239
 5854TIP3    H117568   3.909   4.638   2.159 -0.2986  3.1925  1.3716
 5854TIP3    H217569   3.914   4.657   2.309 -2.6243 -1.1226  2.1478
 5855TIP3   OH217570   0.137   3.500   0.839 -0.5729  0.3013 -0.0924
 5855TIP3    H117571   0.124   3.592   0.863  1.5182  0.6703 -0.1494
 5855TIP3    H217572   0.225   3.498   0.801  0.7321 -2.1909  2.6492
 5856TIP3   OH217573   0.274   1.868   1.635  0.3856 -0.4001  0.0957
 5856TIP3    H117574   0.189   1.824   1.634  0.8047 -1.2366 -1.2285
 5856TIP3    H217575   0.292   1.883   1.728 -0.6602 -1.2926  0.4688
 5857TIP3   OH217576   1.696   4.806   3.079 -0.4475 -0.0112  0.4055
 5857TIP3    H117577   1.613   4.815   3.126 -0.7137  1.4213 -0.2534
 5857TIP3    H217578   1.685   4.862   3.002  1.7120  1.5619  1.1278
 5858TIP3   OH217579   5.733   1.501   4.757 -0.3349  0.5962  0.4419
 5858TIP3    H117580   5.816   1.519   4.801 -0.4865 -0.5135  1.2132
 5858TIP3    H217581   5.690   1.586   4.751  1.4789  1.4755 -1.3364
 5859TIP3   OH217582   5.665   5.813   4.870  0.3316 -0.1127 -0.0752
 5859TIP3    H117583   5.687   5.901   4.901  1.7203 -0.9247  1.3745
 5859TIP3    H217584   5.666   5.759   4.949 -1.5411 -1.2651 -0.7814
 5860TIP3   OH217585   5.414   0.951   2.638 -0.1144 -0.1394  0.6057
 5860TIP3    H117586   5.357   0.996   2.699  0.8744  1.1467  0.6233
 5860TIP3    H217587   5.503   0.970   2.669  0.3589 -1.2100 -0.0209
 5861TIP3   OH217588  -0.019   4.269   4.054  0.2017 -0.1159  1.1640
 5861TIP3    H117589   0.033   4.349   4.055  0.7038 -0.4235  0.6978
 5861TIP3    H217590  -0.001   4.227   4.138  0.1569  0.1266  1.2936
 5862TIP3   OH217591   4.718   5.442   4.397  0.2817 -0.8585  0.5441
 5862TIP3    H117592   4.741   5.476   4.484  0.9216 -0.9520  0.4204
 5862TIP3    H217593   4.799   5.451   4.346 -0.0630 -0.8848 -0.0199
 5863TIP3   OH217594   5.510   5.728   2.690  0.1304 -0.0606  0.1097
 5863TIP3    H117595   5.489   5.780   2.612 -0.9803  0.8043  0.9479
 5863TIP3    H217596   5.473   5.641   2.672 -0.8823  0.3813  0.0152
 5864TIP3   OH217597   2.094   2.608   2.120  0.3724  0.0221 -0.7325
 5864TIP3    H117598   2.123   2.601   2.211  0.3892  2.4853 -0.4943
 5864TIP3    H217599   2.171   2.584   2.069  0.9848  0.5829 -0.0944
 5865TIP3   OH217600   0.643   3.457   1.785  0.1138 -0.3788  0.5251
 5865TIP3    H117601   0.636   3.524   1.853  0.1315  0.4693 -0.2897
 5865TIP3    H217602   0.724   3.412   1.804  0.2586  0.0356  0.9085
 5866TIP3   OH217603   0.638   0.859   2.229  0.0323  0.2013 -0.1223
 5866TIP3    H117604   0.685   0.883   2.309  0.0180 -0.3461  0.0589
 5866TIP3    H217605   0.690   0.788   2.191 -1.0098 -0.9477  0.4861
 5867TIP3   OH217606   5.886   3.389   1.588 -0.4788 -0.4799 -0.1075
 5867TIP3    H117607   5.894   3.410   1.495  2.3612 -1.2215 -0.1109
 5867TIP3    H217608   5.878   3.294   1.591  1.6786 -0.6896  0.4285
 5868TIP3   OH217609   6.088   5.064   0.478 -0.1709  0.3338 -0.3863
 5868TIP3    H117610   6.177   5.085   0.506 -0.6129  1.5496  0.1885
 5868TIP3    H217611   6.099   5.009   0.401  1.0944 -1.6727  1.1194
 5869TIP3   OH217612   3.942   1.125   2.834 -0.0714  0.2781 -0.6171
 5869TIP3    H117613   4.025   1.143   2.878  0.0102 -0.7482 -0.3285
 5869TIP3    H217614   3.900   1.211   2.827 -0.6419  0.4044  2.5913
 5870TIP3   OH217615   5.979   0.752   3.624 -1.3507 -0.4189  0.6075
 5870TIP3    H117616   5.911   0.817   3.604 -0.3351  1.3795  2.5955
 5870TIP3    H217617   6.009   0.775   3.712  1.3126 -1.6275  0.1110
 5871TIP3   OH217618   4.853   5.250   1.733 -0.0099  0.3639 -0.1026
 5871TIP3    H117619   4.898   5.169   1.707  0.3462  0.1363  1.1438
 5871TIP3    H217620   4.819   5.231   1.820 -0.0125  1.5339  0.1662
 5872TIP3   OH217621   1.812   1.174   4.778  0.1170  0.2349 -0.7249
 5872TIP3    H117622   1.823   1.111   4.849  1.6082  0.6591 -0.5414
 5872TIP3    H217623   1.781   1.122   4.704 -1.5176 -0.2081  0.2136
 5873TIP3   OH217624   5.167   3.406   2.897  0.5787 -0.7197 -0.4344
 5873TIP3    H117625   5.162   3.316   2.929 -0.4666 -0.8925 -1.0132
 5873TIP3    H217626   5.166   3.397   2.802 -0.3908 -0.0767 -0.4986
 5874TIP3   OH217627   6.383   1.793   0.236  0.3424  0.6512  0.0331
 5874TIP3    H117628   6.334   1.724   0.193 -1.3961  1.3747  0.7868
 5874TIP3    H217629   6.319   1.862   0.254  1.6133  1.6329  1.0875
 5875TIP3   OH217630   2.867   4.968   4.094  0.2464 -0.6859 -0.8025
 5875TIP3    H117631   2.829   4.985   4.180  0.5038  0.4685 -0.8990
 5875TIP3    H217632   2.962   4.963   4.111  0.3640  0.3433 -1.1291
 5876TIP3   OH217633   1.487   3.988   0.708 -0.1552 -0.3339  0.8652
 5876TIP3    H117634   1.519   3.899   0.690 -0.0189 -0.1708  0.2770
 5876TIP3    H217635   1.527   4.011   0.792  0.6927 -0.4203  0.4964
 5877TIP3   OH217636   5.777   2.533   1.003  0.6611  0.0512 -0.1212
 5877TIP3    H117637   5.765   2.444   0.971 -0.0848  0.1112 -0.0309
 5877TIP3    H217638   5.695   2.577   0.981  0.5042  0.3527  1.0371
 5878TIP3   OH217639   2.932   1.640   1.971 -0.6176 -0.5175 -0.7742
 5878TIP3    H117640   2.988   1.575   2.013  0.4990  0.6210 -0.4218
 5878TIP3    H217641   2.991   1.711   1.947 -1.8968  0.7328 -0.4107
 5879TIP3   OH217642   3.923   5.365   3.215  0.6480  0.2555 -0.3927
 5879TIP3    H117643   3.864   5.306   3.263  0.3022  2.6164  2.3562
 5879TIP3    H217644   4.010   5.346   3.250  0.9339 -0.3468 -1.3943
 5880TIP3   OH217645   6.215   5.645   1.387  0.4205  0.0995  0.3696
 5880TIP3    H117646   6.239   5.594   1.309  0.2609 -2.4491  1.8880
 5880TIP3    H217647   6.263   5.604   1.459 -0.1006  1.8405  1.7953
 5881TIP3   OH217648   5.710   2.218   1.116 -0.0189 -0.0899 -0.0851
 5881TIP3    H117649   5.800   2.229   1.086  0.7934  0.5828  2.4038
 5881TIP3    H217650   5.703   2.126   1.139  0.4574  0.1182  0.9268
 5882TIP3   OH217651   1.562  -0.005   0.001 -0.0002  0.6352 -0.2568
 5882TIP3    H117652   1.592   0.063  -0.059  1.0396  1.0748  0.7371
 5882TIP3    H217653   1.551   0.040   0.085 -1.9974  0.1581 -0.2197
 5883TIP3   OH217654   1.742   0.460   1.615  0.2511  0.5317 -0.0430
 5883TIP3    H117655   1.724   0.482   1.706  1.9607 -1.6408  0.9212
 5883TIP3    H217656   1.783   0.539   1.579 -0.9131  1.6045  0.8794
 5884TIP3   OH217657   0.163   2.043   0.420 -0.0937  0.3398 -0.2962
 5884TIP3    H117658   0.099   1.972   0.411  0.7593 -0.5057  0.1314
 5884TIP3    H217659   0.181   2.047   0.514  1.8389 -0.7036 -0.5703
 5885TIP3   OH217660   1.593   1.988   2.266  0.3503 -0.5514 -0.2478
 5885TIP3    H117661   1.599   2.012   2.173  1.1986 -1.1146 -0.3530
 5885TIP3    H217662   1.645   2.055   2.311 -0.8008  0.2475 -0.0623
 5886TIP3   OH217663   4.757   4.467   1.287 -0.0245  0.2975  0.2512
 5886TIP3    H117664   4.697   4.531   1.248  0.8045  0.5680 -0.6174
 5886TIP3    H217665   4.799   4.425   1.212  1.5112  0.7317  0.8388
 5887TIP3   OH217666   5.472   1.535   1.100 -0.1471 -0.3593  0.4591
 5887TIP3    H117667   5.378   1.542   1.083  0.1745  1.0557 -1.1148
 5887TIP3    H217668   5.509   1.508   1.015  1.0486  1.3307  0.3920
 5888TIP3   OH217669   5.911   2.908   0.929  0.1484 -0.6345 -0.5398
 5888TIP3    H117670   5.925   2.883   0.838 -0.4478  0.5808 -0.9815
 5888TIP3    H217671   5.816   2.910   0.939  0.2054 -0.1112 -0.0768
 5889TIP3   OH217672   4.643   3.960   0.465  0.3234 -0.1340 -0.0182
 5889TIP3    H117673   4.577   3.952   0.534 -0.1500  1.2797 -0.2657
 5889TIP3    H217674   4.726   3.941   0.509  0.3592  3.1123  1.6635
 5890TIP3   OH217675   1.816   0.511   1.884 -0.0878  0.0306 -0.3938
 5890TIP3    H117676   1.873   0.435   1.894  0.5806  0.6707  0.9116
 5890TIP3    H217677   1.758   0.508   1.961  0.2728  1.0831 -0.0617
 5891TIP3   OH217678   4.905   0.430   0.090 -0.1103  0.0662  0.2574
 5891TIP3    H117679   4.899   0.505   0.150 -2.6008  0.9557 -0.9520
 5891TIP3    H217680   4.936   0.468   0.008 -2.2976  0.0291 -0.6412
 5892TIP3   OH217681   5.737   3.012   0.614  0.4653  0.4469 -0.3632
 5892TIP3    H117682   5.664   3.053   0.661  0.5052 -0.6175  0.6529
 5892TIP3    H217683   5.703   2.999   0.525 -1.1536 -1.3730  0.4552
 5893TIP3   OH217684   4.938   3.445   1.991 -0.4436 -0.2717  0.0782
 5893TIP3    H117685   4.843   3.437   1.980 -0.6758  0.3159  1.3775
 5893TIP3    H217686   4.965   3.360   2.024 -0.2336 -0.9842 -1.8195
 5894TIP3   OH217687   1.249   2.479   2.969  0.1585 -0.3634  0.1312
 5894TIP3    H117688   1.248   2.517   3.057 -3.1517  0.2434 -0.0438
 5894TIP3    H217689   1.311   2.406   2.975  1.0231  0.4743  2.5640
 5895TIP3   OH217690   4.571   0.124   0.835  0.3106  0.3362  0.2283
 5895TIP3    H117691   4.598   0.216   0.827  1.4612  0.0960  1.0971
 5895TIP3    H217692   4.641   0.075   0.790  0.3754 -0.1948  0.9000
 5896TIP3   OH217693   6.039   5.708   4.257 -0.1255  0.1063 -0.0218
 5896TIP3    H117694   5.944   5.712   4.256 -0.2003 -1.2231  0.2101
 5896TIP3    H217695   6.062   5.654   4.181  0.4000 -0.2106  0.3556
 5897TIP3   OH217696   5.620   1.817   2.753  0.0764 -0.4375 -0.8636
 5897TIP3    H117697   5.556   1.825   2.825  0.1589  0.3515 -0.8661
 5897TIP3    H217698   5.694   1.771   2.792  0.2666  0.3016 -0.3302
 5898TIP3   OH217699   3.249   1.509   1.965 -0.1574  0.1758  0.1568
 5898TIP3    H117700   3.331   1.467   1.988 -0.7702 -0.1516  1.9176
 5898TIP3    H217701   3.201   1.443   1.915 -0.1970 -0.4166  0.9623
 5899TIP3   OH217702   3.034   0.438   4.868  0.3769  0.0743 -0.4742
 5899TIP3    H117703   2.966   0.442   4.800  0.2530  1.7917 -0.3036
 5899TIP3    H217704   3.026   0.350   4.904 -1.5144  0.0888 -0.7259
 5900TIP3   OH217705   0.232   5.275   3.061 -0.1819  0.0337 -0.5176
 5900TIP3    H117706   0.176   5.343   3.098 -0.4324  0.0458 -0.9127
 5900TIP3    H217707   0.283   5.242   3.135 -1.2653 -0.5195  0.0108
 5901TIP3   OH217708   1.918   2.787   0.388  0.4539  0.1358 -0.5840
 5901TIP3    H117709   1.935   2.695   0.408  0.4944 -0.0817 -1.5493
 5901TIP3    H217710   1.939   2.796   0.295 -1.2726  0.6937 -0.9607
 5902TIP3   OH217711   3.687   1.858   3.472 -0.0498  0.2155  0.1469
 5902TIP3    H117712   3.749   1.925   3.441 -0.9383  0.9969  0.0019
 5902TIP3    H217713   3.693   1.789   3.406  0.1231  0.6168 -0.2711
 5903TIP3   OH217714   2.278   4.120   1.605 -0.3332 -0.5900  0.2030
 5903TIP3    H117715   2.277   4.208   1.567  1.1554 -0.2481  0.8854
 5903TIP3    H217716   2.193   4.111   1.647 -0.9797  0.0422 -0.9218
 5904TIP3   OH217717   1.606   5.710   5.185  0.3776  0.2100 -0.0732
 5904TIP3    H117718   1.696   5.678   5.189  0.0748 -0.7051 -0.3901
 5904TIP3    H217719   1.567   5.664   5.111 -0.4821  0.2463  0.3439
 5905TIP3   OH217720   6.332   3.696   4.427 -0.3688 -0.3856 -0.2576
 5905TIP3    H117721   6.293   3.608   4.425  0.3820 -0.8327  1.7546
 5905TIP3    H217722   6.270   3.748   4.479  0.6579 -0.5791  1.2239
 5906TIP3   OH217723   6.246   0.856   1.249  0.2348  0.2689  0.5611
 5906TIP3    H117724   6.205   0.872   1.334 -0.1711  2.5847 -0.0003
 5906TIP3    H217725   6.176   0.820   1.195  0.2644 -0.3864  0.9444
 5907TIP3   OH217726   3.988   4.480   0.788 -0.2704 -0.0957  0.6791
 5907TIP3    H117727   3.955   4.445   0.705 -1.2388 -0.3147  1.1479
 5907TIP3    H217728   4.068   4.527   0.764 -0.8676  0.3720 -0.4617
 5908TIP3   OH217729   4.638   0.579   0.302  0.0623 -0.1490  0.1769
 5908TIP3    H117730   4.572   0.529   0.351  1.0333  0.7204  2.5606
 5908TIP3    H217731   4.633   0.546   0.213 -0.6146 -3.2032  1.2221
 5909TIP3   OH217732   5.625   1.816   3.939  0.1041  0.4407 -0.7100
 5909TIP3    H117733   5.590   1.736   3.901  0.1686  0.0447  0.0562
 5909TIP3    H217734   5.555   1.881   3.927 -0.0318  0.2252 -1.1291
 5910TIP3   OH217735   5.187   5.447   3.905  0.0688 -0.0100  0.0325
 5910TIP3    H117736   5.235   5.424   3.985  0.1361  0.3810  0.1022
 5910TIP3    H217737   5.126   5.374   3.893  1.1277 -0.8526 -0.4251
 5911TIP3   OH217738   2.314   2.341   3.739 -0.4640 -0.8855  0.3825
 5911TIP3    H117739   2.228   2.332   3.699  0.2067 -0.0805 -1.3228
 5911TIP3    H217740   2.364   2.266   3.707 -0.5118 -1.3790  1.4051
 5912TIP3   OH217741   4.143   5.619   2.427 -0.5086 -0.0718 -0.0379
 5912TIP3    H117742   4.188   5.689   2.379  0.3191 -0.2458  0.4690
 5912TIP3    H217743   4.208   5.586   2.489 -1.3588 -0.2986  0.7566
 5913TIP3   OH217744   0.155   5.784   3.339 -0.1218  0.3465  0.2415
 5913TIP3    H117745   0.081   5.730   3.369  1.1555 -1.5345  0.1532
 5913TIP3    H217746   0.138   5.796   3.245  0.1466 -0.9055  0.0129
 5914TIP3   OH217747   5.100   5.919   1.192 -0.0038 -0.0520 -0.2661
 5914TIP3    H117748   5.024   5.874   1.227  0.2954 -1.1552 -0.9900
 5914TIP3    H217749   5.090   6.010   1.223 -2.4834  0.2628 -1.6723
 5915TIP3   OH217750   2.930   5.478   2.965  0.6895 -0.4076  0.1668
 5915TIP3    H117751   2.883   5.395   2.975  0.8281 -0.2488  2.5644
 5915TIP3    H217752   2.869   5.544   2.996 -0.0287  0.6955 -3.1930
 5916TIP3   OH217753   0.049   2.046   1.781  0.2849  0.1322  0.4658
 5916TIP3    H117754   0.099   2.122   1.813 -2.0376  1.6547  0.6962
 5916TIP3    H217755   0.020   2.073   1.693 -1.6082  0.0711  1.0410
 5917TIP3   OH217756   4.533   3.694   1.352  0.7553  0.7210  0.2613
 5917TIP3    H117757   4.472   3.622   1.333  0.8733  0.7460 -0.2436
 5917TIP3    H217758   4.478   3.771   1.360  0.7642  0.8522 -0.8072
 5918TIP3   OH217759   5.217   4.339   0.640  0.1452 -0.2424 -0.3679
 5918TIP3    H117760   5.134   4.349   0.593  0.2984 -0.6556 -0.7449
 5918TIP3    H217761   5.206   4.259   0.690  0.5275 -0.6377 -0.8983
 5919TIP3   OH217762   3.141   2.071   2.260  0.4218 -0.3957  0.2558
 5919TIP3    H117763   3.211   2.107   2.205 -0.3128 -2.3290 -2.1423
 5919TIP3    H217764   3.148   2.119   2.343  0.4078  4.0459 -2.0544
 5920TIP3   OH217765   1.067   2.651   2.821 -0.0098  0.9552  0.4705
 5920TIP3    H117766   0.992   2.666   2.877 -0.3970  0.2987  0.1305
 5920TIP3    H217767   1.135   2.617   2.879 -0.6321 -0.4035  0.4389
 5921TIP3   OH217768   2.771   5.245   0.227  0.5136 -0.0854 -0.2681
 5921TIP3    H117769   2.676   5.255   0.226  0.6053  0.7791 -0.6930
 5921TIP3    H217770   2.800   5.275   0.141  1.3094  1.1706  0.4061
 5922TIP3   OH217771   4.710   3.609   0.510  0.1098  0.0184 -0.4922
 5922TIP3    H117772   4.649   3.608   0.436  0.0332  0.9212 -0.4426
 5922TIP3    H217773   4.749   3.696   0.508  1.0910 -0.4029 -0.2701
 5923TIP3   OH217774   1.579   5.867   4.449  0.4235 -0.1474  0.0798
 5923TIP3    H117775   1.582   5.771   4.443  1.0428 -0.0333 -1.9311
 5923TIP3    H217776   1.653   5.897   4.398 -0.5751  1.4478 -0.4917
 5924TIP3   OH217777   0.738   0.193   1.965 -0.5535  0.2419 -0.4455
 5924TIP3    H117778   0.802   0.149   1.909 -1.3965  0.8595 -1.9468
 5924TIP3    H217779   0.783   0.273   1.994 -0.0415 -0.1780 -0.0574
 5925TIP3   OH217780   4.271   3.934   4.394 -0.1943 -0.1236  0.0198
 5925TIP3    H117781   4.320   3.991   4.334  0.6947 -1.0030 -0.1183
 5925TIP3    H217782   4.216   3.994   4.445  1.7822  1.0169  0.9025
 5926TIP3   OH217783   5.505   5.266   2.252  0.5760 -0.1355  0.3959
 5926TIP3    H117784   5.559   5.223   2.185  1.4541 -0.1613  1.0933
 5926TIP3    H217785   5.536   5.356   2.254 -1.5873  0.7378 -1.3963
 5927TIP3   OH217786   0.347   5.392   0.359 -1.1290 -0.0633 -0.4793
 5927TIP3    H117787   0.393   5.388   0.275  2.0424  2.6480  0.8798
 5927TIP3    H217788   0.370   5.309   0.402  1.9887  0.7584 -0.2703
 5928TIP3   OH217789   0.247   1.716   1.040 -0.0536  0.1610  0.8626
 5928TIP3    H117790   0.308   1.756   0.977 -0.9337  0.3227  0.0955
 5928TIP3    H217791   0.212   1.790   1.090 -1.2185  0.3195 -0.1437
 5929TIP3   OH217792   1.701   3.462   1.769 -0.0247 -0.2314  0.3242
 5929TIP3    H117793   1.632   3.523   1.792  0.2734  0.4309 -0.4828
 5929TIP3    H217794   1.682   3.437   1.678 -0.4718 -1.7958  0.8143
 5930TIP3   OH217795   3.168   4.672   1.196 -0.5006 -0.0472 -0.0527
 5930TIP3    H117796   3.212   4.714   1.270 -1.2955  2.7898 -1.0671
 5930TIP3    H217797   3.214   4.705   1.119 -2.5232  0.7286 -0.9925
 5931TIP3   OH217798   1.796   0.968   0.703  0.2075 -0.3283 -0.6710
 5931TIP3    H117799   1.749   0.908   0.645  2.1971 -0.8183 -1.9149
 5931TIP3    H217800   1.834   1.033   0.644 -0.5192  1.1911  0.4955
 5932TIP3   OH217801   3.883   0.625   0.141  0.2513 -0.1422  0.3952
 5932TIP3    H117802   3.945   0.693   0.115  1.1181 -0.9045  0.4207
 5932TIP3    H217803   3.913   0.596   0.227  1.4570 -2.3205 -0.6939
 5933TIP3   OH217804   2.214   0.803   2.680  0.2452 -0.5317 -0.2849
 5933TIP3    H117805   2.176   0.799   2.768  0.1952  0.5719 -0.2476
 5933TIP3    H217806   2.173   0.730   2.634  2.5108 -3.0852  1.4219
 5934TIP3   OH217807   3.643   1.191   4.596  0.2801  0.2897  0.2411
 5934TIP3    H117808   3.592   1.213   4.518  1.3666 -0.2507 -0.6446
 5934TIP3    H217809   3.705   1.263   4.606  1.0372 -0.2848 -0.2003
 5935TIP3   OH217810   0.539   0.637   4.315  0.1841  0.2227  0.3137
 5935TIP3    H117811   0.513   0.573   4.381 -1.8069 -0.0498 -0.6374
 5935TIP3    H217812   0.587   0.586   4.250 -3.2834 -0.9951 -1.5930
 5936TIP3   OH217813   0.978   0.351   4.639  0.0631  0.1997 -0.2511
 5936TIP3    H117814   1.046   0.405   4.599 -0.3355  0.5046 -0.5230
 5936TIP3    H217815   1.024   0.301   4.706 -0.1569  4.2746  3.4591
 5937TIP3   OH217816   0.594   4.402   0.553  0.2426  0.4525 -0.2332
 5937TIP3    H117817   0.608   4.314   0.517  0.8660  0.2932  0.3619
 5937TIP3    H217818   0.502   4.402   0.580  0.5674 -0.5091  0.9981
 5938TIP3   OH217819   2.079   3.705   1.551  0.3266 -0.1195 -0.0384
 5938TIP3    H117820   2.065   3.668   1.638 -0.4809 -1.3823 -0.6711
 5938TIP3    H217821   1.999   3.755   1.534  0.5484  0.2511 -0.0097
 5939TIP3   OH217822   3.754   1.018   1.800  0.1221  0.3837  0.7904
 5939TIP3    H117823   3.681   1.079   1.812 -0.8691 -0.8422  1.2702
 5939TIP3    H217824   3.812   1.035   1.874  0.4859  1.5509  0.2631
 5940TIP3   OH217825   0.709   5.274   5.123  0.6592  0.1090 -0.2201
 5940TIP3    H117826   0.639   5.310   5.178  1.3749 -0.7868  1.3443
 5940TIP3    H217827   0.681   5.185   5.105  0.3563  0.4394 -1.5033
 5941TIP3   OH217828   0.984   2.984   3.716  0.4765  0.0286  0.0213
 5941TIP3    H117829   0.932   3.061   3.741 -1.4673 -0.6293 -1.7164
 5941TIP3    H217830   1.039   3.015   3.644 -2.8898 -0.8352 -3.2361
 5942TIP3   OH217831   4.220   0.084   0.237 -0.2641 -0.6095 -0.2850
 5942TIP3    H117832   4.156   0.155   0.239  0.6096  0.2723 -1.8874
 5942TIP3    H217833   4.248   0.079   0.145  1.8265 -1.0731  0.3135
 5943TIP3   OH217834   0.131   1.707   4.355  0.2836 -0.1898  0.3991
 5943TIP3    H117835   0.158   1.695   4.264  0.5402 -0.9494  0.5679
 5943TIP3    H217836   0.212   1.728   4.401  0.4288 -1.3938  0.7188
 5944TIP3   OH217837   5.202   2.675   0.287  0.0349 -0.2535 -0.9118
 5944TIP3    H117838   5.158   2.656   0.204 -0.3600 -0.5580 -0.6334
 5944TIP3    H217839   5.158   2.753   0.320 -0.6829 -0.8735 -0.3649
 5945TIP3   OH217840   4.663   3.876   0.908 -0.2116 -0.1881 -0.3681
 5945TIP3    H117841   4.621   3.962   0.907  0.1628  0.3059  4.2310
 5945TIP3    H217842   4.750   3.893   0.945 -0.0674 -2.4730  0.4852
 5946TIP3   OH217843   1.573   1.839   4.048 -0.2291 -0.6355  0.1832
 5946TIP3    H117844   1.615   1.844   4.133  0.1334 -0.0516 -0.0192
 5946TIP3    H217845   1.480   1.847   4.066 -0.3247 -2.4274  0.6796
 5947TIP3   OH217846   4.108   5.582   3.883 -0.4367  0.2193  0.5473
 5947TIP3    H117847   4.165   5.659   3.877  0.0599 -0.2329 -1.0579
 5947TIP3    H217848   4.027   5.609   3.840 -0.5649  0.1088  0.7214
 5948TIP3   OH217849   4.633   2.959   4.206  0.3471  0.6951  0.8700
 5948TIP3    H117850   4.678   2.995   4.129  1.3528 -1.0271  0.6048
 5948TIP3    H217851   4.641   3.028   4.272 -0.7104  2.3112 -0.5646
 5949TIP3   OH217852   0.096   1.360   0.877 -0.3807  0.1059  0.4378
 5949TIP3    H117853   0.065   1.421   0.944 -0.1174 -0.6485  1.2836
 5949TIP3    H217854   0.187   1.343   0.901 -0.5903 -0.9857  0.5321
 5950TIP3   OH217855   3.978   1.312   2.622  0.6362 -0.1185 -0.7178
 5950TIP3    H117856   4.048   1.308   2.686  0.7619  1.4976 -0.7351
 5950TIP3    H217857   3.981   1.227   2.578  0.0195 -1.6083  1.9286
 5951TIP3   OH217858   1.178   4.865   3.120  0.0307  0.4899 -0.0389
 5951TIP3    H117859   1.145   4.951   3.144 -0.5505 -0.0751  1.2822
 5951TIP3    H217860   1.153   4.808   3.193  1.2853 -0.5918 -0.4053
 5952TIP3   OH217861   1.178   4.757   0.467 -0.1404  0.0802 -0.6468
 5952TIP3    H117862   1.187   4.825   0.534 -0.9550 -2.0480  1.7948
 5952TIP3    H217863   1.089   4.723   0.479  0.6593 -2.2772 -0.8590
 5953TIP3   OH217864   2.329   1.105   4.446  0.2278 -0.2463 -0.5845
 5953TIP3    H117865   2.394   1.057   4.394  1.0149  0.1208  0.0384
 5953TIP3    H217866   2.248   1.099   4.395  0.3725 -1.9841 -0.6609
 5954TIP3   OH217867   5.278   1.321   0.122 -0.0687 -0.1207  0.3547
 5954TIP3    H117868   5.295   1.382   0.050 -1.5888 -0.7334 -0.5756
 5954TIP3    H217869   5.342   1.251   0.109 -1.5504 -1.2180 -1.6542
 5955TIP3   OH217870   2.663   5.626   3.344  0.5421  0.1484 -0.4671
 5955TIP3    H117871   2.692   5.592   3.260 -0.4903  0.0390 -0.7868
 5955TIP3    H217872   2.638   5.548   3.394  0.1079  0.2914 -0.4589
 5956TIP3   OH217873   1.208   0.718   0.356  0.3392 -0.5519  0.0813
 5956TIP3    H117874   1.221   0.756   0.269 -2.0071  1.3041  0.4642
 5956TIP3    H217875   1.113   0.717   0.368  0.6255  0.3628  3.0892
 5957TIP3   OH217876   1.742   3.928   2.155  0.5232  0.2135  0.4801
 5957TIP3    H117877   1.771   3.977   2.078 -0.6209 -0.4198 -0.3943
 5957TIP3    H217878   1.707   3.995   2.214  1.1859  0.6833  0.3536
 5958TIP3   OH217879   1.900   1.253   0.645  0.0473  0.1911 -0.0551
 5958TIP3    H117880   1.815   1.258   0.601  0.6457  0.7181 -1.2092
 5958TIP3    H217881   1.887   1.298   0.729 -0.9272 -0.1729 -0.0046
 5959TIP3   OH217882   1.400   4.632   4.938  0.4508  0.1111 -0.2130
 5959TIP3    H117883   1.323   4.585   4.907 -0.6962  1.0629  1.1121
 5959TIP3    H217884   1.382   4.724   4.920  1.9353  0.2536 -1.2122
 5960TIP3   OH217885   4.189   5.565   1.093  0.0924 -0.3573  0.0170
 5960TIP3    H117886   4.098   5.573   1.067 -0.9873 -5.8148  0.8351
 5960TIP3    H217887   4.236   5.552   1.011 -0.5396 -1.2107 -0.2206
 5961TIP3   OH217888   4.532   1.607   0.678 -0.2389 -0.1614 -0.3552
 5961TIP3    H117889   4.549   1.698   0.703  0.6091 -0.3699 -0.1361
 5961TIP3    H217890   4.545   1.558   0.759 -0.0814 -0.5526 -0.6186
 5962TIP3   OH217891   5.985   2.958   0.444 -0.0516  0.3115 -0.1023
 5962TIP3    H117892   5.946   3.019   0.381  0.9588  0.0686 -0.9921
 5962TIP3    H217893   6.000   2.878   0.394 -2.3194 -1.0920  1.3062
 5963TIP3   OH217894   5.868   3.971   0.341 -0.0288 -0.6342  0.4662
 5963TIP3    H117895   5.894   4.058   0.372 -0.5472  0.1489 -1.2035
 5963TIP3    H217896   5.802   3.988   0.274  0.2719 -2.2919 -0.2963
 5964TIP3   OH217897   2.806   3.897   0.647  0.2084 -0.8612 -0.2040
 5964TIP3    H117898   2.717   3.902   0.611  0.2927 -0.5796 -0.3726
 5964TIP3    H217899   2.863   3.894   0.570  0.3740 -0.5242 -0.0981
 5965TIP3   OH217900   3.036   4.374   0.890 -0.3326  0.3716  0.0193
 5965TIP3    H117901   3.085   4.412   0.964 -0.9667  1.3836 -0.0662
 5965TIP3    H217902   2.945   4.400   0.906 -1.0160 -2.1256  0.5826
 5966TIP3   OH217903   0.484   1.947   4.287 -0.7885  0.0159 -0.0393
 5966TIP3    H117904   0.547   1.994   4.342 -1.7161 -0.0636  1.1206
 5966TIP3    H217905   0.530   1.935   4.203  1.0408 -0.7066  0.9990
 5967TIP3   OH217906   1.625   5.755   3.900  0.7351  0.6396 -0.7036
 5967TIP3    H117907   1.639   5.697   3.975  2.4948 -0.1304 -1.5581
 5967TIP3    H217908   1.628   5.843   3.938  3.1295  0.3372  0.0087
 5968TIP3   OH217909   0.806   4.559   1.845 -0.0066 -0.0278 -0.1120
 5968TIP3    H117910   0.807   4.603   1.930 -1.2492  0.0867 -0.1345
 5968TIP3    H217911   0.751   4.481   1.858  0.3960 -0.4014 -0.6195
 5969TIP3   OH217912   1.484   1.817   0.980  0.4979  0.1865  0.7308
 5969TIP3    H117913   1.524   1.823   0.893  0.8548 -1.0239  0.7978
 5969TIP3    H217914   1.447   1.904   0.995  0.8263  0.5473 -0.4390
 5970TIP3   OH217915   3.878   1.987   0.500  0.1910  0.2501  0.1257
 5970TIP3    H117916   3.861   1.901   0.539  0.0914 -0.2571 -1.0093
 5970TIP3    H217917   3.834   2.049   0.558 -2.0339 -0.6792 -0.4941
 5971TIP3   OH217918   3.428   1.810   3.099  0.3143 -0.0590  0.3163
 5971TIP3    H117919   3.510   1.859   3.096  1.8953 -2.5595 -0.9927
 5971TIP3    H217920   3.425   1.764   3.015 -2.9902  0.6786 -0.1031
 5972TIP3   OH217921   4.946   5.849   2.679 -0.3769  0.3499  0.2631
 5972TIP3    H117922   4.858   5.818   2.705  0.2404  0.2493  2.4591
 5972TIP3    H217923   4.994   5.856   2.762  1.7122  0.3838 -0.8830
 5973TIP3   OH217924   3.928   4.710   3.295  0.4644  0.1998 -0.6816
 5973TIP3    H117925   4.012   4.748   3.321 -0.9509  2.1460  1.4986
 5973TIP3    H217926   3.897   4.766   3.223  0.1131  0.8367 -0.0490
 5974TIP3   OH217927   3.513   2.328   0.839  0.2870  0.3315  0.5361
 5974TIP3    H117928   3.529   2.411   0.795 -1.9440  1.0663  0.9954
 5974TIP3    H217929   3.508   2.350   0.932 -0.7293 -0.2049  0.6321
 5975TIP3   OH217930   2.348   0.035   1.088 -0.2675 -0.4049 -0.2911
 5975TIP3    H117931   2.390   0.009   1.007 -1.4481 -0.7005 -0.8416
 5975TIP3    H217932   2.268  -0.018   1.092  0.9356 -2.2359  2.2953
 5976TIP3   OH217933   5.309   3.386   4.154  0.6331  0.5177 -0.7436
 5976TIP3    H117934   5.268   3.465   4.121 -0.1280  0.6174  0.3826
 5976TIP3    H217935   5.256   3.314   4.118 -1.2153  0.6728  1.4888
 5977TIP3   OH217936   4.421   4.824   4.901 -0.4502 -0.2278  0.3460
 5977TIP3    H117937   4.389   4.912   4.922 -0.0945  0.1455 -0.5929
 5977TIP3    H217938   4.483   4.803   4.971  0.1501  0.6582  0.0986
 5978TIP3   OH217939   2.660   4.597   2.203  0.0344  0.5037  0.1765
 5978TIP3    H117940   2.602   4.537   2.157  0.4648 -0.6330  1.0614
 5978TIP3    H217941   2.610   4.626   2.279  0.5713 -0.4635  0.9301
 5979TIP3   OH217942   0.093   5.086   2.671 -0.1059 -0.5544 -0.8759
 5979TIP3    H117943   0.054   5.109   2.755 -0.1061  1.0296 -1.2841
 5979TIP3    H217944   0.167   5.029   2.693 -0.0238 -0.0456  0.2031
 5980TIP3   OH217945   1.637   2.734   3.263  0.2189 -0.2428  0.1739
 5980TIP3    H117946   1.663   2.684   3.340 -0.5239 -0.3204  0.3829
 5980TIP3    H217947   1.646   2.672   3.190  1.1155 -0.1075  0.1645
 5981TIP3   OH217948   4.750   5.808   4.110  0.3417 -0.5231 -0.1401
 5981TIP3    H117949   4.814   5.790   4.179  0.4627  1.2633  0.2765
 5981TIP3    H217950   4.793   5.781   4.029  2.2296  1.7552 -0.0336
 5982TIP3   OH217951   4.509   2.591   0.835 -0.4156 -0.0754 -0.2544
 5982TIP3    H117952   4.491   2.510   0.882 -0.5368  0.3688  0.4676
 5982TIP3    H217953   4.483   2.660   0.895 -0.6988  0.5004 -1.0253
 5983TIP3   OH217954   5.694   0.217   0.726 -0.3468  0.5411 -0.1582
 5983TIP3    H117955   5.736   0.257   0.802  0.5931 -0.2407 -0.2530
 5983TIP3    H217956   5.683   0.289   0.664  1.9844  0.5724 -0.6202
 5984TIP3   OH217957   2.038   5.317   2.345 -0.0162  0.1034  0.2010
 5984TIP3    H117958   2.083   5.389   2.299 -1.0369  1.2293  0.9065
 5984TIP3    H217959   1.951   5.352   2.365  0.0502 -0.7016  2.1138
 5985TIP3   OH217960   0.683   4.464   2.174  0.1147  0.6031  0.0019
 5985TIP3    H117961   0.774   4.435   2.176  0.2948  1.1264 -0.4322
 5985TIP3    H217962   0.641   4.415   2.244  0.5266 -0.3070 -0.3783
 5986TIP3   OH217963   5.104   2.575   4.290  0.9114 -0.0738  0.4280
 5986TIP3    H117964   5.096   2.495   4.238  0.9351  0.2578 -0.0895
 5986TIP3    H217965   5.031   2.571   4.352  0.8001 -0.3989  0.2754
 5987TIP3   OH217966   4.033   0.047   0.481 -0.4366  0.2046  0.7051
 5987TIP3    H117967   3.971   0.069   0.412 -0.6722  1.3493  1.2579
 5987TIP3    H217968   4.117   0.079   0.449 -0.5188  0.6014  0.8886
 5988TIP3   OH217969   1.488   0.328   3.082  0.1684  0.1927  0.1213
 5988TIP3    H117970   1.509   0.337   3.174 -1.8138 -1.0648  0.7573
 5988TIP3    H217971   1.410   0.382   3.070  0.0752 -0.1010 -0.6882
 5989TIP3   OH217972   2.312   1.573   4.725  0.4156  0.1018  0.2544
 5989TIP3    H117973   2.319   1.478   4.735 -3.2677 -0.6379 -2.2919
 5989TIP3    H217974   2.239   1.598   4.781 -0.3063  0.9848 -1.0384
 5990TIP3   OH217975   5.450   1.849   3.628 -0.1839 -0.0036  0.4684
 5990TIP3    H117976   5.503   1.924   3.654 -0.2972  0.0101  0.6581
 5990TIP3    H217977   5.466   1.840   3.534  0.3896 -0.1817  0.5774
 5991TIP3   OH217978   0.209   2.332   3.527 -0.1891 -0.0966  0.7067
 5991TIP3    H117979   0.180   2.240   3.523 -0.5560  0.0447 -2.2718
 5991TIP3    H217980   0.304   2.327   3.520 -0.1468 -0.2769  1.3912
 5992TIP3   OH217981   0.180   1.349   3.073 -0.2425 -0.0157  0.2706
 5992TIP3    H117982   0.117   1.280   3.054 -0.7261  0.3995  0.3238
 5992TIP3    H217983   0.127   1.429   3.075  0.2452  0.3039  0.5861
 5993TIP3   OH217984   0.888   2.457   1.049 -0.4351 -0.0093  0.9544
 5993TIP3    H117985   0.819   2.391   1.058 -0.2827 -0.0756  1.7494
 5993TIP3    H217986   0.915   2.475   1.139  0.5011  0.1069  0.6596
 5994TIP3   OH217987   2.543   4.302   5.058  0.8415  0.3819  0.0115
 5994TIP3    H117988   2.475   4.242   5.029  2.7977 -2.6964  1.2271
 5994TIP3    H217989   2.576   4.343   4.978  0.0183 -0.8503 -0.9780
 5995TIP3   OH217990   2.287   3.718   2.808 -0.4337  0.6164 -0.1500
 5995TIP3    H117991   2.326   3.660   2.743  0.2671  1.4127 -0.4621
 5995TIP3    H217992   2.226   3.773   2.758  0.3444  1.4481 -0.2075
 5996TIP3   OH217993   0.972   2.266   4.498  0.6046  0.0465 -0.1097
 5996TIP3    H117994   0.903   2.286   4.435  0.6598  1.2577  0.1871
 5996TIP3    H217995   1.048   2.244   4.444  0.4835  0.4636 -0.4538
 5997TIP3   OH217996   2.286   5.454   4.612  0.3303  0.2013  0.0144
 5997TIP3    H117997   2.363   5.462   4.667  0.1177  1.9368  0.1207
 5997TIP3    H217998   2.215   5.491   4.664 -0.7760 -2.0614  0.2236
 5998TIP3   OH217999   2.467   0.192   4.139 -0.7852  0.2261  0.0503
 5998TIP3    H118000   2.392   0.251   4.126 -3.0578 -2.7433 -1.6552
 5998TIP3    H218001   2.430   0.119   4.189  0.8910 -1.4884 -1.1197
 5999TIP3   OH218002   2.690   0.100   1.943 -0.2816  0.1730  0.4625
 5999TIP3    H118003   2.766   0.077   1.997 -0.3342 -0.8665  0.1138
 5999TIP3    H218004   2.616   0.056   1.985 -0.5042  0.2494  0.1543
 6000TIP3   OH218005   4.864   0.887   1.844 -0.4480 -0.3003  0.4767
 6000TIP3    H118006   4.930   0.954   1.861 -0.0746  0.0862 -2.1524
 6000TIP3    H218007   4.788   0.935   1.810 -0.6894 -1.0819 -0.1250
 6001TIP3   OH218008   3.821   5.881   2.793  0.7724 -0.1633  0.0339
 6001TIP3    H118009   3.747   5.873   2.733  0.2625 -1.2236  0.7786
 6001TIP3    H218010   3.898   5.881   2.736  0.2201  1.4733 -0.7955
 6002TIP3   OH218011   4.896   2.990  -0.007  0.3554 -0.0731 -0.4135
 6002TIP3    H118012   4.845   2.913   0.020  0.2400 -0.1309 -0.7861
 6002TIP3    H218013   4.951   3.011   0.068 -0.5309  0.2478  0.1641
 6003TIP3   OH218014   0.192   1.599   0.793 -0.1141  0.2960  0.1324
 6003TIP3    H118015   0.186   1.635   0.881  0.1519 -1.0656  0.7206
 6003TIP3    H218016   0.140   1.519   0.795 -0.0182  0.1932 -0.9163
 6004TIP3   OH218017   0.418   2.276   2.043 -0.0197 -0.4499  0.2935
 6004TIP3    H118018   0.510   2.298   2.060 -0.1959  1.6256 -1.0497
 6004TIP3    H218019   0.379   2.268   2.130  0.8710  1.3722  0.9183
 6005TIP3   OH218020   4.144   0.870   2.644 -0.0153 -0.2236 -0.1777
 6005TIP3    H118021   4.205   0.849   2.714  1.0908 -0.8299 -1.2798
 6005TIP3    H218022   4.148   0.793   2.586  0.3791  0.9484 -1.7647
 6006TIP3   OH218023   0.196   5.060   4.463 -0.0984 -0.1906  0.5374
 6006TIP3    H118024   0.103   5.040   4.475  0.4942 -2.9257  1.2402
 6006TIP3    H218025   0.209   5.061   4.368 -1.0362  1.5434  0.3825
 6007TIP3   OH218026   1.669   3.795   3.260  0.5727  0.0475 -0.4888
 6007TIP3    H118027   1.631   3.826   3.342  0.9578  0.3763 -0.4282
 6007TIP3    H218028   1.758   3.770   3.283  1.8311  3.2143 -1.3702
 6008TIP3   OH218029   4.119   5.596   4.410 -0.8373  0.9454  0.2223
 6008TIP3    H118030   4.056   5.668   4.406 -1.5120  0.3368 -0.4534
 6008TIP3    H218031   4.103   5.546   4.330 -0.3160  0.0964  0.6379
 6009TIP3   OH218032   0.738   1.731   0.955  0.0689 -0.5095  0.4424
 6009TIP3    H118033   0.762   1.728   0.863 -0.3986 -2.1721  0.3461
 6009TIP3    H218034   0.666   1.794   0.959  0.0276 -0.5013 -0.3439
 6010TIP3   OH218035   2.172   4.141   0.716 -0.0537  0.1316  0.4383
 6010TIP3    H118036   2.203   4.224   0.753  0.9448 -1.4086  3.3693
 6010TIP3    H218037   2.077   4.146   0.722 -0.0501  1.3865 -0.2667
 6011TIP3   OH218038   3.559   2.937   0.967 -0.3412 -0.2203 -0.2323
 6011TIP3    H118039   3.559   3.033   0.972  0.4928 -0.1240 -1.5874
 6011TIP3    H218040   3.483   2.911   1.019 -0.4719  1.1620  0.3239
 6012TIP3   OH218041   4.609   1.884   0.726 -0.3767 -0.1752 -0.0772
 6012TIP3    H118042   4.705   1.881   0.724 -0.3667 -2.9498  0.5325
 6012TIP3    H218043   4.588   1.964   0.774  1.5176  1.7433 -2.1605
 6013TIP3   OH218044   2.523   3.941   1.649  0.0946  0.2376 -0.1563
 6013TIP3    H118045   2.477   4.024   1.640  0.7463  0.5912 -0.2319
 6013TIP3    H218046   2.458   3.875   1.624 -0.6120  0.6739  0.4666
 6014TIP3   OH218047   1.580   5.372   2.510  0.3671  0.4081  0.1791
 6014TIP3    H118048   1.634   5.298   2.483  0.2426  0.1663  0.5764
 6014TIP3    H218049   1.491   5.348   2.485  0.3035  0.3480  0.4549
 6015TIP3   OH218050   5.550   2.516   2.032  0.2827  0.1075  0.1592
 6015TIP3    H118051   5.549   2.485   2.123  1.9329  1.8594  0.8522
 6015TIP3    H218052   5.515   2.605   2.036  0.8006  0.3745 -0.8261
 6016TIP3   OH218053   5.610   3.761   2.033 -0.3154 -0.2233  0.2580
 6016TIP3    H118054   5.588   3.668   2.040  0.8572 -0.5132  0.1856
 6016TIP3    H218055   5.646   3.771   1.945 -0.6831  0.3565  0.1679
 6017TIP3   OH218056   1.743   2.569   2.030 -0.6395  0.5327 -0.4593
 6017TIP3    H118057   1.799   2.534   2.099 -1.6139  0.0255  0.1020
 6017TIP3    H218058   1.656   2.575   2.070 -1.3784 -0.4121 -1.8092
 6018TIP3   OH218059   5.319   4.859   3.898  0.0205  0.9541  0.5210
 6018TIP3    H118060   5.250   4.875   3.833  0.1449  1.9798  0.6294
 6018TIP3    H218061   5.272   4.848   3.981 -0.1146 -0.0216  0.3282
 6019TIP3   OH218062   6.046   4.262   2.677  0.0266  0.1591 -0.4816
 6019TIP3    H118063   6.034   4.346   2.632 -0.1396  0.5207  0.2257
 6019TIP3    H218064   6.141   4.249   2.679  0.1561  1.1631  0.8941
 6020TIP3   OH218065   1.448   2.193   4.365 -0.0363  0.2307 -0.0905
 6020TIP3    H118066   1.477   2.270   4.414  1.0292 -0.7519  0.8755
 6020TIP3    H218067   1.475   2.119   4.419 -1.2178 -0.8269 -0.9077
 6021TIP3   OH218068   1.324   1.814   2.148 -0.5920 -0.3364 -0.3410
 6021TIP3    H118069   1.235   1.835   2.179 -0.4311 -0.1793  0.0271
 6021TIP3    H218070   1.348   1.736   2.198 -0.3521 -0.1152 -0.1027
 6022TIP3   OH218071   2.137   1.992   3.087  0.2265  0.4723 -0.3036
 6022TIP3    H118072   2.147   1.934   3.162  1.4733 -0.7903 -1.3872
 6022TIP3    H218073   2.042   2.003   3.077  0.0109  2.3720  2.6444
 6023TIP3   OH218074   1.251   0.161   1.073 -0.3102 -0.3543 -0.2793
 6023TIP3    H118075   1.300   0.103   1.015 -1.2275  0.2562 -1.7437
 6023TIP3    H218076   1.202   0.102   1.130 -0.9404 -1.0519 -1.4901
 6024TIP3   OH218077   5.659   1.431   2.120  1.0393  1.2414  0.6541
 6024TIP3    H118078   5.667   1.440   2.215 -1.1788 -2.1295  1.3750
 6024TIP3    H218079   5.570   1.460   2.101  0.5856 -0.4023  0.0879
 6025TIP3   OH218080   5.766   4.705   4.622 -0.0901  0.1936  1.0089
 6025TIP3    H118081   5.751   4.725   4.715  0.9668  1.0078  1.0240
 6025TIP3    H218082   5.797   4.615   4.623  1.7971  0.7825  1.6958
 6026TIP3   OH218083   1.344   3.981   1.221 -0.1738  0.1628 -0.0133
 6026TIP3    H118084   1.340   3.943   1.134  0.5421 -1.4855  0.6363
 6026TIP3    H218085   1.260   4.026   1.232 -1.0771 -1.2780 -0.8029
 6027TIP3   OH218086   2.610   1.406   4.964  0.4455  0.1850  0.0235
 6027TIP3    H118087   2.679   1.387   5.028  1.9805  2.5519 -0.8251
 6027TIP3    H218088   2.566   1.484   4.998 -1.2458 -0.7279  0.0523
 6028TIP3   OH218089   4.446   1.021   1.569  0.0356 -0.4097 -0.1960
 6028TIP3    H118090   4.508   1.001   1.639  1.4622 -0.1929 -1.3402
 6028TIP3    H218091   4.369   1.055   1.613  0.5305 -1.1578  1.3123
 6029TIP3   OH218092   6.129   4.035   1.212 -0.4726  0.0861 -0.2511
 6029TIP3    H118093   6.042   4.031   1.171 -1.0266 -0.9416  0.9745
 6029TIP3    H218094   6.175   3.958   1.180 -0.2208  0.2961 -0.4036
 6030TIP3   OH218095   0.305   4.158   3.234  0.0747 -0.4284 -0.1845
 6030TIP3    H118096   0.384   4.136   3.183 -0.5892 -0.6974 -1.1261
 6030TIP3    H218097   0.308   4.253   3.243  0.5053 -0.4355 -0.2070
 6031TIP3   OH218098   4.554   5.368   0.810  0.2921  0.0193  0.2980
 6031TIP3    H118099   4.480   5.419   0.777  1.1701  1.0067 -0.2278
 6031TIP3    H218100   4.585   5.417   0.886  0.6005 -0.2127  0.3217
 6032TIP3   OH218101   6.163   5.259   0.759  0.2480 -0.2430  0.0241
 6032TIP3    H118102   6.215   5.211   0.696  0.8240  0.6446 -0.1919
 6032TIP3    H218103   6.116   5.324   0.707 -0.3151 -0.3882  0.3409
 6033TIP3   OH218104   2.260   1.469   4.314  0.1137  0.3320  0.1063
 6033TIP3    H118105   2.213   1.414   4.377  3.1286 -1.1046  1.2854
 6033TIP3    H218106   2.228   1.441   4.228 -0.7494 -0.9281  0.8076
 6034TIP3   OH218107   5.318   4.741   0.648 -0.1058 -0.3583  0.5781
 6034TIP3    H118108   5.304   4.663   0.594  0.1824 -0.7714  1.0982
 6034TIP3    H218109   5.285   4.813   0.594 -1.5038 -0.9695  0.5833
 6035TIP3   OH218110   2.244   5.934   3.895 -0.4326  0.1350  0.2744
 6035TIP3    H118111   2.150   5.933   3.877 -0.7565 -1.2217  1.7933
 6035TIP3    H218112   2.282   5.875   3.830 -0.6018  0.7368 -0.3849
 6036TIP3   OH218113   0.238   4.898   0.102 -0.6399  0.2534  0.7477
 6036TIP3    H118114   0.153   4.880   0.063 -0.6613 -0.5620  1.1660
 6036TIP3    H218115   0.286   4.945   0.033 -0.4137 -1.7863 -0.5590
 6037TIP3   OH218116   4.084   2.506   3.615 -0.3790  0.3287 -0.3188
 6037TIP3    H118117   4.165   2.481   3.571 -1.3165  0.5879 -2.2697
 6037TIP3    H218118   4.090   2.463   3.701  1.7207  0.2014 -0.4709
 6038TIP3   OH218119   6.138   1.591   0.266  0.0404 -0.1172  0.1031
 6038TIP3    H118120   6.200   1.541   0.320 -0.5055  0.6835  1.5369
 6038TIP3    H218121   6.173   1.584   0.177  2.8477  1.2237  0.9625
 6039TIP3   OH218122   5.576   4.041   4.174 -0.1335  0.3905  0.2872
 6039TIP3    H118123   5.670   4.026   4.168  0.0048  1.4791 -0.7899
 6039TIP3    H218124   5.546   3.982   4.243  1.0387 -1.2759 -0.5671
 6040TIP3   OH218125   4.084   0.648   3.488 -0.1247 -0.1245 -0.1984
 6040TIP3    H118126   4.009   0.650   3.429  0.2856 -0.8327 -0.7575
 6040TIP3    H218127   4.160   0.645   3.430  0.3230  0.1369  0.3647
 6041TIP3   OH218128   4.396   0.725   2.235  0.2805 -0.2186  0.3651
 6041TIP3    H118129   4.380   0.720   2.329  2.4786 -1.6677  0.7419
 6041TIP3    H218130   4.489   0.705   2.225  0.1891  0.2234 -2.1087
 6042TIP3   OH218131   1.002   3.177   4.581 -0.1791 -0.5150  1.0571
 6042TIP3    H118132   0.966   3.153   4.496 -0.3046 -0.1623  1.0095
 6042TIP3    H218133   1.097   3.180   4.567 -0.2180 -0.1478  0.8463
 6043TIP3   OH218134   2.671   3.090   1.619 -0.4080 -0.6827  0.2032
 6043TIP3    H118135   2.701   3.024   1.556  0.8754  1.5204 -1.6197
 6043TIP3    H218136   2.750   3.138   1.643 -1.0618 -0.7513  2.7172
 6044TIP3   OH218137   3.936   1.742   0.936  0.9757  0.4179  0.5772
 6044TIP3    H118138   3.977   1.701   0.860  1.4763  1.5024  0.2433
 6044TIP3    H218139   3.852   1.775   0.903  0.0787 -1.1960  1.0971
 6045TIP3   OH218140   0.558   3.929   1.674 -0.8506 -0.6411 -0.4653
 6045TIP3    H118141   0.591   3.884   1.753 -0.2464 -2.2231 -1.5622
 6045TIP3    H218142   0.470   3.958   1.698 -0.2642 -0.0800  1.1567
 6046TIP3   OH218143   0.751   3.504   2.712 -0.2963 -0.2494 -0.1898
 6046TIP3    H118144   0.689   3.527   2.644  1.3475  0.7628 -1.4186
 6046TIP3    H218145   0.811   3.579   2.717  0.4527 -0.9035  1.3846
 6047TIP3   OH218146   1.245   5.582   1.247 -0.0537  0.1388  0.0511
 6047TIP3    H118147   1.159   5.592   1.206  0.4715  1.1948 -0.8548
 6047TIP3    H218148   1.306   5.569   1.173  0.7359  0.7782  0.5645
 6048TIP3   OH218149   1.407   3.929   0.159 -0.1085  0.3036  0.4214
 6048TIP3    H118150   1.473   3.974   0.212 -0.2646  0.7080  0.2796
 6048TIP3    H218151   1.433   3.837   0.160  0.6404  0.5023  0.1107
 6049TIP3   OH218152   3.892   0.967   2.610 -0.1100  0.2463 -0.4425
 6049TIP3    H118153   3.879   1.039   2.672 -0.1514 -0.1144 -0.0218
 6049TIP3    H218154   3.978   0.932   2.633 -0.6312 -0.6453  0.2057
 6050TIP3   OH218155   0.952   4.006   5.019 -0.0461 -0.2529 -0.0276
 6050TIP3    H118156   0.880   4.062   5.048  0.2997  0.6397 -0.8501
 6050TIP3    H218157   1.012   4.004   5.094 -0.0469  0.5098  0.0045
 6051TIP3   OH218158   5.595   4.168   2.323  0.0779  0.5819  0.3632
 6051TIP3    H118159   5.560   4.257   2.318  1.7067  1.2002 -1.3003
 6051TIP3    H218160   5.534   4.121   2.380 -1.5175  2.4315  0.2805
 6052TIP3   OH218161   3.663   0.248   1.306  0.2544  0.6670  0.2367
 6052TIP3    H118162   3.611   0.323   1.276 -1.4976 -0.0542  1.2641
 6052TIP3    H218163   3.603   0.201   1.364  2.1884 -0.0897  1.7048
 6053TIP3   OH218164   1.375   4.353   1.699 -0.2972  0.1810 -0.1711
 6053TIP3    H118165   1.281   4.362   1.710 -0.4707  0.3697 -1.5718
 6053TIP3    H218166   1.410   4.440   1.720 -0.2768 -0.2137  1.5563
 6054TIP3   OH218167   3.770   0.245   1.916  0.0128 -0.4817 -0.8143
 6054TIP3    H118168   3.802   0.160   1.949  0.6529 -0.7272 -2.0165
 6054TIP3    H218169   3.723   0.283   1.990  0.1121 -1.6846 -0.1060
 6055TIP3   OH218170   2.315   5.129   1.267 -0.2844 -0.0351 -0.1468
 6055TIP3    H118171   2.399   5.109   1.226 -0.8131 -1.6615 -0.5244
 6055TIP3    H218172   2.310   5.224   1.267  0.4565  0.0641 -2.4550
 6056TIP3   OH218173   3.224   0.926   2.191  0.2583  0.4904 -0.4789
 6056TIP3    H118174   3.208   1.021   2.186  0.5721  0.6208  0.6647
 6056TIP3    H218175   3.302   0.912   2.139 -0.5463  0.6436 -1.7786
 6057TIP3   OH218176   3.089   5.288   4.308 -0.5325 -0.0016  0.2681
 6057TIP3    H118177   3.044   5.203   4.310 -0.5933 -0.0242 -1.3164
 6057TIP3    H218178   3.087   5.317   4.399 -2.8997 -0.4327  0.4177
 6058TIP3   OH218179   4.328   0.815   2.852 -0.0247 -0.1652  1.0847
 6058TIP3    H118180   4.258   0.783   2.909 -0.0167 -0.4191  0.9519
 6058TIP3    H218181   4.395   0.746   2.856 -0.2512 -0.4317  0.3471
 6059TIP3   OH218182   5.020   2.152   3.266 -0.3039  0.1032 -0.2438
 6059TIP3    H118183   5.051   2.238   3.238 -0.6247  0.2389 -0.1951
 6059TIP3    H218184   5.097   2.107   3.299 -0.0224  0.1514 -0.8263
 6060TIP3   OH218185   0.553   1.677   4.663 -0.3532  0.0046 -0.6021
 6060TIP3    H118186   0.621   1.659   4.598  0.3812  0.3895  0.0366
 6060TIP3    H218187   0.556   1.602   4.723  0.0801  0.4028 -0.1129
 6061TIP3   OH218188   6.077   4.984   4.512  0.3526  0.7534  0.6985
 6061TIP3    H118189   6.137   4.994   4.438  0.0202 -1.0515  0.1544
 6061TIP3    H218190   6.131   5.003   4.589  1.2377  0.5909  0.1281
 6062TIP3   OH218191   4.274   0.205   4.026 -0.0020 -0.0774 -0.1875
 6062TIP3    H118192   4.307   0.115   4.021  0.5469  0.1141 -0.1734
 6062TIP3    H218193   4.333   0.248   4.088 -1.6708 -0.2866  1.6106
 6063TIP3   OH218194   5.015   0.116   5.112  0.1838 -0.6541 -0.6822
 6063TIP3    H118195   5.095   0.105   5.060 -1.0070 -1.0596 -2.5487
 6063TIP3    H218196   4.977   0.028   5.117 -0.5460 -0.3427 -0.5184
 6064TIP3   OH218197   5.767   2.739   3.084 -0.0690 -0.3193  0.1580
 6064TIP3    H118198   5.786   2.673   3.150  0.4943 -0.5885 -0.2690
 6064TIP3    H218199   5.773   2.692   3.001  0.0361  0.1996 -0.1291
 6065TIP3   OH218200   6.230   2.382   1.026  0.7758 -0.1219  0.2049
 6065TIP3    H118201   6.316   2.418   1.049  0.7421 -0.6455  1.2014
 6065TIP3    H218202   6.167   2.447   1.056  0.7403 -0.7189  1.4817
 6066TIP3   OH218203   5.969   5.902   3.960  0.3082 -0.2833  0.2194
 6066TIP3    H118204   6.053   5.858   3.966  0.7166  0.4183 -0.1598
 6066TIP3    H218205   5.933   5.876   3.875 -0.2891 -1.3017  0.7646
 6067TIP3   OH218206   1.033   2.282   0.466  0.5086  0.5017  0.4571
 6067TIP3    H118207   0.967   2.236   0.414  0.1143  0.7398  0.7398
 6067TIP3    H218208   1.082   2.334   0.402 -0.1502  1.0065  0.3553
 6068TIP3   OH218209   5.992   1.747   2.075  0.6041 -0.0660  0.5543
 6068TIP3    H118210   5.938   1.801   2.017 -0.2052 -0.0760  1.2746
 6068TIP3    H218211   5.986   1.659   2.039  1.1401  0.1420 -0.0656
 6069TIP3   OH218212   5.129   0.058   1.687  0.4655 -0.0585  0.5483
 6069TIP3    H118213   5.069   0.052   1.761 -0.4429  1.9634  0.0281
 6069TIP3    H218214   5.083   0.016   1.615  0.0598  0.6200  0.4004
 6070TIP3   OH218215   3.427   2.404   1.948 -0.1257 -0.4562 -0.0590
 6070TIP3    H118216   3.338   2.391   1.917  0.0342 -1.2949 -0.1911
 6070TIP3    H218217   3.457   2.483   1.903 -1.0805  0.3180  0.6324
 6071TIP3   OH218218   4.072   3.003   0.839  0.4942  0.4977 -0.0964
 6071TIP3    H118219   4.143   2.990   0.902 -0.0524  3.1065  1.1886
 6071TIP3    H218220   4.015   3.067   0.880 -0.6430  1.2908 -2.6916
 6072TIP3   OH218221   2.810   5.603   0.728 -0.0784 -0.0878  0.0822
 6072TIP3    H118222   2.836   5.512   0.743  0.9437  0.0829 -0.5118
 6072TIP3    H218223   2.877   5.655   0.773  2.8487  0.4254 -4.2370
 6073TIP3   OH218224   2.577   4.609   2.927  0.0159 -0.3699  0.1091
 6073TIP3    H118225   2.570   4.543   2.997  0.3790 -0.6351 -0.0992
 6073TIP3    H218226   2.597   4.558   2.848  0.1760 -0.0201 -0.0797
 6074TIP3   OH218227   3.369   2.219   2.161 -0.1899 -0.3504 -0.3661
 6074TIP3    H118228   3.388   2.275   2.085  0.1725 -1.0972 -0.8285
 6074TIP3    H218229   3.406   2.267   2.235  0.4581 -0.1524 -0.8086
 6075TIP3   OH218230   4.451   1.874   0.279  0.6566  0.4135  0.2065
 6075TIP3    H118231   4.476   1.925   0.202 -1.3342 -0.0101 -0.7719
 6075TIP3    H218232   4.461   1.783   0.253  0.0798  0.2677  0.4721
 6076TIP3   OH218233   2.617   0.334   3.915  0.2882 -0.4506 -0.5293
 6076TIP3    H118234   2.704   0.297   3.933 -0.3966 -1.0336  1.8243
 6076TIP3    H218235   2.565   0.313   3.992 -2.9986 -3.0232 -3.1485
 6077TIP3   OH218236   1.919   1.197   1.845 -0.3057 -0.3063 -0.9117
 6077TIP3    H118237   1.867   1.252   1.905  1.6819  0.0942  0.5486
 6077TIP3    H218238   1.867   1.117   1.836 -1.9595  0.7006 -0.8817
 6078TIP3   OH218239   5.657   5.144   1.027  0.1509 -0.8714  0.2105
 6078TIP3    H118240   5.693   5.088   0.958  2.8093  0.4141  0.4371
 6078TIP3    H218241   5.679   5.233   1.000  2.7487 -0.3657  3.3245
 6079TIP3   OH218242   3.737   2.641   2.785  0.1495  0.2239 -0.0705
 6079TIP3    H118243   3.770   2.674   2.702 -1.2088 -0.3139 -0.8474
 6079TIP3    H218244   3.675   2.708   2.815  0.6972  0.4588  0.5684
 6080TIP3   OH218245   1.475   5.417   1.907 -0.4848  0.1396 -0.5600
 6080TIP3    H118246   1.514   5.330   1.918 -0.4570  0.3525  1.4349
 6080TIP3    H218247   1.551   5.474   1.892 -0.5826 -0.2756 -3.1009
 6081TIP3   OH218248   1.655   3.804   1.071 -0.0641  0.4344  0.2816
 6081TIP3    H118249   1.604   3.748   1.129 -0.4696 -0.5206 -0.9437
 6081TIP3    H218250   1.622   3.784   0.983 -1.6827  4.0839 -0.1203
 6082TIP3   OH218251   0.175   4.498   3.530 -0.3799 -0.4826  0.3298
 6082TIP3    H118252   0.185   4.494   3.625  0.6299 -3.4657  0.2009
 6082TIP3    H218253   0.085   4.472   3.514 -0.6649  0.3867  0.4394
 6083TIP3   OH218254   2.632   3.052   1.093  0.2471  0.0974 -0.4105
 6083TIP3    H118255   2.542   3.021   1.092 -0.4750  2.0935  0.1831
 6083TIP3    H218256   2.675   2.997   1.159 -1.3426  1.1975  1.6659
 6084TIP3   OH218257   5.179   5.987   5.027 -0.3822 -0.6710  0.1612
 6084TIP3    H118258   5.111   6.001   5.093  1.0537  0.8216  1.4194
 6084TIP3    H218259   5.207   5.896   5.041 -1.3138 -0.9463  0.3589
 6085TIP3   OH218260   1.498   1.855   4.457 -0.3199  0.1087  0.3783
 6085TIP3    H118261   1.445   1.796   4.403 -0.9594  0.2909  0.7953
 6085TIP3    H218262   1.588   1.833   4.434 -0.5256 -1.2302  0.7202
 6086TIP3   OH218263   4.445   3.614   2.110  0.4414  0.0953  0.7298
 6086TIP3    H118264   4.492   3.557   2.170  1.9832 -0.7607 -1.1683
 6086TIP3    H218265   4.505   3.625   2.036 -0.2132  3.3571  0.5359
 6087TIP3   OH218266   2.906   4.831   4.887 -0.3658 -0.7924  0.2416
 6087TIP3    H118267   2.832   4.770   4.881  0.5994 -1.9795  0.1676
 6087TIP3    H218268   2.892   4.893   4.815 -1.6837 -0.5237  0.6916
 6088TIP3   OH218269   3.535   3.124   2.319  0.6086 -0.2207  0.0784
 6088TIP3    H118270   3.526   3.185   2.247  0.7369 -0.7670 -0.4084
 6088TIP3    H218271   3.565   3.177   2.393  0.8092  0.2802 -0.3615
 6089TIP3   OH218272   4.327   4.143   0.598  0.3690  0.5550 -0.2806
 6089TIP3    H118273   4.297   4.071   0.653 -0.2608  0.4757 -0.7131
 6089TIP3    H218274   4.296   4.222   0.642 -2.0121  0.4227 -1.5608
 6090TIP3   OH218275   1.016   1.179   0.696 -0.6777  0.1976 -0.6347
 6090TIP3    H118276   1.029   1.209   0.606 -0.4223  0.8739 -0.3816
 6090TIP3    H218277   0.984   1.257   0.743  0.4438  0.2127  0.1451
 6091TIP3   OH218278   5.409   3.323   1.896 -0.2670  0.0677 -0.3174
 6091TIP3    H118279   5.474   3.329   1.826 -0.9526  1.1566 -0.8940
 6091TIP3    H218280   5.349   3.253   1.867  0.9759 -1.3995  0.5344
 6092TIP3   OH218281   1.217   4.072   0.806 -0.0435  0.2092 -0.4722
 6092TIP3    H118282   1.281   4.045   0.741  0.6275  0.5278  0.0418
 6092TIP3    H218283   1.183   4.156   0.773 -0.9273 -0.4326 -1.2382
 6093TIP3   OH218284   2.611   4.415   2.720  0.4371  0.0188  0.0669
 6093TIP3    H118285   2.536   4.366   2.754 -0.5787  2.0340  0.9069
 6093TIP3    H218286   2.674   4.348   2.694 -1.3342 -1.7299  0.0573
 6094TIP3   OH218287   2.237   4.471   3.935  0.1731  0.0330 -0.2441
 6094TIP3    H118288   2.244   4.560   3.901  1.1192  0.3320  0.6877
 6094TIP3    H218289   2.157   4.471   3.987  1.1454  0.9155  1.3308
 6095TIP3   OH218290   1.355   2.140   1.871  0.5543  0.1566  0.3641
 6095TIP3    H118291   1.303   2.060   1.858  2.0848 -0.4260 -4.2212
 6095TIP3    H218292   1.291   2.211   1.866 -0.7338 -0.5941  3.7130
 6096TIP3   OH218293   1.900   0.741   4.247 -0.7876  0.0221 -0.0547
 6096TIP3    H118294   1.831   0.779   4.302 -0.4730  0.9080 -0.2554
 6096TIP3    H218295   1.954   0.815   4.221 -0.5032 -0.4788 -0.9634
 6097TIP3   OH218296  -0.014   2.923   1.510 -0.2701 -0.3256  0.3551
 6097TIP3    H118297   0.062   2.956   1.558  0.3880 -0.2048 -0.7481
 6097TIP3    H218298  -0.007   2.828   1.518  0.5177 -0.3537 -0.4960
 6098TIP3   OH218299   5.597   2.806   2.708 -0.0364 -0.2019 -0.3519
 6098TIP3    H118300   5.575   2.886   2.660  3.9702  0.9589 -0.6289
 6098TIP3    H218301   5.587   2.736   2.644  1.2178  0.7965 -1.7166
 6099TIP3   OH218302   4.144   5.522   3.072  0.7910 -0.2041  0.5755
 6099TIP3    H118303   4.053   5.546   3.086  1.2760  4.0784 -1.7846
 6099TIP3    H218304   4.189   5.552   3.152  0.2856 -1.8040  1.4983
 6100TIP3   OH218305   6.190   2.760   0.582 -0.3173 -0.8744 -0.5118
 6100TIP3    H118306   6.100   2.744   0.611  0.3687 -1.8789  1.2009
 6100TIP3    H218307   6.213   2.844   0.622 -0.1849 -1.0572 -0.2086
 6101TIP3   OH218308   2.872   1.176   3.314 -0.8159  0.2587  0.2170
 6101TIP3    H118309   2.806   1.202   3.250 -1.2613 -0.0482  0.5493
 6101TIP3    H218310   2.952   1.221   3.286 -1.0926  0.3945 -0.3557
 6102TIP3   OH218311   0.645   2.661   4.935  0.1787  0.3094 -0.2067
 6102TIP3    H118312   0.733   2.657   4.970  0.6492 -0.9239 -1.4359
 6102TIP3    H218313   0.596   2.714   4.998  1.6065  0.4066  0.8622
 6103TIP3   OH218314   2.220   5.054   4.528 -0.3379 -0.0183  0.0375
 6103TIP3    H118315   2.214   4.960   4.513 -1.1767 -0.1015  0.8353
 6103TIP3    H218316   2.156   5.072   4.597 -0.7078  1.2468 -0.5993
 6104TIP3   OH218317   5.134   0.813   2.564 -0.2132 -0.3728 -0.0819
 6104TIP3    H118318   5.103   0.862   2.488  0.3049 -2.5630 -1.7896
 6104TIP3    H218319   5.227   0.835   2.571 -0.7416  1.7071  1.5050
 6105TIP3   OH218320   5.640   1.021   2.773  0.0827 -0.2640  0.0377
 6105TIP3    H118321   5.601   0.951   2.824  0.3537  0.5912  1.4887
 6105TIP3    H218322   5.638   1.097   2.831  0.4075  0.7607 -1.2404
 6106TIP3   OH218323   4.777   3.317   1.233 -0.5435  0.0559 -0.7546
 6106TIP3    H118324   4.838   3.382   1.267 -0.4585  0.8543 -2.3443
 6106TIP3    H218325   4.772   3.250   1.302 -0.8174  1.8171  1.0441
 6107TIP3   OH218326   4.585   4.928   3.118 -0.2103 -0.2866  0.3471
 6107TIP3    H118327   4.636   4.938   3.038 -1.9862  0.0738 -0.7741
 6107TIP3    H218328   4.541   4.843   3.108 -2.0443  0.6678 -0.0379
 6108TIP3   OH218329   1.828   0.812   0.330  0.0674 -0.1610 -0.1533
 6108TIP3    H118330   1.904   0.850   0.286  0.6625  0.9333  1.7072
 6108TIP3    H218331   1.839   0.718   0.319  0.8826  0.0312 -1.1862
 6109TIP3   OH218332   3.597   5.828   1.492 -0.2380 -0.3946  0.1149
 6109TIP3    H118333   3.567   5.830   1.401 -0.8335 -0.9024  0.2897
 6109TIP3    H218334   3.516   5.832   1.543  0.1337  1.6868  0.6660
 6110TIP3   OH218335   0.828   0.465   3.335  0.1049 -0.0705 -0.3199
 6110TIP3    H118336   0.758   0.487   3.396  0.2861  0.0678 -0.1599
 6110TIP3    H218337   0.812   0.519   3.258 -1.1363 -1.5045 -1.1168
 6111TIP3   OH218338   1.025   4.706   2.436 -0.1488  0.0535  0.3340
 6111TIP3    H118339   1.093   4.691   2.502  0.0232  0.9043  0.3700
 6111TIP3    H218340   0.969   4.774   2.474  0.4114  1.1410 -0.7040
 6112TIP3   OH218341   5.965   4.027   2.818  0.4206  0.1788 -0.9469
 6112TIP3    H118342   5.994   4.099   2.762  0.5479  0.8432 -0.0511
 6112TIP3    H218343   5.889   3.991   2.773  0.1273  1.1262 -1.2387
 6113TIP3   OH218344   1.166   4.132   2.642 -0.6682  0.0181  0.6810
 6113TIP3    H118345   1.257   4.157   2.656 -0.4898 -1.4894  2.4136
 6113TIP3    H218346   1.170   4.058   2.582 -0.6370 -0.9342  1.8386
 6114TIP3   OH218347   2.401   5.886   4.815  0.4680 -0.1107  0.2267
 6114TIP3    H118348   2.424   5.979   4.814  0.3800 -0.0916 -0.6650
 6114TIP3    H218349   2.408   5.859   4.724 -4.1774  0.1826 -0.4434
 6115TIP3   OH218350   0.827   5.751   3.454 -0.0408 -0.2068 -0.5469
 6115TIP3    H118351   0.751   5.707   3.491 -1.5374  1.0446 -1.9640
 6115TIP3    H218352   0.877   5.681   3.412 -1.2003 -0.8580 -0.8753
 6116TIP3   OH218353   3.695   5.978   2.296 -0.4731  0.1431  0.6947
 6116TIP3    H118354   3.726   6.050   2.352  3.1577  0.3271 -1.2330
 6116TIP3    H218355   3.690   5.903   2.355 -0.8414  1.1764  2.0432
 6117TIP3   OH218356   2.499   2.985   1.853 -0.5899  0.6866 -0.2660
 6117TIP3    H118357   2.496   2.890   1.839  1.2878  0.4595  0.5158
 6117TIP3    H218358   2.501   3.022   1.765 -2.2538  0.0854 -0.5950
 6118TIP3   OH218359   2.057   0.422   2.796 -0.0247  0.3202  0.0150
 6118TIP3    H118360   2.006   0.447   2.873 -0.9436  0.6537 -0.6863
 6118TIP3    H218361   2.025   0.335   2.772 -0.5098  0.6630 -0.6165
 6119TIP3   OH218362   3.003   2.096   0.706 -0.3356 -0.0477  0.0376
 6119TIP3    H118363   2.979   2.171   0.760  0.6862  1.0577 -0.9638
 6119TIP3    H218364   3.072   2.130   0.649  0.0579 -1.7302 -0.5341
 6120TIP3   OH218365   4.899   1.652   4.373  0.2872 -0.1888  0.5501
 6120TIP3    H118366   4.866   1.603   4.298  1.8218 -0.7405  0.1927
 6120TIP3    H218367   4.925   1.584   4.436 -0.4694  0.2540  1.3513
 6121TIP3   OH218368   1.527   2.879   4.407  0.1995 -0.6913 -0.1889
 6121TIP3    H118369   1.534   2.959   4.459  1.7173 -0.6777 -0.3463
 6121TIP3    H218370   1.434   2.869   4.390  0.0271  1.5429 -0.9069
 6122TIP3   OH218371   4.984   0.985   0.098  0.3126 -0.0069  0.0446
 6122TIP3    H118372   4.907   0.952   0.144  0.1607 -0.1758 -0.3298
 6122TIP3    H218373   5.058   0.958   0.153  0.2656 -1.7588 -0.6943
 6123TIP3   OH218374   3.916   0.014   2.005  0.2702  0.1055 -0.0660
 6123TIP3    H118375   4.008  -0.007   1.990  0.5953  1.8780 -0.8309
 6123TIP3    H218376   3.917   0.077   2.076 -0.2972  0.5099 -0.4047
 6124TIP3   OH218377   1.610   2.147   3.012  0.4543 -0.2131 -0.0354
 6124TIP3    H118378   1.665   2.149   3.090  1.7240  0.7833 -0.9209
 6124TIP3    H218379   1.661   2.192   2.945 -0.3153 -1.6187 -1.6441
 6125TIP3   OH218380   1.282   1.892   1.369  0.4818  0.3228 -0.7726
 6125TIP3    H118381   1.347   1.923   1.433  0.3521 -0.3318 -0.3118
 6125TIP3    H218382   1.289   1.954   1.296  0.5007  1.2008 -0.0467
 6126TIP3   OH218383   2.500   5.598   1.656  0.3849  0.0801 -0.0668
 6126TIP3    H118384   2.453   5.520   1.625  0.5915 -0.2351  0.4040
 6126TIP3    H218385   2.443   5.635   1.723  1.4779 -1.1748  1.6238
 6127TIP3   OH218386   5.710   3.486   2.275  0.3532 -1.1399 -0.2021
 6127TIP3    H118387   5.697   3.413   2.215 -2.6150 -1.1134  0.2421
 6127TIP3    H218388   5.684   3.451   2.361 -1.3331  0.4005 -0.0115
 6128TIP3   OH218389   1.500   2.971   2.249  0.7373 -0.1452 -0.1801
 6128TIP3    H118390   1.575   2.948   2.194  1.3916  0.0493  0.6076
 6128TIP3    H218391   1.537   3.029   2.316  0.1163 -0.9560  0.8989
 6129TIP3   OH218392   3.284   2.376   2.723 -0.0122  0.2402  0.6835
 6129TIP3    H118393   3.239   2.330   2.652 -0.3602  1.7332 -0.0940
 6129TIP3    H218394   3.213   2.409   2.779 -0.0774  3.5697 -1.1432
 6130TIP3   OH218395   6.169   3.029   0.625  0.5420 -0.5781 -0.5548
 6130TIP3    H118396   6.206   3.097   0.569 -0.5337  1.0197  0.6204
 6130TIP3    H218397   6.093   2.997   0.576  0.8984 -0.7795 -0.9907
 6131TIP3   OH218398   0.084   2.371   1.569  0.2192 -0.5710  0.0069
 6131TIP3    H118399   0.117   2.391   1.656  2.8740 -1.7216 -0.6316
 6131TIP3    H218400   0.061   2.278   1.573 -0.7645 -0.3515 -0.2377
 6132TIP3   OH218401   1.246   1.924   1.750 -0.1821  0.4391  0.2310
 6132TIP3    H118402   1.182   1.935   1.680 -0.3520  0.7129  0.4222
 6132TIP3    H218403   1.325   1.892   1.707 -0.2792  0.6229 -0.0837
 6133TIP3   OH218404   1.000   3.936   2.777 -0.1514 -0.2230  0.0723
 6133TIP3    H118405   1.081   3.982   2.756 -0.1926 -0.4077 -0.5074
 6133TIP3    H218406   0.930   3.999   2.758 -0.2085 -0.5235 -0.7401
 6134TIP3   OH218407   1.090   1.001   4.490 -0.3252  0.0279 -0.4950
 6134TIP3    H118408   1.128   0.928   4.538  0.4628  0.5118 -0.3602
 6134TIP3    H218409   1.110   1.078   4.543 -4.3372  0.0521  1.3368
 6135TIP3   OH218410   5.167   2.464   5.147  1.0733  0.3622  0.4905
 6135TIP3    H118411   5.211   2.414   5.078  1.9862  1.8125 -0.0252
 6135TIP3    H218412   5.165   2.404   5.222 -0.0103 -1.2740 -0.7762
 6136TIP3   OH218413   3.251   5.717   3.802 -0.3459 -0.4517 -0.0827
 6136TIP3    H118414   3.157   5.727   3.783 -0.2643 -0.6433 -0.5925
 6136TIP3    H218415   3.268   5.624   3.788 -0.1739 -0.5061  0.4598
 6137TIP3   OH218416   1.714   5.007   4.040 -0.1823 -0.4740  0.5011
 6137TIP3    H118417   1.745   5.079   3.985  0.5285 -1.3138 -0.2468
 6137TIP3    H218418   1.657   4.956   3.982  0.8261 -1.5456  0.4158
 6138TIP3   OH218419   1.811   1.483   0.360  0.7356  0.5919 -0.2681
 6138TIP3    H118420   1.900   1.474   0.395  1.4940 -0.7813 -2.3421
 6138TIP3    H218421   1.795   1.577   0.360  3.6173  1.2538 -2.9824
 6139TIP3   OH218422   0.956   4.798   1.377  0.0560 -0.3209 -0.2528
 6139TIP3    H118423   0.895   4.727   1.395  1.4083 -1.8385 -1.3872
 6139TIP3    H218424   0.938   4.824   1.287 -2.1302  2.6234  0.8567
 6140TIP3   OH218425   4.620   1.741   1.096  0.1153  0.1895 -0.2112
 6140TIP3    H118426   4.626   1.686   1.018  0.2315  0.7238 -0.5877
 6140TIP3    H218427   4.547   1.801   1.077  1.9851  2.2830 -1.2055
 6141TIP3   OH218428   4.043   2.656   1.849  0.1754 -0.2738 -0.0359
 6141TIP3    H118429   4.087   2.582   1.892  0.7339  0.0761  0.0091
 6141TIP3    H218430   3.951   2.648   1.875 -0.1317 -1.9999 -1.5067
 6142TIP3   OH218431   5.085   2.456   2.019  0.1587  0.2941 -0.3304
 6142TIP3    H118432   5.120   2.450   1.930  2.4311  0.0866  0.4980
 6142TIP3    H218433   5.100   2.369   2.056 -0.1108  0.5827  0.4677
 6143TIP3   OH218434   3.207   1.078   3.362 -0.3145  0.4447 -0.0781
 6143TIP3    H118435   3.206   1.020   3.286 -0.9412  0.3839 -0.0318
 6143TIP3    H218436   3.203   1.018   3.437  1.5917  0.4367  0.0662
 6144TIP3   OH218437   1.540   5.655   4.172 -0.1780 -0.6473 -0.9654
 6144TIP3    H118438   1.609   5.701   4.220 -0.5943  0.0718 -1.0400
 6144TIP3    H218439   1.577   5.569   4.153  0.2748 -0.6765 -0.0163
 6145TIP3   OH218440   4.655   4.857   1.658 -0.2273 -0.1645  0.1704
 6145TIP3    H118441   4.625   4.935   1.706  0.1844  0.3848 -0.4507
 6145TIP3    H218442   4.747   4.875   1.640 -0.2389 -0.6182 -0.3427
 6146TIP3   OH218443   3.335   1.147   2.005 -0.1078 -0.3460  0.1478
 6146TIP3    H118444   3.308   1.189   2.087 -0.6108  1.5084 -0.9155
 6146TIP3    H218445   3.431   1.144   2.010 -0.0858  0.5194  0.4650
 6147TIP3   OH218446   4.036   5.364   1.813 -0.5167  0.3635  0.1115
 6147TIP3    H118447   3.942   5.359   1.795 -0.9134 -0.2343  2.0478
 6147TIP3    H218448   4.054   5.285   1.864  0.5242  1.5944  1.7439
 6148TIP3   OH218449   6.281   1.497   0.655  0.1659 -0.1424  0.1607
 6148TIP3    H118450   6.303   1.588   0.634 -2.2596  0.1237 -1.8173
 6148TIP3    H218451   6.224   1.504   0.732 -0.3607  0.0730 -0.2433
 6149TIP3   OH218452   3.462   0.913   0.800  0.5015 -0.1116  0.1823
 6149TIP3    H118453   3.369   0.921   0.779  0.0718 -0.5357  1.7791
 6149TIP3    H218454   3.476   0.819   0.809  1.1989 -0.0758 -0.4291
 6150TIP3   OH218455   6.233   3.230   0.431  0.0998 -0.6223  0.0937
 6150TIP3    H118456   6.265   3.284   0.503  1.5110 -0.6820 -0.4561
 6150TIP3    H218457   6.304   3.230   0.367 -1.6876  0.7188 -2.0318
 6151TIP3   OH218458   4.334   5.886   1.579 -0.2846 -0.6539 -0.0763
 6151TIP3    H118459   4.316   5.797   1.547  0.6837 -0.7339 -0.4434
 6151TIP3    H218460   4.363   5.874   1.669 -1.8285 -0.5411  0.4537
 6152TIP3   OH218461   4.632   5.872   0.070  0.5339 -0.5455  0.3415
 6152TIP3    H118462   4.686   5.948   0.094 -2.5964  1.2016  2.5463
 6152TIP3    H218463   4.596   5.895  -0.015  2.3039 -1.2605 -0.6584
 6153TIP3   OH218464   3.718   4.666   2.782 -0.1379  0.0649  0.5251
 6153TIP3    H118465   3.670   4.705   2.710 -2.5315 -1.9460  0.8772
 6153TIP3    H218466   3.688   4.714   2.860  1.9113  1.7677  0.3261
 6154TIP3   OH218467   3.179   2.460   3.311 -0.4462 -0.4041  0.1018
 6154TIP3    H118468   3.133   2.543   3.325  0.4345 -0.2449  2.5718
 6154TIP3    H218469   3.186   2.421   3.399 -0.5993 -2.9862 -0.9472
 6155TIP3   OH218470   2.937   2.010   4.616 -0.2774 -0.0708  0.2914
 6155TIP3    H118471   3.009   2.053   4.661  0.9804 -0.1254 -1.5745
 6155TIP3    H218472   2.890   2.080   4.573  0.3522 -0.2931 -0.7872
 6156TIP3   OH218473   2.882   0.505   2.897  0.2099 -0.4856 -0.6914
 6156TIP3    H118474   2.883   0.439   2.827 -0.4692  0.0298 -1.2006
 6156TIP3    H218475   2.799   0.551   2.885 -0.0882 -0.6328  0.7018
 6157TIP3   OH218476   0.411   0.195   2.532  0.0621  0.1125  0.1097
 6157TIP3    H118477   0.462   0.234   2.461 -0.2712 -2.3871 -1.6617
 6157TIP3    H218478   0.323   0.187   2.496 -0.1931 -0.9177  0.9127
 6158TIP3   OH218479   1.553   1.100   4.484 -0.3919  0.0001 -0.3285
 6158TIP3    H118480   1.623   1.039   4.506 -1.2516 -0.1780  2.1956
 6158TIP3    H218481   1.504   1.055   4.414  0.8266 -0.7491 -0.7363
 6159TIP3   OH218482   4.808   5.937   0.747  0.0952 -0.0173  0.9485
 6159TIP3    H118483   4.772   6.023   0.768 -3.7208 -0.7306 -1.6221
 6159TIP3    H218484   4.780   5.880   0.818 -1.8872 -0.0367  0.2078
 6160TIP3   OH218485   5.997   2.750   2.613  0.1695  0.8107  0.1187
 6160TIP3    H118486   5.933   2.695   2.567  0.9585 -0.2098  0.1881
 6160TIP3    H218487   5.983   2.838   2.578 -1.2446  0.6125  0.1259
 6161TIP3   OH218488   2.530   0.261   2.946  0.3137 -0.9422 -0.8602
 6161TIP3    H118489   2.613   0.274   2.899  1.2843 -1.2744  0.7033
 6161TIP3    H218490   2.498   0.176   2.914  0.1212 -0.4266 -2.0950
 6162TIP3   OH218491   0.250   4.540   0.815 -0.0564 -0.3581 -0.7101
 6162TIP3    H118492   0.189   4.585   0.872  0.9385  0.7146 -0.4592
 6162TIP3    H218493   0.225   4.447   0.821 -1.0560 -0.0509  0.0827
 6163TIP3   OH218494   2.020   3.528   3.747  0.0886  0.2696 -0.3211
 6163TIP3    H118495   1.962   3.452   3.738 -0.1841  0.6758 -2.5870
 6163TIP3    H218496   1.963   3.598   3.779 -1.0076  0.8604 -3.1861
 6164TIP3   OH218497   2.071   5.840   0.644 -0.8763 -0.0441 -0.6581
 6164TIP3    H118498   2.129   5.851   0.569 -0.2066 -2.2058 -0.5139
 6164TIP3    H218499   1.992   5.889   0.621  0.0034  0.8068 -1.9744
 6165TIP3   OH218500   5.916   4.270   0.311  0.1943  0.6871  0.4673
 6165TIP3    H118501   5.970   4.341   0.347 -2.8595  3.6371 -0.1514
 6165TIP3    H218502   5.928   4.276   0.216 -0.8495  1.1629  0.3438
 6166TIP3   OH218503   2.848   5.014   3.194 -0.4278  0.2612 -0.1588
 6166TIP3    H118504   2.777   5.065   3.232  0.0441  1.2596 -0.6006
 6166TIP3    H218505   2.814   4.924   3.192 -1.2221  0.5261  0.7217
 6167TIP3   OH218506   6.129   2.249   1.324 -0.1380  0.9518  0.0351
 6167TIP3    H118507   6.037   2.223   1.320  0.4006 -1.1151 -0.2515
 6167TIP3    H218508   6.164   2.227   1.238  0.4666  2.4456 -0.1222
 6168TIP3   OH218509   2.930   3.527   1.842  0.2006  0.3069  0.2817
 6168TIP3    H118510   2.865   3.572   1.897 -2.1681  0.7490 -2.6359
 6168TIP3    H218511   2.973   3.598   1.794  1.3990 -0.1454  0.6563
 6169TIP3   OH218512   5.954   4.106   1.489  0.1875 -0.3400  0.2031
 6169TIP3    H118513   6.026   4.052   1.457 -0.9204 -0.4828 -2.3111
 6169TIP3    H218514   5.930   4.067   1.573  1.1729 -2.0658 -0.2637
 6170TIP3   OH218515   3.791   3.005   2.285  0.1729 -0.1597  0.0401
 6170TIP3    H118516   3.799   2.965   2.198 -0.5917 -0.4237  0.0835
 6170TIP3    H218517   3.705   3.047   2.284 -0.6335 -1.6477  1.2543
 6171TIP3   OH218518   2.882   3.208   4.287  0.4666  0.1397  0.3672
 6171TIP3    H118519   2.860   3.146   4.357 -1.6024 -1.5855 -1.6602
 6171TIP3    H218520   2.963   3.173   4.249  0.2754 -0.3094  0.3677
 6172TIP3   OH218521   4.611   4.250   0.635  0.2575  0.2275  0.2247
 6172TIP3    H118522   4.696   4.206   0.631  1.3596  2.3547 -1.5832
 6172TIP3    H218523   4.549   4.184   0.603  1.3095 -1.1221  0.8709
 6173TIP3   OH218524   5.295   5.977   4.587 -0.0205  0.0664 -0.7365
 6173TIP3    H118525   5.274   6.038   4.658 -1.6254 -1.5579  0.3026
 6173TIP3    H218526   5.359   5.917   4.626  0.5517  0.3038 -1.3080
 6174TIP3   OH218527   1.573   1.050   5.201 -0.2894  0.0045 -0.1813
 6174TIP3    H118528   1.509   1.108   5.158 -1.0581 -0.7884 -0.1406
 6174TIP3    H218529   1.611   0.999   5.129 -1.1206 -0.8795 -0.0190
 6175TIP3   OH218530   4.882   4.600   1.546 -0.4773 -0.6067  0.1519
 6175TIP3    H118531   4.917   4.645   1.469  1.0810  0.8047  1.5939
 6175TIP3    H218532   4.828   4.530   1.510 -0.2684  0.3402 -2.2096
 6176TIP3   OH218533   4.872   3.754   3.501 -0.0249  0.1611  0.3010
 6176TIP3    H118534   4.805   3.716   3.558 -0.4640  0.6830  0.1416
 6176TIP3    H218535   4.878   3.694   3.428 -1.1210  0.6600 -0.2315
 6177TIP3   OH218536   2.412   4.237   4.742 -0.2319  0.3859 -0.2742
 6177TIP3    H118537   2.472   4.185   4.689 -0.7109  0.0822 -0.5270
 6177TIP3    H218538   2.405   4.190   4.825 -2.8366 -1.5784 -1.4509
 6178TIP3   OH218539   1.399   0.576   1.508 -0.1837  0.3362 -0.6439
 6178TIP3    H118540   1.458   0.527   1.566 -0.7873  0.5758  0.1927
 6178TIP3    H218541   1.453   0.600   1.433 -0.3017 -3.1392 -1.9873
 6179TIP3   OH218542   4.896   4.581   0.057  0.1748  0.2399 -0.0085
 6179TIP3    H118543   4.920   4.489   0.070  1.3287 -0.5661 -5.4308
 6179TIP3    H218544   4.977   4.622   0.027 -0.8739  2.4875  0.0549
 6180TIP3   OH218545   2.908   4.741   1.240  0.0241 -0.4807  0.5018
 6180TIP3    H118546   2.907   4.836   1.252 -0.3514 -0.4136 -0.0360
 6180TIP3    H218547   2.994   4.722   1.203  0.5607 -0.5012  1.6872
 6181TIP3   OH218548   1.577   1.848   0.720  0.1806 -0.0619  0.4214
 6181TIP3    H118549   1.619   1.763   0.703 -0.2732 -0.1663 -0.2214
 6181TIP3    H218550   1.534   1.870   0.638  0.5296  0.9417  0.4987
 6182TIP3   OH218551   1.545   1.679   4.761 -0.0293  0.0089 -0.0458
 6182TIP3    H118552   1.471   1.634   4.719 -1.1120  2.0295 -0.4365
 6182TIP3    H218553   1.505   1.755   4.802  1.7100  0.5330  0.7244
 6183TIP3   OH218554   1.665   4.575   3.509  0.0259 -0.1533 -0.1938
 6183TIP3    H118555   1.624   4.543   3.429  0.8906  1.9852 -1.5983
 6183TIP3    H218556   1.724   4.645   3.480  1.2917 -0.0934  2.1955
 6184TIP3   OH218557   2.071   5.273   3.175  0.2840  0.4971  0.2273
 6184TIP3    H118558   1.984   5.285   3.213  0.5354  1.5112  0.5180
 6184TIP3    H218559   2.084   5.349   3.119  0.7319  0.0222 -0.3314
 6185TIP3   OH218560   3.079   1.325   4.178 -0.7923 -0.1894 -0.0255
 6185TIP3    H118561   3.145   1.280   4.231  0.9032  0.6339 -1.3436
 6185TIP3    H218562   3.039   1.255   4.126  0.5852 -0.4667 -0.7709
 6186TIP3   OH218563   2.130   3.156   3.125  0.2390  0.3264 -0.1568
 6186TIP3    H118564   2.127   3.232   3.067 -0.2376 -0.8959 -1.8188
 6186TIP3    H218565   2.039   3.126   3.129  0.5993 -0.8663 -0.5477
 6187TIP3   OH218566   0.530   0.898   4.176  0.4886 -0.7166  0.5107
 6187TIP3    H118567   0.466   0.969   4.185  2.3683  1.0759  0.5377
 6187TIP3    H218568   0.528   0.854   4.262 -0.0552 -0.1384  0.8064
 6188TIP3   OH218569   3.641   3.140   1.673  0.1992  0.1891  0.6288
 6188TIP3    H118570   3.627   3.193   1.595 -0.8467  1.4826  1.6268
 6188TIP3    H218571   3.560   3.090   1.682 -0.0242  0.6391  1.2783
 6189TIP3   OH218572   0.747   4.158   4.171  0.1523  0.1746 -0.4422
 6189TIP3    H118573   0.687   4.228   4.149  1.5554  1.5259 -0.1671
 6189TIP3    H218574   0.753   4.159   4.266 -0.7457 -1.1659 -0.3415
 6190TIP3   OH218575   0.834   4.420   4.470  0.5640  0.4128  0.1386
 6190TIP3    H118576   0.922   4.383   4.479 -0.6311 -3.7525 -2.6134
 6190TIP3    H218577   0.784   4.381   4.541  0.5553  1.7428  0.8998
 6191TIP3   OH218578   5.432   5.121   3.998  0.2737 -0.5915 -0.4992
 6191TIP3    H118579   5.480   5.052   4.043  0.1532 -1.0592 -1.0782
 6191TIP3    H218580   5.387   5.076   3.927  1.7761  0.3668 -2.1224
 6192TIP3   OH218581   1.049   0.616   4.792 -0.2322 -0.7501  0.0766
 6192TIP3    H118582   1.074   0.602   4.883 -0.7767 -1.3154  0.1486
 6192TIP3    H218583   1.000   0.698   4.792  0.9705 -0.0015  0.0465
 6193TIP3   OH218584   1.700   2.573   3.057 -0.2346  0.2252 -0.4630
 6193TIP3    H118585   1.634   2.607   2.997  0.3543 -0.2125 -1.3778
 6193TIP3    H218586   1.714   2.483   3.029  0.4281  0.1709  0.0076
 6194TIP3   OH218587   4.928   4.799   4.787  0.9192  0.0939 -0.5338
 6194TIP3    H118588   4.838   4.789   4.819  0.3690  0.5014 -1.8813
 6194TIP3    H218589   4.925   4.878   4.733  2.7697  1.8105  1.6675
 6195TIP3   OH218590   3.935   1.111   0.023  0.4766 -0.5717 -0.0537
 6195TIP3    H118591   3.876   1.089   0.095 -0.0535 -1.0319 -0.6187
 6195TIP3    H218592   3.913   1.202   0.001 -0.1055 -0.7674 -0.3203
 6196TIP3   OH218593   3.534   5.577   2.318  0.9860 -0.5638 -0.5294
 6196TIP3    H118594   3.596   5.510   2.291  1.8513 -1.6540  3.4770
 6196TIP3    H218595   3.587   5.642   2.365 -0.3933  0.6632 -0.5783
 6197TIP3   OH218596   0.813   0.035   4.484 -0.5166 -0.1580 -0.1401
 6197TIP3    H118597   0.819   0.130   4.474  1.3174 -0.3356 -1.0564
 6197TIP3    H218598   0.898   0.009   4.520 -1.6543 -1.2867  1.9294
 6198TIP3   OH218599   3.492   2.186   3.613 -0.0494 -0.5150  0.2122
 6198TIP3    H118600   3.525   2.258   3.668  3.3175 -2.2624  0.7028
 6198TIP3    H218601   3.514   2.212   3.524 -3.4829  1.2622 -0.3016
 6199TIP3   OH218602   5.060   4.741   0.279 -0.1856  0.5065 -0.4892
 6199TIP3    H118603   5.001   4.813   0.254 -0.8454  0.5828  1.1382
 6199TIP3    H218604   5.006   4.686   0.336  1.4668  0.8993  1.5545
 6200TIP3   OH218605   2.825   2.852   1.207  0.4466  0.4836  0.0212
 6200TIP3    H118606   2.859   2.765   1.224  1.1026  0.5833 -0.7392
 6200TIP3    H218607   2.895   2.911   1.235  0.0074  0.7756  0.5293
 6201TIP3   OH218608   1.276   0.775   0.630 -0.6529 -0.1946  1.1895
 6201TIP3    H118609   1.246   0.735   0.711  2.6879 -0.8278  2.2790
 6201TIP3    H218610   1.248   0.715   0.561 -0.1872 -1.7552  2.3060
 6202TIP3   OH218611   4.661   1.501   1.689 -0.0153  0.0160 -0.1603
 6202TIP3    H118612   4.662   1.438   1.761  0.6505  1.0580  0.8004
 6202TIP3    H218613   4.622   1.455   1.616  0.1353 -1.3801  0.6129
 6203TIP3   OH218614   5.651   0.929   5.078 -0.1250  0.3221 -0.5764
 6203TIP3    H118615   5.648   0.919   5.174  0.2775 -0.9949 -0.6904
 6203TIP3    H218616   5.581   0.873   5.046  0.1502  0.2688 -1.0928
 6204TIP3   OH218617   1.404   0.450   4.653 -0.3282  0.3005  0.1934
 6204TIP3    H118618   1.460   0.384   4.613  0.4991  1.7995 -1.2111
 6204TIP3    H218619   1.321   0.444   4.606  0.1399  1.0273 -0.7581
 6205TIP3   OH218620   2.900   1.867   0.435 -0.4528 -1.6213 -0.4684
 6205TIP3    H118621   2.931   1.836   0.520 -2.3080  0.3281  1.0383
 6205TIP3    H218622   2.980   1.882   0.384  0.6529 -4.7324  0.1068
 6206TIP3   OH218623   3.559   0.388   1.554 -0.9369 -0.1042 -0.2627
 6206TIP3    H118624   3.562   0.472   1.599 -0.9243 -0.5940  0.6609
 6206TIP3    H218625   3.606   0.404   1.472 -0.0817  0.5285  0.3278
 6207TIP3   OH218626   3.866   2.970   1.576  0.0977 -0.4151 -0.4748
 6207TIP3    H118627   3.781   3.007   1.600  0.3520 -0.4742  0.5517
 6207TIP3    H218628   3.917   3.045   1.546  0.3929 -0.0114  0.9742
 6208TIP3   OH218629   2.598   1.589   3.362  0.5017  0.1190 -0.6280
 6208TIP3    H118630   2.677   1.591   3.306  0.5357 -1.1138 -0.6314
 6208TIP3    H218631   2.527   1.565   3.302  0.2263  0.5435 -0.4805
 6209TIP3   OH218632   3.852   1.281   5.184 -0.2756 -0.5678  0.6436
 6209TIP3    H118633   3.940   1.317   5.175  0.1251 -1.0320  2.4417
 6209TIP3    H218634   3.858   1.194   5.143 -0.1989 -0.1982 -0.1586
 6210TIP3   OH218635   2.713   2.813   4.502  0.3704 -0.0188 -0.2183
 6210TIP3    H118636   2.762   2.776   4.430  1.2719  0.7926 -0.0384
 6210TIP3    H218637   2.642   2.750   4.517 -0.2837  0.1492 -2.2708
 6211TIP3   OH218638   1.686   3.378   0.534 -0.2062  0.4579  0.1953
 6211TIP3    H118639   1.697   3.473   0.527 -0.6048  0.6373  1.6435
 6211TIP3    H218640   1.596   3.366   0.562 -0.6917 -0.4755 -1.5904
 6212TIP3   OH218641   4.340   5.369   3.766  0.0430  0.1010 -0.1281
 6212TIP3    H118642   4.315   5.326   3.848  0.0296 -0.9874 -0.6819
 6212TIP3    H218643   4.401   5.309   3.725 -0.1911  0.4785 -1.0712
 6213TIP3   OH218644   6.102   3.452   0.971 -0.3138  0.1541  0.0685
 6213TIP3    H118645   6.086   3.541   0.941 -0.1534  0.6264  1.3302
 6213TIP3    H218646   6.136   3.406   0.894  2.5436  1.9696  0.1045
 6214TIP3   OH218647   4.367   3.232   2.995  0.5612  0.0037 -0.0173
 6214TIP3    H118648   4.324   3.296   2.937  0.0256  1.2533  1.6759
 6214TIP3    H218649   4.457   3.230   2.964  0.3372  0.7695 -0.7811
 6215TIP3   OH218650   3.507   1.924   2.114 -0.2501  0.3052  0.0408
 6215TIP3    H118651   3.480   2.000   2.166 -0.0217  0.8050 -0.5613
 6215TIP3    H218652   3.487   1.849   2.170  0.8376  0.8690  1.2306
 6216TIP3   OH218653   2.816   3.160   0.305  0.0096 -0.2217 -0.0492
 6216TIP3    H118654   2.728   3.198   0.308 -0.9938 -2.3962  0.3044
 6216TIP3    H218655   2.818   3.101   0.380  0.9226 -1.8965 -1.3336
 6217TIP3   OH218656   3.004   3.330   1.304 -0.5449 -0.4154  0.2913
 6217TIP3    H118657   2.920   3.362   1.271 -0.7402  0.2162  1.3622
 6217TIP3    H218658   3.013   3.370   1.390  1.7296  1.0764 -0.5444
 6218TIP3   OH218659   5.855   3.425   1.263  0.2857  0.2780 -0.8576
 6218TIP3    H118660   5.886   3.514   1.250 -0.8498  0.5088 -2.1549
 6218TIP3    H218661   5.920   3.370   1.219  0.9206  0.4535 -0.1606
 6219TIP3   OH218662   3.217   2.972   3.008 -0.0365 -0.1495  0.5912
 6219TIP3    H118663   3.210   2.915   2.931 -0.7818  0.7255 -0.0117
 6219TIP3    H218664   3.147   2.942   3.066 -0.2519 -0.0355  0.3942
 6220TIP3   OH218665   1.256   1.696   2.576  0.0736  0.4699 -0.6001
 6220TIP3    H118666   1.332   1.656   2.619  0.9214  2.1168 -0.4780
 6220TIP3    H218667   1.180   1.657   2.620  0.8441 -1.0047 -0.5417
 6221TIP3   OH218668   2.726   5.634   3.091  0.5126 -0.2588 -0.2875
 6221TIP3    H118669   2.756   5.725   3.102  0.3423  0.3731 -3.9059
 6221TIP3    H218670   2.634   5.642   3.066  0.7227 -1.3141 -1.4928
 6222TIP3   OH218671   0.488   4.931   2.973  0.5123  0.2758 -0.1063
 6222TIP3    H118672   0.495   4.941   2.878  1.7980  2.6198  0.1447
 6222TIP3    H218673   0.563   4.979   3.007 -0.0876 -0.2729  2.1208
 6223TIP3   OH218674   1.403   1.851   0.497 -0.0159 -0.2851  0.8246
 6223TIP3    H118675   1.355   1.918   0.449  2.0689  1.3062  0.8003
 6223TIP3    H218676   1.336   1.795   0.536 -1.7912  0.0447 -1.6030
 6224TIP3   OH218677   1.919   1.552   1.480  0.3092 -0.2409  0.5009
 6224TIP3    H118678   1.867   1.632   1.469  1.6243  0.6528  0.5256
 6224TIP3    H218679   1.955   1.560   1.569 -0.5258 -1.4841  0.9824
 6225TIP3   OH218680   6.195   2.500   1.937 -0.3601 -0.5271  0.0308
 6225TIP3    H118681   6.183   2.440   1.863 -1.3274 -0.7094  0.3155
 6225TIP3    H218682   6.236   2.577   1.899 -2.8184  0.3124 -1.1729
 6226TIP3   OH218683   3.823   1.780   2.247  0.3356  0.4373 -0.0524
 6226TIP3    H118684   3.873   1.714   2.294 -0.2053 -1.5138 -2.0783
 6226TIP3    H218685   3.857   1.864   2.281  3.6485 -0.7739 -0.0038
 6227TIP3   OH218686   0.564   4.132   5.033 -0.5420  0.2250 -0.1098
 6227TIP3    H118687   0.469   4.144   5.029 -0.4499  0.7116 -1.0262
 6227TIP3    H218688   0.575   4.039   5.052 -1.1970  0.1157 -0.2214
 6228TIP3   OH218689   2.480   4.213   0.005  0.0898 -0.8766 -0.0582
 6228TIP3    H118690   2.393   4.219  -0.035 -0.3598  0.1334  1.0325
 6228TIP3    H218691   2.466   4.169   0.088  0.3961  0.4196  0.7133
 6229TIP3   OH218692   5.464   2.316   3.622 -0.5577  0.4183 -0.2327
 6229TIP3    H118693   5.532   2.364   3.669  0.3990  0.4475 -1.5954
 6229TIP3    H218694   5.422   2.381   3.566  0.0418 -0.0891 -1.3108
 6230TIP3   OH218695   3.383   4.223   0.448  0.1062 -0.6006  0.1159
 6230TIP3    H118696   3.309   4.268   0.408  2.0575  1.9766 -0.8164
 6230TIP3    H218697   3.420   4.169   0.378 -0.3612 -1.2917  0.3778
 6231TIP3   OH218698   2.401   0.458   1.118  0.0422  0.3928 -0.1635
 6231TIP3    H118699   2.380   0.550   1.102 -1.4792  0.1356  0.2073
 6231TIP3    H218700   2.445   0.430   1.038 -0.2960  1.2035 -0.6504
 6232TIP3   OH218701   0.866   5.068   4.265  0.0679 -0.7885  0.0476
 6232TIP3    H118702   0.914   5.013   4.203  0.0361 -0.9629  0.1779
 6232TIP3    H218703   0.848   5.010   4.339 -2.7852 -1.5503 -1.1290
 6233TIP3   OH218704   5.144   0.880   0.971  0.0054  0.7577  0.3869
 6233TIP3    H118705   5.129   0.843   0.884  3.4641 -0.4112  0.1178
 6233TIP3    H218706   5.167   0.971   0.955  0.9640  0.4606 -0.0089
 6234TIP3   OH218707   5.716   4.178   2.993 -0.2792  0.4606 -0.4418
 6234TIP3    H118708   5.778   4.164   3.065  0.1275  1.3954 -0.6004
 6234TIP3    H218709   5.640   4.123   3.016  1.4735 -2.6255 -1.4172
 6235TIP3   OH218710   1.225   1.969   0.332  0.3485 -0.3368  0.0076
 6235TIP3    H118711   1.214   2.048   0.279 -1.0600  0.5653  1.5725
 6235TIP3    H218712   1.165   1.905   0.293  2.1981 -1.0431 -1.8723
 6236TIP3   OH218713   5.708   2.409   4.725 -0.3245  0.6218 -0.4581
 6236TIP3    H118714   5.653   2.350   4.673 -1.4098  1.4372 -0.2593
 6236TIP3    H218715   5.787   2.421   4.673 -0.6941  0.1110 -1.1430
 6237TIP3   OH218716   4.503   2.105   3.813  0.0749  0.0792 -0.5247
 6237TIP3    H118717   4.520   2.035   3.749 -0.2348 -0.9371  0.4769
 6237TIP3    H218718   4.416   2.084   3.847  0.0674  0.8542 -0.0679
 6238TIP3   OH218719   5.097   0.963   0.476 -0.3439 -0.1612 -0.1792
 6238TIP3    H118720   5.117   0.916   0.395 -0.0710  0.2325 -0.3380
 6238TIP3    H218721   5.168   1.025   0.487 -0.0331 -0.6615  0.7160
 6239TIP3   OH218722   1.151   4.668   1.657  0.9417  0.4756 -0.1842
 6239TIP3    H118723   1.105   4.588   1.682 -0.5584  0.7533 -1.8453
 6239TIP3    H218724   1.211   4.685   1.730 -0.8633 -0.4806  1.6303
 6240TIP3   OH218725   5.548   1.822   1.621 -0.2955 -0.1623  0.1674
 6240TIP3    H118726   5.605   1.746   1.621 -0.4925 -0.3476 -1.6917
 6240TIP3    H218727   5.601   1.891   1.663  1.0969 -0.4796 -0.9767
 6241TIP3   OH218728   2.965   4.486   2.612 -0.4039  0.6096  0.2608
 6241TIP3    H118729   2.906   4.412   2.626 -1.6752  1.7688  1.3696
 6241TIP3    H218730   2.963   4.501   2.518 -1.5179  0.3025  0.2169
 6242TIP3   OH218731   6.069   0.031   1.453  0.1441  0.2003  0.0627
 6242TIP3    H118732   6.151  -0.015   1.434 -0.8584 -1.5724 -0.1836
 6242TIP3    H218733   6.011   0.009   1.379 -1.4517 -0.9049  1.5663
 6243TIP3   OH218734   0.224   3.759   1.497  0.2764 -0.0102 -0.0221
 6243TIP3    H118735   0.194   3.681   1.448  1.3329 -0.5917  0.2410
 6243TIP3    H218736   0.176   3.832   1.456 -0.5946 -0.7621 -0.3954
 6244TIP3   OH218737   2.648   1.295   1.396 -0.0980  0.0313  0.0474
 6244TIP3    H118738   2.602   1.219   1.432 -1.0925  0.3737 -0.4442
 6244TIP3    H218739   2.653   1.278   1.302 -0.8605  0.8219 -0.1494
 6245TIP3   OH218740   3.301   0.942   4.823 -0.1076  0.5036  0.4507
 6245TIP3    H118741   3.252   0.861   4.814  1.0911 -0.1386 -0.6752
 6245TIP3    H218742   3.345   0.934   4.908 -0.4661  0.2454  0.6132
 6246TIP3   OH218743   5.135   5.254   2.524 -0.5879 -0.4300 -0.0001
 6246TIP3    H118744   5.088   5.193   2.582  0.9661 -3.0500 -1.3034
 6246TIP3    H218745   5.117   5.222   2.436 -0.4499  1.6371 -0.8228
 6247TIP3   OH218746   5.690   1.313   1.688  0.2359  0.1762 -0.3234
 6247TIP3    H118747   5.667   1.254   1.617 -0.5028  1.4258 -1.1606
 6247TIP3    H218748   5.606   1.341   1.724  0.5599 -1.4950  2.0267
 6248TIP3   OH218749   3.306   2.909   3.280 -0.5803  0.3451  0.1127
 6248TIP3    H118750   3.214   2.898   3.255 -0.5257  3.1185 -1.7124
 6248TIP3    H218751   3.308   2.990   3.329  0.5460 -1.2008  2.8197
 6249TIP3   OH218752   1.537   0.381   3.838  0.0528 -0.4256  0.2933
 6249TIP3    H118753   1.573   0.337   3.915 -0.3119 -2.3920 -0.6031
 6249TIP3    H218754   1.502   0.311   3.784  0.5299  0.8479 -1.8219
 6250TIP3   OH218755   3.488   1.505   1.408  0.1031 -0.0527 -0.1669
 6250TIP3    H118756   3.435   1.537   1.335  0.4297  0.3244 -0.2424
 6250TIP3    H218757   3.426   1.496   1.480 -0.1343  0.0218 -0.3610
 6251TIP3   OH218758   1.363   5.355   5.140 -0.0038  0.1733  0.0775
 6251TIP3    H118759   1.414   5.423   5.096 -0.2952  1.2269  1.3085
 6251TIP3    H218760   1.383   5.275   5.092 -0.7005  1.3302 -2.2806
 6252TIP3   OH218761   0.270   3.978   4.362  0.4247 -0.9695 -0.3134
 6252TIP3    H118762   0.292   3.913   4.429  1.4624 -1.3541 -0.9997
 6252TIP3    H218763   0.345   4.037   4.360 -0.4455  0.1842  0.1990
 6253TIP3   OH218764   3.733   4.075   2.224 -0.2590  0.8112  0.1581
 6253TIP3    H118765   3.790   4.133   2.174  1.0250 -0.4167  0.1286
 6253TIP3    H218766   3.646   4.092   2.190  0.2727  1.7113 -0.8246
 6254TIP3   OH218767   3.627   2.892   2.843 -0.4051 -0.2703  0.0230
 6254TIP3    H118768   3.617   2.980   2.879 -1.5157 -1.1869  2.1429
 6254TIP3    H218769   3.710   2.895   2.796 -1.3720  2.4336 -1.7229
 6255TIP3   OH218770   6.062   5.955   0.353 -0.7336 -0.3349  0.2568
 6255TIP3    H118771   6.046   5.941   0.447  1.1497 -0.6639  0.5586
 6255TIP3    H218772   5.988   6.009   0.325 -0.5713  1.0596  2.2687
 6256TIP3   OH218773   4.704   0.646   3.495  0.4911 -1.3971 -0.3246
 6256TIP3    H118774   4.623   0.695   3.478 -0.6376 -2.2157  2.1950
 6256TIP3    H218775   4.762   0.710   3.535 -0.4042 -1.6701  1.5004
 6257TIP3   OH218776   1.916   4.871   0.066 -0.3054  0.2403 -0.4130
 6257TIP3    H118777   1.993   4.824   0.098 -0.1871 -0.0133 -1.0672
 6257TIP3    H218778   1.864   4.888   0.145  0.6938  0.9261  0.1205
 6258TIP3   OH218779   3.070   0.954   2.812  0.0835  0.2102  0.4591
 6258TIP3    H118780   3.110   1.015   2.873 -0.9658 -0.2346  1.6240
 6258TIP3    H218781   2.987   0.930   2.852 -0.5962 -0.1836 -1.0961
 6259TIP3   OH218782   3.239   4.416   2.519 -0.1808 -0.1599  0.6092
 6259TIP3    H118783   3.224   4.446   2.430 -0.8246  1.3627  1.1865
 6259TIP3    H218784   3.308   4.350   2.512  0.7044  0.8729 -0.8615
 6260TIP3   OH218785   0.600   4.355   3.674  1.3646  0.2770  0.3069
 6260TIP3    H118786   0.677   4.410   3.658  1.7469 -0.0779  0.9067
 6260TIP3    H218787   0.532   4.416   3.701  1.1449  0.7152 -1.1138
 6261TIP3   OH218788   3.391   3.286   2.668  0.3895  0.4767 -0.1874
 6261TIP3    H118789   3.469   3.249   2.710  0.4532  1.1752  0.3232
 6261TIP3    H218790   3.344   3.210   2.633  0.3113 -0.1282  1.1936
 6262TIP3   OH218791   5.726   3.025   4.414 -0.7151  0.1502  0.0537
 6262TIP3    H118792   5.675   3.106   4.422  0.2322  0.6866  1.0351
 6262TIP3    H218793   5.692   2.968   4.483 -0.1179  0.4507  0.6099
 6263TIP3   OH218794  -0.018   3.005   2.147 -0.0260  0.5556 -0.5060
 6263TIP3    H118795   0.049   2.938   2.130 -1.0030  0.1029 -3.0564
 6263TIP3    H218796   0.007   3.078   2.091  0.4684  2.0070  1.5078
 6264TIP3   OH218797   4.897   4.232   1.216 -0.6286  0.0985  0.5614
 6264TIP3    H118798   4.971   4.227   1.157 -1.0887  1.0701 -0.1289
 6264TIP3    H218799   4.929   4.282   1.291 -0.5457  0.4086  0.3201
 6265TIP3   OH218800   5.536   5.084   2.762 -0.0254  0.2908 -0.1534
 6265TIP3    H118801   5.480   5.083   2.685 -0.8691  0.5235  0.4482
 6265TIP3    H218802   5.494   5.145   2.823 -0.1664 -0.9598  1.0702
 6266TIP3   OH218803   3.948   4.342   2.446  0.0219  0.0928 -0.5693
 6266TIP3    H118804   3.913   4.376   2.364  3.1983  3.6070 -0.7396
 6266TIP3    H218805   3.992   4.261   2.422  2.2573  1.8334 -2.8195
 6267TIP3   OH218806   2.715   5.076   1.645 -0.1147 -0.4067 -0.0835
 6267TIP3    H118807   2.714   4.988   1.684  2.7130 -1.0939 -1.3129
 6267TIP3    H218808   2.687   5.062   1.555 -1.5723  0.3362  0.2252
 6268TIP3   OH218809   0.912   3.342   2.934  0.1479 -0.1614  0.6508
 6268TIP3    H118810   0.895   3.434   2.913 -0.6968 -0.1874  1.1569
 6268TIP3    H218811   0.900   3.337   3.029 -1.3207 -1.0895  0.4533
 6269TIP3   OH218812   0.623   5.804   1.867  0.5820 -0.4583 -0.5092
 6269TIP3    H118813   0.618   5.730   1.807  0.5616 -1.4167  0.6418
 6269TIP3    H218814   0.583   5.876   1.819 -1.0476 -1.6299 -0.9980
 6270TIP3   OH218815   1.722   2.722   1.094 -0.1233  0.1177  0.2470
 6270TIP3    H118816   1.733   2.693   1.004 -2.8713  1.5360 -0.6437
 6270TIP3    H218817   1.646   2.674   1.127  1.6038 -1.3831  2.3501
 6271TIP3   OH218818   4.776   1.849   2.918  0.1077 -0.2478  0.7627
 6271TIP3    H118819   4.810   1.778   2.864 -0.6330  0.1955 -0.3165
 6271TIP3    H218820   4.727   1.805   2.987 -1.3724 -0.8032 -0.5864
 6272TIP3   OH218821   1.576   3.603   1.232  0.0157  0.5755  0.1261
 6272TIP3    H118822   1.569   3.585   1.326  1.2216 -1.3270 -0.0925
 6272TIP3    H218823   1.631   3.532   1.198 -1.6476  0.3193 -2.2845
 6273TIP3   OH218824   4.549   0.744   4.101  0.0930  0.3887  0.3209
 6273TIP3    H118825   4.463   0.701   4.110 -0.1242  1.0015  1.3055
 6273TIP3    H218826   4.538   0.806   4.030 -0.8511  1.7650  1.6156
 6274TIP3   OH218827   4.081   4.121   2.394 -0.0162  0.3871  0.1745
 6274TIP3    H118828   4.085   4.033   2.354 -0.6881 -1.0317  2.9961
 6274TIP3    H218829   4.126   4.111   2.478 -0.1020  2.7836  0.5531
 6275TIP3   OH218830   0.829   3.773   4.808  0.2168 -0.3797  0.9255
 6275TIP3    H118831   0.792   3.822   4.881  0.1160 -2.0796  2.0772
 6275TIP3    H218832   0.922   3.765   4.829  1.2003  2.9267 -1.4138
 6276TIP3   OH218833   3.423   4.222   1.496 -0.1812 -0.1190  0.3159
 6276TIP3    H118834   3.514   4.251   1.500 -0.2361  0.0029  0.7577
 6276TIP3    H218835   3.409   4.176   1.579 -0.0715 -1.4949 -0.4029
 6277TIP3   OH218836   3.163   1.455   3.573  0.2231  0.0531 -0.1167
 6277TIP3    H118837   3.206   1.526   3.622  1.3656 -1.3331  0.9925
 6277TIP3    H218838   3.234   1.394   3.554 -1.2574 -2.6845  2.3598
 6278TIP3   OH218839   4.118   0.767   1.518 -0.2426 -0.1008  0.1260
 6278TIP3    H118840   4.145   0.683   1.558  0.4378  0.0386 -0.0173
 6278TIP3    H218841   4.045   0.796   1.572 -0.4593 -0.7694  0.2058
 6279TIP3   OH218842   1.043   3.132   4.007 -0.0454 -0.1300  0.4500
 6279TIP3    H118843   1.095   3.212   4.002 -0.5040  0.1144 -1.2468
 6279TIP3    H218844   0.952   3.163   4.008 -0.2152 -0.6210  0.5254
 6280TIP3   OH218845   3.417   4.956   3.712 -0.3860  0.1169 -0.4266
 6280TIP3    H118846   3.369   5.034   3.742  0.1202  0.6617 -0.9886
 6280TIP3    H218847   3.493   4.992   3.666 -1.0227 -0.6874 -2.1536
 6281TIP3   OH218848   5.687   5.167   2.030 -0.2508  0.4051 -0.0898
 6281TIP3    H118849   5.637   5.248   2.019  0.8476  1.1053 -0.0707
 6281TIP3    H218850   5.642   5.104   1.974 -2.3154  0.4389  1.4018
 6282TIP3   OH218851   3.421   5.027   2.786  0.1198  0.0371  0.5770
 6282TIP3    H118852   3.329   4.999   2.789  0.5293 -1.8320 -1.5459
 6282TIP3    H218853   3.428   5.079   2.706  0.7167  1.0692  1.2784
 6283TIP3   OH218854   2.850   2.360   5.177  0.3657 -0.0278 -0.3428
 6283TIP3    H118855   2.873   2.437   5.123 -0.2504 -0.2720 -0.9615
 6283TIP3    H218856   2.823   2.294   5.114  1.0067 -0.8124  0.1784
 6284TIP3   OH218857   2.209   1.358   0.600  0.0286  0.0379  0.4437
 6284TIP3    H118858   2.162   1.407   0.533  0.3766 -1.0612 -0.6589
 6284TIP3    H218859   2.146   1.292   0.629 -0.0347  0.3504  1.0264
 6285TIP3   OH218860   0.241   4.986   4.198 -0.1032 -0.1416  0.8133
 6285TIP3    H118861   0.189   5.065   4.185  0.0635 -0.0353  0.7941
 6285TIP3    H218862   0.329   5.010   4.169  0.1582 -0.0577  1.6516
 6286TIP3   OH218863   3.323   4.804   0.121 -0.1941  0.6559 -0.4814
 6286TIP3    H118864   3.399   4.751   0.146 -0.8603 -0.6133 -1.0671
 6286TIP3    H218865   3.303   4.778   0.032 -1.9423  0.1941  0.0060
 6287TIP3   OH218866   0.512   4.468   1.962  0.0521  0.0103  0.0884
 6287TIP3    H118867   0.569   4.482   2.038 -0.1870  1.6196 -0.0071
 6287TIP3    H218868   0.424   4.462   1.999  0.0872 -0.8128  0.0694
 6288TIP3   OH218869   2.259   4.625   3.134 -0.3194 -0.0079  0.2207
 6288TIP3    H118870   2.230   4.646   3.223 -1.0881 -0.9435  0.2074
 6288TIP3    H218871   2.336   4.570   3.147 -1.4139 -1.5677  0.3736
 6289TIP3   OH218872   1.858   3.600   0.430 -0.3052  0.2987 -0.2052
 6289TIP3    H118873   1.918   3.662   0.471 -0.3683  0.6283 -0.6084
 6289TIP3    H218874   1.904   3.516   0.434 -0.7973  0.0653  1.6288
 6290TIP3   OH218875   5.928   5.942   2.469  0.1588 -0.2231 -0.6493
 6290TIP3    H118876   5.984   5.927   2.393  0.4673 -0.8555 -0.3107
 6290TIP3    H218877   5.928   5.858   2.516  0.7083  0.3932  0.5167
 6291TIP3   OH218878   4.224   5.124   4.567 -0.0004 -0.0806 -0.3925
 6291TIP3    H118879   4.204   5.213   4.596  5.8548  1.5448 -0.1099
 6291TIP3    H218880   4.244   5.132   4.474 -0.2281 -1.3368 -0.5790
 6292TIP3   OH218881   3.174   4.083   1.646  0.0492  0.4311 -0.4149
 6292TIP3    H118882   3.159   4.131   1.565  0.9837  1.8844  0.2504
 6292TIP3    H218883   3.125   4.132   1.712 -2.3124 -1.7919 -0.3354
 6293TIP3   OH218884   3.002   2.610   4.089  0.2332  0.1188  0.1669
 6293TIP3    H118885   2.997   2.651   4.003  0.5266  0.2549  0.2159
 6293TIP3    H218886   3.094   2.587   4.100  0.3419  0.8320  0.7835
 6294TIP3   OH218887   3.918   3.045   3.534  0.4401  0.1888  0.5770
 6294TIP3    H118888   3.986   3.075   3.473  0.7274  1.4135  1.4714
 6294TIP3    H218889   3.905   3.118   3.594 -3.3029  0.9079 -0.8697
 6295TIP3   OH218890   1.257   5.969   4.780  0.5137  0.4623 -0.2252
 6295TIP3    H118891   1.338   5.967   4.729  2.2926  0.8668  2.4424
 6295TIP3    H218892   1.255   5.885   4.826  0.0212  0.9344  0.6284
 6296TIP3   OH218893   1.488   2.498   3.450  0.6116 -0.2332 -0.3120
 6296TIP3    H118894   1.438   2.551   3.387  1.2929 -3.0021 -3.4736
 6296TIP3    H218895   1.422   2.448   3.498  0.1051 -1.9196 -2.6107
 6297TIP3   OH218896   1.542   1.150   1.159 -0.2579  0.2985  0.3674
 6297TIP3    H118897   1.593   1.087   1.109  2.4222  1.5430  1.3828
 6297TIP3    H218898   1.500   1.205   1.093 -2.2075 -2.0679 -0.5315
 6298TIP3   OH218899   4.343   1.332   3.626 -0.0192  0.2740  0.3247
 6298TIP3    H118900   4.341   1.353   3.719  0.5832  0.8793  0.2061
 6298TIP3    H218901   4.361   1.238   3.623 -0.0634  0.2495  0.8137
 6299TIP3   OH218902   2.846   3.774   2.852 -0.2722 -0.4980 -0.1401
 6299TIP3    H118903   2.785   3.788   2.925  0.1246  0.7999 -0.0446
 6299TIP3    H218904   2.804   3.706   2.800 -1.2057 -0.5094  0.5931
 6300TIP3   OH218905   4.005   1.163   4.604  0.0672 -0.2618 -0.1176
 6300TIP3    H118906   4.092   1.202   4.593 -0.4529  1.0268  0.1768
 6300TIP3    H218907   3.944   1.235   4.588 -0.9548 -1.1462 -0.2976
 6301TIP3   OH218908   1.651   0.482   0.589  0.0701  0.5684 -0.4916
 6301TIP3    H118909   1.703   0.505   0.665 -1.3902 -0.2553  0.8055
 6301TIP3    H218910   1.561   0.480   0.620 -0.4476 -1.1425 -1.8890
 6302TIP3   OH218911   6.336   4.130   0.115  0.3195  0.1707  0.4252
 6302TIP3    H118912   6.413   4.170   0.156  1.5715  1.6769 -3.0329
 6302TIP3    H218913   6.280   4.204   0.092 -0.3397 -0.5984 -0.5005
 6303TIP3   OH218914   4.123   3.641   0.402 -0.4895  0.0086  0.4733
 6303TIP3    H118915   4.099   3.561   0.450 -1.9754 -0.6160 -1.1972
 6303TIP3    H218916   4.180   3.610   0.332 -0.4520  0.5459  0.2647
 6304TIP3   OH218917   4.273   4.491   3.787 -0.0149 -0.3876 -0.6743
 6304TIP3    H118918   4.328   4.526   3.857  0.2290  0.9412 -1.4939
 6304TIP3    H218919   4.190   4.471   3.830  0.0260  0.6960 -0.0442
 6305TIP3   OH218920   5.282   5.412   4.147  0.0767  0.1475  0.1002
 6305TIP3    H118921   5.378   5.408   4.153  0.3185  2.6974 -0.7109
 6305TIP3    H218922   5.254   5.450   4.230 -0.0534  0.8619 -0.2584
 6306TIP3   OH218923   2.850   5.231   4.532  0.0117  0.0193  0.3997
 6306TIP3    H118924   2.757   5.252   4.542 -0.5468 -1.0423 -1.8630
 6306TIP3    H218925   2.878   5.281   4.456 -0.3660 -3.9742 -2.6948
 6307TIP3   OH218926   1.793   2.012   0.106  0.4427 -0.4388 -0.1303
 6307TIP3    H118927   1.863   1.969   0.058  0.0958 -0.0477 -1.0187
 6307TIP3    H218928   1.746   1.942   0.150 -0.5840 -1.1073 -2.1620
 6308TIP3   OH218929   1.013   2.716   1.027 -0.0477  0.2316  0.3239
 6308TIP3    H118930   0.984   2.729   1.117  1.8268 -0.5595  1.0982
 6308TIP3    H218931   0.963   2.641   0.995  1.7193 -1.7883  1.9799
 6309TIP3   OH218932   5.527   4.209   0.020  0.2081 -0.1713  0.0744
 6309TIP3    H118933   5.609   4.190  -0.025 -0.1886  0.5808 -1.0035
 6309TIP3    H218934   5.554   4.261   0.096  0.8827 -1.4754  0.7726
 6310TIP3   OH218935   6.307   2.237   2.062 -0.4742 -0.1158  0.5128
 6310TIP3    H118936   6.253   2.175   2.013 -0.7709 -0.2346  0.9813
 6310TIP3    H218937   6.383   2.254   2.006 -2.2583  2.1692 -1.4093
 6311TIP3   OH218938   6.260   4.788   0.172  0.2007  0.6365  0.0576
 6311TIP3    H118939   6.186   4.825   0.220 -0.4588 -0.3064 -0.1977
 6311TIP3    H218940   6.258   4.831   0.086 -2.0559 -1.6163 -1.1509
 6312TIP3   OH218941   0.596   4.045   1.993  0.2454  0.0588 -0.5619
 6312TIP3    H118942   0.633   3.965   1.956  0.1092 -0.6119  0.7177
 6312TIP3    H218943   0.615   4.040   2.086 -0.1656  1.3108 -0.3913
 6313TIP3   OH218944   0.700   2.314   5.055  0.3476 -0.2167 -0.2046
 6313TIP3    H118945   0.722   2.340   4.965  2.1517 -1.8479 -0.3158
 6313TIP3    H218946   0.673   2.395   5.098  2.5069  1.2300 -1.3757
 6314TIP3   OH218947   1.240   5.523   1.842  0.7324 -0.1394 -0.4267
 6314TIP3    H118948   1.217   5.462   1.772  0.6333 -1.3813  0.6557
 6314TIP3    H218949   1.321   5.488   1.879  1.9038  1.6208 -1.1744
 6315TIP3   OH218950   1.485   3.070   0.324 -0.7069 -0.5992 -0.3162
 6315TIP3    H118951   1.394   3.038   0.324 -0.8651 -0.1506 -0.3240
 6315TIP3    H218952   1.509   3.074   0.416 -0.8544 -0.2727 -0.2901
 6316TIP3   OH218953   1.609   5.205   3.473  0.1154 -0.2369 -0.3013
 6316TIP3    H118954   1.548   5.276   3.493  1.7789  0.9982  0.6183
 6316TIP3    H218955   1.624   5.162   3.557  2.2846  0.9688 -0.0189
 6317TIP3   OH218956   0.447   1.311   3.547 -0.1749  0.2157 -0.5151
 6317TIP3    H118957   0.524   1.335   3.599 -0.4044 -0.6379  0.2507
 6317TIP3    H218958   0.410   1.235   3.593 -1.4623  0.5953 -0.8831
 6318TIP3   OH218959   3.121   5.781   3.357 -0.3562 -0.0761 -0.0470
 6318TIP3    H118960   3.149   5.873   3.356  0.5092 -0.3295 -0.3965
 6318TIP3    H218961   3.045   5.779   3.415 -0.0898  0.7816  0.3419
 6319TIP3   OH218962   0.537   4.570   4.901  0.6050  0.1537  0.1107
 6319TIP3    H118963   0.552   4.487   4.947 -1.8659 -0.5538 -0.2056
 6319TIP3    H218964   0.539   4.547   4.809  1.1674  0.7171 -0.0234
 6320TIP3   OH218965   1.108   2.067   0.023  0.0331 -0.3321 -0.2741
 6320TIP3    H118966   1.098   1.981  -0.017 -0.7020 -1.1347  1.4964
 6320TIP3    H218967   1.023   2.110   0.009  0.1589 -0.1770 -0.5544
 6321TIP3   OH218968   4.042   1.466   2.170 -0.2309  0.4347 -0.0165
 6321TIP3    H118969   4.027   1.392   2.111 -1.7953  1.4768 -1.0080
 6321TIP3    H218970   3.986   1.449   2.245  1.7120 -0.8585  1.2279
 6322TIP3   OH218971   0.214   4.841   2.726  0.1141  0.5234 -0.2992
 6322TIP3    H118972   0.124   4.834   2.697  0.6486  1.1267 -2.2415
 6322TIP3    H218973   0.245   4.751   2.733 -0.4346  0.3350 -0.3210
 6323TIP3   OH218974   6.313   4.510   3.362 -0.2163 -0.2097  0.3493
 6323TIP3    H118975   6.292   4.475   3.275 -0.2296 -0.6674  0.5371
 6323TIP3    H218976   6.321   4.605   3.348  0.7772 -0.3777 -0.3469
 6324TIP3   OH218977   4.829   2.758   0.669  0.2473  0.3758 -0.5777
 6324TIP3    H118978   4.849   2.726   0.757  1.5687 -0.7122 -1.2345
 6324TIP3    H218979   4.764   2.697   0.636  0.9055 -0.1581 -0.9097
 6325TIP3   OH218980   4.967   3.267   4.646  1.0431 -0.2613 -0.2728
 6325TIP3    H118981   5.003   3.237   4.562  0.0911 -0.5350 -0.5913
 6325TIP3    H218982   4.900   3.330   4.622 -0.5138 -1.6838  0.1820
 6326TIP3   OH218983   1.501   0.522   4.096  0.6756 -0.3529  0.1978
 6326TIP3    H118984   1.516   0.542   4.003  2.0257 -0.8199  0.3006
 6326TIP3    H218985   1.563   0.578   4.142  0.8368 -0.9915  0.7564
 6327TIP3   OH218986   0.941   1.977   0.440 -0.3928 -0.2925  0.1986
 6327TIP3    H118987   0.945   1.916   0.367 -1.2036 -0.1096 -0.0063
 6327TIP3    H218988   1.033   1.996   0.460 -0.1532 -0.1811 -0.9133
 6328TIP3   OH218989   5.115   5.592   5.173  0.1340 -0.2524 -0.3351
 6328TIP3    H118990   5.036   5.630   5.135  0.4071  2.3974  1.4944
 6328TIP3    H218991   5.082   5.537   5.245 -0.1066  0.9301  0.4957
 6329TIP3   OH218992   3.193   3.057   0.841 -0.1858 -0.1442 -0.5310
 6329TIP3    H118993   3.102   3.083   0.849 -0.3286 -0.4092 -1.2164
 6329TIP3    H218994   3.241   3.119   0.897 -0.8292 -0.3247  0.2416
 6330TIP3   OH218995   5.918   5.587   0.641  0.4255 -0.2548  0.0808
 6330TIP3    H118996   5.957   5.593   0.553  0.6217  1.4022  0.2341
 6330TIP3    H218997   5.837   5.637   0.634  0.6689  0.2816  0.9424
 6331TIP3   OH218998   2.083   5.829   4.216 -0.4418 -0.3080 -0.8601
 6331TIP3    H118999   2.173   5.862   4.221 -1.4799  2.6846  0.2938
 6331TIP3    H219000   2.088   5.741   4.253  2.1238 -0.5333 -1.5803
 6332TIP3   OH219001   1.134   4.301   0.658  0.4429 -0.4530  0.3976
 6332TIP3    H119002   1.063   4.332   0.602  0.9991  0.0957 -0.0301
 6332TIP3    H219003   1.207   4.286   0.597  0.7754 -0.7293  0.8614
 6333TIP3   OH219004   0.214   2.004   4.516  0.1900 -0.3726  0.5594
 6333TIP3    H119005   0.243   2.044   4.598 -0.1545  0.9501  0.0739
 6333TIP3    H219006   0.258   1.919   4.514  1.2819  0.1335  1.4632
 6334TIP3   OH219007   6.243   0.998   4.764 -0.3013 -0.1151  0.3704
 6334TIP3    H119008   6.153   0.981   4.791  0.1942 -0.6524  1.7700
 6334TIP3    H219009   6.291   0.920   4.789  0.3318 -0.4286 -1.6442
 6335TIP3   OH219010   1.607   4.531   0.199  0.1287 -0.2340 -0.2428
 6335TIP3    H119011   1.666   4.595   0.239  0.8049 -0.7820 -0.3440
 6335TIP3    H219012   1.577   4.573   0.119 -0.6783  0.5843  0.4610
 6336TIP3   OH219013  -0.001   0.799   5.006  0.3519  1.0281  0.1619
 6336TIP3    H119014   0.070   0.775   5.065 -0.5881 -0.3013  0.8007
 6336TIP3    H219015   0.020   0.754   4.924 -0.1909 -0.1116  0.6309
 6337TIP3   OH219016   2.502   0.993   0.803 -0.2099  0.4232  0.3658
 6337TIP3    H119017   2.576   0.957   0.852  0.8261 -0.1987 -1.5724
 6337TIP3    H219018   2.537   1.070   0.759 -0.6076 -0.0699 -0.8529
 6338TIP3   OH219019   6.045   1.812   3.023 -0.4741 -0.0959 -0.3964
 6338TIP3    H119020   6.088   1.885   3.068 -1.7935  0.6437 -0.2678
 6338TIP3    H219021   6.077   1.734   3.067 -0.6429  0.5391  0.9139
 6339TIP3   OH219022   2.730   2.194   4.562 -0.4310 -0.0510  0.4145
 6339TIP3    H119023   2.695   2.128   4.503 -0.1966 -0.0838  0.3103
 6339TIP3    H219024   2.664   2.264   4.562  0.6480  1.0838 -1.8303
 6340TIP3   OH219025   3.146   0.697   4.787  0.0660 -0.4691  0.1822
 6340TIP3    H119026   3.082   0.636   4.825 -2.4967  1.1826 -1.1521
 6340TIP3    H219027   3.129   0.692   4.692  0.8795  1.1230 -0.0766
 6341TIP3   OH219028   4.076   1.032   3.253  0.0105 -0.5209  0.5407
 6341TIP3    H119029   3.992   1.068   3.225  1.0109  0.6990 -1.1031
 6341TIP3    H219030   4.070   1.028   3.349 -1.5650  0.4598  0.5179
 6342TIP3   OH219031   2.166   4.973   2.025  0.5348  0.0736 -0.0116
 6342TIP3    H119032   2.090   4.981   1.967  1.2744  0.5220 -0.9603
 6342TIP3    H219033   2.242   4.981   1.966  1.3554 -2.1427  0.6558
 6343TIP3   OH219034   5.861   0.685   3.876  0.0718  0.2667  0.2263
 6343TIP3    H119035   5.928   0.752   3.889  0.8005 -0.2412 -0.7853
 6343TIP3    H219036   5.778   0.732   3.884  0.5644  1.1396  0.2934
 6344TIP3   OH219037   5.038   3.212   3.208  0.1768 -0.0818 -0.5397
 6344TIP3    H119038   5.081   3.145   3.261 -1.8786 -0.1995  1.0937
 6344TIP3    H219039   5.015   3.167   3.127 -0.5738 -1.2181  0.2645
 6345TIP3   OH219040   0.227   4.496   1.159 -0.0162  0.6444 -0.1480
 6345TIP3    H119041   0.150   4.482   1.214 -0.5747 -0.0508 -1.0682
 6345TIP3    H219042   0.227   4.590   1.141  0.4638  0.9687  1.4120
 6346TIP3   OH219043   4.208   0.493   4.729 -0.1014 -0.4666 -0.0872
 6346TIP3    H119044   4.257   0.556   4.782  0.4630  1.2719 -2.4696
 6346TIP3    H219045   4.133   0.543   4.696  1.3479 -0.3062 -3.5384
 6347TIP3   OH219046   1.330   4.000   4.642  0.2149 -0.0653 -0.4403
 6347TIP3    H119047   1.272   4.011   4.566 -0.9913 -2.6759 -0.0083
 6347TIP3    H219048   1.292   4.055   4.710 -0.6514 -0.2788 -0.7396
 6348TIP3   OH219049   6.266   3.154   3.122 -0.4335 -0.1380  0.1067
 6348TIP3    H119050   6.240   3.161   3.214 -0.2652 -0.6450  0.1969
 6348TIP3    H219051   6.357   3.124   3.125 -0.1101  0.7843 -0.2181
 6349TIP3   OH219052   6.183   2.515   1.317 -0.0812 -0.1227  0.7912
 6349TIP3    H119053   6.117   2.540   1.252  1.2062  2.4120  0.3602
 6349TIP3    H219054   6.183   2.419   1.313 -2.5019 -0.1662 -0.3991
 6350TIP3   OH219055   0.937   0.180   0.523  0.0532  0.4900  0.0835
 6350TIP3    H119056   0.946   0.237   0.447  3.5848 -0.9801 -0.7958
 6350TIP3    H219057   0.998   0.216   0.588 -1.6666  0.7476  1.6523
 6351TIP3   OH219058   5.331   3.506   2.288 -0.1169  0.0576 -0.2960
 6351TIP3    H119059   5.415   3.551   2.299 -0.2633  0.1683  0.4239
 6351TIP3    H219060   5.311   3.516   2.195  0.8566 -0.3118 -0.5594
 6352TIP3   OH219061   2.554   3.085   2.738 -0.8219 -0.0527 -0.1441
 6352TIP3    H119062   2.492   3.012   2.732  0.3637 -1.1637  0.4712
 6352TIP3    H219063   2.621   3.054   2.799 -0.7748  1.9448  0.8977
 6353TIP3   OH219064   5.861   3.795   3.728 -0.5488 -0.1623  0.1024
 6353TIP3    H119065   5.884   3.803   3.635 -0.1481  0.9823  0.2862
 6353TIP3    H219066   5.767   3.813   3.731 -0.5626 -0.2019 -0.0768
 6354TIP3   OH219067   0.597   1.262   1.823 -0.5826 -0.1883 -0.1280
 6354TIP3    H119068   0.631   1.174   1.842 -0.5140  0.0727  1.0476
 6354TIP3    H219069   0.581   1.261   1.729 -1.6373 -1.8254  0.0142
 6355TIP3   OH219070   3.611   2.364   3.787  0.2224 -0.6106 -0.0312
 6355TIP3    H119071   3.533   2.383   3.840 -0.8872  1.4779 -2.2057
 6355TIP3    H219072   3.670   2.437   3.804 -1.6288  2.2227 -4.0457
 6356TIP3   OH219073   0.357   0.173   3.714  0.4074  0.6879 -0.9166
 6356TIP3    H119074   0.444   0.214   3.713  0.9654 -0.1844  1.8961
 6356TIP3    H219075   0.310   0.220   3.783  0.0745 -1.4144  0.3690
 6357TIP3   OH219076   3.921   3.961   3.096 -0.2543  0.7132 -0.1019
 6357TIP3    H119077   3.876   4.019   3.157 -0.3324  0.0301  0.5023
 6357TIP3    H219078   3.898   3.994   3.009  0.2735  2.0043  0.2334
 6358TIP3   OH219079   1.434   4.847   2.666 -0.5036 -0.2419 -0.1557
 6358TIP3    H119080   1.449   4.846   2.760 -0.6674 -1.7375 -0.1111
 6358TIP3    H219081   1.339   4.846   2.657 -0.6991  4.0394 -0.4147
 6359TIP3   OH219082   5.913   4.060   4.190 -0.7404 -0.3192 -0.3071
 6359TIP3    H119083   6.002   4.025   4.189  0.2452  1.9774  0.0354
 6359TIP3    H219084   5.897   4.083   4.281 -0.0519  2.8762 -0.8541
 6360TIP3   OH219085   5.281   2.747   4.198 -0.0319  0.4572  0.3366
 6360TIP3    H119086   5.204   2.692   4.214  0.6181  0.0702  2.3647
 6360TIP3    H219087   5.347   2.686   4.164 -0.0754  0.4445  0.2761
 6361TIP3   OH219088   1.964   1.558   2.173  0.1869  0.4247  0.2423
 6361TIP3    H119089   1.924   1.473   2.195  0.0445  0.0986 -1.1442
 6361TIP3    H219090   1.890   1.613   2.147  0.4619  0.2693 -0.9500
 6362TIP3   OH219091   0.005   0.798   0.803 -0.1312  0.5362 -0.1692
 6362TIP3    H119092   0.035   0.888   0.821 -0.9884  0.7967 -0.0129
 6362TIP3    H219093   0.043   0.777   0.718  0.0650  1.0571 -0.2160
 6363TIP3   OH219094   2.692   3.428   0.417  0.2411  0.1458 -0.1443
 6363TIP3    H119095   2.661   3.519   0.424  1.0586  0.4896 -0.8733
 6363TIP3    H219096   2.619   3.381   0.377 -0.5352  0.2796  1.0468
 6364TIP3   OH219097   0.153   1.098   2.068  0.3169 -0.4087 -0.1846
 6364TIP3    H119098   0.161   1.180   2.021 -0.3531 -0.7961 -0.9986
 6364TIP3    H219099   0.243   1.071   2.085  0.5745  1.7169  2.3458
 6365TIP3   OH219100   5.469   1.621   3.775 -0.0848  0.0576 -0.1627
 6365TIP3    H119101   5.382   1.623   3.815 -0.1567  1.1565 -0.3423
 6365TIP3    H219102   5.464   1.686   3.704  0.0424 -1.8010 -1.9617
 6366TIP3   OH219103   3.823   4.196   1.184 -0.3393  0.1711  0.1940
 6366TIP3    H119104   3.759   4.248   1.134  0.9431 -0.9089 -2.8034
 6366TIP3    H219105   3.906   4.211   1.140  0.4819 -2.6375  0.5897
 6367TIP3   OH219106   5.157   2.303   0.251  0.1285  0.0909  0.0211
 6367TIP3    H119107   5.175   2.215   0.282  3.5074  0.6209 -0.0594
 6367TIP3    H219108   5.086   2.335   0.307  1.4384 -1.3457  2.6685
 6368TIP3   OH219109   2.112   2.563   4.783  0.4639 -0.0177 -0.1359
 6368TIP3    H119110   2.181   2.528   4.726  0.2333 -0.8874  0.1033
 6368TIP3    H219111   2.068   2.629   4.730  1.3191  0.3687 -0.3775
 6369TIP3   OH219112   2.369   0.604   4.950  0.4610 -0.7112  0.2970
 6369TIP3    H119113   2.461   0.580   4.961  0.9032  0.8200  0.2385
 6369TIP3    H219114   2.354   0.669   5.019 -1.4461 -3.0721  2.2753
 6370TIP3   OH219115   1.921   3.061   2.432 -0.4211  0.2116 -0.6456
 6370TIP3    H119116   1.843   3.108   2.402 -0.5593  0.2211 -0.2763
 6370TIP3    H219117   1.892   2.970   2.439 -0.4665  0.2562 -0.2683
 6371TIP3   OH219118   6.174   2.863   1.067  0.1797 -0.4007  0.1627
 6371TIP3    H119119   6.081   2.882   1.056  0.7725  1.8488 -2.0150
 6371TIP3    H219120   6.217   2.912   0.996  3.1855  0.2357  2.2179
 6372TIP3   OH219121   2.809   5.543   4.330  0.0466 -0.4824 -0.5437
 6372TIP3    H119122   2.903   5.559   4.321 -0.3328  3.4388  0.6624
 6372TIP3    H219123   2.793   5.547   4.424 -1.5450  0.9968 -0.8355
 6373TIP3   OH219124   2.914   5.200   5.172 -0.3146  0.4138  0.4287
 6373TIP3    H119125   2.866   5.257   5.110 -2.2333  0.3924  1.7916
 6373TIP3    H219126   2.858   5.123   5.181 -0.0784  0.4180  2.1728
 6374TIP3   OH219127   1.939   2.382   3.599 -0.2235 -0.1118 -0.1820
 6374TIP3    H119128   2.005   2.314   3.584  0.8829  0.7016  0.7660
 6374TIP3    H219129   1.983   2.464   3.574 -1.1954  0.3604 -0.3966
 6375TIP3   OH219130   1.530   0.708   2.012 -0.0685 -0.1504  0.3418
 6375TIP3    H119131   1.610   0.743   1.973  0.3282 -1.3217  0.0784
 6375TIP3    H219132   1.560   0.644   2.076 -0.7916 -1.5130 -0.6383
 6376TIP3   OH219133   2.468   1.279   4.099  0.1618 -0.4153  0.1271
 6376TIP3    H119134   2.509   1.285   4.186  2.0809  0.5399 -0.7756
 6376TIP3    H219135   2.524   1.334   4.043 -0.3249 -1.9588 -1.9726
 6377TIP3   OH219136   2.471   4.174   2.687  0.0393 -0.1407  0.4102
 6377TIP3    H119137   2.516   4.090   2.693 -0.3856 -0.4411 -0.3516
 6377TIP3    H219138   2.381   4.151   2.662 -0.4467  0.4630  1.5134
 6378TIP3   OH219139   2.826   4.207   2.616  0.2305  0.4191  0.0052
 6378TIP3    H119140   2.891   4.170   2.676 -0.7411  1.7946  2.0588
 6378TIP3    H219141   2.802   4.135   2.558  1.1448 -1.0507  1.3739
 6379TIP3   OH219142   6.369   2.691   1.182  0.1039 -0.1271  0.8928
 6379TIP3    H119143   6.315   2.648   1.248 -0.0607  0.6282  1.2616
 6379TIP3    H219144   6.312   2.757   1.144 -0.1373 -1.2120 -0.7456
 6380TIP3   OH219145   5.806   4.433   0.780  0.0866  0.8143 -0.0187
 6380TIP3    H119146   5.876   4.494   0.757  0.8598  0.3832  1.1081
 6380TIP3    H219147   5.745   4.438   0.707  0.3875  2.5499 -0.1905
 6381TIP3   OH219148   0.822   0.942   3.053 -0.0429  0.2573 -0.0309
 6381TIP3    H119149   0.767   1.020   3.043 -0.1175  0.3646  1.1125
 6381TIP3    H219150   0.803   0.890   2.975  0.2975  1.5505 -1.0087
 6382TIP3   OH219151   2.184   1.345   3.658 -0.1913 -0.5282  0.3231
 6382TIP3    H119152   2.094   1.376   3.646 -0.1188 -0.1397  0.7668
 6382TIP3    H219153   2.236   1.425   3.667  0.3572 -0.7209 -0.9882
 6383TIP3   OH219154   4.108   4.212   2.894  0.0386 -0.3258  0.8521
 6383TIP3    H119155   4.168   4.140   2.878  1.4477  1.1160 -0.6691
 6383TIP3    H219156   4.046   4.208   2.821  0.3542  0.2056  0.5477
 6384TIP3   OH219157   4.880   1.095   4.665  0.0332  0.2995  0.0615
 6384TIP3    H119158   4.839   1.035   4.603  1.5771  1.3659 -2.1155
 6384TIP3    H219159   4.820   1.170   4.668 -0.7206 -0.3019  0.9925
 6385TIP3   OH219160   0.539   5.877   4.296  0.3927 -0.3506 -0.0215
 6385TIP3    H119161   0.449   5.863   4.266  0.0804 -0.2947  0.8498
 6385TIP3    H219162   0.544   5.970   4.315  0.9702 -0.1508 -1.0863
 6386TIP3   OH219163   1.191   4.674   2.647 -0.2308  0.4862  0.1341
 6386TIP3    H119164   1.275   4.628   2.640  0.1037  1.1107 -0.1138
 6386TIP3    H219165   1.127   4.606   2.668  0.5478  0.1823  1.6534
 6387TIP3   OH219166   1.908   2.420   1.058  0.2946  0.1971  0.2838
 6387TIP3    H119167   1.937   2.376   1.138  0.7200  0.6118  0.3648
 6387TIP3    H219168   1.859   2.496   1.089  1.6705  1.1664  0.1859
 6388TIP3   OH219169   1.382   0.426   0.683  0.5323  0.4791  0.5519
 6388TIP3    H119170   1.314   0.480   0.643  0.8190  1.2679  1.1152
 6388TIP3    H219171   1.342   0.394   0.764  0.6716  0.5570  0.6503
 6389TIP3   OH219172   4.298   1.476   3.918  0.3582  1.0020  0.2993
 6389TIP3    H119173   4.359   1.426   3.973  0.6011 -1.7998 -2.2501
 6389TIP3    H219174   4.213   1.437   3.935  0.3183  0.6168 -0.7163
 6390TIP3   OH219175   1.090   3.275   2.388  0.3144  0.4058  0.6097
 6390TIP3    H119176   1.093   3.337   2.461 -0.5651  1.5483 -0.2798
 6390TIP3    H219177   1.009   3.226   2.401  1.4491 -1.2471  1.8080
 6391TIP3   OH219178   1.126   4.756   4.975 -0.1375 -0.2447 -0.4055
 6391TIP3    H119179   1.097   4.775   4.886 -2.5184 -0.0223  0.3381
 6391TIP3    H219180   1.054   4.786   5.030  2.1399  1.6067  1.7875
 6392TIP3   OH219181   3.810   1.459   1.098 -0.7788  0.2811  0.0675
 6392TIP3    H119182   3.884   1.404   1.075 -0.0265  0.0317  2.7552
 6392TIP3    H219183   3.842   1.513   1.171 -3.2322  0.0976  1.3801
 6393TIP3   OH219184   2.526   1.691   5.150 -0.3693  0.2351  0.0690
 6393TIP3    H119185   2.608   1.690   5.197 -0.0300  0.5053 -0.5014
 6393TIP3    H219186   2.468   1.745   5.203  0.0329  0.6073  0.1336
 6394TIP3   OH219187   4.490   5.771   3.259  0.3626 -0.4147 -0.0105
 6394TIP3    H119188   4.502   5.784   3.164  2.0930  0.3976  0.2703
 6394TIP3    H219189   4.560   5.711   3.283  0.6509  0.2810  0.9264
 6395TIP3   OH219190   3.488   4.487   1.733 -0.1627 -0.2210  0.2451
 6395TIP3    H119191   3.414   4.430   1.713 -0.7697  0.7895 -0.4674
 6395TIP3    H219192   3.449   4.573   1.747  0.7440  0.0478  1.2302
 6396TIP3   OH219193   6.045   4.303   0.881  0.3106 -0.3178 -0.1705
 6396TIP3    H119194   6.045   4.250   0.802 -0.1693 -0.6745  0.0639
 6396TIP3    H219195   5.952   4.319   0.899  0.3773 -0.9245  0.7775
 6397TIP3   OH219196   0.136   5.436   3.442  0.5959  0.6060 -0.4262
 6397TIP3    H119197   0.110   5.456   3.353 -1.9304 -0.6326 -0.0481
 6397TIP3    H219198   0.225   5.470   3.449  1.3434 -0.3136 -3.7515
 6398TIP3   OH219199   5.376   0.599   2.666 -0.2336 -0.0063 -0.9185
 6398TIP3    H119200   5.372   0.626   2.574  0.3215  2.6548 -0.2618
 6398TIP3    H219201   5.465   0.622   2.694 -1.1444  1.6598  0.8858
 6399TIP3   OH219202   3.587   5.934   4.413  0.3275  0.7287  0.2276
 6399TIP3    H119203   3.570   5.871   4.484 -1.9087  0.7388 -0.2255
 6399TIP3    H219204   3.579   6.019   4.455 -1.3627  0.7428 -0.0409
 6400TIP3   OH219205   1.949   4.645   4.793  0.2416 -0.2853  0.5722
 6400TIP3    H119206   1.869   4.620   4.747  0.1141  0.3773  0.4265
 6400TIP3    H219207   2.015   4.584   4.760 -0.3827 -1.4146  1.3506
 6401TIP3   OH219208   5.294   0.443   0.870  0.1240 -0.1180 -0.2082
 6401TIP3    H119209   5.380   0.469   0.903 -0.1823 -0.0267  0.5388
 6401TIP3    H219210   5.293   0.473   0.779  1.2766 -1.0674 -0.5547
 6402TIP3   OH219211   0.759   2.658   0.488 -0.3451  0.3547 -0.2968
 6402TIP3    H119212   0.755   2.571   0.528 -1.6753  0.0820 -0.9773
 6402TIP3    H219213   0.852   2.675   0.475  0.2677  0.6750  3.3558
 6403TIP3   OH219214   0.861   4.522   1.211  0.3761 -0.3516  0.0199
 6403TIP3    H119215   0.868   4.447   1.152  0.6228  0.8892 -1.5771
 6403TIP3    H219216   0.813   4.587   1.161 -2.6237 -0.4739  2.4709
 6404TIP3   OH219217   5.121   1.783   1.715  0.1331 -0.7584 -0.3928
 6404TIP3    H119218   5.207   1.759   1.749 -0.1457  0.6070  1.4687
 6404TIP3    H219219   5.074   1.700   1.707  1.2111 -1.4036 -0.2508
 6405TIP3   OH219220   1.199   3.293   2.812 -0.1153 -0.6339 -0.2794
 6405TIP3    H119221   1.248   3.234   2.754 -0.8566  0.6915 -2.3204
 6405TIP3    H219222   1.114   3.251   2.822 -0.1761 -0.5784 -0.5827
 6406TIP3   OH219223   1.565   3.031   0.592  0.0996 -0.2668 -0.1469
 6406TIP3    H119224   1.613   2.991   0.665  0.3529  1.2931  0.5709
 6406TIP3    H219225   1.480   3.054   0.628  0.0940  0.1849 -0.4403
 6407TIP3   OH219226   3.124   4.672   1.684 -0.5100 -0.2131  0.0418
 6407TIP3    H119227   3.219   4.678   1.676 -0.5634 -0.4586 -0.8881
 6407TIP3    H219228   3.108   4.674   1.778  0.4897 -1.3762  0.2593
 6408TIP3   OH219229   2.483   2.181   3.590  0.0700 -1.1255 -0.4569
 6408TIP3    H119230   2.573   2.171   3.622  0.5209  0.6060 -1.0588
 6408TIP3    H219231   2.476   2.121   3.516  1.2669 -0.1835 -1.3779
 6409TIP3   OH219232   1.269   3.976   2.227  0.1031 -0.0634 -0.1910
 6409TIP3    H119233   1.329   3.939   2.162  1.4158 -0.3621  1.1510
 6409TIP3    H219234   1.323   4.034   2.280 -1.2140  1.1501 -0.1180
 6410TIP3   OH219235   2.214   5.553   2.734 -0.4426  0.2026 -0.2196
 6410TIP3    H119236   2.265   5.471   2.736  0.6636  0.8650 -0.2608
 6410TIP3    H219237   2.127   5.526   2.705  0.7724 -0.5317 -3.6157
 6411TIP3   OH219238   0.944   2.494   2.359  0.6334 -0.2536 -0.4820
 6411TIP3    H119239   0.913   2.429   2.422 -0.8436  0.0332 -0.8664
 6411TIP3    H219240   1.039   2.485   2.359  0.4595 -2.6756 -0.7949
 6412TIP3   OH219241   5.211   4.711   4.790  0.4151  0.4370 -0.2956
 6412TIP3    H119242   5.177   4.622   4.780  1.0012  0.1342  0.2810
 6412TIP3    H219243   5.136   4.768   4.772 -0.3079 -0.2022  0.5773
 6413TIP3   OH219244   1.956   0.208   2.670  0.1430  0.2217 -0.2595
 6413TIP3    H119245   1.947   0.118   2.637 -2.5067 -0.2112  1.3771
 6413TIP3    H219246   1.895   0.259   2.618  2.2928  1.3798 -1.8118
 6414TIP3   OH219247   2.182   2.440   1.483 -0.0137 -0.2118 -0.5539
 6414TIP3    H119248   2.101   2.491   1.478  0.4344  0.4684 -1.1136
 6414TIP3    H219249   2.160   2.357   1.441 -1.3480 -1.3460  2.1975
 6415TIP3   OH219250   3.636   0.734   4.987 -0.0276 -0.7892  0.7264
 6415TIP3    H119251   3.647   0.723   5.081 -1.4797 -1.6325  0.8199
 6415TIP3    H219252   3.560   0.680   4.965 -0.1898  0.0123 -0.7972
 6416TIP3   OH219253   6.284   0.541   4.514 -0.6189 -0.2565 -0.3781
 6416TIP3    H119254   6.337   0.617   4.490 -2.3539  0.9615 -0.5331
 6416TIP3    H219255   6.194   0.575   4.521 -1.1772 -1.8838  1.4240
 6417TIP3   OH219256   0.243   3.627   3.073 -0.5723 -0.1120  0.2441
 6417TIP3    H119257   0.200   3.555   3.028  0.9436 -2.4336  2.2617
 6417TIP3    H219258   0.172   3.688   3.094 -2.1646 -1.7168 -0.2702
 6418TIP3   OH219259   5.512   3.779   0.441  0.4485  0.0951  0.1525
 6418TIP3    H119260   5.469   3.727   0.509  0.5058  1.7281  1.5055
 6418TIP3    H219261   5.441   3.813   0.388  0.2326  0.6462  0.7854
 6419TIP3   OH219262   0.523   2.888   2.179  0.1847 -0.1576  0.2467
 6419TIP3    H119263   0.616   2.902   2.198  0.5101 -0.8734 -0.7428
 6419TIP3    H219264   0.478   2.953   2.232  1.2657  0.3447  0.5776
 6420TIP3   OH219265   3.447   0.361   4.670 -0.3723 -0.1440  0.1902
 6420TIP3    H119266   3.423   0.311   4.592  1.2408  1.8432 -1.7214
 6420TIP3    H219267   3.540   0.381   4.657 -0.3961  1.3869  1.9929
 6421TIP3   OH219268   0.369   1.193   2.729 -0.1232 -0.0067 -0.0632
 6421TIP3    H119269   0.388   1.239   2.810  0.3602 -0.2101 -0.0566
 6421TIP3    H219270   0.453   1.154   2.703 -0.6468 -1.3694  0.2312
 6422TIP3   OH219271   6.025   5.303   3.877 -0.2981 -0.6082  0.4932
 6422TIP3    H119272   6.060   5.327   3.792 -1.5061  2.5828  0.7568
 6422TIP3    H219273   5.935   5.275   3.859 -0.8036  0.7768  0.7119
 6423TIP3   OH219274   6.010   1.599   4.838 -0.4337  0.1736  0.6178
 6423TIP3    H119275   6.088   1.589   4.894 -0.6923  1.0910  1.1686
 6423TIP3    H219276   6.034   1.668   4.777 -0.4454 -0.2770  0.0980
 6424TIP3   OH219277   5.495   4.001   1.167 -0.1267 -0.1260  0.0577
 6424TIP3    H119278   5.441   4.006   1.246  0.4251  0.0137  0.4268
 6424TIP3    H219279   5.566   3.941   1.189 -0.2853 -0.5436 -0.5275
 6425TIP3   OH219280   2.516   1.831   2.899 -0.2082 -0.0375 -0.6295
 6425TIP3    H119281   2.442   1.773   2.917  0.9483 -1.7167 -1.0230
 6425TIP3    H219282   2.537   1.816   2.806  0.8942  0.0585 -0.4172
 6426TIP3   OH219283   3.373   0.422   2.677  0.2148 -0.0154  0.0335
 6426TIP3    H119284   3.416   0.338   2.690 -0.7202 -0.6881 -0.9708
 6426TIP3    H219285   3.317   0.433   2.754 -1.2792 -1.3905 -0.7734
 6427TIP3   OH219286   2.988   4.560   1.915  0.2306 -0.0877 -0.5205
 6427TIP3    H119287   2.973   4.491   1.980 -0.3888  0.9291  0.4507
 6427TIP3    H219288   2.941   4.636   1.949 -0.4374  0.3815 -2.3641
 6428TIP3   OH219289   5.380   3.784   5.143  0.1541  0.0252 -0.1134
 6428TIP3    H119290   5.430   3.745   5.071  1.2410  0.4604  0.3966
 6428TIP3    H219291   5.444   3.799   5.212 -0.8488 -0.2833  0.9268
 6429TIP3   OH219292   2.987   5.752   3.795 -0.2619  0.1499  0.3546
 6429TIP3    H119293   2.918   5.791   3.849 -2.2368  0.5303 -2.2087
 6429TIP3    H219294   2.951   5.668   3.766  0.9682 -0.3117  0.0986
 6430TIP3   OH219295   4.648   1.466   1.237 -0.0466  0.0380  0.1576
 6430TIP3    H119296   4.715   1.465   1.305  1.2630 -1.3123 -1.0776
 6430TIP3    H219297   4.624   1.558   1.228  0.6313  0.3793  1.5642
 6431TIP3   OH219298   0.071   2.514   2.424  0.1415  0.0575 -0.2935
 6431TIP3    H119299  -0.009   2.511   2.476  0.8375  0.4736  0.8654
 6431TIP3    H219300   0.042   2.532   2.335 -1.0084  0.8681  0.2175
 6432TIP3   OH219301   4.499   1.035   5.080  0.0753 -0.0732 -0.0668
 6432TIP3    H119302   4.541   1.118   5.056  1.3454  0.1933  2.7789
 6432TIP3    H219303   4.566   0.987   5.128 -1.0264 -2.2876 -0.6449
 6433TIP3   OH219304   0.044   2.620   3.101 -0.5267  0.8094  0.0694
 6433TIP3    H119305   0.129   2.617   3.058 -0.5307 -0.8156  0.1405
 6433TIP3    H219306   0.061   2.594   3.191 -1.1213  0.3337  0.0493
 6434TIP3   OH219307   1.086   4.235   4.027 -0.0619  0.3586 -0.7717
 6434TIP3    H119308   1.033   4.257   3.950  0.2363 -1.1876 -1.4662
 6434TIP3    H219309   1.027   4.182   4.081  0.0777  0.5084 -0.4762
 6435TIP3   OH219310   5.938   4.387   2.328  0.0186 -0.1969 -0.8423
 6435TIP3    H119311   5.971   4.475   2.306  2.1274 -0.9297 -0.8631
 6435TIP3    H219312   5.901   4.355   2.247  0.5626  0.1370 -1.2337
 6436TIP3   OH219313   3.066   5.526   4.783 -0.0032 -0.5952 -0.2599
 6436TIP3    H119314   3.071   5.453   4.844  0.1228  1.8943  3.0036
 6436TIP3    H219315   2.973   5.534   4.762 -0.4806  0.0790  1.8597
 6437TIP3   OH219316   3.311   1.389   1.634 -0.1998  0.7025  0.4663
 6437TIP3    H119317   3.337   1.312   1.583  0.3901  0.6160  0.8992
 6437TIP3    H219318   3.264   1.354   1.709  0.4040  0.7436  0.8657
 6438TIP3   OH219319   3.114   4.901   2.855  0.2847 -0.1305 -0.4131
 6438TIP3    H119320   3.137   4.819   2.811 -1.4045 -0.5389 -0.5906
 6438TIP3    H219321   3.149   4.891   2.943  1.5012 -0.3560 -0.9008
 6439TIP3   OH219322   0.760   4.551   3.937  0.5389 -0.6095  0.1549
 6439TIP3    H119323   0.816   4.578   4.010  2.2325  0.7746 -1.5710
 6439TIP3    H219324   0.673   4.586   3.959  1.0169 -0.2172  1.4844
 6440TIP3   OH219325   5.911   1.713   0.197 -0.3185 -0.0811  0.1822
 6440TIP3    H119326   5.876   1.645   0.139 -0.8371  1.0783 -0.9057
 6440TIP3    H219327   5.990   1.674   0.234 -0.8949 -1.4696  0.0072
 6441TIP3   OH219328   1.550   0.950   2.912 -0.9893 -0.2202  0.3915
 6441TIP3    H119329   1.459   0.922   2.910 -0.5795 -1.5740 -0.5285
 6441TIP3    H219330   1.572   0.969   2.821 -0.4766  0.5469  0.6670
 6442TIP3   OH219331   3.118   3.905   0.572  0.0185 -0.2105  0.4748
 6442TIP3    H119332   3.122   3.853   0.492 -0.3409  0.7803 -0.2105
 6442TIP3    H219333   3.199   3.956   0.571 -0.9298  1.3567 -0.3826
 6443TIP3   OH219334   2.531   3.270   0.267  0.2829  0.3626 -0.2753
 6443TIP3    H119335   2.452   3.294   0.217  0.7621 -0.3584 -1.4297
 6443TIP3    H219336   2.498   3.215   0.337 -0.3038  0.5072 -0.4259
 6444TIP3   OH219337   5.887   3.178   0.860 -0.0912  0.0709  0.1864
 6444TIP3    H119338   5.793   3.194   0.849  0.0987  0.7146 -0.5393
 6444TIP3    H219339   5.891   3.090   0.898 -0.9789 -0.1026 -0.0827
 6445TIP3   OH219340   0.959   1.395   0.007  0.4219  0.0560  0.2958
 6445TIP3    H119341   0.929   1.353  -0.074 -1.7708  0.5985  0.7610
 6445TIP3    H219342   0.966   1.324   0.070  0.0274 -0.0777  0.1910
 6446TIP3   OH219343   0.035   4.874   3.388  0.3581 -0.7143 -0.1622
 6446TIP3    H119344   0.044   4.969   3.391  0.2963 -0.7196  1.4585
 6446TIP3    H219345  -0.057   4.857   3.406  0.3059 -1.0742 -0.7516
 6447TIP3   OH219346   2.861   5.960   4.084 -0.1392  0.2869  0.4308
 6447TIP3    H119347   2.936   6.020   4.083  0.0798  0.0225  0.8513
 6447TIP3    H219348   2.858   5.927   4.174  0.9212 -1.8032 -0.2255
 6448TIP3   OH219349   1.223   3.187   0.846 -0.0491  0.0195  0.3843
 6448TIP3    H119350   1.172   3.264   0.823  1.2385  0.5225 -1.0044
 6448TIP3    H219351   1.194   3.164   0.935 -0.2800  2.2578  0.9544
 6449TIP3   OH219352   4.296   5.840   1.221 -0.1619  0.3047 -0.0280
 6449TIP3    H119353   4.378   5.795   1.242 -0.8552 -1.2375 -0.4533
 6449TIP3    H219354   4.248   5.777   1.167 -1.0662  1.7069 -0.8973
 6450TIP3   OH219355   2.868   2.177   0.455 -0.1473  0.3833 -0.3267
 6450TIP3    H119356   2.834   2.131   0.532  2.0280  0.1418  0.5755
 6450TIP3    H219357   2.851   2.269   0.472  1.9766  0.5397  1.4528
 6451TIP3   OH219358   0.865   1.260   3.920  0.1130 -0.4231  0.5389
 6451TIP3    H119359   0.906   1.190   3.973 -0.1784 -2.2925 -1.5670
 6451TIP3    H219360   0.772   1.256   3.944  0.1606 -0.4605  0.7256
 6452TIP3   OH219361   2.750   3.735   1.972  0.0575 -0.2846  0.3576
 6452TIP3    H119362   2.817   3.789   2.014 -0.6227  0.9142 -0.0707
 6452TIP3    H219363   2.698   3.796   1.921 -0.0558 -1.5039 -1.0494
 6453TIP3   OH219364   4.083   0.010   1.316  0.0974  0.4154  0.4490
 6453TIP3    H119365   4.146   0.081   1.310 -0.5335  1.0093  0.6810
 6453TIP3    H219366   4.007   0.049   1.360 -0.2241 -0.4250  0.6672
 6454TIP3   OH219367   3.772   5.413   3.550 -0.2866  0.0346 -0.1197
 6454TIP3    H119368   3.860   5.375   3.551  0.0024  0.4573 -2.6180
 6454TIP3    H219369   3.776   5.480   3.482 -3.1124 -1.4804 -2.0126
 6455TIP3   OH219370   1.224   1.068   0.418 -0.2367 -0.0372 -0.1558
 6455TIP3    H119371   1.147   1.123   0.421 -0.8807 -0.8652 -1.0381
 6455TIP3    H219372   1.282   1.104   0.486 -1.4100  0.5441  0.5601
 6456TIP3   OH219373   4.395   3.592   4.777 -0.0493  0.0974 -1.3326
 6456TIP3    H119374   4.366   3.629   4.694  1.2060 -1.6205 -2.6071
 6456TIP3    H219375   4.317   3.553   4.815 -0.3826 -0.2947 -2.3866
 6457TIP3   OH219376   1.557   1.405   0.768 -0.1614 -0.2845  0.2109
 6457TIP3    H119377   1.504   1.439   0.696 -0.0276 -1.0796 -0.2694
 6457TIP3    H219378   1.494   1.394   0.840 -0.7166 -1.4179 -0.4171
 6458TIP3   OH219379   6.267   4.746   4.247 -0.0727  0.3388 -0.4882
 6458TIP3    H119380   6.270   4.716   4.338  2.0901  1.4892 -0.1025
 6458TIP3    H219381   6.179   4.723   4.217 -0.6240 -0.6597  1.6770
 6459TIP3   OH219382   4.838   2.827   0.334 -0.7123  0.0648  0.2796
 6459TIP3    H119383   4.790   2.753   0.370 -0.7712 -0.4795 -0.8903
 6459TIP3    H219384   4.930   2.805   0.349 -0.7635  0.9368  2.1827
 6460TIP3   OH219385   5.564   2.702   1.006 -0.1253  0.1752  0.0446
 6460TIP3    H119386   5.469   2.713   0.998 -0.0276  0.3105 -1.1599
 6460TIP3    H219387   5.599   2.790   0.998  0.1716 -0.0178 -0.8858
 6461TIP3   OH219388   1.474   4.063   4.256  0.7222 -0.5095  0.1777
 6461TIP3    H119389   1.438   4.097   4.174 -0.3522 -0.6698  0.5711
 6461TIP3    H219390   1.565   4.095   4.258  0.3716  0.5527 -0.4707
 6462TIP3   OH219391   0.702   2.997   1.493  0.1271 -0.0461 -0.2485
 6462TIP3    H119392   0.608   2.982   1.481  0.3974 -0.4284 -2.1913
 6462TIP3    H219393   0.735   2.915   1.530  0.1155 -1.0520 -2.3128
 6463TIP3   OH219394   1.743   1.505   3.055 -0.2066 -0.0818  0.5765
 6463TIP3    H119395   1.764   1.555   3.134 -2.8624 -1.8888  2.5919
 6463TIP3    H219396   1.680   1.559   3.009 -1.0822 -0.3790  1.3958
 6464TIP3   OH219397   5.086   2.406   0.854 -0.2487 -0.1575 -0.0536
 6464TIP3    H119398   5.167   2.393   0.904  0.1063  0.2153 -0.5227
 6464TIP3    H219399   5.115   2.443   0.771 -0.7849 -1.2763 -0.7614
 6465TIP3   OH219400   0.479   2.645   2.074 -0.8164 -0.7429  0.4994
 6465TIP3    H119401   0.541   2.592   2.122  1.7746  0.3687 -1.3881
 6465TIP3    H219402   0.481   2.730   2.117 -2.2464 -1.0939  1.3349
 6466TIP3   OH219403   4.971   5.387   0.276  0.1667  0.2331  0.4070
 6466TIP3    H119404   4.918   5.461   0.303 -0.1315 -0.4081  1.6413
 6466TIP3    H219405   4.973   5.393   0.180  0.9769  2.3649  0.5059
 6467TIP3   OH219406   3.459   3.259   4.277  0.0610  0.0049  0.4231
 6467TIP3    H119407   3.537   3.284   4.228  0.1883 -1.7840 -0.3603
 6467TIP3    H219408   3.493   3.211   4.353 -0.2391 -0.6987  0.1265
 6468TIP3   OH219409   1.651   0.503   2.155  0.3462  0.2004  0.4675
 6468TIP3    H119410   1.692   0.559   2.221  0.0806 -0.9404  1.6508
 6468TIP3    H219411   1.614   0.430   2.206  0.4266 -0.8913 -0.9883
 6469TIP3   OH219412   1.925   2.893   0.113 -0.2518 -0.2599 -0.0048
 6469TIP3    H119413   1.871   2.972   0.105  0.3242  0.1832  0.4196
 6469TIP3    H219414   2.010   2.925   0.144 -0.1811 -1.1041  0.7108
 6470TIP3   OH219415   0.639   0.269   4.611 -0.0513  0.0853  0.4197
 6470TIP3    H119416   0.648   0.364   4.614  0.0274  0.0632  1.1411
 6470TIP3    H219417   0.640   0.247   4.518  0.7704  0.7095  0.2787
 6471TIP3   OH219418   2.348   4.986   3.451 -0.4331 -0.0565 -0.5536
 6471TIP3    H119419   2.312   5.005   3.365 -2.7345  1.5112  0.6433
 6471TIP3    H219420   2.332   5.066   3.502  2.4553 -0.2452  0.8869
 6472TIP3   OH219421   0.182   0.137   0.621  0.1878 -0.0817  0.5872
 6472TIP3    H119422   0.192   0.232   0.608  0.4109 -0.1647  0.1071
 6472TIP3    H219423   0.087   0.125   0.632  0.1891  0.2325  0.9772
 6473TIP3   OH219424   3.273   5.871   4.050  0.4238  0.2656  0.1975
 6473TIP3    H119425   3.348   5.861   4.109  0.0687 -0.2999  0.5618
 6473TIP3    H219426   3.295   5.816   3.974 -0.0731 -0.7177  0.7577
 6474TIP3   OH219427   3.893   4.760   1.342 -0.0746 -0.1509 -0.3084
 6474TIP3    H119428   3.830   4.776   1.412  0.4045  0.4704 -0.0084
 6474TIP3    H219429   3.937   4.844   1.330  1.0539 -0.6974 -0.1585
 6475TIP3   OH219430   5.536   4.812   4.488  0.1317  0.5434  0.2637
 6475TIP3    H119431   5.499   4.862   4.561 -1.5960 -2.5342  1.7465
 6475TIP3    H219432   5.617   4.775   4.522  0.7029  1.2387 -0.3316
 6476TIP3   OH219433   1.579   5.742   1.099  0.4908  0.2959 -0.3667
 6476TIP3    H119434   1.656   5.799   1.103  0.0993  0.7582  1.6109
 6476TIP3    H219435   1.538   5.762   1.015  2.9989 -0.6577 -1.9428
 6477TIP3   OH219436   1.847   4.974   1.358  0.2064 -0.3924 -0.5346
 6477TIP3    H119437   1.781   4.924   1.310  0.1127  0.3789 -1.2298
 6477TIP3    H219438   1.906   5.006   1.290 -0.3124  1.2969 -0.2188
 6478TIP3   OH219439   4.593   4.184   1.776  0.7883  0.3824 -0.0657
 6478TIP3    H119440   4.582   4.155   1.685  0.2755  0.0263  0.1072
 6478TIP3    H219441   4.657   4.123   1.813 -0.4138 -0.6677  0.3455
 6479TIP3   OH219442   2.820   1.169   4.449  0.0788 -0.2061 -0.4184
 6479TIP3    H119443   2.911   1.198   4.452 -0.4923  1.6671  1.4892
 6479TIP3    H219444   2.812   1.107   4.522  0.1593 -1.5884 -1.5530
 6480TIP3   OH219445   1.522   1.017   2.366 -0.1969 -0.2951 -0.6253
 6480TIP3    H119446   1.535   0.923   2.378  1.7057 -0.2862 -2.0668
 6480TIP3    H219447   1.476   1.025   2.282 -1.6119  0.0565  0.1445
 6481TIP3   OH219448   2.432   1.345   2.349 -0.5458 -0.8565  0.2377
 6481TIP3    H119449   2.346   1.382   2.329 -0.1052  0.2399  0.2841
 6481TIP3    H219450   2.493   1.395   2.295  0.1351 -1.1794  0.6909
 6482TIP3   OH219451   4.063   4.143   0.293 -0.0682 -0.1527  0.2135
 6482TIP3    H119452   4.154   4.171   0.301 -0.1953  0.3828 -0.2072
 6482TIP3    H219453   4.068   4.053   0.261  0.2843  0.6533 -2.1341
 6483TIP3   OH219454   5.063   0.580   5.043  0.0514 -0.2802  0.3838
 6483TIP3    H119455   4.999   0.576   5.114 -0.5023  0.6194 -0.0472
 6483TIP3    H219456   5.032   0.516   4.979 -0.8218  0.6258 -0.1301
 6484TIP3   OH219457   2.811   5.306   0.818 -0.4760 -0.0943 -0.6268
 6484TIP3    H119458   2.806   5.215   0.847 -1.6931  0.4756  1.1440
 6484TIP3    H219459   2.727   5.344   0.844  0.8552  2.1055  0.7867
 6485TIP3   OH219460   1.597   2.339   0.516  0.2452 -0.0967 -0.6971
 6485TIP3    H119461   1.686   2.322   0.485  0.2756 -0.4981 -0.4027
 6485TIP3    H219462   1.540   2.292   0.455  0.1320  1.3333 -1.7533
 6486TIP3   OH219463   2.649   3.278   3.654  0.3764  0.2147 -0.0421
 6486TIP3    H119464   2.697   3.206   3.614 -0.0965  0.3620 -0.8871
 6486TIP3    H219465   2.647   3.347   3.588 -0.2109  0.5554  0.3164
 6487TIP3   OH219466   6.181   2.965   2.690  0.5970  0.6427 -0.2001
 6487TIP3    H119467   6.201   2.977   2.597 -1.1376  0.6503 -0.6032
 6487TIP3    H219468   6.135   2.882   2.694 -0.2668  1.1397  0.4953
 6488TIP3   OH219469   4.171   2.977   2.720 -0.3741 -0.1966  0.3427
 6488TIP3    H119470   4.174   3.030   2.640  0.4728 -0.9819 -0.1675
 6488TIP3    H219471   4.219   2.897   2.697 -0.6514 -0.6943  1.4507
 6489TIP3   OH219472   0.213   3.598   3.535 -0.1472  0.4070 -0.0452
 6489TIP3    H119473   0.180   3.582   3.447  1.1626  1.0329 -0.6882
 6489TIP3    H219474   0.280   3.666   3.524  0.9389 -0.3852  1.2347
 6490TIP3   OH219475   4.112   4.965   1.088 -0.3067 -0.2090  0.2228
 6490TIP3    H119476   4.170   4.997   1.157  0.0165  1.4332 -0.7496
 6490TIP3    H219477   4.053   5.039   1.071  0.3449 -0.1359 -2.0134
 6491TIP3   OH219478   0.839   5.304   1.328  0.0841  0.5248 -0.0888
 6491TIP3    H119479   0.814   5.212   1.341  1.8931  0.0276  0.0935
 6491TIP3    H219480   0.932   5.301   1.306 -0.0320  2.2664 -1.0116
 6492TIP3   OH219481   0.285   3.535   4.391  0.1096 -0.1205  0.8199
 6492TIP3    H119482   0.318   3.445   4.385 -0.4737 -0.3258  0.6954
 6492TIP3    H219483   0.261   3.557   4.301 -0.0268  0.0586  0.9014
 6493TIP3   OH219484   0.568   3.175   4.515  0.2856  0.9960  0.6470
 6493TIP3    H119485   0.563   3.194   4.608  0.8979  1.3961  0.6027
 6493TIP3    H219486   0.649   3.216   4.486  0.2564  0.6170 -0.0022
 6494TIP3   OH219487   4.846   1.672   2.716 -0.1385 -0.5774 -0.4179
 6494TIP3    H119488   4.809   1.587   2.741 -1.0416  0.2444  1.2311
 6494TIP3    H219489   4.800   1.694   2.635 -4.5824  0.9579  2.1327
 6495TIP3   OH219490   4.251   1.947   2.278  0.5087  0.0935 -0.1075
 6495TIP3    H119491   4.268   1.932   2.371 -0.2957  0.8408  0.1745
 6495TIP3    H219492   4.213   1.865   2.247  1.3324 -0.3693  0.0659
 6496TIP3   OH219493   5.839   4.102   3.214 -0.5979  0.0291 -0.2541
 6496TIP3    H119494   5.919   4.073   3.171 -1.7766 -1.3515 -1.6328
 6496TIP3    H219495   5.828   4.043   3.289 -0.3304  0.2348 -0.0508
 6497TIP3   OH219496   6.117   5.569   2.521  0.1553 -0.3841 -0.1701
 6497TIP3    H119497   6.157   5.617   2.448 -1.4572  1.2671 -0.0470
 6497TIP3    H219498   6.022   5.580   2.507 -0.2013  0.6360  2.5431
 6498TIP3   OH219499   0.165   1.296   4.791 -0.4639 -0.2243  0.4280
 6498TIP3    H119500   0.242   1.270   4.741 -1.6814 -0.7527 -1.2503
 6498TIP3    H219501   0.201   1.339   4.869  1.5106 -0.5936 -0.2120
 6499TIP3   OH219502   5.612   1.615   0.564 -0.6770  0.0875 -0.1913
 6499TIP3    H119503   5.573   1.652   0.484 -0.1015  0.5173 -0.2813
 6499TIP3    H219504   5.703   1.598   0.540 -0.2948  0.9556  0.6031
 6500TIP3   OH219505   0.144   1.663   3.838  0.4155  0.2086 -0.3871
 6500TIP3    H119506   0.200   1.690   3.765 -0.4047 -1.1382 -1.5552
 6500TIP3    H219507   0.090   1.593   3.802 -0.9332  0.4123  1.1638
 6501TIP3   OH219508   5.198   4.269   5.150  0.4027 -0.1950 -0.8569
 6501TIP3    H119509   5.269   4.223   5.104  3.1512  2.3783  0.4807
 6501TIP3    H219510   5.193   4.354   5.107  1.1446  1.2479  1.6851
 6502TIP3   OH219511   2.132   1.836   3.933  0.1101  0.3195  0.3689
 6502TIP3    H119512   2.134   1.901   4.003 -2.8364 -1.0707  1.9753
 6502TIP3    H219513   2.169   1.757   3.973  1.3305  0.3229 -0.7238
 6503TIP3   OH219514   4.713   1.296   4.677  0.2953  0.0283 -0.0148
 6503TIP3    H119515   4.696   1.287   4.583 -1.8115  0.4251  0.2787
 6503TIP3    H219516   4.675   1.380   4.700 -0.4533 -0.6795  1.4371
 6504TIP3   OH219517   1.764   4.038   3.833  0.2301 -0.4367 -0.2233
 6504TIP3    H119518   1.695   3.987   3.790 -0.1121 -1.5687  1.5803
 6504TIP3    H219519   1.803   3.978   3.896  0.1116  1.3796  1.7039
 6505TIP3   OH219520   3.890   4.942   4.127 -0.0527  0.3270 -0.5259
 6505TIP3    H119521   3.832   4.866   4.127  0.1302  0.1772 -1.1326
 6505TIP3    H219522   3.877   4.981   4.041 -0.0414  0.9053 -0.2663
 6506TIP3   OH219523   3.630   2.558   0.912 -0.0092  0.0447 -0.7680
 6506TIP3    H119524   3.681   2.601   0.981  0.2871  0.4838 -1.2534
 6506TIP3    H219525   3.684   2.568   0.833 -0.9043  0.6532 -1.3218
 6507TIP3   OH219526   2.556   0.618   2.647 -0.5409 -0.4824 -0.1843
 6507TIP3    H119527   2.470   0.579   2.665 -0.7957  0.1129 -0.1135
 6507TIP3    H219528   2.617   0.544   2.653 -1.1501 -1.0863 -1.1468
 6508TIP3   OH219529   0.386   4.856   2.378 -0.1964 -0.1811  0.1866
 6508TIP3    H119530   0.303   4.902   2.388 -0.2224 -0.5209  1.7592
 6508TIP3    H219531   0.430   4.900   2.305 -0.7006  1.6003  0.9144
 6509TIP3   OH219532   1.725   2.448   1.390  0.1930  0.8446  0.7536
 6509TIP3    H119533   1.713   2.542   1.375 -1.0998  0.3802 -1.4566
 6509TIP3    H219534   1.645   2.421   1.435  0.2413  0.6626  0.7298
 6510TIP3   OH219535   2.301   4.234   4.463 -1.0811  0.2186  0.0279
 6510TIP3    H119536   2.312   4.255   4.555  1.2555  0.4206 -0.2540
 6510TIP3    H219537   2.305   4.138   4.460  0.4436  0.2573  0.0046
 6511TIP3   OH219538   4.018   5.221   1.069  0.3176 -0.1300 -0.0632
 6511TIP3    H119539   3.928   5.248   1.054  0.1551 -0.6057  0.0209
 6511TIP3    H219540   4.051   5.282   1.135 -0.3787 -0.7873  0.9239
 6512TIP3   OH219541   4.325   2.827   1.472  0.2903 -0.3786  0.0969
 6512TIP3    H119542   4.242   2.782   1.490 -0.2462 -0.3235 -2.0226
 6512TIP3    H219543   4.375   2.765   1.420  0.4995  0.5804 -0.8724
 6513TIP3   OH219544   1.834   5.036   2.141  0.3385  0.0911  0.6363
 6513TIP3    H119545   1.804   4.968   2.081 -0.9072 -0.5453  1.9243
 6513TIP3    H219546   1.906   4.995   2.189 -0.5479 -0.4400  1.5593
 6514TIP3   OH219547   3.731   0.314   4.575 -0.1195 -0.3739 -0.0145
 6514TIP3    H119548   3.746   0.315   4.481 -1.3416 -0.7532 -0.2335
 6514TIP3    H219549   3.749   0.404   4.604  0.8794 -0.4142 -0.4925
 6515TIP3   OH219550   4.384   1.136   0.396 -0.5266  0.3284  0.5786
 6515TIP3    H119551   4.445   1.175   0.333 -0.2714 -0.3333  0.4114
 6515TIP3    H219552   4.347   1.061   0.350  0.7782 -1.0918  1.7073
 6516TIP3   OH219553   3.671   5.912   3.091 -0.0499  0.1325 -0.0535
 6516TIP3    H119554   3.634   5.827   3.066 -0.0350  0.7121 -2.3108
 6516TIP3    H219555   3.614   5.945   3.160 -2.0694 -0.2537 -1.4683
 6517TIP3   OH219556   2.073   1.644   3.226  0.7353  0.1928 -0.3826
 6517TIP3    H119557   2.076   1.675   3.316  2.0398 -1.2545  0.1195
 6517TIP3    H219558   2.072   1.548   3.234  1.3310  0.0322 -1.9032
 6518TIP3   OH219559   1.996   3.165   1.093  0.0591 -0.6417  0.0418
 6518TIP3    H119560   1.993   3.089   1.035  1.7025 -1.0737  0.4616
 6518TIP3    H219561   1.905   3.182   1.116 -0.4742 -1.5004 -1.3093
 6519TIP3   OH219562   3.274   5.181   3.788 -0.2284  0.2291 -0.0202
 6519TIP3    H119563   3.194   5.216   3.748  0.2674  1.0130 -0.3339
 6519TIP3    H219564   3.317   5.257   3.827  1.3473  0.1823 -1.5274
 6520TIP3   OH219565   3.385   1.295   4.655 -0.2705  0.5224  0.0460
 6520TIP3    H119566   3.327   1.220   4.647 -1.2864  1.3447 -0.6224
 6520TIP3    H219567   3.465   1.260   4.695 -0.7602 -0.8739 -0.1456
 6521TIP3   OH219568   1.905   4.259   4.391 -0.2142  0.5249  0.3317
 6521TIP3    H119569   1.986   4.232   4.347 -0.1646  2.0579 -0.6143
 6521TIP3    H219570   1.902   4.207   4.471  1.9491  0.7491  0.6201
 6522TIP3   OH219571   2.143   1.092   1.297 -0.3159 -0.0318 -1.1680
 6522TIP3    H119572   2.114   1.088   1.389 -0.7152  0.7229 -1.2541
 6522TIP3    H219573   2.226   1.045   1.296 -0.1516  0.2256 -0.3550
 6523TIP3   OH219574   3.160   1.154   2.988 -0.5377  0.0984 -0.3795
 6523TIP3    H119575   3.223   1.226   2.981  1.6446 -1.7654 -1.5295
 6523TIP3    H219576   3.108   1.175   3.066  2.8991  0.7796  1.9844
 6524TIP3   OH219577   4.563   4.638   1.511 -0.2262 -0.1345  0.2837
 6524TIP3    H119578   4.623   4.596   1.449  0.4635 -1.0220  1.4948
 6524TIP3    H219579   4.603   4.722   1.531 -0.1461 -0.0984 -0.0329
 6525TIP3   OH219580   5.669   0.429   0.585 -0.3676  0.0014 -0.5446
 6525TIP3    H119581   5.603   0.441   0.517 -0.8939  0.4236  0.0374
 6525TIP3    H219582   5.675   0.514   0.628  1.2025  0.2380 -1.1713
 6526TIP3   OH219583   3.249   5.240   0.161 -0.0069 -0.0231 -0.0244
 6526TIP3    H119584   3.218   5.291   0.086 -0.9511  0.7683  0.8890
 6526TIP3    H219585   3.294   5.303   0.217  0.5869 -0.5907  0.1550
 6527TIP3   OH219586   4.340   1.003   2.206 -0.9650 -0.0878  0.2899
 6527TIP3    H119587   4.251   0.990   2.240 -0.5706 -1.8298  0.7138
 6527TIP3    H219588   4.372   0.915   2.188  0.8753  0.4797  0.6275
 6528TIP3   OH219589   5.957   1.430   5.128  0.2137  0.3695  0.2511
 6528TIP3    H119590   5.925   1.515   5.157  0.9781 -0.0881  2.6750
 6528TIP3    H219591   5.878   1.379   5.110 -0.2495  1.4955 -1.0291
 6529TIP3   OH219592   2.820   5.726   0.487 -0.0750 -0.1041  0.2264
 6529TIP3    H119593   2.796   5.683   0.569 -1.1089  1.5135  0.8360
 6529TIP3    H219594   2.849   5.655   0.430 -0.4536 -1.4162  1.5915
 6530TIP3   OH219595   3.926   4.211   4.891  0.2280  0.1066 -0.1024
 6530TIP3    H119596   3.899   4.215   4.982  1.2486  3.1330  0.1686
 6530TIP3    H219597   3.999   4.272   4.884 -0.9246  1.3572 -3.2849
 6531TIP3   OH219598   6.135   5.713   2.761  0.0035  0.0585  0.4637
 6531TIP3    H119599   6.161   5.648   2.696 -1.9552  0.4981 -0.8705
 6531TIP3    H219600   6.040   5.720   2.751 -0.0990  1.5980  2.0238
 6532TIP3   OH219601   2.386   3.577   4.792  0.3383  0.7813  0.5077
 6532TIP3    H119602   2.390   3.512   4.722 -0.1618  1.5727 -0.2775
 6532TIP3    H219603   2.472   3.573   4.834  0.1936 -0.6114  0.6950
 6533TIP3   OH219604   0.537   4.414   2.545 -0.2721 -0.3057 -0.5339
 6533TIP3    H119605   0.556   4.345   2.481  0.5332  0.7210 -1.4518
 6533TIP3    H219606   0.610   4.411   2.607 -0.2017 -0.2412 -0.6132
 6534TIP3   OH219607   5.621   3.687   4.647  0.4896  0.0452  0.0084
 6534TIP3    H119608   5.667   3.771   4.655 -1.4609  1.6877 -3.3811
 6534TIP3    H219609   5.529   3.709   4.657 -0.2471 -1.2092 -2.8293
 6535TIP3   OH219610   2.055   2.545   3.363 -0.0649 -0.4290 -0.6230
 6535TIP3    H119611   2.112   2.614   3.398  0.2564 -0.4200 -1.1659
 6535TIP3    H219612   2.115   2.475   3.337 -0.1529  0.1566 -2.5536
 6536TIP3   OH219613   0.893   4.223   0.312  0.1725 -0.5099  0.3612
 6536TIP3    H119614   0.955   4.151   0.307  1.8075  0.8834 -1.2011
 6536TIP3    H219615   0.883   4.240   0.406 -1.6462 -3.7878  0.8969
 6537TIP3   OH219616   1.554   4.337   3.579 -0.1877 -0.0829 -0.3260
 6537TIP3    H119617   1.489   4.355   3.512 -0.6323  0.9139  0.3589
 6537TIP3    H219618   1.604   4.418   3.587 -0.1188 -0.2017  0.5260
 6538TIP3   OH219619   2.867   1.909   2.706 -0.0417  0.1604 -0.2330
 6538TIP3    H119620   2.810   1.882   2.634 -1.1319  1.3092  0.1775
 6538TIP3    H219621   2.925   1.975   2.668  0.2342 -0.1529 -0.3603
 6539TIP3   OH219622   1.717   0.438   1.097 -0.2180  0.1233 -0.4732
 6539TIP3    H119623   1.656   0.372   1.063 -2.6342  1.9760  0.0124
 6539TIP3    H219624   1.802   0.411   1.062 -1.2219 -2.7038 -1.0383
 6540TIP3   OH219625   6.326   0.679   4.089  0.4800 -0.0822  0.5313
 6540TIP3    H119626   6.415   0.645   4.099  0.4322 -0.2548  0.3763
 6540TIP3    H219627   6.306   0.667   3.996  1.1428  2.0528  0.0608
 6541TIP3   OH219628   6.174   1.842   4.766  0.1454 -0.4102 -0.7184
 6541TIP3    H119629   6.106   1.908   4.782 -0.6995 -1.4193 -0.0079
 6541TIP3    H219630   6.154   1.807   4.679 -0.6929 -1.2013 -0.2198
 6542TIP3   OH219631   3.525   5.912   1.204  0.4679  0.1634  0.5268
 6542TIP3    H119632   3.432   5.936   1.208  0.2628 -0.7627  2.7617
 6542TIP3    H219633   3.533   5.861   1.124 -0.2420  2.8092 -1.3656
 6543TIP3   OH219634   1.870   4.405   3.665  0.4672  0.0952  0.0359
 6543TIP3    H119635   1.855   4.396   3.570  0.2672 -0.0829  0.0839
 6543TIP3    H219636   1.849   4.496   3.684 -0.0444 -0.0105  0.0064
 6544TIP3   OH219637   3.700   1.324   2.565 -0.2962  0.2201  0.1378
 6544TIP3    H119638   3.647   1.309   2.644 -0.1472 -2.5687 -0.1775
 6544TIP3    H219639   3.788   1.341   2.598  0.0118 -2.0266  0.6606
 6545TIP3   OH219640   2.009   0.478   3.101 -0.1307 -0.0629 -0.3022
 6545TIP3    H119641   2.067   0.402   3.097  1.6058  1.1318  0.8321
 6545TIP3    H219642   2.068   0.553   3.113 -1.8198  1.4039 -0.6766
 6546TIP3   OH219643   0.536   0.387   2.396 -0.2122 -0.3675 -0.6677
 6546TIP3    H119644   0.467   0.395   2.330  0.3313  0.8463 -1.1339
 6546TIP3    H219645   0.525   0.465   2.451 -0.7501 -1.4399  0.7912
 6547TIP3   OH219646   0.707   4.931   2.267  0.4755 -0.3356  0.5892
 6547TIP3    H119647   0.756   4.958   2.189  0.7491 -1.4852  0.3424
 6547TIP3    H219648   0.661   4.852   2.239 -1.5705  0.7127  0.8108
 6548TIP3   OH219649   4.454   2.530   0.294  0.7734  0.1134 -0.1711
 6548TIP3    H119650   4.455   2.455   0.354 -0.4743  0.0722 -0.1859
 6548TIP3    H219651   4.545   2.536   0.263  1.1549 -0.6577  0.7267
 6549TIP3   OH219652   1.360   5.343   4.685 -0.3080 -0.4193 -0.1822
 6549TIP3    H119653   1.430   5.312   4.743  1.4732  2.8332 -0.3428
 6549TIP3    H219654   1.299   5.389   4.742  1.4592  2.8071 -0.6545
 6550TIP3   OH219655   4.376   0.693   4.440  0.3036  0.3016 -0.1147
 6550TIP3    H119656   4.309   0.762   4.441 -0.1277 -0.0963 -0.5913
 6550TIP3    H219657   4.458   0.739   4.456 -0.1754  0.6788  1.3476
 6551TIP3   OH219658   5.954   1.527   3.388 -0.0472  0.0810 -0.5880
 6551TIP3    H119659   5.909   1.549   3.469 -0.6732  0.5547 -1.0527
 6551TIP3    H219660   5.923   1.439   3.366  0.1191 -0.0448 -0.3186
 6552TIP3   OH219661   3.660   2.897   0.714 -0.0804  0.2932  0.7196
 6552TIP3    H119662   3.605   2.901   0.792 -1.4561  1.3328 -0.2533
 6552TIP3    H219663   3.601   2.915   0.642  0.9522 -1.6618 -0.7133
 6553TIP3   OH219664   4.516   3.060   3.845  0.0534 -0.4202  0.0840
 6553TIP3    H119665   4.473   3.034   3.927 -1.6008 -0.5679 -0.7847
 6553TIP3    H219666   4.525   2.979   3.796 -1.2544 -0.0253 -0.8799
 6554TIP3   OH219667   0.062   3.677   0.365  0.5224  0.2875 -0.4488
 6554TIP3    H119668   0.033   3.618   0.435  1.1929  1.0869  0.5400
 6554TIP3    H219669  -0.012   3.734   0.349  0.4792  0.3194 -0.1445
 6555TIP3   OH219670   2.662   3.756   4.687 -0.2896 -0.0662 -0.1811
 6555TIP3    H119671   2.597   3.792   4.626  0.6991 -3.0208 -3.3398
 6555TIP3    H219672   2.626   3.672   4.714  2.1916 -2.1058 -2.5395
 6556TIP3   OH219673   1.499   1.789   1.924 -0.2799  0.1196  0.0394
 6556TIP3    H119674   1.472   1.701   1.898 -0.0884 -0.1275  0.6431
 6556TIP3    H219675   1.433   1.815   1.989  0.4725 -0.1821  0.9556
 6557TIP3   OH219676   1.830   5.025   0.390 -0.1465 -0.3843 -0.2424
 6557TIP3    H119677   1.854   5.073   0.469  0.0458 -0.4623 -0.2536
 6557TIP3    H219678   1.880   4.944   0.395 -0.4125 -0.5535 -0.2619
 6558TIP3   OH219679   1.082   0.812   1.295 -0.5107 -0.1086 -0.2862
 6558TIP3    H119680   1.122   0.889   1.255 -0.4595 -0.4498 -0.8918
 6558TIP3    H219681   0.989   0.819   1.271 -0.6264  0.1110  0.2133
 6559TIP3   OH219682   6.172   2.362   1.658 -0.3901  0.0533  0.3754
 6559TIP3    H119683   6.151   2.272   1.636 -0.8163 -0.2934  2.0921
 6559TIP3    H219684   6.261   2.375   1.625 -0.8976 -0.4642 -1.2901
 6560TIP3   OH219685   0.858   3.854   3.409 -0.3452 -0.2852 -0.0470
 6560TIP3    H119686   0.912   3.796   3.355  0.2335  0.1480  0.0545
 6560TIP3    H219687   0.896   3.847   3.497 -1.1456 -0.8199  0.2654
 6561TIP3   OH219688   1.523   4.868   2.414 -0.1015  0.1333  0.1709
 6561TIP3    H119689   1.481   4.861   2.499 -0.6142  1.1893  0.0237
 6561TIP3    H219690   1.616   4.863   2.432 -0.2061  0.4937  0.8101
 6562TIP3   OH219691   6.157   3.925   4.187 -0.1838  0.1746  0.0652
 6562TIP3    H119692   6.146   3.869   4.110  0.1281  0.0038  0.1407
 6562TIP3    H219693   6.248   3.955   4.181 -0.0724 -0.0729  0.5213
 6563TIP3   OH219694   3.156   3.995   3.940 -0.1158 -0.4224 -0.0539
 6563TIP3    H119695   3.083   3.953   3.986 -0.4239 -1.0367 -1.0684
 6563TIP3    H219696   3.174   3.937   3.865  0.7158  0.2714 -0.4104
 6564TIP3   OH219697   4.459   3.805   5.016  0.2605  0.1532  1.0011
 6564TIP3    H119698   4.496   3.892   5.006 -0.9279  0.7379  1.4828
 6564TIP3    H219699   4.464   3.766   4.929  0.7967  0.6936  0.7833
 6565TIP3   OH219700   4.496   4.887   0.130  0.2117 -0.2671 -0.0944
 6565TIP3    H119701   4.411   4.911   0.167 -0.5745 -1.1740 -1.2249
 6565TIP3    H219702   4.560   4.920   0.193 -1.0285 -1.6184  1.9802
 6566TIP3   OH219703   0.565   5.535   0.852  0.2341 -0.0092 -0.2557
 6566TIP3    H119704   0.538   5.447   0.826 -2.6115  0.9395 -0.9009
 6566TIP3    H219705   0.560   5.587   0.771  2.4335  0.6783 -0.0186
 6567TIP3   OH219706   6.258   5.441   4.333 -0.1548  0.5465 -0.3099
 6567TIP3    H119707   6.308   5.389   4.269 -1.5354 -1.4903  0.1640
 6567TIP3    H219708   6.257   5.529   4.296  1.4845  0.0635 -1.6577
 6568TIP3   OH219709   1.036   4.148   2.151 -0.2737  0.1560 -0.2178
 6568TIP3    H119710   1.109   4.085   2.148  0.8921  1.3896  0.7860
 6568TIP3    H219711   1.027   4.169   2.244 -1.3540  0.6649 -0.4271
 6569TIP3   OH219712   1.787   5.934   4.736 -0.0797 -0.1657 -0.3858
 6569TIP3    H119713   1.774   5.915   4.829 -0.7817  1.1484 -0.1843
 6569TIP3    H219714   1.848   5.866   4.706 -1.5425 -1.9434  0.4939
 6570TIP3   OH219715   5.828   4.997   0.531  0.1433 -0.4897  1.0430
 6570TIP3    H119716   5.806   4.990   0.438 -0.0254 -0.6268  1.0925
 6570TIP3    H219717   5.917   5.032   0.532  0.6390 -1.6984  0.8039
 6571TIP3   OH219718   1.725   5.888   3.444  0.1410  0.7189 -0.2925
 6571TIP3    H119719   1.733   5.800   3.480 -1.6882  0.5765 -0.1436
 6571TIP3    H219720   1.737   5.946   3.520 -1.4365  0.4913  0.1553
 6572TIP3   OH219721   2.927   3.471   0.529  0.0123 -0.7901 -0.5391
 6572TIP3    H119722   2.892   3.515   0.606 -1.3277  0.1719 -1.6409
 6572TIP3    H219723   2.850   3.453   0.474  1.0150 -0.3839 -2.1647
 6573TIP3   OH219724   0.149   5.773   2.113  0.4922  0.6340 -0.3897
 6573TIP3    H119725   0.126   5.863   2.091 -1.4430 -0.3547 -2.8692
 6573TIP3    H219726   0.200   5.742   2.038  0.1455 -0.6943 -0.1019
 6574TIP3   OH219727   6.211   1.887   3.834 -0.2686 -0.2210 -0.0713
 6574TIP3    H119728   6.192   1.974   3.870 -0.2344 -0.2168 -0.0630
 6574TIP3    H219729   6.188   1.894   3.741 -0.2011 -0.1820 -0.0853
 6575TIP3   OH219730   2.150   2.416   5.013  0.2224 -0.5754 -0.2170
 6575TIP3    H119731   2.123   2.471   4.939 -2.0031 -0.4197  0.6327
 6575TIP3    H219732   2.244   2.401   4.999  0.2695  1.0328 -2.0173
 6576TIP3   OH219733   2.722   0.422   2.612 -0.2259 -0.2567  0.0567
 6576TIP3    H119734   2.772   0.439   2.532  0.1878 -0.9756  0.1530
 6576TIP3    H219735   2.727   0.327   2.624  0.8418 -0.0452  1.6487
 6577TIP3   OH219736   5.589   2.158   1.460  0.0345  0.0593 -0.1529
 6577TIP3    H119737   5.542   2.230   1.502  1.1873  0.4933  0.4333
 6577TIP3    H219738   5.610   2.099   1.532 -1.0143 -0.9595 -0.6455
 6578TIP3   OH219739   0.855   3.324   1.883  0.2871  0.2433 -0.0979
 6578TIP3    H119740   0.865   3.311   1.977 -0.2243 -1.1978 -0.2178
 6578TIP3    H219741   0.928   3.277   1.843 -1.1087 -1.7287 -0.5092
 6579TIP3   OH219742   5.932   2.491   3.550  0.2456  0.2596 -0.4407
 6579TIP3    H119743   5.959   2.493   3.458 -1.0949 -2.6382 -1.0054
 6579TIP3    H219744   6.011   2.465   3.598  0.1634 -1.5402 -1.2306
 6580TIP3   OH219745   4.912   2.876   1.626  0.2921  0.4997  0.0749
 6580TIP3    H119746   4.938   2.966   1.606  1.0737 -0.0449 -1.5320
 6580TIP3    H219747   4.817   2.877   1.617  0.2878  1.1654  0.0981
 6581TIP3   OH219748   1.322   4.413   3.446 -0.1629  0.4991  0.4866
 6581TIP3    H119749   1.227   4.412   3.432 -0.2928 -0.0917  1.3444
 6581TIP3    H219750   1.356   4.461   3.371 -0.9484 -1.0759 -0.9440
 6582TIP3   OH219751   2.268   0.813   1.918 -0.6817  0.2378 -0.0167
 6582TIP3    H119752   2.267   0.903   1.949 -0.2985 -0.2528  1.5348
 6582TIP3    H219753   2.181   0.779   1.939  0.1942 -0.6777  2.4944
 6583TIP3   OH219754   1.554   3.527   3.723  0.2358  0.1311  0.0405
 6583TIP3    H119755   1.585   3.478   3.647 -1.2423  1.8970 -1.7762
 6583TIP3    H219756   1.460   3.512   3.726  0.3389 -0.4598  1.9886
 6584TIP3   OH219757   3.511   3.770   4.641  0.5280 -0.2155  0.1947
 6584TIP3    H119758   3.522   3.748   4.733  1.7635 -2.1847 -0.3720
 6584TIP3    H219759   3.549   3.696   4.594  0.7423  1.1593 -1.9081
 6585TIP3   OH219760   3.556   2.023   4.026 -0.2086  0.3900 -0.2115
 6585TIP3    H119761   3.466   2.051   4.008 -0.1900  1.8428  1.6750
 6585TIP3    H219762   3.573   1.955   3.961 -2.7496 -0.0948 -0.4754
 6586TIP3   OH219763   0.934   5.561   3.865  0.4346 -0.0319 -0.4869
 6586TIP3    H119764   0.913   5.621   3.936 -1.1352  0.0704 -0.9771
 6586TIP3    H219765   0.953   5.617   3.790  0.2946 -0.1336 -0.6013
 6587TIP3   OH219766   2.003   3.364   0.421 -0.4556  0.3389  0.0059
 6587TIP3    H119767   1.966   3.287   0.378  1.8682 -0.9097  0.0719
 6587TIP3    H219768   2.059   3.329   0.490  2.1282  1.9375 -1.1096
 6588TIP3   OH219769   1.893   1.757   2.416 -0.1150  0.0532 -0.0023
 6588TIP3    H119770   1.921   1.720   2.332  0.2466 -0.7680  0.4670
 6588TIP3    H219771   1.944   1.837   2.425 -0.9446  0.7308 -1.0592
 6589TIP3   OH219772   4.267   1.012   0.692 -0.1623  0.5769 -0.3238
 6589TIP3    H119773   4.180   1.020   0.655 -0.3985  1.2747  0.3565
 6589TIP3    H219774   4.299   1.101   0.700  1.5366  0.2546 -2.6318
 6590TIP3   OH219775   2.455   3.769   1.878 -0.4911  0.0728 -0.2139
 6590TIP3    H119776   2.464   3.842   1.816 -0.1638 -0.0147 -0.2713
 6590TIP3    H219777   2.493   3.694   1.832  1.2061  0.3361  0.6804
 6591TIP3   OH219778   1.405   3.571   4.398 -0.2188 -0.7340 -0.6151
 6591TIP3    H119779   1.439   3.660   4.390 -1.9985  0.1178  0.5696
 6591TIP3    H219780   1.478   3.515   4.373  1.9815  0.9509  1.5451
 6592TIP3   OH219781   2.616   0.516   0.600 -0.4853 -0.3049  0.3228
 6592TIP3    H119782   2.577   0.498   0.515  1.8503  0.0984 -0.9178
 6592TIP3    H219783   2.581   0.602   0.624 -1.6185 -0.6785  0.0869
 6593TIP3   OH219784   0.368   4.598   2.649 -0.0541 -0.1611  0.1130
 6593TIP3    H119785   0.429   4.533   2.614  0.0059  0.1233 -0.3206
 6593TIP3    H219786   0.282   4.558   2.637  0.1305 -1.5033  2.7002
 6594TIP3   OH219787   4.301   5.829   4.365  0.0638  0.3584 -0.1043
 6594TIP3    H119788   4.236   5.795   4.425  0.8713 -1.5626 -0.2574
 6594TIP3    H219789   4.376   5.770   4.374  1.3296  1.7799 -0.8208
 6595TIP3   OH219790   2.512   1.057   0.295  0.4267  0.2600  0.3928
 6595TIP3    H119791   2.569   1.133   0.291 -0.9882  1.4468  1.5598
 6595TIP3    H219792   2.454   1.074   0.369 -1.1401 -1.0983 -0.4467
 6596TIP3   OH219793   4.886   5.176   1.124  0.0431 -0.0859 -0.3717
 6596TIP3    H119794   4.974   5.205   1.148  0.4532 -0.7360 -1.0429
 6596TIP3    H219795   4.887   5.081   1.135 -0.6165 -0.0864 -0.2614
 6597TIP3   OH219796   2.522   1.481   0.756  0.1723 -0.4144 -0.1484
 6597TIP3    H119797   2.560   1.523   0.833 -1.7874  0.8901  0.2010
 6597TIP3    H219798   2.561   1.528   0.682  0.7275 -0.4576  0.1119
 6598TIP3   OH219799   1.794   0.521   2.842 -0.2136  0.2790 -0.3776
 6598TIP3    H119800   1.801   0.614   2.864 -0.6401 -0.0770  1.4299
 6598TIP3    H219801   1.767   0.520   2.750 -1.1288  1.9539 -0.1678
 6599TIP3   OH219802   4.358   4.375   1.524 -0.2779  0.3939 -0.1396
 6599TIP3    H119803   4.314   4.303   1.479 -1.2525  2.2273 -2.3372
 6599TIP3    H219804   4.452   4.357   1.511 -0.4988 -0.5053 -0.6097
 6600TIP3   OH219805   3.547   4.681   0.221  0.2444 -0.1828  0.0835
 6600TIP3    H119806   3.564   4.588   0.205 -0.4953 -0.7045  2.0635
 6600TIP3    H219807   3.543   4.689   0.316  0.4010  1.9175 -0.0382
 6601TIP3   OH219808   4.530   4.141   0.060  0.0285 -0.4261 -0.1080
 6601TIP3    H119809   4.532   4.058   0.013  0.4410  0.1901 -1.2011
 6601TIP3    H219810   4.501   4.206  -0.004 -1.5619  0.0903  1.0637
 6602TIP3   OH219811   3.949   4.342   0.552  0.1378  0.2414  0.7200
 6602TIP3    H119812   3.946   4.249   0.570  0.5301  0.3092  1.1393
 6602TIP3    H219813   4.028   4.354   0.499 -0.1277  0.2815  0.3249
 6603TIP3   OH219814   5.769   2.582   4.932 -0.6033  0.3807 -0.0297
 6603TIP3    H119815   5.703   2.546   4.991 -0.3790  1.4886  0.9169
 6603TIP3    H219816   5.759   2.531   4.852 -1.7671 -0.2970  0.5209
 6604TIP3   OH219817   5.203   0.339   1.682 -0.5228  0.2089 -0.0506
 6604TIP3    H119818   5.164   0.262   1.723  0.2683  0.5898  1.5097
 6604TIP3    H219819   5.144   0.411   1.705  0.8269  0.7330  2.0517
 6605TIP3   OH219820   5.042   1.551   4.970 -0.5262 -0.4182  0.4517
 6605TIP3    H119821   5.067   1.585   5.057  0.8140 -0.1361 -0.0192
 6605TIP3    H219822   5.062   1.458   4.974 -0.1769 -0.3467  0.3396
 6606TIP3   OH219823   3.969   1.893   1.704  0.0341  0.0039  0.0876
 6606TIP3    H119824   4.025   1.891   1.627  1.0865 -2.0035  0.8397
 6606TIP3    H219825   4.017   1.843   1.770 -1.4593  0.4991  1.6114
 6607TIP3   OH219826   5.702   5.798   0.630 -0.3418  0.4228  0.1443
 6607TIP3    H119827   5.668   5.732   0.570  1.4684  0.0555 -0.5347
 6607TIP3    H219828   5.624   5.840   0.666 -1.6665 -3.1197  1.8472
 6608TIP3   OH219829   0.108   4.430   4.607 -0.5802  0.2634  0.2229
 6608TIP3    H119830   0.034   4.387   4.650  0.0903 -2.5752 -1.1761
 6608TIP3    H219831   0.185   4.397   4.653 -0.0615  1.2728  0.1149
 6609TIP3   OH219832   0.142   4.797   3.973 -0.0509 -0.5150 -0.2330
 6609TIP3    H119833   0.182   4.832   4.053 -0.8739  0.1175 -0.0799
 6609TIP3    H219834   0.131   4.704   3.990 -0.6961 -0.2938  0.6008
 6610TIP3   OH219835   4.858   0.864   3.580 -0.7116  0.1943 -0.4056
 6610TIP3    H119836   4.934   0.905   3.621 -0.3017 -0.8465 -0.1051
 6610TIP3    H219837   4.784   0.891   3.634 -0.3707  0.0858  0.1211
 6611TIP3   OH219838   6.060   3.433   4.064  0.0057 -0.2771  0.4000
 6611TIP3    H119839   6.013   3.352   4.085 -1.0149 -0.2203 -1.4806
 6611TIP3    H219840   5.992   3.494   4.038  0.8451  0.9474  1.0061
 6612TIP3   OH219841   1.758   2.842   4.243 -0.5599 -0.3231 -0.3555
 6612TIP3    H119842   1.823   2.813   4.306 -0.6941 -0.5367 -0.3170
 6612TIP3    H219843   1.676   2.845   4.292 -1.1045 -2.5544 -1.0194
 6613TIP3   OH219844   3.645   4.719   1.061  0.1961 -0.4318 -0.1725
 6613TIP3    H119845   3.722   4.665   1.082  0.6743  0.1229 -0.4778
 6613TIP3    H219846   3.606   4.676   0.985 -1.0952 -1.9982  1.2944
 6614TIP3   OH219847   0.269   3.642   1.937 -0.6030  0.3328  0.2928
 6614TIP3    H119848   0.175   3.630   1.920 -0.6424 -0.2463  0.8703
 6614TIP3    H219849   0.306   3.663   1.852 -1.0825 -0.5902 -0.1612
 6615TIP3   OH219850   1.765   1.169  -0.021 -0.1002 -1.0352  0.3975
 6615TIP3    H119851   1.836   1.207   0.031 -0.5960  0.4793  0.0234
 6615TIP3    H219852   1.698   1.147   0.044 -0.5293  0.4257  0.4912
 6616TIP3   OH219853   4.981   5.430   3.048 -0.8440  0.1029  0.5009
 6616TIP3    H119854   5.004   5.461   2.961 -0.8321 -0.5878  0.2481
 6616TIP3    H219855   5.046   5.470   3.106 -0.6698  0.3311  0.1510
 6617TIP3   OH219856   3.724   2.231   2.290  0.5868 -0.0473 -0.2100
 6617TIP3    H119857   3.697   2.285   2.215 -1.8864 -1.7586 -0.6628
 6617TIP3    H219858   3.686   2.275   2.366  2.2041  1.1077 -0.0146
 6618TIP3   OH219859   2.956   0.182   3.413 -0.4444 -0.5059  0.4686
 6618TIP3    H119860   2.959   0.277   3.429  2.9347 -0.3779 -0.1075
 6618TIP3    H219861   2.942   0.174   3.319 -1.2435 -0.6213  0.5914
 6619TIP3   OH219862   4.343   1.661   2.373  0.0459 -0.2445  0.2580
 6619TIP3    H119863   4.296   1.581   2.397  1.4195 -0.7703  1.3153
 6619TIP3    H219864   4.342   1.661   2.278  0.4527 -1.8175  0.2184
 6620TIP3   OH219865   5.926   5.434   1.364  0.1053  0.0225 -0.1451
 6620TIP3    H119866   5.970   5.487   1.430  1.4437  0.3501 -1.2465
 6620TIP3    H219867   5.898   5.355   1.410  1.5713 -0.0416  0.6746
 6621TIP3   OH219868   3.716   1.244   2.287 -0.0674 -0.3133  0.1141
 6621TIP3    H119869   3.786   1.180   2.302  1.1402  0.6434 -1.1619
 6621TIP3    H219870   3.719   1.301   2.363  0.3364 -0.4768  0.2265
 6622TIP3   OH219871   1.859   3.821   1.332  0.1894 -1.0250  0.3096
 6622TIP3    H119872   1.927   3.768   1.291 -0.4236 -1.4621 -0.1503
 6622TIP3    H219873   1.793   3.834   1.264 -0.0716 -0.3818  0.6703
 6623TIP3   OH219874   3.627   2.285   4.430  0.2732  0.2382  0.2777
 6623TIP3    H119875   3.662   2.197   4.440 -0.1401  0.0510  0.1033
 6623TIP3    H219876   3.535   2.272   4.409  0.0936  0.7264  0.7363
 6624TIP3   OH219877   5.416   3.206   0.521  0.7302  0.2997 -0.5570
 6624TIP3    H119878   5.379   3.261   0.591  0.6247  0.4421 -0.7253
 6624TIP3    H219879   5.494   3.254   0.492  1.4350 -0.3262  0.2573
 6625TIP3   OH219880   3.244   3.124   3.434  0.6260 -0.4568 -0.1505
 6625TIP3    H119881   3.291   3.199   3.471  3.2328 -0.8175 -2.3818
 6625TIP3    H219882   3.254   3.054   3.499  2.5065 -0.2485 -0.1720
 6626TIP3   OH219883   0.085   3.847   4.911  0.2382  0.2969 -0.3883
 6626TIP3    H119884   0.015   3.827   4.848  1.0195 -0.1431 -1.1349
 6626TIP3    H219885   0.074   3.783   4.980 -0.3456  0.4892 -0.2944
 6627TIP3   OH219886   2.827   1.334   2.686  0.0163 -0.4456 -0.3610
 6627TIP3    H119887   2.792   1.407   2.635 -1.4589 -1.3620 -0.7306
 6627TIP3    H219888   2.862   1.374   2.765 -0.2153  0.7180 -0.8306
 6628TIP3   OH219889   4.334   2.576   3.551  0.0152 -0.4384 -0.0280
 6628TIP3    H119890   4.393   2.519   3.600  0.5102 -1.5906 -1.8666
 6628TIP3    H219891   4.378   2.589   3.467 -2.6110 -2.0367 -1.8115
 6629TIP3   OH219892   6.104   4.797   3.459  0.3672 -0.1211  0.6071
 6629TIP3    H119893   6.040   4.726   3.473 -1.2748  0.9323 -1.0749
 6629TIP3    H219894   6.083   4.862   3.525 -2.6750  1.6930 -1.8349
 6630TIP3   OH219895   0.704   0.083   2.222 -0.2946  0.2973 -0.4222
 6630TIP3    H119896   0.725   0.094   2.130 -1.4023  1.5478 -0.5596
 6630TIP3    H219897   0.613   0.053   2.223  0.5517 -2.5272  0.2121
 6631TIP3   OH219898   2.496   2.713   1.833  1.0813 -0.1614  0.1917
 6631TIP3    H119899   2.577   2.663   1.817  2.1514  1.8828 -1.2647
 6631TIP3    H219900   2.452   2.714   1.748  0.9682  1.1143  0.2490
 6632TIP3   OH219901   5.234   1.412   1.508 -0.5565  0.3551  0.6452
 6632TIP3    H119902   5.298   1.406   1.579  0.0160 -2.2218  0.0103
 6632TIP3    H219903   5.286   1.408   1.428 -1.3682  0.5245  0.0901
 6633TIP3   OH219904   3.347   1.740   1.858 -0.2641 -0.6295  0.2465
 6633TIP3    H119905   3.303   1.664   1.895  0.6402 -1.8439 -1.0934
 6633TIP3    H219906   3.357   1.720   1.765  2.1030  0.0467  0.2729
 6634TIP3   OH219907   6.186   3.866   2.753  0.3351  0.3466 -0.1003
 6634TIP3    H119908   6.178   3.882   2.659  0.1107 -0.6776 -0.2757
 6634TIP3    H219909   6.119   3.922   2.792 -1.1988 -0.8921 -0.7705
 6635TIP3   OH219910   1.098   5.199   2.746  0.2693  0.4096  0.0264
 6635TIP3    H119911   1.036   5.223   2.677 -0.3890 -0.7824  0.1699
 6635TIP3    H219912   1.156   5.274   2.754 -1.9173  2.1041  0.7431
 6636TIP3   OH219913   2.491   5.141   3.830 -0.0781  0.6138 -0.5920
 6636TIP3    H119914   2.567   5.083   3.825  1.2081  2.2041 -0.4332
 6636TIP3    H219915   2.448   5.117   3.912  1.1832  0.7343  0.1336
 6637TIP3   OH219916   0.733   5.456   2.988  0.7963 -0.5970  0.6545
 6637TIP3    H119917   0.769   5.440   3.075  0.3292 -0.0191  0.9632
 6637TIP3    H219918   0.640   5.432   2.995  0.1179  1.8556  1.0722
 6638TIP3   OH219919   1.780   3.228   1.420 -1.0316 -0.5283  0.2597
 6638TIP3    H119920   1.712   3.195   1.480 -0.6904 -2.0802 -0.1595
 6638TIP3    H219921   1.797   3.317   1.450 -0.5100 -1.3985  2.8315
 6639TIP3   OH219922   5.269   1.746   5.207 -0.0923  0.0685 -0.3228
 6639TIP3    H119923   5.177   1.751   5.232 -0.6329  2.6296 -2.3434
 6639TIP3    H219924   5.269   1.758   5.112  2.3206 -0.3221 -0.4463
 6640TIP3   OH219925   5.717   3.702   2.611 -0.8435  0.8831 -0.1752
 6640TIP3    H119926   5.801   3.694   2.566 -0.8596 -0.8099  0.0323
 6640TIP3    H219927   5.708   3.795   2.629 -0.1363  1.4139 -2.3143
 6641TIP3   OH219928   4.651   2.161   1.000 -0.0611 -0.0898 -0.2023
 6641TIP3    H119929   4.623   2.240   1.045 -2.6411 -0.7392 -0.4967
 6641TIP3    H219930   4.738   2.183   0.965 -0.7332  2.6681 -0.4183
 6642TIP3   OH219931   3.498   4.737   2.633 -0.0628  0.2063  0.0607
 6642TIP3    H119932   3.529   4.818   2.592  1.4434 -0.0489  0.6352
 6642TIP3    H219933   3.535   4.667   2.578  0.8867 -0.1140  1.0630
 6643TIP3   OH219934   1.237   4.523   1.193  0.0490  0.4500  0.1624
 6643TIP3    H119935   1.284   4.440   1.200  2.0873  1.5590  0.3064
 6643TIP3    H219936   1.157   4.510   1.245  0.4157 -1.3276  0.3490
 6644TIP3   OH219937   0.804   2.189   0.957 -0.3761 -0.2250 -0.1055
 6644TIP3    H119938   0.744   2.248   0.913  2.4058  3.8149  1.0021
 6644TIP3    H219939   0.859   2.154   0.887  0.4699  1.7372 -0.4685
 6645TIP3   OH219940   5.322   5.581   1.659 -0.7086 -0.0175  0.5059
 6645TIP3    H119941   5.249   5.637   1.633 -2.0808 -1.7789  0.3704
 6645TIP3    H219942   5.307   5.563   1.751  0.2287  0.5225  0.7816
   6.34956   5.98641   5.18439   0.00000   0.00000  -2.11653   0.00000  -2.11653  -2.99321
