Title
29212
    1ASP      N    1   2.460   3.714   2.202  0.8042  0.3501  0.7333
    1ASP    HT1    2   2.477   3.617   2.168 -3.8315  0.2324 -2.0728
    1ASP    HT2    3   2.369   3.743   2.162  1.1460  1.5675  0.7947
    1ASP    HT3    4   2.456   3.702   2.305  1.7949 -1.6837  0.5844
    1ASP     CA    5   2.561   3.817   2.178 -0.0024 -0.1769 -0.2001
    1ASP     HA    6   2.592   3.817   2.075  0.6490  1.3986 -0.0437
    1ASP     CB    7   2.492   3.957   2.212  0.5442 -0.2137 -0.0675
    1ASP    HB1    8   2.478   3.974   2.321 -0.7932  0.9040 -0.3922
    1ASP    HB2    9   2.397   3.975   2.159  1.4709  1.0399 -1.3639
    1ASP     CG   10   2.585   4.068   2.155 -0.1885 -0.3027 -0.1053
    1ASP    OD1   11   2.674   4.045   2.069 -0.0484 -0.0587 -0.1118
    1ASP    OD2   12   2.567   4.186   2.196  0.1093  0.5822 -0.1088
    1ASP      C   13   2.689   3.788   2.260 -0.3140  0.3181 -0.5601
    1ASP      O   14   2.684   3.703   2.349 -0.2564  0.0810  0.5643
    2GLY      N   15   2.802   3.853   2.238 -0.2496  0.4513 -0.2435
    2GLY     HN   16   2.807   3.926   2.170  0.6564  1.3693  0.7770
    2GLY     CA   17   2.929   3.858   2.312 -0.1045  0.6105  0.1281
    2GLY    HA1   18   2.914   3.899   2.411  2.0974 -0.6074  1.0340
    2GLY    HA2   19   2.992   3.915   2.244  0.5203 -0.2369 -0.0156
    2GLY      C   20   2.997   3.724   2.328  0.4389 -0.3461 -0.2291
    2GLY      O   21   2.966   3.640   2.242  0.0352  0.5871  0.2447
    3ASP      N   22   3.071   3.709   2.435 -0.1131  0.2769 -0.2552
    3ASP     HN   23   3.068   3.780   2.505 -3.6910 -0.8413  0.9818
    3ASP     CA   24   3.141   3.589   2.473 -1.7386  0.1798 -0.1097
    3ASP     HA   25   3.211   3.564   2.395 -0.7894 -0.0897  0.7999
    3ASP     CB   26   3.225   3.606   2.605 -0.4282  0.1187 -0.1411
    3ASP    HB1   27   3.278   3.514   2.637  1.0024  0.9065 -0.1624
    3ASP    HB2   28   3.169   3.634   2.697 -1.6197 -1.0963 -0.4679
    3ASP     CG   29   3.332   3.716   2.592  0.5342 -0.2309  0.1609
    3ASP    OD1   30   3.373   3.760   2.703  0.0758  0.3981 -0.4200
    3ASP    OD2   31   3.372   3.765   2.485 -0.7620  0.1392  0.6565
    3ASP      C   32   3.053   3.467   2.501  0.1191 -1.2236 -0.0238
    3ASP      O   33   2.937   3.491   2.536  0.1278 -0.1852  0.2948
    4GLY      N   34   3.108   3.345   2.477 -0.0870  0.2100 -0.0340
    4GLY     HN   35   3.205   3.332   2.457 -0.1511  0.3034 -0.4161
    4GLY     CA   36   3.045   3.215   2.479 -0.4378 -0.1465  0.2098
    4GLY    HA1   37   3.132   3.159   2.447  0.9988  0.8900  2.0933
    4GLY    HA2   38   2.976   3.204   2.397  1.3994 -0.3284 -1.3701
    4GLY      C   39   3.000   3.155   2.607  0.3985  0.5938 -0.2395
    4GLY      O   40   2.997   3.223   2.709 -0.2857 -0.2744 -0.0559
    5PRO      N   41   2.958   3.028   2.596  0.1148  0.5353 -0.0257
    5PRO     CD   42   2.931   2.958   2.473  0.4949  0.3164  0.3589
    5PRO    HD1   43   3.000   2.985   2.391 -0.3679  0.7295 -0.2512
    5PRO    HD2   44   2.834   2.996   2.435  0.7571 -0.7506 -1.4710
    5PRO     CA   45   2.935   2.938   2.711  0.5341 -0.1412  0.4123
    5PRO     HA   46   2.863   2.992   2.771  1.3360  2.1279 -0.5352
    5PRO     CB   47   2.880   2.807   2.655  0.0684 -0.3353  1.0464
    5PRO    HB1   48   2.770   2.799   2.643  0.3581 -3.9935 -0.5511
    5PRO    HB2   49   2.921   2.715   2.702  0.7921 -0.3236  0.4603
    5PRO     CG   50   2.925   2.811   2.507  0.3408  0.0459  0.0911
    5PRO    HG1   51   3.025   2.763   2.498  0.2334  0.0174 -1.2351
    5PRO    HG2   52   2.877   2.756   2.423  2.0043  1.0587 -1.6197
    5PRO      C   53   3.049   2.921   2.816 -0.9365 -0.4609 -0.0858
    5PRO      O   54   3.172   2.922   2.789 -0.1401  0.2431  0.6175
    6GLY      N   55   3.003   2.899   2.943  0.2423  0.1408  0.0966
    6GLY     HN   56   2.905   2.895   2.962 -0.1499  4.1037 -0.3167
    6GLY     CA   57   3.082   2.867   3.061 -0.6215 -0.2249  0.3709
    6GLY    HA1   58   3.020   2.865   3.150 -1.0550 -2.4724  0.0793
    6GLY    HA2   59   3.156   2.946   3.062  0.0136 -0.8104  0.6135
    6GLY      C   60   3.171   2.745   3.052  1.1275  0.2877  0.2658
    6GLY      O   61   3.161   2.657   2.971  0.1986 -0.0821 -0.4120
    7ASP      N   62   3.265   2.744   3.155 -0.3837 -0.5072  0.4524
    7ASP     HN   63   3.257   2.808   3.231  0.1843  0.5105 -0.3202
    7ASP     CA   64   3.367   2.642   3.158 -0.6641 -0.0009  0.1576
    7ASP     HA   65   3.396   2.619   3.056  1.4179  0.8602  0.5014
    7ASP     CB   66   3.502   2.696   3.217  0.6121  0.6168 -0.0441
    7ASP    HB1   67   3.576   2.614   3.231 -0.2606  0.2098  2.9633
    7ASP    HB2   68   3.474   2.736   3.317 -1.6412 -0.9819  0.0312
    7ASP     CG   69   3.560   2.815   3.143  0.2395  0.4872  0.8070
    7ASP    OD1   70   3.658   2.878   3.202  0.1903 -0.1198  0.3499
    7ASP    OD2   71   3.531   2.850   3.027 -0.3901  0.0733  0.2589
    7ASP      C   72   3.315   2.520   3.243  0.2041  0.6918 -0.5139
    7ASP      O   73   3.249   2.535   3.347 -0.0360  0.7725 -0.2035
    8PRO      N   74   3.333   2.388   3.200  0.4813 -0.6840 -0.1925
    8PRO     CD   75   3.400   2.350   3.076 -0.5841  0.0892 -0.1606
    8PRO    HD1   76   3.509   2.360   3.096 -0.7993  0.3656  0.9345
    8PRO    HD2   77   3.373   2.411   2.988  0.3046 -0.2244 -0.6658
    8PRO     CA   78   3.303   2.265   3.271 -0.0589 -0.7829  0.4922
    8PRO     HA   79   3.196   2.259   3.281 -0.0329 -2.3524  0.1468
    8PRO     CB   80   3.369   2.152   3.192  0.0690  0.1815  0.1920
    8PRO    HB1   81   3.316   2.056   3.204  0.0875  0.0850 -0.4288
    8PRO    HB2   82   3.479   2.140   3.202  0.0190  0.2327  0.8015
    8PRO     CG   83   3.362   2.206   3.051  0.1814 -0.2232  0.2721
    8PRO    HG1   84   3.426   2.155   2.977  1.1081  0.4136  0.6170
    8PRO    HG2   85   3.261   2.214   3.004  0.4183  0.9224 -0.0877
    8PRO      C   86   3.357   2.261   3.415  0.2656  0.0166 -0.8369
    8PRO      O   87   3.468   2.306   3.432 -0.5518 -0.9456 -0.4764
    9GLY      N   88   3.288   2.207   3.514 -0.0699 -0.8333 -0.0338
    9GLY     HN   89   3.203   2.159   3.494  0.4893 -1.9411  0.1495
    9GLY     CA   90   3.344   2.197   3.647  0.3188  0.0453 -0.5771
    9GLY    HA1   91   3.265   2.167   3.715 -1.3048  2.4502 -1.2879
    9GLY    HA2   92   3.380   2.295   3.673  1.4612 -0.9410  1.9692
    9GLY      C   93   3.456   2.095   3.659  0.4651 -0.4012 -0.4534
    9GLY      O   94   3.506   2.037   3.565 -0.0451 -0.3492 -0.1016
   10ASP      N   95   3.493   2.067   3.790 -0.1728 -0.6427  0.2296
   10ASP     HN   96   3.440   2.111   3.861 -0.5283 -3.7523  2.0875
   10ASP     CA   97   3.580   1.959   3.842  0.2921 -0.5799  0.1592
   10ASP     HA   98   3.573   1.955   3.950 -1.3085 -2.1758  0.0403
   10ASP     CB   99   3.548   1.820   3.796  0.0369 -0.4251  0.9825
   10ASP    HB1  100   3.623   1.750   3.838 -0.0437 -1.0786  0.0645
   10ASP    HB2  101   3.553   1.802   3.687 -1.7262  0.5534  0.7060
   10ASP     CG  102   3.417   1.769   3.861 -0.5331  0.4936  0.6630
   10ASP    OD1  103   3.375   1.837   3.956  0.0414 -0.3528  0.0297
   10ASP    OD2  104   3.375   1.656   3.827 -0.0098 -0.1362  0.0752
   10ASP      C  105   3.730   1.993   3.823 -0.0482  0.5181  0.0126
   10ASP      O  106   3.815   1.908   3.849  0.1624 -0.2364  0.4753
   11GLY      N  107   3.766   2.117   3.786  0.3615 -0.8071 -0.2082
   11GLY     HN  108   3.693   2.174   3.749  0.1133 -0.1072  1.2603
   11GLY     CA  109   3.899   2.174   3.789  0.1217  0.5159  0.3160
   11GLY    HA1  110   3.985   2.108   3.787  0.1814  0.5673  0.8797
   11GLY    HA2  111   3.891   2.230   3.881 -2.6598 -0.6740  0.8735
   11GLY      C  112   3.926   2.281   3.682  0.0857  0.4847  0.0899
   11GLY    OT1  113   4.027   2.266   3.608  0.3580  0.5651  0.0496
   11GLY    OT2  114   3.842   2.377   3.670  0.4930  0.0229  0.2294
   12SOD    SOD  115   5.128   1.689   4.147  0.5309 -0.0646  0.0714
   13SOD    SOD  116   1.936   0.948   0.612 -0.1736 -0.4890 -0.1184
   14SOD    SOD  117   4.303   1.633   1.865 -0.0362 -0.3469 -0.2690
   15SOD    SOD  118   5.867   6.213   2.655  0.3916  0.5379 -0.2276
   16SOD    SOD  119   3.113   4.062   2.652  0.1471  0.2480 -0.0719
   17SOD    SOD  120   6.929   2.190   0.990 -0.2082  0.8122 -0.0311
   18SOD    SOD  121   1.502   0.992   3.056 -0.1383 -0.1883 -0.1938
   19SOD    SOD  122   1.206   0.423   5.425 -0.0316  0.0823 -0.0933
   20SOD    SOD  123   4.167   6.751   3.143  0.4951  0.3192  0.3000
   21SOD    SOD  124   5.648   2.612   4.003 -0.6077  0.3649  0.2643
   22SOD    SOD  125   4.880   6.729   0.627 -0.0710 -0.0572 -0.1666
   23SOD    SOD  126   3.424   3.466   1.689 -0.8625 -0.3920  0.2025
   24SOD    SOD  127   4.952   4.093   2.107  0.0494 -0.0581 -0.0620
   25SOD    SOD  128   0.223   1.091   3.894  0.2334 -0.1256 -0.1999
   26SOD    SOD  129   1.898   2.676   0.383 -0.2861  0.2047 -0.3031
   27SOD    SOD  130   4.096   3.279   2.452  0.0359  0.0270 -0.0386
   28SOD    SOD  131   1.534   5.082   1.236  0.4572  0.2095 -0.1167
   29SOD    SOD  132   4.373   2.508   3.556  0.5789  0.1545 -0.0741
   30SOD    SOD  133   7.057   3.897   1.259  0.2092 -0.2445  0.4896
   31SOD    SOD  134   6.207   1.230   4.706  0.1414  0.2292  0.1837
   32SOD    SOD  135   6.463   1.675   5.162 -0.2024  0.0247  0.3329
   33SOD    SOD  136   3.776   1.316   2.758 -0.1921  0.1648  0.0584
   34SOD    SOD  137   1.732   2.368   3.711 -0.1711 -0.4070  0.3505
   35SOD    SOD  138   2.945   2.336   2.541  0.1620  0.4398 -0.2132
   36SOD    SOD  139   3.023   6.081   4.253 -0.0286  0.6619 -0.2617
   37SOD    SOD  140   5.928   3.553   0.921 -0.1905  0.1250  0.1687
   38SOD    SOD  141   1.661   5.063   3.280 -0.2931  0.4843  0.0931
   39SOD    SOD  142   3.994   0.503   2.455  0.0625  0.0885  0.0109
   40SOD    SOD  143   3.351   2.932   5.011  0.2031  0.1056 -0.5071
   41SOD    SOD  144   3.213   6.702   5.737 -0.6197  0.0624  0.4330
   42SOD    SOD  145   2.012   1.009   2.266  0.2422 -0.2708 -0.1878
   43CLA    CLA  146   0.291   0.290   1.554 -0.0207  0.3998  0.4042
   44CLA    CLA  147   0.877   5.303   1.847 -0.2355 -0.0394  0.1886
   45CLA    CLA  148   7.009   2.453   4.289 -0.2136 -0.0969 -0.3178
   46CLA    CLA  149   5.722   1.800   1.447 -0.1095 -0.1657  0.2243
   47CLA    CLA  150   1.825   2.397   2.278 -0.3746  0.0478  0.0172
   48CLA    CLA  151   1.170   6.648   3.660  0.1001 -0.2466 -0.2113
   49CLA    CLA  152   4.878   4.725   5.286 -0.0214  0.0804  0.3120
   50CLA    CLA  153   1.083   4.066   0.083 -0.2221 -0.2391 -0.6931
   51CLA    CLA  154   0.107   2.479   2.172 -0.2540 -0.3609 -0.0196
   52CLA    CLA  155   1.260   2.069   1.683 -0.0354 -0.4242 -0.0257
   53CLA    CLA  156   1.697   3.299   5.605  0.3439 -0.1154  0.0926
   54CLA    CLA  157   4.885   3.928   2.882 -0.0984 -0.3232  0.1414
   55CLA    CLA  158   4.554   1.019   4.744 -0.4426 -0.1153  0.0595
   56CLA    CLA  159   5.288   4.530   3.238  0.1199  0.5088 -0.3750
   57CLA    CLA  160   2.840   2.259   1.556  0.0613  0.2823 -0.0625
   58CLA    CLA  161   1.066   4.923   4.943 -0.3884 -0.0424  0.0341
   59CLA    CLA  162   5.910   1.765   3.295  0.4505 -0.0740  0.0151
   60CLA    CLA  163   0.128   4.401   3.849  0.1411 -0.1540  0.1515
   61CLA    CLA  164   6.082   3.826   2.107  0.4877  0.0535  0.1414
   62CLA    CLA  165   6.795   2.605   0.344  0.3460  0.1138 -0.1954
   63CLA    CLA  166   5.765   6.393   3.413 -0.0578  0.0031 -0.1683
   64CLA    CLA  167   6.891   1.227   5.094  0.0647  0.1825 -0.1235
   65CLA    CLA  168   2.656   0.553   4.701  0.3356  0.4558  0.2019
   66CLA    CLA  169   5.414   4.403   0.831 -0.3141  0.3030  0.0726
   67CLA    CLA  170   0.182   2.763   4.768 -0.0643 -0.3857  0.0138
   68CLA    CLA  171   3.599   5.622   2.990  0.1569 -0.4773  0.1246
   69CLA    CLA  172   0.391   3.557   0.514  0.0890  0.1582  0.0837
   70TIP3   OH2  173   5.085   6.763   0.511 -0.3551  0.4177 -0.3879
   70TIP3    H1  174   5.139   6.705   0.457 -0.6752 -0.2700  0.0161
   70TIP3    H2  175   5.128   6.848   0.505  0.8291 -0.1313 -0.0177
   71TIP3   OH2  176   1.614   4.039   5.709 -0.5242 -0.1202  0.3034
   71TIP3    H1  177   1.691   4.023   5.763  0.2104 -1.0039 -0.9683
   71TIP3    H2  178   1.634   4.119   5.661 -1.0030  0.4327  1.0046
   72TIP3   OH2  179   4.456   6.741   2.207 -0.1339  0.1875  0.1287
   72TIP3    H1  180   4.470   6.814   2.267  0.0058  0.1038  0.1981
   72TIP3    H2  181   4.457   6.781   2.120 -1.3638  0.4680  0.2229
   73TIP3   OH2  182   6.372   0.471   1.916  0.4876 -0.2293  0.5197
   73TIP3    H1  183   6.278   0.458   1.902  0.3996  0.0068  0.8932
   73TIP3    H2  184   6.407   0.382   1.923  0.2613 -0.3136  0.5876
   74TIP3   OH2  185   0.155   4.044   3.254 -0.0392  0.1868  0.1395
   74TIP3    H1  186   0.082   3.997   3.295  0.1366 -0.3591 -0.1764
   74TIP3    H2  187   0.199   4.087   3.327 -0.0209 -0.3845  0.4699
   75TIP3   OH2  188   3.791   2.728   3.372 -0.5591 -0.0392 -0.6785
   75TIP3    H1  189   3.779   2.785   3.449  0.1399  0.3654 -0.8552
   75TIP3    H2  190   3.745   2.774   3.302  0.8978  0.8911 -1.0737
   76TIP3   OH2  191   1.208   1.978   5.167  0.4272 -0.7175 -0.2524
   76TIP3    H1  192   1.293   1.934   5.180  0.4580  0.1345  3.8495
   76TIP3    H2  193   1.144   1.907   5.170  0.8322 -1.1246 -0.8916
   77TIP3   OH2  194   0.156   6.657   1.129 -0.3783  0.3756 -0.1223
   77TIP3    H1  195   0.198   6.737   1.162 -0.5416  0.1259  0.7330
   77TIP3    H2  196   0.205   6.634   1.051 -0.6522  1.6084 -0.6821
   78TIP3   OH2  197   0.202   5.153   2.919  0.5262  0.2444 -0.3453
   78TIP3    H1  198   0.296   5.171   2.907  0.8608  0.4287  2.0738
   78TIP3    H2  199   0.177   5.209   2.993 -1.3598 -0.2706 -0.5622
   79TIP3   OH2  200   0.171   6.378   5.273 -0.0607  0.2502 -0.9064
   79TIP3    H1  201   0.190   6.284   5.280 -1.3809 -0.1115 -1.8244
   79TIP3    H2  202   0.248   6.415   5.229  0.6970 -0.2914 -0.0778
   80TIP3   OH2  203   6.218   5.142   1.368 -0.0355  0.1355  0.0479
   80TIP3    H1  204   6.265   5.140   1.284  0.4334 -0.1178  0.3164
   80TIP3    H2  205   6.279   5.104   1.431 -0.2426  0.6704  0.5793
   81TIP3   OH2  206   6.084   5.410   5.393 -0.1768 -0.1580  0.1504
   81TIP3    H1  207   6.155   5.463   5.357  0.0080 -0.7385 -0.3718
   81TIP3    H2  208   6.024   5.473   5.433 -0.9893  0.6395 -2.1821
   82TIP3   OH2  209   5.268   0.648   3.847  0.1467  0.3132  0.3927
   82TIP3    H1  210   5.358   0.638   3.814 -0.1099 -1.2577  0.0584
   82TIP3    H2  211   5.270   0.728   3.899  1.3656  1.1432 -0.8582
   83TIP3   OH2  212   0.850   5.721   1.013  0.1232 -0.0586  0.4294
   83TIP3    H1  213   0.924   5.770   0.977  0.1274 -0.2204  0.2194
   83TIP3    H2  214   0.804   5.686   0.937 -0.7084  0.8042  0.5099
   84TIP3   OH2  215   5.491   1.004   1.637  0.1107 -0.1805  1.0489
   84TIP3    H1  216   5.517   1.036   1.724 -2.2280  0.8836  1.4301
   84TIP3    H2  217   5.396   1.015   1.635  0.1898  0.9243 -2.0813
   85TIP3   OH2  218   5.809   1.588   0.630  0.0287 -0.4407 -0.0792
   85TIP3    H1  219   5.744   1.569   0.699  0.5362 -1.8867  0.0293
   85TIP3    H2  220   5.807   1.683   0.621  0.8319 -0.0577  2.8240
   86TIP3   OH2  221   4.417   5.160   0.992 -0.5174  0.1475 -0.0860
   86TIP3    H1  222   4.424   5.254   1.009  0.5497 -0.1678  1.4892
   86TIP3    H2  223   4.481   5.143   0.923 -1.0353  0.6412 -0.6954
   87TIP3   OH2  224   2.449   1.871   1.686 -0.3851  0.0241  0.4174
   87TIP3    H1  225   2.496   1.945   1.724 -1.0254 -0.5446  2.4336
   87TIP3    H2  226   2.436   1.896   1.595  1.8946  1.1183  0.3208
   88TIP3   OH2  227   0.320   5.385   3.495 -0.0428  0.0307  0.2731
   88TIP3    H1  228   0.385   5.419   3.434  0.6315 -0.3048  0.7898
   88TIP3    H2  229   0.277   5.314   3.448 -0.0120  0.2332 -0.0607
   89TIP3   OH2  230   5.983   6.124   2.114  0.5375 -0.5107  0.7677
   89TIP3    H1  231   5.900   6.083   2.137 -0.2700  0.0530 -0.9894
   89TIP3    H2  232   6.042   6.100   2.186 -0.2761 -3.4681  0.5788
   90TIP3   OH2  233   6.343   6.561   5.731  0.2594  0.0316  0.2303
   90TIP3    H1  234   6.283   6.635   5.738 -1.0258 -0.9632  0.1046
   90TIP3    H2  235   6.430   6.600   5.741 -0.2881  1.7200 -0.9465
   91TIP3   OH2  236   6.986   6.779   2.233 -0.3181 -0.4171  0.1870
   91TIP3    H1  237   6.910   6.779   2.175 -0.4215  1.6195  0.2497
   91TIP3    H2  238   6.948   6.779   2.321 -0.4368  3.2193  0.2657
   92TIP3   OH2  239   6.513   5.799   4.601 -0.1276  0.4232 -0.3474
   92TIP3    H1  240   6.517   5.815   4.695  1.0695 -0.6534 -0.1899
   92TIP3    H2  241   6.600   5.766   4.578 -0.4900  0.3851 -1.7804
   93TIP3   OH2  242   1.002   6.495   0.862  0.0960 -0.0943 -0.3902
   93TIP3    H1  243   1.054   6.414   0.855 -0.4686 -0.3064 -2.7935
   93TIP3    H2  244   0.928   6.481   0.803 -1.9767  0.7923  1.8378
   94TIP3   OH2  245   2.932   6.162   4.910 -0.2218  0.2273  0.1528
   94TIP3    H1  246   2.856   6.107   4.931  0.7226 -1.0870  0.2899
   94TIP3    H2  247   3.000   6.099   4.884  0.6818  1.3997 -0.4026
   95TIP3   OH2  248   6.151   0.784   5.114  0.0872  0.1669  0.2207
   95TIP3    H1  249   6.095   0.707   5.113  0.9499 -0.4697  0.1081
   95TIP3    H2  250   6.208   0.772   5.191  0.6217  0.3866 -0.1328
   96TIP3   OH2  251   3.242   5.035   4.376  0.3056 -0.0668 -0.5788
   96TIP3    H1  252   3.259   4.951   4.418 -3.0566 -0.6401 -0.0372
   96TIP3    H2  253   3.276   5.026   4.288 -0.2956 -2.1915 -0.6429
   97TIP3   OH2  254   1.560   3.342   4.679 -0.6771 -0.3003  0.3062
   97TIP3    H1  255   1.520   3.370   4.762 -0.6410  0.8859 -0.0526
   97TIP3    H2  256   1.526   3.405   4.615 -0.2765 -0.8818 -0.4760
   98TIP3   OH2  257   0.107   2.420   3.251  0.0586 -0.2205 -0.8322
   98TIP3    H1  258   0.136   2.451   3.165 -0.1824  0.2630 -0.7416
   98TIP3    H2  259   0.169   2.458   3.312 -1.1823  1.4647 -0.5588
   99TIP3   OH2  260   2.671   3.388  -0.021 -0.0053 -0.1552 -0.0045
   99TIP3    H1  261   2.597   3.382   0.039  0.0745  1.8543  0.3578
   99TIP3    H2  262   2.748   3.376   0.035  0.0017 -0.3173 -0.0495
  100TIP3   OH2  263   2.158   6.329   5.051 -0.2780 -0.1821 -0.3628
  100TIP3    H1  264   2.100   6.405   5.050 -1.9996 -1.3372  2.0512
  100TIP3    H2  265   2.119   6.269   4.988 -0.1432  0.0801 -0.7009
  101TIP3   OH2  266   1.392   6.555   2.730 -0.2756 -0.0997 -0.0196
  101TIP3    H1  267   1.415   6.464   2.750 -1.1392 -0.0810  1.1498
  101TIP3    H2  268   1.368   6.593   2.815  2.4059  1.9505 -0.0195
  102TIP3   OH2  269   7.080   2.416   1.613 -0.3808  0.1523  0.1535
  102TIP3    H1  270   7.047   2.475   1.681 -1.3322 -1.0858  0.8292
  102TIP3    H2  271   7.001   2.390   1.565 -0.2656 -1.8047  0.9214
  103TIP3   OH2  272   5.012   2.794   0.967  0.2669 -0.1523  0.2362
  103TIP3    H1  273   5.104   2.771   0.974  0.1923 -0.0122  2.5417
  103TIP3    H2  274   4.991   2.835   1.051 -1.8776 -0.0913 -0.2632
  104TIP3   OH2  275   3.168   3.837   5.097 -0.2098  0.5715  0.4696
  104TIP3    H1  276   3.089   3.883   5.123 -0.1700 -0.3889  2.4926
  104TIP3    H2  277   3.145   3.744   5.102  0.5481  0.3013 -0.6410
  105TIP3   OH2  278   3.955   5.206   1.778 -0.5733 -0.9824  0.6671
  105TIP3    H1  279   3.944   5.301   1.771 -0.5981 -0.9755  0.8010
  105TIP3    H2  280   4.006   5.193   1.858 -0.9627 -1.1056  0.8996
  106TIP3   OH2  281   0.376   2.261   0.468 -0.1755  0.4974  0.1412
  106TIP3    H1  282   0.350   2.290   0.555  0.6936  0.8177  0.3056
  106TIP3    H2  283   0.350   2.169   0.464 -0.4632  0.5565  0.6407
  107TIP3   OH2  284   7.007   1.702   3.477 -0.3149  0.2864 -0.1720
  107TIP3    H1  285   6.928   1.717   3.425 -2.2313  0.2684  2.5261
  107TIP3    H2  286   7.003   1.769   3.546  1.3118 -0.5494  0.7875
  108TIP3   OH2  287   7.221   1.510   1.521  0.3904  0.2238 -0.0576
  108TIP3    H1  288   7.235   1.418   1.542 -0.9091 -0.0281 -0.2182
  108TIP3    H2  289   7.153   1.539   1.582 -0.7142  0.4936 -1.3531
  109TIP3   OH2  290   0.665   5.028   0.505  0.1491  0.0208  0.0858
  109TIP3    H1  291   0.603   5.018   0.433  1.1475  0.0621 -0.7987
  109TIP3    H2  292   0.680   5.122   0.512 -0.1915  0.0435  0.5697
  110TIP3   OH2  293   4.941   3.057   4.091 -0.1491  0.1057 -0.0710
  110TIP3    H1  294   4.856   3.031   4.056 -0.6091  0.6704  0.6271
  110TIP3    H2  295   4.925   3.078   4.183  0.9087 -0.6295  0.3072
  111TIP3   OH2  296   2.281   3.007   2.317 -0.0420  0.8273  0.2798
  111TIP3    H1  297   2.290   2.911   2.312  1.8744  1.0127 -0.9995
  111TIP3    H2  298   2.371   3.039   2.322 -0.4834  2.6402 -1.7693
  112TIP3   OH2  299   7.028   2.781   4.825  0.1246  0.4621 -0.0242
  112TIP3    H1  300   7.119   2.762   4.800 -0.3446 -1.7296 -0.3278
  112TIP3    H2  301   6.995   2.697   4.857 -1.8350  1.1873 -0.0323
  113TIP3   OH2  302   1.616   4.404   1.768  1.0739 -0.0584 -0.3324
  113TIP3    H1  303   1.695   4.457   1.783  0.5302  0.8159 -0.4661
  113TIP3    H2  304   1.650   4.317   1.746  2.1648  1.0229 -3.5985
  114TIP3   OH2  305   5.348   1.038   2.875  1.2032 -0.1842 -0.3621
  114TIP3    H1  306   5.256   1.015   2.863 -0.1463  3.4668  1.4830
  114TIP3    H2  307   5.388   1.022   2.790 -1.0649 -2.0136 -1.1952
  115TIP3   OH2  308   4.741   6.619   1.806  0.5891  0.0964  0.5496
  115TIP3    H1  309   4.804   6.617   1.734 -0.7755 -0.9241 -0.6874
  115TIP3    H2  310   4.788   6.662   1.878  2.2677  0.4371 -0.6792
  116TIP3   OH2  311   0.625   2.565   3.244 -0.0935  0.1089 -0.2191
  116TIP3    H1  312   0.621   2.653   3.206 -0.1295 -0.0383 -0.5633
  116TIP3    H2  313   0.533   2.540   3.254 -0.1342 -0.8567 -2.4275
  117TIP3   OH2  314   5.772   4.985   2.090  0.0943 -0.4550  0.8811
  117TIP3    H1  315   5.853   5.025   2.058  1.0107 -3.8201 -1.5277
  117TIP3    H2  316   5.707   5.005   2.024  0.7001 -3.1111 -0.6542
  118TIP3   OH2  317   3.296   1.076   3.523 -0.4495 -0.2304 -0.1566
  118TIP3    H1  318   3.215   1.025   3.526  0.3433 -1.5531 -0.5090
  118TIP3    H2  319   3.364   1.016   3.554  0.1152  1.5193  2.2860
  119TIP3   OH2  320   1.828   0.112   5.146  0.3743 -0.1157  0.2551
  119TIP3    H1  321   1.820   0.176   5.076  1.5608  0.3206  0.4902
  119TIP3    H2  322   1.911   0.067   5.128  1.0098  0.4243  1.6966
  120TIP3   OH2  323   5.152   6.177   1.332 -0.2166 -0.0820 -0.2755
  120TIP3    H1  324   5.086   6.233   1.291 -0.9907 -0.8178 -0.0816
  120TIP3    H2  325   5.100   6.113   1.381  0.6600  0.8513  1.9900
  121TIP3   OH2  326   0.269   6.322   1.706 -0.2238  0.1184  0.2108
  121TIP3    H1  327   0.353   6.365   1.719 -0.7240  1.2385 -0.1179
  121TIP3    H2  328   0.289   6.243   1.657  0.3734  1.7620 -2.4114
  122TIP3   OH2  329   2.598   3.962   4.975  0.6118  0.0089  0.6868
  122TIP3    H1  330   2.517   3.911   4.971 -0.7105  1.8688  2.0167
  122TIP3    H2  331   2.664   3.904   4.939 -1.2976 -1.5958 -0.4554
  123TIP3   OH2  332   1.831   0.421   4.562  0.2790  0.2957 -0.8998
  123TIP3    H1  333   1.743   0.445   4.535  0.5178  0.8621 -1.2020
  123TIP3    H2  334   1.839   0.329   4.539 -0.2309  0.2401 -0.8685
  124TIP3   OH2  335   4.456   4.607   4.358  0.1711  0.3033 -0.1495
  124TIP3    H1  336   4.526   4.606   4.423  0.4249  0.0594 -0.4276
  124TIP3    H2  337   4.417   4.520   4.363 -1.0370  0.8713  0.9953
  125TIP3   OH2  338   6.011   1.133   3.152  0.3614 -0.9316  0.4775
  125TIP3    H1  339   6.019   1.209   3.095 -1.5167 -1.4062 -0.4930
  125TIP3    H2  340   6.073   1.150   3.223  0.3571  1.2574  0.0383
  126TIP3   OH2  341   0.981   0.380   3.682 -0.4959  0.0973 -0.3678
  126TIP3    H1  342   0.910   0.427   3.725  0.0630  0.1916  0.4884
  126TIP3    H2  343   1.056   0.439   3.688  0.9209 -1.7844  3.0127
  127TIP3   OH2  344   4.228   5.570   4.083  0.0176 -0.6222  0.3245
  127TIP3    H1  345   4.244   5.606   4.170 -2.4417  1.8349 -0.1132
  127TIP3    H2  346   4.313   5.576   4.039  0.5526  1.2044  1.5002
  128TIP3   OH2  347   2.325   5.656   0.757  0.8737 -0.5558  0.2386
  128TIP3    H1  348   2.399   5.714   0.777  0.5637  0.0895 -0.3987
  128TIP3    H2  349   2.336   5.581   0.815  1.1193  0.2918  1.3261
  129TIP3   OH2  350   5.443   1.744   0.447 -0.1357  0.5572 -0.1471
  129TIP3    H1  351   5.407   1.818   0.496  2.3889  1.2464  0.8323
  129TIP3    H2  352   5.482   1.688   0.514  0.7708 -0.0180 -1.1235
  130TIP3   OH2  353   4.867   0.855   2.258 -0.1908 -0.2558  0.2416
  130TIP3    H1  354   4.798   0.805   2.214 -1.2880 -0.2277  1.8357
  130TIP3    H2  355   4.838   0.861   2.349  1.0360  1.3204  0.5815
  131TIP3   OH2  356   3.268   6.077   3.550  0.8568 -0.0277 -0.6905
  131TIP3    H1  357   3.195   6.041   3.500 -0.0173 -0.0481  0.5697
  131TIP3    H2  358   3.286   6.012   3.617  1.7321  0.1922 -0.7019
  132TIP3   OH2  359   4.353   2.017   3.479  0.4052  0.3692 -0.5155
  132TIP3    H1  360   4.448   2.013   3.485  0.4357  0.3293 -1.0038
  132TIP3    H2  361   4.328   2.086   3.540  0.7328  0.2593 -0.2546
  133TIP3   OH2  362   5.087   6.152   5.069  0.6204 -0.1634  0.6382
  133TIP3    H1  363   5.047   6.219   5.124 -0.6912 -1.2659  1.0766
  133TIP3    H2  364   5.069   6.070   5.114  0.4444 -1.0012 -0.8939
  134TIP3   OH2  365   2.540   2.440   3.431  0.1450  1.0182 -0.2022
  134TIP3    H1  366   2.528   2.345   3.437 -0.0432  0.9627 -1.2608
  134TIP3    H2  367   2.452   2.476   3.437  0.3913  1.3490  3.0200
  135TIP3   OH2  368   4.170   3.535   0.167  0.0217  0.0884 -0.2147
  135TIP3    H1  369   4.230   3.530   0.093  0.5448 -0.0725  0.2143
  135TIP3    H2  370   4.210   3.599   0.226  1.0301 -1.7256  1.1735
  136TIP3   OH2  371   1.076   2.594   4.494  0.3054 -0.2774 -0.3820
  136TIP3    H1  372   1.121   2.660   4.548 -1.1364 -0.2566  0.8738
  136TIP3    H2  373   1.046   2.643   4.418 -1.0840  0.6811  0.7167
  137TIP3   OH2  374   0.263   0.590   3.598 -0.0363 -0.1944 -0.4931
  137TIP3    H1  375   0.231   0.511   3.555  1.4226  0.1113 -2.2539
  137TIP3    H2  376   0.199   0.607   3.667 -1.4454 -1.8001 -1.3274
  138TIP3   OH2  377   5.744   4.832   3.384  0.2384 -0.1366 -0.4160
  138TIP3    H1  378   5.673   4.782   3.343 -0.1011  0.6995 -0.8776
  138TIP3    H2  379   5.722   4.834   3.477 -1.9787  2.5399 -0.8402
  139TIP3   OH2  380   3.993   0.217   0.621 -0.4369  0.1462  0.2761
  139TIP3    H1  381   4.062   0.244   0.681 -0.5433 -0.8832  0.8993
  139TIP3    H2  382   3.950   0.144   0.666  0.3969 -1.6440 -1.6671
  140TIP3   OH2  383   0.561   3.749   0.967 -0.4632 -0.1744  0.4557
  140TIP3    H1  384   0.653   3.737   0.943 -0.0881  1.5628  0.9088
  140TIP3    H2  385   0.518   3.776   0.886 -0.2869  0.3874  0.5477
  141TIP3   OH2  386   6.263   3.893   4.608 -0.1583 -0.2781  0.2834
  141TIP3    H1  387   6.293   3.969   4.658 -2.7802  1.6039 -0.7860
  141TIP3    H2  388   6.179   3.870   4.648 -2.1871  1.0733 -2.8352
  142TIP3   OH2  389   1.916   4.704   5.367  0.4680  0.3850 -0.1824
  142TIP3    H1  390   1.997   4.754   5.370  0.0495  1.0742  2.7345
  142TIP3    H2  391   1.942   4.617   5.335  2.5708  0.3155  1.4992
  143TIP3   OH2  392   5.301   6.378   5.602 -0.1831 -0.1614 -0.0766
  143TIP3    H1  393   5.249   6.458   5.596  2.0245  1.3688  0.1793
  143TIP3    H2  394   5.354   6.390   5.681  0.9187 -1.4330 -0.5968
  144TIP3   OH2  395   5.462   0.144   3.432 -0.0757 -0.2741  0.3580
  144TIP3    H1  396   5.549   0.151   3.472  0.8075 -0.5850 -1.4095
  144TIP3    H2  397   5.479   0.147   3.338 -1.7895 -2.3167 -0.0885
  145TIP3   OH2  398   1.365   0.476   1.129 -0.1017 -0.4541  0.0404
  145TIP3    H1  399   1.410   0.489   1.046  0.8159  0.2356  0.6208
  145TIP3    H2  400   1.380   0.558   1.177 -2.2571 -0.0671  0.1381
  146TIP3   OH2  401   3.980   1.396   3.131  0.0525  0.0966  0.0093
  146TIP3    H1  402   4.045   1.326   3.136 -0.1579 -0.0516  0.7459
  146TIP3    H2  403   3.984   1.440   3.216 -1.6165 -0.6662  0.5351
  147TIP3   OH2  404   3.636   1.775   0.432 -0.1209  0.8071 -0.0411
  147TIP3    H1  405   3.717   1.727   0.413 -1.4398 -1.1797 -0.9685
  147TIP3    H2  406   3.639   1.790   0.526  1.6128  1.3561 -0.1472
  148TIP3   OH2  407   5.580   0.042   2.759  0.2718 -0.5967 -0.2019
  148TIP3    H1  408   5.604  -0.051   2.751 -1.7992 -1.0933 -1.1301
  148TIP3    H2  409   5.496   0.042   2.805 -0.0445  0.7865 -0.7275
  149TIP3   OH2  410   4.270   0.226   0.825  0.3135  0.2155  0.7114
  149TIP3    H1  411   4.328   0.292   0.864 -0.7587  1.2675  0.6097
  149TIP3    H2  412   4.236   0.178   0.900  0.8542 -0.0179  0.8136
  150TIP3   OH2  413   2.032   3.741   0.787 -0.3221 -0.2469 -0.2761
  150TIP3    H1  414   2.001   3.831   0.778  0.9242 -0.0265 -3.7033
  150TIP3    H2  415   2.125   3.745   0.769 -0.1938 -2.1896 -0.3077
  151TIP3   OH2  416   3.009   3.415   4.095  0.2087  0.2348 -0.3699
  151TIP3    H1  417   3.096   3.436   4.128  0.3172  1.7306 -1.5082
  151TIP3    H2  418   3.025   3.383   4.006 -0.3852  0.3122 -0.5073
  152TIP3   OH2  419   6.634   3.690   2.915 -0.0491  0.2259 -0.0988
  152TIP3    H1  420   6.635   3.785   2.929 -0.5202  0.1443  0.5326
  152TIP3    H2  421   6.719   3.660   2.947  0.2120  0.4607 -0.5536
  153TIP3   OH2  422   2.067   6.335   5.457  0.0551 -0.5023  0.0837
  153TIP3    H1  423   2.060   6.265   5.392  0.2993 -0.1525 -0.3193
  153TIP3    H2  424   1.980   6.338   5.497 -0.9190  0.9264 -1.9462
  154TIP3   OH2  425   1.272   1.404   2.849  0.0472 -0.1807  0.0906
  154TIP3    H1  426   1.242   1.483   2.804 -1.1317 -1.3261 -1.2349
  154TIP3    H2  427   1.306   1.435   2.933 -1.0164  1.6536 -0.1163
  155TIP3   OH2  428   3.345   2.040   4.951  0.2424 -0.5667  0.5843
  155TIP3    H1  429   3.332   2.073   4.862 -1.4206 -3.0322 -0.2006
  155TIP3    H2  430   3.439   2.049   4.966  0.8948 -1.6430 -2.1383
  156TIP3   OH2  431   0.789   2.304   2.673 -0.0208  0.1896  0.1482
  156TIP3    H1  432   0.767   2.294   2.765  0.8865 -1.0694  0.2572
  156TIP3    H2  433   0.824   2.219   2.647 -0.3828  0.4779 -1.4010
  157TIP3   OH2  434   3.086   4.960   3.100  0.4635  0.3565  0.0003
  157TIP3    H1  435   3.149   5.027   3.129 -0.5334  1.5881 -0.5880
  157TIP3    H2  436   3.094   4.890   3.165 -1.6492  2.9446  3.3869
  158TIP3   OH2  437   6.882   0.595   4.867  0.4508  0.5357  0.3482
  158TIP3    H1  438   6.920   0.598   4.954  0.5793 -1.3408  0.4063
  158TIP3    H2  439   6.956   0.580   4.808  0.0661 -1.3672  0.2832
  159TIP3   OH2  440   1.118   2.633   5.403 -0.2046  0.4064  0.0264
  159TIP3    H1  441   1.176   2.569   5.445  1.6527  2.3617  0.6444
  159TIP3    H2  442   1.178   2.695   5.361 -1.9335  1.4306 -1.0608
  160TIP3   OH2  443   5.603   0.965   3.987  0.2732  0.5779 -0.0084
  160TIP3    H1  444   5.541   0.976   3.914 -0.7774  0.2554  0.8104
  160TIP3    H2  445   5.600   0.872   4.006  0.7415  0.6229  0.2781
  161TIP3   OH2  446   4.962   3.623   0.646  0.1901 -0.0831  0.2227
  161TIP3    H1  447   5.018   3.609   0.722 -0.9862 -0.0418  1.1181
  161TIP3    H2  448   5.003   3.571   0.576  0.2020 -1.7117  1.3962
  162TIP3   OH2  449   4.952   4.952   3.852  0.0064 -0.8037 -0.6633
  162TIP3    H1  450   5.024   4.903   3.892  2.5931  2.5554 -0.7487
  162TIP3    H2  451   4.994   5.012   3.791 -2.8371  1.4891 -0.6139
  163TIP3   OH2  452   7.157   3.008   3.627  0.4049 -0.1722  0.0096
  163TIP3    H1  453   7.126   3.009   3.537  0.8484  0.1553 -0.1379
  163TIP3    H2  454   7.082   3.040   3.678  0.3607  0.2264 -0.3017
  164TIP3   OH2  455   4.319   0.318   0.149  0.1258 -0.0324 -0.2818
  164TIP3    H1  456   4.273   0.334   0.066 -0.3772 -1.3857 -0.2799
  164TIP3    H2  457   4.404   0.360   0.137 -0.7125  1.6825 -0.6457
  165TIP3   OH2  458   6.329   6.616   4.074 -0.2848  0.2105 -0.0697
  165TIP3    H1  459   6.318   6.523   4.053  1.4362 -0.1816  0.5880
  165TIP3    H2  460   6.245   6.656   4.052 -0.6636 -1.2889 -1.4969
  166TIP3   OH2  461   3.564   2.751   3.766 -0.9225  0.2500 -0.4400
  166TIP3    H1  462   3.655   2.721   3.772 -1.1466 -0.7321 -1.6481
  166TIP3    H2  463   3.525   2.697   3.697 -2.0145  1.7106 -1.0180
  167TIP3   OH2  464   1.503   4.376   2.391  0.0887  0.0969  0.6897
  167TIP3    H1  465   1.560   4.399   2.318 -0.7763  0.2495  0.0485
  167TIP3    H2  466   1.546   4.301   2.433  0.2621 -0.4236 -0.3816
  168TIP3   OH2  467   3.734   1.443   5.822  0.2740 -0.1877  0.5943
  168TIP3    H1  468   3.745   1.466   5.730  0.6980 -0.9190  0.4564
  168TIP3    H2  469   3.650   1.397   5.825 -0.8931  1.8363  0.9754
  169TIP3   OH2  470   0.636   1.110   5.769 -0.4760 -0.1269  0.6264
  169TIP3    H1  471   0.635   1.206   5.771  0.2780  0.0904 -2.8005
  169TIP3    H2  472   0.544   1.085   5.768 -0.7122  0.6993 -0.2640
  170TIP3   OH2  473   6.677   5.030   5.365  0.1444  0.2238 -0.0610
  170TIP3    H1  474   6.674   4.980   5.447 -0.4658 -1.0383 -0.8233
  170TIP3    H2  475   6.594   5.009   5.322  1.3162 -0.8102 -1.9492
  171TIP3   OH2  476   3.241   0.712   0.264 -0.6785 -0.8067 -0.1955
  171TIP3    H1  477   3.213   0.795   0.300 -0.5701 -1.7190  2.1612
  171TIP3    H2  478   3.264   0.659   0.340 -0.2819 -2.8347 -1.6352
  172TIP3   OH2  479   6.559   5.520   0.191 -0.5254  0.4770  0.0002
  172TIP3    H1  480   6.613   5.455   0.146  2.3122  0.8674  2.5197
  172TIP3    H2  481   6.506   5.469   0.252  0.0557  0.3780  0.4220
  173TIP3   OH2  482   5.752   6.205   4.177 -0.2438 -0.1852 -0.5557
  173TIP3    H1  483   5.735   6.208   4.083  2.5716 -1.1365 -1.1828
  173TIP3    H2  484   5.806   6.282   4.195 -0.4911 -0.1796  0.2391
  174TIP3   OH2  485   0.246   5.819   4.168 -0.1192 -0.2531 -0.2336
  174TIP3    H1  486   0.252   5.767   4.088 -0.1751 -0.3976 -0.1445
  174TIP3    H2  487   0.216   5.757   4.235  0.2946 -0.2193 -0.0181
  175TIP3   OH2  488   2.872   2.038   1.800  0.2400 -0.2273  0.1188
  175TIP3    H1  489   2.936   1.974   1.768  1.0747  0.6589 -0.0527
  175TIP3    H2  490   2.868   2.105   1.731  1.2103  1.1182  1.2910
  176TIP3   OH2  491   2.914   4.266   1.030 -0.0118  0.0323 -0.0501
  176TIP3    H1  492   2.863   4.190   1.057  1.1160  0.0845  2.5429
  176TIP3    H2  493   3.004   4.233   1.025  0.1348  0.5691 -1.8871
  177TIP3   OH2  494   1.964   3.565   0.212  0.9982  0.0136 -0.3446
  177TIP3    H1  495   2.047   3.612   0.223  2.0380 -1.6484 -0.8669
  177TIP3    H2  496   1.986   3.486   0.164 -1.2279  0.4843 -2.3956
  178TIP3   OH2  497   3.595   5.880   4.082 -0.0602 -0.3690 -0.2735
  178TIP3    H1  498   3.585   5.865   3.988  0.1346 -2.8998  0.0500
  178TIP3    H2  499   3.573   5.973   4.094  0.2175  0.0951 -2.8359
  179TIP3   OH2  500   6.193   4.570   5.502  0.0461  0.0144  0.6251
  179TIP3    H1  501   6.199   4.578   5.407 -3.6314 -2.7731 -0.1026
  179TIP3    H2  502   6.149   4.650   5.530  0.0504  0.3211 -0.2169
  180TIP3   OH2  503   5.730   2.522   1.486  0.4033  0.5837 -0.3465
  180TIP3    H1  504   5.748   2.461   1.414  0.4904 -0.5456  0.6006
  180TIP3    H2  505   5.673   2.473   1.545  0.9539  1.2003  0.7332
  181TIP3   OH2  506   4.006   4.688   0.883 -0.0057 -0.0464 -0.3257
  181TIP3    H1  507   3.926   4.683   0.830  0.9995 -0.3813 -1.8492
  181TIP3    H2  508   3.974   4.712   0.970 -1.7688 -0.1316 -0.8959
  182TIP3   OH2  509   4.151   4.392   0.249 -0.6365 -1.0633  0.2686
  182TIP3    H1  510   4.238   4.390   0.210 -1.2521 -0.2718 -1.2416
  182TIP3    H2  511   4.095   4.345   0.187 -0.9488 -3.4651  2.2601
  183TIP3   OH2  512   6.208   5.721   2.140 -0.1418  0.4079  0.2546
  183TIP3    H1  513   6.245   5.805   2.169 -0.9284  0.9718 -0.3380
  183TIP3    H2  514   6.186   5.676   2.222  1.6541  0.1237  0.6266
  184TIP3   OH2  515   3.276   3.737   3.551 -0.0434  0.0651 -0.3214
  184TIP3    H1  516   3.212   3.795   3.594  1.0813  1.1172 -0.0204
  184TIP3    H2  517   3.274   3.765   3.459 -0.0042  0.1185 -0.3064
  185TIP3   OH2  518   0.511   1.445   3.821 -0.0707 -0.0723 -0.9038
  185TIP3    H1  519   0.591   1.497   3.827  0.5814 -0.9925 -1.3705
  185TIP3    H2  520   0.540   1.355   3.836 -1.1723 -0.3131 -0.1356
  186TIP3   OH2  521   1.599   1.299   5.597 -0.0664  0.9206 -0.1224
  186TIP3    H1  522   1.655   1.375   5.614  1.4216 -0.3931  1.0909
  186TIP3    H2  523   1.615   1.277   5.506  0.6910  1.1257 -0.0440
  187TIP3   OH2  524   1.246   0.113   0.392 -0.0786 -0.5312  0.4684
  187TIP3    H1  525   1.183   0.092   0.323  1.7198 -3.9029 -0.3877
  187TIP3    H2  526   1.203   0.086   0.473 -0.3152 -1.5089  0.0410
  188TIP3   OH2  527   0.451   5.016   0.297 -0.0815 -0.2312 -0.0017
  188TIP3    H1  528   0.400   4.943   0.262  0.5754 -0.0935 -1.3174
  188TIP3    H2  529   0.386   5.074   0.336 -0.9377 -0.1144 -1.5233
  189TIP3   OH2  530   4.939   0.013   0.861  0.5852 -0.3614  0.1515
  189TIP3    H1  531   4.878   0.023   0.935 -0.2574  3.7036 -0.8173
  189TIP3    H2  532   5.022   0.046   0.894  0.9761 -1.2358  0.0571
  190TIP3   OH2  533   4.661   4.299   0.444  0.2285 -0.0787  0.1878
  190TIP3    H1  534   4.699   4.248   0.515 -1.7761 -0.6003  0.9711
  190TIP3    H2  535   4.630   4.380   0.486 -0.1171  0.0329 -0.2623
  191TIP3   OH2  536   2.671   0.828   3.159  0.1390  0.0062  0.1721
  191TIP3    H1  537   2.754   0.875   3.161 -0.1995  0.5974  0.5138
  191TIP3    H2  538   2.694   0.738   3.184  0.3534  0.6736  2.6957
  192TIP3   OH2  539   1.997   4.976   4.195  0.2515  0.0519  0.1438
  192TIP3    H1  540   2.027   4.885   4.194 -2.2559 -0.8612  0.7009
  192TIP3    H2  541   1.923   4.979   4.134 -0.2520  1.5059  0.7599
  193TIP3   OH2  542   5.895   5.642   1.341  0.3657  0.0773 -0.1072
  193TIP3    H1  543   5.911   5.548   1.330 -1.4936 -0.2958  0.0599
  193TIP3    H2  544   5.839   5.665   1.266 -1.3129  0.4624  1.2169
  194TIP3   OH2  545   4.012   1.153   1.649 -0.5247  0.4706  0.5120
  194TIP3    H1  546   4.016   1.193   1.562 -1.2178 -1.0633 -0.2524
  194TIP3    H2  547   3.960   1.215   1.701 -0.5970  1.1252 -0.3183
  195TIP3   OH2  548   0.177   6.542   2.096  1.1680 -0.0990  0.6317
  195TIP3    H1  549   0.163   6.474   2.161 -2.5038  0.5720  0.7995
  195TIP3    H2  550   0.187   6.622   2.146  1.2379  0.0334  0.4080
  196TIP3   OH2  551   0.353   5.208   5.054 -0.3168  0.2750 -0.3385
  196TIP3    H1  552   0.446   5.203   5.076 -0.8664 -1.2977  1.9468
  196TIP3    H2  553   0.337   5.131   4.999  0.0425  1.5665 -2.3684
  197TIP3   OH2  554   0.977   3.347   4.623  0.3527  0.1416  1.3816
  197TIP3    H1  555   0.883   3.334   4.607  0.5476 -0.2328  0.4457
  197TIP3    H2  556   0.983   3.365   4.716 -0.6221 -0.1891  1.5259
  198TIP3   OH2  557   1.439   4.656   3.686 -0.7607  0.3628 -0.0212
  198TIP3    H1  558   1.385   4.690   3.614 -1.1775 -0.9966 -0.3918
  198TIP3    H2  559   1.378   4.601   3.736  0.3409 -1.5592 -0.6931
  199TIP3   OH2  560   2.509   6.035   3.960  0.5577 -0.0617 -0.0759
  199TIP3    H1  561   2.502   6.110   3.901 -0.3473  0.1901  0.3288
  199TIP3    H2  562   2.425   6.033   4.006 -0.1696 -2.3607 -1.3336
  200TIP3   OH2  563   0.688   6.060   2.988 -0.4817  0.1007 -0.8979
  200TIP3    H1  564   0.670   6.152   2.970  0.2979  0.1582 -1.4346
  200TIP3    H2  565   0.740   6.031   2.913  1.4424 -0.0957  0.4507
  201TIP3   OH2  566   3.864   5.441   4.039 -0.1962  0.1060 -0.1926
  201TIP3    H1  567   3.871   5.445   4.135 -0.7422  0.7091 -0.1661
  201TIP3    H2  568   3.951   5.414   4.010  0.3519  1.1181  0.4172
  202TIP3   OH2  569   1.853   3.222   5.342 -0.0350  0.1167 -0.4138
  202TIP3    H1  570   1.805   3.234   5.424 -0.4658  1.0684 -0.7912
  202TIP3    H2  571   1.923   3.161   5.364 -1.2414 -1.0978  0.2203
  203TIP3   OH2  572   6.774   4.088   5.808  0.6379 -0.0051 -0.4618
  203TIP3    H1  573   6.682   4.073   5.827  1.0929 -2.4446  0.1672
  203TIP3    H2  574   6.783   4.183   5.804 -1.7504  0.2981  0.1496
  204TIP3   OH2  575   7.098   1.280   2.124  0.4610  0.4019 -0.2825
  204TIP3    H1  576   7.102   1.349   2.057  2.4444 -0.3731 -1.0120
  204TIP3    H2  577   7.158   1.309   2.192  3.3864 -1.6873 -1.7634
  205TIP3   OH2  578   1.085   0.583   0.291 -0.1377  0.4175 -0.0942
  205TIP3    H1  579   0.999   0.619   0.273  0.1886  1.4308  0.2760
  205TIP3    H2  580   1.133   0.590   0.208 -0.1238  0.6897 -0.0616
  206TIP3   OH2  581   1.997   3.411   2.108 -0.5050  0.2104 -0.1051
  206TIP3    H1  582   1.985   3.320   2.083 -1.5652  0.9350 -2.5443
  206TIP3    H2  583   1.915   3.434   2.154 -0.2583 -0.0283  0.4646
  207TIP3   OH2  584   4.028   2.150   5.564  0.3172  0.6537  0.0456
  207TIP3    H1  585   3.964   2.169   5.633  1.9817 -0.6416  2.0866
  207TIP3    H2  586   4.054   2.236   5.532 -0.7337  1.2966  0.8234
  208TIP3   OH2  587   1.306   0.373   0.545 -0.3897  0.5519 -0.2963
  208TIP3    H1  588   1.229   0.430   0.554  0.4482  1.7309 -0.3536
  208TIP3    H2  589   1.274   0.297   0.496 -1.2617  1.5353 -1.3061
  209TIP3   OH2  590   1.545   1.175   3.951 -0.1487  0.4328  0.1232
  209TIP3    H1  591   1.464   1.163   3.999 -0.3221 -0.0878 -0.2919
  209TIP3    H2  592   1.610   1.198   4.018 -0.3113 -0.5974  0.6413
  210TIP3   OH2  593   0.057   3.029   4.910 -0.0518  0.3354  0.4313
  210TIP3    H1  594  -0.034   2.998   4.908  0.2561 -0.5938  0.0025
  210TIP3    H2  595   0.109   2.952   4.885  0.7435  1.2272 -0.8237
  211TIP3   OH2  596   4.302   6.072   0.871 -0.2423  0.1578  0.2809
  211TIP3    H1  597   4.276   5.983   0.847  1.2468 -1.0157  2.5792
  211TIP3    H2  598   4.316   6.068   0.966 -0.4962  2.9703  0.5154
  212TIP3   OH2  599   6.710   2.273   4.223 -0.5472 -0.1861  0.2967
  212TIP3    H1  600   6.734   2.186   4.253 -0.4904 -0.0299  0.7034
  212TIP3    H2  601   6.772   2.332   4.265  0.7250 -0.1141 -1.5371
  213TIP3   OH2  602   5.493   0.393   1.366 -0.0930 -0.5387  0.1691
  213TIP3    H1  603   5.532   0.306   1.358  0.7053 -0.1687 -0.0805
  213TIP3    H2  604   5.462   0.398   1.456 -1.3371 -1.5597 -0.1747
  214TIP3   OH2  605   4.531   3.259   2.766 -0.2511 -0.0556 -0.2774
  214TIP3    H1  606   4.443   3.297   2.768 -0.3445 -0.2844  0.8776
  214TIP3    H2  607   4.536   3.206   2.846  0.4132 -1.2453 -1.0805
  215TIP3   OH2  608   5.174   4.127   2.004  0.6755 -0.0442 -0.2225
  215TIP3    H1  609   5.188   4.186   1.930  1.8051 -2.2129 -1.8846
  215TIP3    H2  610   5.249   4.067   2.000 -1.0031 -2.3277  0.5823
  216TIP3   OH2  611   2.439   5.803   1.680 -0.6102 -0.0054  0.2435
  216TIP3    H1  612   2.382   5.827   1.752 -1.1959  0.0642 -0.2321
  216TIP3    H2  613   2.420   5.710   1.664  0.5105 -0.3958  1.0584
  217TIP3   OH2  614   5.705   4.000   5.388  0.2144 -0.2256 -0.3743
  217TIP3    H1  615   5.661   4.082   5.367  0.4307 -0.1885 -0.6886
  217TIP3    H2  616   5.749   4.017   5.472  0.4859  0.0695 -0.5739
  218TIP3   OH2  617   3.747   0.464   5.635 -0.6299 -0.2178  0.1351
  218TIP3    H1  618   3.768   0.414   5.556 -1.4115 -1.8258  0.8901
  218TIP3    H2  619   3.671   0.517   5.610  0.2445  0.6771 -0.6941
  219TIP3   OH2  620   6.038   0.566   1.298 -0.3530 -0.0591  0.2870
  219TIP3    H1  621   5.965   0.607   1.252  0.0240 -0.4276 -0.6683
  219TIP3    H2  622   6.101   0.546   1.229 -0.0854 -1.2813  0.8648
  220TIP3   OH2  623   6.656   5.006   1.828  0.3756  0.2606 -0.0797
  220TIP3    H1  624   6.730   4.945   1.830 -0.5243 -0.8716  0.3140
  220TIP3    H2  625   6.608   4.986   1.908 -0.1178  1.2848 -0.1155
  221TIP3   OH2  626   5.015   0.174   2.250 -0.7695  0.3049 -0.4830
  221TIP3    H1  627   5.024   0.130   2.165 -1.7568 -0.2639 -0.3046
  221TIP3    H2  628   5.032   0.266   2.231  0.3339  0.0110 -1.0485
  222TIP3   OH2  629   4.701   0.484   1.723  0.0078 -0.5101 -0.2311
  222TIP3    H1  630   4.648   0.521   1.793 -0.0928 -2.8325  1.0556
  222TIP3    H2  631   4.781   0.536   1.723 -0.9384  0.9959 -0.0084
  223TIP3   OH2  632   6.618   1.478   0.226 -0.6127  0.3531  0.3022
  223TIP3    H1  633   6.532   1.443   0.249 -0.7686 -0.8116 -1.8248
  223TIP3    H2  634   6.670   1.467   0.306 -1.4139 -2.3688  0.5571
  224TIP3   OH2  635   3.015   0.919   1.823 -0.4715 -0.2706  0.1820
  224TIP3    H1  636   3.035   1.011   1.843 -1.8530 -0.2782  1.7589
  224TIP3    H2  637   3.052   0.870   1.896  0.3366 -1.0111 -0.7010
  225TIP3   OH2  638   1.934   6.617   0.408 -0.6851  0.2896  0.1360
  225TIP3    H1  639   1.887   6.674   0.347  0.2378 -0.3415 -1.2012
  225TIP3    H2  640   1.940   6.533   0.362  1.2787  0.2049  0.4952
  226TIP3   OH2  641   6.160   4.427   4.468 -0.3645  0.0175 -0.2555
  226TIP3    H1  642   6.214   4.467   4.401 -1.5832  0.8582 -0.7681
  226TIP3    H2  643   6.217   4.421   4.545  1.0259 -0.9036 -1.3044
  227TIP3   OH2  644   5.528   2.697   2.388 -0.0907 -0.2027 -0.4150
  227TIP3    H1  645   5.574   2.759   2.331 -0.7683  0.9485  0.2551
  227TIP3    H2  646   5.598   2.642   2.423  0.3781 -0.7329 -2.0769
  228TIP3   OH2  647   5.158   6.548   3.607 -0.0795 -0.2603 -0.0558
  228TIP3    H1  648   5.241   6.596   3.603 -0.1774 -0.0354  0.4993
  228TIP3    H2  649   5.143   6.532   3.700 -0.2752 -0.9844 -0.2014
  229TIP3   OH2  650   6.579   1.876   3.610 -0.7903  0.3360 -0.2788
  229TIP3    H1  651   6.501   1.931   3.609 -1.3364 -0.4297 -0.6043
  229TIP3    H2  652   6.627   1.903   3.688 -0.4116  2.1371 -1.0846
  230TIP3   OH2  653   3.582   3.302   5.619  0.1579  0.3771  1.0436
  230TIP3    H1  654   3.542   3.369   5.564 -2.8792 -1.1337  1.2470
  230TIP3    H2  655   3.584   3.341   5.707  3.3518  2.0859  0.3954
  231TIP3   OH2  656   2.883   5.622   4.142 -0.3756  0.2981  0.3156
  231TIP3    H1  657   2.919   5.587   4.061  1.0141  3.0323 -0.3342
  231TIP3    H2  658   2.856   5.544   4.192 -0.5446 -1.4865 -2.3762
  232TIP3   OH2  659   6.797   0.575   1.613  0.1803  0.0496 -0.6526
  232TIP3    H1  660   6.736   0.513   1.654  0.2125  0.5558  0.1944
  232TIP3    H2  661   6.884   0.541   1.636  0.2419 -0.8245 -2.0919
  233TIP3   OH2  662   7.043   1.595   1.698 -0.0263 -0.2574 -0.6079
  233TIP3    H1  663   6.974   1.529   1.690 -1.2066  1.0770 -2.4321
  233TIP3    H2  664   6.996   1.678   1.702  1.4334  0.7246 -2.1868
  234TIP3   OH2  665   3.559   1.216   5.837 -0.5591  0.2069 -0.3662
  234TIP3    H1  666   3.570   1.261   5.921 -1.6691 -1.4761  0.7393
  234TIP3    H2  667   3.523   1.130   5.860  3.1671 -2.0956 -2.1874
  235TIP3   OH2  668   6.389   3.688   5.194  0.3289  0.2834  0.2021
  235TIP3    H1  669   6.437   3.676   5.112  2.0658  0.9077  1.0752
  235TIP3    H2  670   6.320   3.751   5.172  1.4218  1.2682 -0.5722
  236TIP3   OH2  671   4.968   4.111   5.021  0.2101  0.0791 -0.5008
  236TIP3    H1  672   4.920   4.070   5.093  0.1470 -1.7279 -1.5201
  236TIP3    H2  673   4.911   4.182   4.992 -0.0740  0.4036  0.7724
  237TIP3   OH2  674   5.647   4.703   0.064  0.1747 -0.4533  0.2248
  237TIP3    H1  675   5.565   4.674   0.103 -1.1518  2.0663 -0.4594
  237TIP3    H2  676   5.665   4.640  -0.005 -0.5742 -1.6579  1.0963
  238TIP3   OH2  677   6.463   4.349   3.988  0.0809  0.1006 -0.1579
  238TIP3    H1  678   6.548   4.368   3.949  1.5910 -0.4477  2.6195
  238TIP3    H2  679   6.437   4.265   3.949  0.8788  0.1826 -0.9069
  239TIP3   OH2  680   6.607   1.340   0.824 -0.2934  0.8832  0.5156
  239TIP3    H1  681   6.586   1.411   0.764  0.7433  1.8812  1.2771
  239TIP3    H2  682   6.691   1.305   0.793 -0.6278  0.2115  0.3455
  240TIP3   OH2  683   3.108   3.966   0.079 -0.0318  0.1687  0.0571
  240TIP3    H1  684   3.047   3.897   0.106  0.6025 -0.0126  1.0912
  240TIP3    H2  685   3.177   3.964   0.146  0.3037  1.4055 -0.2321
  241TIP3   OH2  686   5.633   6.617   0.929  0.0333  0.0933  0.1512
  241TIP3    H1  687   5.570   6.590   0.995  0.0263 -0.2283  0.0118
  241TIP3    H2  688   5.660   6.705   0.957 -2.2946  1.3018 -1.1007
  242TIP3   OH2  689   1.699   1.985   1.273 -0.3195  0.5823  0.2080
  242TIP3    H1  690   1.777   2.000   1.219  0.0667 -1.1970  0.2224
  242TIP3    H2  691   1.630   1.965   1.210 -0.0909 -0.5715  0.3128
  243TIP3   OH2  692   7.104   0.797   0.118 -0.2726  0.0421  0.3754
  243TIP3    H1  693   7.038   0.808   0.050  0.2226  1.4511  0.1007
  243TIP3    H2  694   7.177   0.754   0.074  0.1227  1.1249 -0.0504
  244TIP3   OH2  695   2.987   4.429   0.602 -0.0824  0.2189 -0.6253
  244TIP3    H1  696   3.074   4.468   0.599 -0.1122  0.3204 -0.0920
  244TIP3    H2  697   2.971   4.410   0.694 -0.4644 -0.1623 -0.7652
  245TIP3   OH2  698   4.225   2.848   5.841 -0.4259 -0.4385 -0.0836
  245TIP3    H1  699   4.193   2.758   5.842  0.1564 -0.6673 -1.2234
  245TIP3    H2  700   4.266   2.860   5.927  0.6959 -1.6979 -0.4237
  246TIP3   OH2  701   6.799   0.458   0.756 -0.4386 -0.2917 -0.7261
  246TIP3    H1  702   6.817   0.527   0.820  0.7943 -1.4455  0.2083
  246TIP3    H2  703   6.791   0.505   0.673  2.4242  0.8412 -0.4746
  247TIP3   OH2  704   5.202   6.131   2.879  0.3142  0.1990 -0.2576
  247TIP3    H1  705   5.238   6.133   2.790  0.9740  1.9859 -0.0034
  247TIP3    H2  706   5.122   6.080   2.871  0.7348 -0.3052 -1.7180
  248TIP3   OH2  707   4.759   3.147   1.023  0.5515  0.2927 -0.5472
  248TIP3    H1  708   4.675   3.103   1.036  1.0570 -0.6033 -0.2196
  248TIP3    H2  709   4.746   3.202   0.946 -0.9197  1.6377  0.5768
  249TIP3   OH2  710   1.051   4.270   5.223 -0.1758  0.1632  0.2521
  249TIP3    H1  711   1.088   4.350   5.187 -0.5181 -0.9322 -2.8405
  249TIP3    H2  712   1.124   4.209   5.226 -0.7287 -0.6895 -1.7411
  250TIP3   OH2  713   0.926   3.755   3.942  0.1163  0.1108 -0.0328
  250TIP3    H1  714   0.957   3.665   3.952  0.8638  0.4090  0.3642
  250TIP3    H2  715   0.877   3.772   4.023 -0.2619 -0.0221 -0.2276
  251TIP3   OH2  716   5.743   0.834   2.489  0.0285  0.6483 -0.3033
  251TIP3    H1  717   5.817   0.885   2.521 -0.7938  1.0124  1.1402
  251TIP3    H2  718   5.701   0.800   2.568 -0.2767 -1.1161 -1.1649
  252TIP3   OH2  719   2.819   4.888   5.108 -0.2840 -0.3973 -0.2530
  252TIP3    H1  720   2.746   4.949   5.116 -0.4197 -0.1273 -2.8633
  252TIP3    H2  721   2.873   4.905   5.186 -2.4512  0.0575  1.2349
  253TIP3   OH2  722   0.875   2.005   0.062  0.1083 -0.4815 -0.2645
  253TIP3    H1  723   0.801   2.062   0.042 -0.3943 -0.7198  0.8066
  253TIP3    H2  724   0.837   1.917   0.062  0.1794 -0.5377  1.1197
  254TIP3   OH2  725   0.140   4.175   3.016  0.0619 -0.2546  0.1472
  254TIP3    H1  726   0.205   4.138   2.955 -0.1932  0.3092 -0.4852
  254TIP3    H2  727   0.139   4.114   3.090  0.0934 -1.1827 -0.5871
  255TIP3   OH2  728   6.366   3.635   2.897 -0.3214  0.0971  0.6594
  255TIP3    H1  729   6.338   3.613   2.808 -1.3322  1.9872  0.4627
  255TIP3    H2  730   6.461   3.645   2.890 -0.1417 -1.5980  0.2389
  256TIP3   OH2  731   4.054   6.504   4.004  0.2255 -0.2132 -0.0788
  256TIP3    H1  732   4.140   6.538   3.980  0.2772 -0.2386  0.0697
  256TIP3    H2  733   4.017   6.570   4.062 -0.5058  0.5529 -1.3747
  257TIP3   OH2  734   6.874   6.763   5.126  0.2283 -0.6345 -0.2335
  257TIP3    H1  735   6.966   6.755   5.102  0.2595  0.2465 -0.4148
  257TIP3    H2  736   6.867   6.720   5.211  0.4225 -2.4300 -1.0829
  258TIP3   OH2  737   5.076   5.481   2.464  0.3245 -0.4215 -0.3880
  258TIP3    H1  738   5.155   5.427   2.460  0.1143 -0.8496  0.9405
  258TIP3    H2  739   5.006   5.424   2.435  0.0293 -1.0582  1.4500
  259TIP3   OH2  740   5.504   4.487   5.592 -0.2970  0.5912 -0.0036
  259TIP3    H1  741   5.409   4.477   5.589 -0.2614  0.4013 -1.2464
  259TIP3    H2  742   5.520   4.579   5.571 -0.2013  0.4854 -0.4238
  260TIP3   OH2  743   3.620   1.162   0.596  0.3259 -0.0926  0.7066
  260TIP3    H1  744   3.593   1.254   0.598  0.9452  0.0844  1.0159
  260TIP3    H2  745   3.645   1.147   0.505 -2.4482 -0.7567 -0.0578
  261TIP3   OH2  746   1.066   0.032   0.204 -0.1913 -0.1706 -0.6129
  261TIP3    H1  747   1.013  -0.047   0.189  1.2333 -0.7750 -2.8739
  261TIP3    H2  748   1.090   0.062   0.117  0.1724  2.2251  0.2318
  262TIP3   OH2  749   6.098   3.013   3.973  0.4834 -0.3723 -0.1693
  262TIP3    H1  750   6.023   3.073   3.978  0.9266  0.0956  1.3639
  262TIP3    H2  751   6.063   2.928   3.999  0.2150 -0.4341 -0.7203
  263TIP3   OH2  752   2.434   3.800   5.254 -0.3058 -0.5184 -0.2037
  263TIP3    H1  753   2.352   3.756   5.279 -0.7429  0.3547 -0.0789
  263TIP3    H2  754   2.417   3.833   5.166 -1.2331  2.3389  0.9369
  264TIP3   OH2  755   4.234   5.773   0.520 -0.2064 -0.6917  0.2557
  264TIP3    H1  756   4.224   5.805   0.610  0.1844  0.5949 -0.1251
  264TIP3    H2  757   4.329   5.768   0.508 -0.2595 -0.9037 -0.0746
  265TIP3   OH2  758   4.647   2.046   0.496 -0.1338 -0.6495  0.3605
  265TIP3    H1  759   4.588   2.097   0.552 -1.4301 -2.9542  1.2601
  265TIP3    H2  760   4.685   2.110   0.436  0.4025  1.7820  3.0676
  266TIP3   OH2  761   0.378   2.908   5.112 -0.9132  0.5151  0.1598
  266TIP3    H1  762   0.302   2.963   5.134  0.8976  3.8660 -1.1101
  266TIP3    H2  763   0.444   2.932   5.177  0.0892  0.1533 -0.7052
  267TIP3   OH2  764   1.208   6.190   2.014  0.2228  0.1626  0.1996
  267TIP3    H1  765   1.188   6.274   2.055 -0.7319 -0.4824  1.1396
  267TIP3    H2  766   1.124   6.161   1.978  0.7198 -0.0139 -0.8465
  268TIP3   OH2  767   0.554   3.203   2.473 -0.0585 -0.0607  0.7375
  268TIP3    H1  768   0.500   3.164   2.542 -1.4213 -0.0712 -0.3031
  268TIP3    H2  769   0.573   3.130   2.414  0.9885 -0.0227  1.0075
  269TIP3   OH2  770   5.672   5.279   1.099  0.1145 -0.1827 -0.0928
  269TIP3    H1  771   5.583   5.301   1.072  0.3975  1.4999  0.2537
  269TIP3    H2  772   5.707   5.360   1.136  2.1722 -0.5175 -1.1897
  270TIP3   OH2  773   6.530   4.813   1.570 -0.3838  0.4339 -0.2073
  270TIP3    H1  774   6.585   4.751   1.522 -1.3877 -0.0465 -0.7688
  270TIP3    H2  775   6.568   4.815   1.658 -0.3938 -1.0969 -0.1359
  271TIP3   OH2  776   5.825   3.952   2.891 -0.2837 -0.2893 -0.2729
  271TIP3    H1  777   5.847   3.978   2.802  1.0310 -0.8076 -0.1286
  271TIP3    H2  778   5.902   3.903   2.921 -0.0489  1.1546  1.6723
  272TIP3   OH2  779   0.888   4.736   5.548  0.1264 -0.0141  0.5519
  272TIP3    H1  780   0.818   4.670   5.549  0.5531 -0.4751  1.4182
  272TIP3    H2  781   0.934   4.723   5.631  0.4216  1.1694  0.5870
  273TIP3   OH2  782   1.320   5.259   5.898 -1.1270 -0.0578  0.1692
  273TIP3    H1  783   1.338   5.351   5.878  1.5172 -0.2400  1.3410
  273TIP3    H2  784   1.337   5.213   5.815  1.5695  0.1173  0.5528
  274TIP3   OH2  785   4.707   5.900   1.107  0.3931  0.3168 -0.0547
  274TIP3    H1  786   4.716   5.981   1.157 -0.5509  0.7028 -0.4961
  274TIP3    H2  787   4.719   5.926   1.016  1.7183 -0.3232 -0.0898
  275TIP3   OH2  788   2.786   5.534   3.677  0.0193 -0.0058 -0.2681
  275TIP3    H1  789   2.731   5.457   3.689 -0.7989  0.4923 -0.7518
  275TIP3    H2  790   2.754   5.574   3.596  1.0911  0.2959 -0.5584
  276TIP3   OH2  791   6.696   1.398   1.475  0.1218  0.1295  0.0924
  276TIP3    H1  792   6.685   1.367   1.386  0.5472 -1.2689  0.5046
  276TIP3    H2  793   6.618   1.367   1.522  0.7383 -0.6902  0.6007
  277TIP3   OH2  794   6.506   2.925   2.420  0.1592 -0.3771  0.2213
  277TIP3    H1  795   6.454   3.005   2.426 -1.9511 -1.5519 -1.1619
  277TIP3    H2  796   6.573   2.944   2.355 -0.2558  0.3077 -0.0147
  278TIP3   OH2  797   1.988   2.363   3.252  0.9277 -0.4768  0.2766
  278TIP3    H1  798   2.083   2.356   3.246  1.0427  0.2892  1.1356
  278TIP3    H2  799   1.971   2.454   3.276  0.0863 -1.0882  2.1424
  279TIP3   OH2  800   4.653   6.613   5.788 -0.1160 -0.5375 -0.6291
  279TIP3    H1  801   4.652   6.656   5.702  2.6669  0.8569 -0.0849
  279TIP3    H2  802   4.742   6.582   5.798  0.1929  0.9668  2.4828
  280TIP3   OH2  803   4.239   2.858   2.289 -0.2311  0.3989 -0.2318
  280TIP3    H1  804   4.252   2.952   2.272  0.0925  0.2162 -1.0327
  280TIP3    H2  805   4.318   2.831   2.335 -1.6530  1.1766  2.9345
  281TIP3   OH2  806   1.269   3.049   4.217 -0.4581  0.1806  0.2482
  281TIP3    H1  807   1.335   3.026   4.153  0.7063  1.5213  0.9175
  281TIP3    H2  808   1.221   2.968   4.233  1.8398 -1.1538  0.6843
  282TIP3   OH2  809   0.685   4.419   1.168 -0.3426  0.0593 -0.3956
  282TIP3    H1  810   0.609   4.440   1.223 -0.4611 -0.4837 -0.3520
  282TIP3    H2  811   0.668   4.467   1.086  0.2185  1.4998  0.3115
  283TIP3   OH2  812   2.517   2.288   3.874 -0.2251  0.4510 -0.1265
  283TIP3    H1  813   2.569   2.274   3.794 -1.8078 -0.1355 -1.1014
  283TIP3    H2  814   2.444   2.343   3.845  0.1142  1.7324  1.3345
  284TIP3   OH2  815   5.155   5.594   5.492 -0.4003 -0.3057 -0.2770
  284TIP3    H1  816   5.245   5.599   5.524 -0.4951  1.7720 -0.2034
  284TIP3    H2  817   5.101   5.619   5.567 -0.8801  0.5912 -0.8976
  285TIP3   OH2  818   5.558   6.604   0.455  0.0392  0.3380 -0.4928
  285TIP3    H1  819   5.642   6.640   0.427 -0.3124  1.1295 -0.5483
  285TIP3    H2  820   5.548   6.633   0.546 -0.8868  1.6044 -0.9665
  286TIP3   OH2  821   2.248   2.508   1.535 -0.3837  0.2270  0.6008
  286TIP3    H1  822   2.237   2.603   1.532  0.3277  0.4590  3.1863
  286TIP3    H2  823   2.160   2.474   1.551 -0.9324  0.2437 -1.9186
  287TIP3   OH2  824   5.895   1.038   0.096 -0.2284 -0.1882  0.5116
  287TIP3    H1  825   5.960   1.081   0.152 -0.5689 -1.5493  2.0303
  287TIP3    H2  826   5.818   1.095   0.101  0.3145  0.6225 -0.0445
  288TIP3   OH2  827   1.727   4.939   1.168  0.0930  0.2063 -0.1713
  288TIP3    H1  828   1.764   4.915   1.252  0.8042 -1.4060 -0.8892
  288TIP3    H2  829   1.794   4.993   1.126 -0.6150  1.7385  0.5957
  289TIP3   OH2  830   0.715   2.538   5.782 -0.5589  0.2308 -0.2043
  289TIP3    H1  831   0.692   2.450   5.813 -0.4992  0.4644  0.5184
  289TIP3    H2  832   0.770   2.522   5.705 -0.7156 -0.3623 -0.1998
  290TIP3   OH2  833   0.509   1.851   4.135  0.5452 -0.5513 -0.1855
  290TIP3    H1  834   0.479   1.854   4.044  1.0305 -1.8421 -0.4098
  290TIP3    H2  835   0.463   1.777   4.174 -1.6362  1.4924  1.4127
  291TIP3   OH2  836   4.427   1.138   2.670 -0.3729 -0.0602 -0.1978
  291TIP3    H1  837   4.442   1.067   2.607 -0.8896 -0.5129  0.1838
  291TIP3    H2  838   4.347   1.181   2.639 -1.3245 -1.0473  0.8222
  292TIP3   OH2  839   5.890   2.917   5.207 -0.3588 -0.0437 -0.2255
  292TIP3    H1  840   5.930   2.981   5.149 -1.2400  0.1206 -0.6708
  292TIP3    H2  841   5.832   2.969   5.264 -2.4461 -0.5577 -1.7369
  293TIP3   OH2  842   2.566   1.833   0.957 -0.3284 -0.1754  0.1204
  293TIP3    H1  843   2.478   1.837   0.919  0.6168  0.8376 -2.0815
  293TIP3    H2  844   2.602   1.750   0.926 -0.0425  0.0030 -0.0240
  294TIP3   OH2  845   4.274   3.704   2.407 -0.4013 -0.0532 -0.5295
  294TIP3    H1  846   4.214   3.768   2.368 -0.0390  1.1180  0.7435
  294TIP3    H2  847   4.344   3.695   2.344 -1.4303 -0.7070 -1.6108
  295TIP3   OH2  848   3.516   4.007   0.403  0.1260  0.0364 -0.1404
  295TIP3    H1  849   3.572   4.005   0.481 -0.6226  0.7319  0.4335
  295TIP3    H2  850   3.517   3.918   0.370  1.7518  0.0717 -0.2765
  296TIP3   OH2  851   5.189   5.127   5.719  0.1356 -0.4656 -0.6936
  296TIP3    H1  852   5.230   5.057   5.668  1.9632  1.2219 -1.6506
  296TIP3    H2  853   5.142   5.081   5.789  1.6578 -2.6309 -1.0026
  297TIP3   OH2  854   0.702   6.089   2.387  0.3804  0.0142  0.0561
  297TIP3    H1  855   0.725   6.014   2.331  0.2452 -0.7157  0.9452
  297TIP3    H2  856   0.606   6.088   2.389  0.3394 -1.6209  2.3550
  298TIP3   OH2  857   3.395   4.991   0.301 -0.0798 -0.5165  0.0166
  298TIP3    H1  858   3.382   5.016   0.209 -0.0689 -2.5006 -0.5754
  298TIP3    H2  859   3.364   5.067   0.351 -1.9136 -0.1312 -1.5815
  299TIP3   OH2  860   5.093   4.277   1.678  0.2290 -0.6359 -0.5083
  299TIP3    H1  861   4.998   4.278   1.675  0.1592  1.1765  0.4245
  299TIP3    H2  862   5.118   4.190   1.649 -1.6693 -0.8743 -1.5674
  300TIP3   OH2  863   5.439   1.083   1.247 -0.0950 -0.0106 -0.0933
  300TIP3    H1  864   5.449   0.989   1.259  0.4103  0.1955  1.2765
  300TIP3    H2  865   5.390   1.092   1.165  0.2059 -1.4417 -0.4505
  301TIP3   OH2  866   5.049   4.788   5.003 -0.1725 -0.3958 -0.6765
  301TIP3    H1  867   5.034   4.743   4.920  0.5851 -1.3910 -0.2909
  301TIP3    H2  868   5.008   4.733   5.069 -0.7752  0.3897 -0.3775
  302TIP3   OH2  869   0.309   0.005   1.453  0.2183 -0.1615  0.1069
  302TIP3    H1  870   0.283   0.095   1.468 -0.6111 -0.3731 -0.0214
  302TIP3    H2  871   0.347   0.005   1.364 -1.3645 -0.2541 -0.5978
  303TIP3   OH2  872   4.111   1.562   4.713  0.4512  0.5438  0.4628
  303TIP3    H1  873   4.149   1.476   4.732  0.3739  0.1316 -1.1048
  303TIP3    H2  874   4.154   1.589   4.631 -0.5513  1.3518  0.1821
  304TIP3   OH2  875   4.465   5.706   1.955 -0.1531 -0.2107 -0.1181
  304TIP3    H1  876   4.454   5.799   1.973 -0.0565 -0.1978 -0.1272
  304TIP3    H2  877   4.420   5.662   2.028  0.0857 -0.1582  0.0612
  305TIP3   OH2  878   5.725   3.532   3.660 -0.4218 -0.2111  0.0911
  305TIP3    H1  879   5.726   3.584   3.580  2.3079  1.0734  0.8122
  305TIP3    H2  880   5.722   3.597   3.730  0.6564 -1.1065  1.0146
  306TIP3   OH2  881   4.877   3.997   1.427 -0.1083 -0.0062  0.0927
  306TIP3    H1  882   4.849   3.928   1.487 -0.8324  0.9194  0.8630
  306TIP3    H2  883   4.961   3.967   1.393 -0.5553 -1.4154  0.1404
  307TIP3   OH2  884   3.497   6.436   1.891 -0.2476 -0.5291  0.1763
  307TIP3    H1  885   3.524   6.351   1.857 -1.0177 -1.1277  0.9843
  307TIP3    H2  886   3.419   6.458   1.840 -0.5557 -0.7333  0.5532
  308TIP3   OH2  887   7.127   3.182   1.218 -0.0369  0.2670 -0.6069
  308TIP3    H1  888   7.136   3.278   1.219  1.5196  0.1466 -1.0105
  308TIP3    H2  889   7.118   3.158   1.310 -1.4924  0.8637 -0.5630
  309TIP3   OH2  890   0.267   3.849   4.314 -0.5164  0.5586  0.2295
  309TIP3    H1  891   0.219   3.863   4.233 -0.1104  0.1646 -0.0875
  309TIP3    H2  892   0.200   3.821   4.377 -1.0744  2.3013  0.4567
  310TIP3   OH2  893   5.545   2.585   4.364  0.0140  0.2602 -0.1361
  310TIP3    H1  894   5.633   2.580   4.327  0.4559 -1.6073  1.0248
  310TIP3    H2  895   5.488   2.591   4.287  1.1466  2.8139 -0.8747
  311TIP3   OH2  896   4.063   4.209   3.433 -0.2972  0.3356 -0.0186
  311TIP3    H1  897   4.151   4.185   3.407 -0.7310 -0.7256 -0.5543
  311TIP3    H2  898   4.068   4.303   3.451  0.7972  0.4051 -0.6284
  312TIP3   OH2  899   0.008   1.630   3.185  0.3922  0.3027  0.4440
  312TIP3    H1  900   0.091   1.613   3.141 -0.4249 -1.9746 -0.3714
  312TIP3    H2  901   0.020   1.595   3.273  0.6906  1.1490  0.7501
  313TIP3   OH2  902   0.816   0.992   3.896  0.3005  0.5733  0.2805
  313TIP3    H1  903   0.803   0.901   3.920  2.2091  0.2550  0.2520
  313TIP3    H2  904   0.843   0.989   3.804 -0.8518  1.2945 -0.1097
  314TIP3   OH2  905   5.970   6.641   2.643 -0.3377  0.0226  0.6838
  314TIP3    H1  906   5.877   6.665   2.642 -0.3176  0.0954  0.5780
  314TIP3    H2  907   5.981   6.594   2.726 -1.1616 -2.8187 -0.7123
  315TIP3   OH2  908   0.993   2.091   1.827 -0.1207 -0.3316 -0.3719
  315TIP3    H1  909   1.015   2.151   1.898  0.1059  0.2094 -0.8844
  315TIP3    H2  910   1.078   2.064   1.791 -0.1899 -1.6337  0.3878
  316TIP3   OH2  911   1.924   2.144   5.729 -0.0136 -0.0992 -0.1123
  316TIP3    H1  912   2.003   2.092   5.715  0.0240  0.0455 -0.4457
  316TIP3    H2  913   1.908   2.185   5.644 -0.7378 -0.5311 -0.1903
  317TIP3   OH2  914   6.390   1.379   4.761 -0.0001 -0.2529 -0.0723
  317TIP3    H1  915   6.464   1.335   4.803  0.1024 -0.8696 -0.8679
  317TIP3    H2  916   6.427   1.419   4.682 -0.5869 -1.0132 -0.7590
  318TIP3   OH2  917   6.564   2.456   1.917  0.1748 -0.3309  0.0018
  318TIP3    H1  918   6.592   2.386   1.858  0.8761 -0.2239  0.1942
  318TIP3    H2  919   6.520   2.519   1.861 -0.7092 -1.0490 -0.1326
  319TIP3   OH2  920   2.215   1.757   1.764  0.3355 -0.4212  0.6551
  319TIP3    H1  921   2.290   1.803   1.726  1.4871 -1.5499  1.4986
  319TIP3    H2  922   2.160   1.827   1.799  0.2195  0.5223 -1.2616
  320TIP3   OH2  923   2.948   5.367   1.744  0.2169  0.0590 -0.6384
  320TIP3    H1  924   2.941   5.315   1.664  0.3668  0.9534 -1.2388
  320TIP3    H2  925   3.042   5.372   1.760  0.1446 -1.4822  0.5198
  321TIP3   OH2  926   4.149   3.771   2.023 -0.2600  0.7266  0.0280
  321TIP3    H1  927   4.163   3.772   1.929 -1.5566 -0.9180 -0.2353
  321TIP3    H2  928   4.230   3.808   2.060  1.3393 -0.8838 -1.6372
  322TIP3   OH2  929   4.626   0.744   1.835 -0.5463  0.1215 -0.1016
  322TIP3    H1  930   4.688   0.768   1.766  0.1110  0.5052  0.6069
  322TIP3    H2  931   4.571   0.822   1.846 -1.1423 -0.2039 -0.7008
  323TIP3   OH2  932   6.857   3.257   3.943 -0.2983 -0.0853  0.3234
  323TIP3    H1  933   6.949   3.260   3.918 -0.0762 -3.1457  0.3954
  323TIP3    H2  934   6.857   3.231   4.035 -1.2478 -0.0760  0.3411
  324TIP3   OH2  935   4.083   6.692   4.364  0.5236  0.5984 -0.3697
  324TIP3    H1  936   4.158   6.676   4.421  0.0584 -0.1383  0.0542
  324TIP3    H2  937   4.113   6.759   4.302  1.3717  0.6462  0.0854
  325TIP3   OH2  938   2.691   4.354   2.607 -0.3051  0.3006  0.0795
  325TIP3    H1  939   2.769   4.381   2.558  0.2844 -1.0007  0.2464
  325TIP3    H2  940   2.641   4.434   2.619  1.0701  1.1961  0.0590
  326TIP3   OH2  941   7.126   3.217   3.898 -0.1214 -0.2588 -0.0663
  326TIP3    H1  942   7.171   3.248   3.977 -1.8775  0.1716  0.8045
  326TIP3    H2  943   7.178   3.253   3.826  1.7428 -0.9916  0.8545
  327TIP3   OH2  944   3.251   4.333   3.925 -0.2275 -0.1399 -0.4435
  327TIP3    H1  945   3.320   4.394   3.898 -2.1116  1.3311 -2.2897
  327TIP3    H2  946   3.276   4.250   3.886 -0.0836  0.6812 -2.2113
  328TIP3   OH2  947   3.164   1.658   5.366  0.0457  0.2437 -0.1079
  328TIP3    H1  948   3.208   1.631   5.447 -0.0853  1.5470  0.4203
  328TIP3    H2  949   3.224   1.722   5.327 -0.1322  0.0058 -0.7856
  329TIP3   OH2  950   2.862   3.111   0.691  0.2245 -0.1112 -0.0313
  329TIP3    H1  951   2.893   3.108   0.601  0.9186  3.5287 -0.0565
  329TIP3    H2  952   2.864   3.204   0.714 -1.0151 -0.7919  3.3809
  330TIP3   OH2  953   5.800   2.072   2.701  0.8554  0.0779 -0.1846
  330TIP3    H1  954   5.769   2.126   2.628  0.6100 -1.8168 -1.5679
  330TIP3    H2  955   5.728   2.012   2.719  0.7891  0.7020  1.8904
  331TIP3   OH2  956   0.693   1.704   2.514  0.1192  0.0513 -0.0036
  331TIP3    H1  957   0.715   1.700   2.607  1.2364  0.5161 -0.2195
  331TIP3    H2  958   0.603   1.735   2.511 -0.4606 -1.4241  0.9486
  332TIP3   OH2  959   5.984   2.590   4.748  0.0857  1.0480  0.2029
  332TIP3    H1  960   6.064   2.636   4.772  1.5102 -0.7381 -0.8618
  332TIP3    H2  961   5.993   2.504   4.789 -1.2601  0.7786 -0.0177
  333TIP3   OH2  962   5.617   6.386   1.705 -0.4470  0.0416  0.0051
  333TIP3    H1  963   5.590   6.305   1.748 -0.4771 -0.7588 -1.4370
  333TIP3    H2  964   5.710   6.375   1.688 -0.0073  1.1684  1.5458
  334TIP3   OH2  965   2.279   1.403   3.416 -0.0183 -0.1602  0.5043
  334TIP3    H1  966   2.259   1.315   3.447  0.4040 -0.6244 -0.4958
  334TIP3    H2  967   2.340   1.390   3.344 -1.1308  0.8373 -0.6763
  335TIP3   OH2  968   3.707   0.112   0.291 -0.2532 -0.0725  0.4458
  335TIP3    H1  969   3.653   0.154   0.224 -0.3035  0.7007  0.9672
  335TIP3    H2  970   3.648   0.100   0.366 -0.1852 -0.8852  0.3852
  336TIP3   OH2  971   2.795   3.722   5.551 -0.4529  0.6942 -0.8654
  336TIP3    H1  972   2.738   3.645   5.548 -0.6058  0.7996 -0.7252
  336TIP3    H2  973   2.763   3.778   5.480 -1.1834  1.2030 -0.1601
  337TIP3   OH2  974   2.131   4.292   4.461 -0.3306  0.4923  0.3924
  337TIP3    H1  975   2.172   4.216   4.420 -0.0901  1.1392 -0.6203
  337TIP3    H2  976   2.145   4.281   4.555 -0.7145 -0.9386  0.2934
  338TIP3   OH2  977   6.437   2.010   1.372  0.6503 -0.0067 -0.2013
  338TIP3    H1  978   6.392   1.951   1.311  2.1798 -2.3532  0.8075
  338TIP3    H2  979   6.366   2.050   1.423 -0.5637  0.8465 -2.4219
  339TIP3   OH2  980   0.566   6.473   0.035 -0.3967 -0.0074  0.6934
  339TIP3    H1  981   0.646   6.525   0.026 -1.6136  2.0143  0.6716
  339TIP3    H2  982   0.595   6.390   0.071  1.6910  0.7027  0.8208
  340TIP3   OH2  983   6.230   3.157   2.962 -0.1504  0.3751 -0.0199
  340TIP3    H1  984   6.268   3.215   3.029  1.0228  0.3323 -0.6170
  340TIP3    H2  985   6.259   3.196   2.879  3.1876 -2.5709 -0.4628
  341TIP3   OH2  986   6.376   6.228   0.273 -0.5726  0.2578 -0.0689
  341TIP3    H1  987   6.384   6.321   0.296  0.4086  0.3047 -0.5481
  341TIP3    H2  988   6.464   6.202   0.248 -0.5678 -1.1570  1.2940
  342TIP3   OH2  989   1.508   5.484   2.424 -0.0061  0.3314  0.0661
  342TIP3    H1  990   1.479   5.497   2.514 -0.2579  0.5990 -0.0496
  342TIP3    H2  991   1.472   5.399   2.399 -0.6232  0.6176 -0.0443
  343TIP3   OH2  992   6.866   1.943   5.242  0.3709  0.2605  0.0497
  343TIP3    H1  993   6.905   2.013   5.190  0.2443  1.1467  1.1182
  343TIP3    H2  994   6.892   1.962   5.332 -1.4499  0.1785  0.6370
  344TIP3   OH2  995   2.047   0.480   4.123  0.4942 -0.0633 -0.1340
  344TIP3    H1  996   1.968   0.534   4.117  0.0989 -0.4460  1.2571
  344TIP3    H2  997   2.024   0.400   4.075  0.5328  0.3608 -0.8772
  345TIP3   OH2  998   3.488   0.788   4.277  0.0012  0.4857  0.4168
  345TIP3    H1  999   3.481   0.744   4.362  0.7314  0.2560  0.3627
  345TIP3    H2 1000   3.407   0.838   4.270 -0.1345  0.3905  1.1832
  346TIP3   OH2 1001   6.262   5.712   1.158  0.3578  0.4836  0.2673
  346TIP3    H1 1002   6.348   5.699   1.199 -0.3487  0.2696  1.7636
  346TIP3    H2 1003   6.240   5.803   1.179 -0.4401  0.0774  1.2186
  347TIP3   OH2 1004   4.259   1.381   4.144 -0.4425 -0.2680  0.0350
  347TIP3    H1 1005   4.233   1.455   4.090  0.7680  0.8836  0.9632
  347TIP3    H2 1006   4.193   1.314   4.127 -1.2856  0.8353 -1.2049
  348TIP3   OH2 1007   2.175   3.995   4.807  0.2871 -0.1215 -0.0442
  348TIP3    H1 1008   2.102   3.938   4.783  1.1672 -0.8545 -1.1194
  348TIP3    H2 1009   2.253   3.940   4.793  1.1099  1.0420 -0.1389
  349TIP3   OH2 1010   1.831   5.879   3.362  0.1827 -0.2497  0.0990
  349TIP3    H1 1011   1.839   5.949   3.427 -1.0465 -0.1351  0.1471
  349TIP3    H2 1012   1.872   5.915   3.284 -1.8566  1.2111 -0.3725
  350TIP3   OH2 1013   1.528   3.049   3.030 -0.6766 -0.4955 -0.5313
  350TIP3    H1 1014   1.508   3.140   3.054  0.4629 -0.1535 -0.7789
  350TIP3    H2 1015   1.564   3.011   3.110 -2.5567 -1.2183  0.0254
  351TIP3   OH2 1016   0.751   3.773   1.943  0.5307  0.4334 -0.6722
  351TIP3    H1 1017   0.675   3.721   1.971 -0.3409  2.3189  0.7131
  351TIP3    H2 1018   0.722   3.817   1.863  0.3966  0.5983 -0.5357
  352TIP3   OH2 1019   3.724   0.762   0.823 -0.1264  0.1621 -0.2529
  352TIP3    H1 1020   3.640   0.718   0.806 -0.5857  0.2205  1.6477
  352TIP3    H2 1021   3.786   0.692   0.838 -0.2857  0.1226  0.2479
  353TIP3   OH2 1022   4.113   1.007   4.171  0.2205  0.1894  0.1151
  353TIP3    H1 1023   4.125   1.077   4.106 -1.3420 -0.1450 -0.5838
  353TIP3    H2 1024   4.046   1.041   4.230  0.6585 -0.0646  0.7641
  354TIP3   OH2 1025   0.775   5.565   0.315 -0.6080 -0.2478  0.4181
  354TIP3    H1 1026   0.721   5.555   0.394 -0.3209 -3.6821  0.3312
  354TIP3    H2 1027   0.820   5.481   0.307  2.2693  1.3179 -1.3559
  355TIP3   OH2 1028   0.653   5.312   3.027  0.3530 -0.4243  0.4343
  355TIP3    H1 1029   0.711   5.388   3.027  0.3837 -0.4423  1.4704
  355TIP3    H2 1030   0.710   5.237   3.043  0.1442 -0.5153  0.7718
  356TIP3   OH2 1031   6.768   2.483   5.827  0.6046 -0.8102 -0.1361
  356TIP3    H1 1032   6.676   2.460   5.836 -0.0898  1.6946 -0.2538
  356TIP3    H2 1033   6.805   2.468   5.914  0.2646 -2.3212 -0.2180
  357TIP3   OH2 1034   0.491   1.472   2.128  0.0173 -0.2340  0.0552
  357TIP3    H1 1035   0.470   1.445   2.217 -0.5205  2.0059  0.6484
  357TIP3    H2 1036   0.555   1.407   2.098  0.3808 -0.9019  2.1325
  358TIP3   OH2 1037   5.112   5.665   3.723  0.3150 -0.5975  0.8064
  358TIP3    H1 1038   5.204   5.690   3.723  0.5359 -1.3450  0.1889
  358TIP3    H2 1039   5.104   5.603   3.649 -1.2740  1.6878 -1.0904
  359TIP3   OH2 1040   3.385   1.008   3.992  0.1179  0.4324  0.1724
  359TIP3    H1 1041   3.395   0.923   3.951  0.6654  0.8755 -0.6394
  359TIP3    H2 1042   3.368   1.068   3.920  3.8412  1.7053  0.1719
  360TIP3   OH2 1043   3.794   5.771   2.022  0.1534  0.5290  0.3104
  360TIP3    H1 1044   3.890   5.777   2.018  0.2588 -1.3408 -1.4302
  360TIP3    H2 1045   3.778   5.696   2.079 -0.3486  1.5474  1.5506
  361TIP3   OH2 1046   0.891   4.295   4.048  0.2668  0.0899  0.4098
  361TIP3    H1 1047   0.953   4.268   4.115  2.7448  0.9128 -1.4141
  361TIP3    H2 1048   0.862   4.213   4.007  1.5759 -0.2619  0.1311
  362TIP3   OH2 1049   5.310   2.023   2.661 -0.1497 -0.0259  0.2497
  362TIP3    H1 1050   5.305   1.988   2.572  2.5738 -1.8180  0.6882
  362TIP3    H2 1051   5.318   2.117   2.650 -1.6205 -0.0351 -1.2827
  363TIP3   OH2 1052   5.249   6.736   2.639 -0.1352 -0.0229 -0.6434
  363TIP3    H1 1053   5.157   6.715   2.623  0.0473 -0.7077 -0.8279
  363TIP3    H2 1054   5.263   6.821   2.596 -0.9388  0.5915  0.2726
  364TIP3   OH2 1055   1.991   4.088   3.507 -0.5793  0.4765  0.2664
  364TIP3    H1 1056   2.067   4.129   3.549 -1.0347  3.2742 -1.3821
  364TIP3    H2 1057   1.916   4.139   3.536 -1.5690 -0.7670  0.0242
  365TIP3   OH2 1058   0.828   2.520   4.636 -0.2335  0.1973 -0.7501
  365TIP3    H1 1059   0.857   2.546   4.723  1.0678 -0.1083 -1.0793
  365TIP3    H2 1060   0.896   2.553   4.577 -1.6871  1.4764 -1.7943
  366TIP3   OH2 1061   6.739   4.653   2.715  0.3576 -0.0778  0.2403
  366TIP3    H1 1062   6.683   4.632   2.790  1.1572  2.4379  1.6564
  366TIP3    H2 1063   6.810   4.589   2.719  0.4866  0.1350  1.7738
  367TIP3   OH2 1064   4.478   3.088   2.990  0.8087  0.3072  0.5495
  367TIP3    H1 1065   4.418   3.133   3.050 -1.0999 -0.3070 -0.8033
  367TIP3    H2 1066   4.425   3.071   2.912  1.7833 -3.1671  0.4853
  368TIP3   OH2 1067   0.373   1.488   5.393  0.6199 -0.1684  0.6764
  368TIP3    H1 1068   0.314   1.543   5.445 -0.1217 -0.2781 -0.0216
  368TIP3    H2 1069   0.388   1.411   5.448  0.4978  0.0806  1.0596
  369TIP3   OH2 1070   4.318   2.552   4.328  0.6256 -0.3784  0.6089
  369TIP3    H1 1071   4.318   2.489   4.400 -2.2735  0.8129  1.7766
  369TIP3    H2 1072   4.370   2.625   4.360  0.0896 -0.2298  1.1576
  370TIP3   OH2 1073   6.210   4.602   0.179  0.2494  0.0467  0.2024
  370TIP3    H1 1074   6.168   4.670   0.232  0.2294  0.7157 -0.6406
  370TIP3    H2 1075   6.139   4.545   0.151  0.2073 -0.0814  0.5735
  371TIP3   OH2 1076   1.181   1.673   3.352  0.0078 -0.1635 -0.2246
  371TIP3    H1 1077   1.096   1.674   3.396 -0.6068 -0.3674 -1.3579
  371TIP3    H2 1078   1.221   1.757   3.375 -0.6959  0.1303 -0.0471
  372TIP3   OH2 1079   5.443   5.639   5.903 -0.3188 -0.3437 -0.3259
  372TIP3    H1 1080   5.389   5.561   5.889 -1.6534  0.5902 -0.5995
  372TIP3    H2 1081   5.451   5.677   5.816 -0.6191  0.4054 -0.0305
  373TIP3   OH2 1082   4.295   4.732   4.076  0.1163 -0.0893 -0.0374
  373TIP3    H1 1083   4.374   4.758   4.029 -0.3242  0.4340 -0.4994
  373TIP3    H2 1084   4.306   4.638   4.091  0.8730  0.0006  0.0054
  374TIP3   OH2 1085   2.999   1.836   3.670  0.1468  0.2727 -0.0001
  374TIP3    H1 1086   3.062   1.893   3.713 -0.5490  1.6321 -0.7193
  374TIP3    H2 1087   2.972   1.774   3.738  1.6726  0.1330  0.5176
  375TIP3   OH2 1088   2.845   6.493   4.556  0.0056  0.4636  0.6054
  375TIP3    H1 1089   2.910   6.508   4.625  1.5338  0.0585 -0.6955
  375TIP3    H2 1090   2.896   6.491   4.475 -1.6552  0.2259 -0.4753
  376TIP3   OH2 1091   1.286   2.294   1.512 -0.3615  0.5183  0.6773
  376TIP3    H1 1092   1.339   2.222   1.479 -1.2197  1.0312 -2.1105
  376TIP3    H2 1093   1.240   2.258   1.587 -1.2970 -2.1199 -1.0143
  377TIP3   OH2 1094   1.144   3.556   0.084  0.7930 -0.1248  0.0931
  377TIP3    H1 1095   1.150   3.471   0.040 -1.1744  0.7579 -2.0865
  377TIP3    H2 1096   1.051   3.567   0.104  0.8244  1.9668 -0.6705
  378TIP3   OH2 1097   1.609   5.434   0.892 -0.8349 -0.3258 -0.2921
  378TIP3    H1 1098   1.700   5.454   0.915 -0.5372  0.7396 -2.2421
  378TIP3    H2 1099   1.610   5.423   0.797 -2.7375 -0.4034 -0.3287
  379TIP3   OH2 1100   1.549   0.401   5.619 -0.0263 -0.2523  0.5717
  379TIP3    H1 1101   1.587   0.336   5.678 -0.0128  1.0182  2.0196
  379TIP3    H2 1102   1.624   0.452   5.589 -0.1125 -0.4789 -0.0442
  380TIP3   OH2 1103   3.715   3.396   3.329 -0.3359 -0.3333  0.3026
  380TIP3    H1 1104   3.790   3.383   3.270  0.3536  0.1712  1.0505
  380TIP3    H2 1105   3.642   3.416   3.270  0.4500  0.6756 -0.3606
  381TIP3   OH2 1106   4.857   6.480   3.572 -0.2675  0.5668  0.5366
  381TIP3    H1 1107   4.941   6.435   3.574 -0.5844 -0.0831  2.6633
  381TIP3    H2 1108   4.798   6.419   3.526  0.2857  0.7701 -0.4495
  382TIP3   OH2 1109   6.639   5.465   3.495  0.3135  0.0451 -0.2207
  382TIP3    H1 1110   6.674   5.510   3.418  0.8594 -1.6814 -1.0559
  382TIP3    H2 1111   6.559   5.423   3.464 -1.1274  1.7911  0.9897
  383TIP3   OH2 1112   4.519   1.386   0.987  0.2684  0.1132  0.6495
  383TIP3    H1 1113   4.521   1.423   0.899 -0.5049  0.6784  0.8641
  383TIP3    H2 1114   4.598   1.420   1.029 -1.0003  2.5333  1.2251
  384TIP3   OH2 1115   7.118   3.617   5.482  0.1405  0.0505 -0.1149
  384TIP3    H1 1116   7.108   3.710   5.506  0.1100 -0.0669  0.3485
  384TIP3    H2 1117   7.036   3.595   5.438  0.4638  0.4501 -0.9401
  385TIP3   OH2 1118   1.821   6.601   4.507 -0.4477 -0.4481 -0.0557
  385TIP3    H1 1119   1.740   6.608   4.557 -0.0360 -0.5362  0.6264
  385TIP3    H2 1120   1.816   6.515   4.465 -0.9694 -0.2131 -0.4838
  386TIP3   OH2 1121   2.348   2.153   0.423 -0.0179 -0.2590  0.4762
  386TIP3    H1 1122   2.400   2.233   0.424 -1.1215  0.4806  0.2566
  386TIP3    H2 1123   2.404   2.088   0.381  0.2633  0.8342 -0.8808
  387TIP3   OH2 1124   2.917   0.322   4.501 -0.1912 -0.7543 -0.4914
  387TIP3    H1 1125   2.832   0.297   4.538 -0.4908 -0.4823 -0.9766
  387TIP3    H2 1126   2.932   0.411   4.533 -1.1438  0.0528 -2.1465
  388TIP3   OH2 1127   2.518   2.233   0.106 -0.3395  0.2082 -0.4802
  388TIP3    H1 1128   2.513   2.285   0.186 -1.1124  0.7623 -0.8708
  388TIP3    H2 1129   2.534   2.144   0.137  0.6708  0.6119  0.2174
  389TIP3   OH2 1130   3.151   4.729   5.544  0.3540  0.4898  0.0227
  389TIP3    H1 1131   3.196   4.744   5.627 -1.2499 -0.2411  1.0598
  389TIP3    H2 1132   3.085   4.663   5.563 -0.3673  0.6336 -1.7364
  390TIP3   OH2 1133   6.096   2.808   1.365 -0.3774  0.0346 -0.4017
  390TIP3    H1 1134   6.103   2.850   1.280 -0.2297  1.2490  0.1804
  390TIP3    H2 1135   6.004   2.781   1.372 -0.3204 -0.3474 -1.0543
  391TIP3   OH2 1136   6.436   1.205   2.037  0.7429  0.1529 -0.8076
  391TIP3    H1 1137   6.380   1.264   1.987 -0.3670 -0.1983 -0.0225
  391TIP3    H2 1138   6.394   1.119   2.028  0.7146  0.0194  0.4072
  392TIP3   OH2 1139   3.927   5.145   5.040  0.3160  0.4292 -0.2257
  392TIP3    H1 1140   3.872   5.066   5.043 -0.3876  0.9204  0.1120
  392TIP3    H2 1141   4.016   5.112   5.028  0.2600 -0.5094  1.6118
  393TIP3   OH2 1142   6.978   2.081   2.357  0.0714  0.1259 -0.5867
  393TIP3    H1 1143   6.918   2.105   2.428 -1.3043  0.6257 -1.8433
  393TIP3    H2 1144   7.044   2.150   2.357 -0.2414  0.4306 -0.1255
  394TIP3   OH2 1145   2.018   2.551   5.162 -0.5843 -0.9339  0.4617
  394TIP3    H1 1146   1.926   2.577   5.158 -0.0520  1.0441  0.2463
  394TIP3    H2 1147   2.052   2.566   5.074  0.5078  0.7532  1.1120
  395TIP3   OH2 1148   4.527   5.078   4.744  0.4129  0.8133 -0.3355
  395TIP3    H1 1149   4.512   4.984   4.734 -0.0200  0.6695  1.3647
  395TIP3    H2 1150   4.564   5.088   4.831  1.1172  2.1743 -0.7540
  396TIP3   OH2 1151   2.623   6.448   4.309  0.1494 -0.1060  0.5214
  396TIP3    H1 1152   2.687   6.519   4.310 -2.0985  2.0549  1.1859
  396TIP3    H2 1153   2.627   6.412   4.220  1.7591  0.4309  0.3631
  397TIP3   OH2 1154   4.718   1.646   3.876 -0.5719  0.1868 -0.0221
  397TIP3    H1 1155   4.624   1.642   3.863 -0.6293  1.7936 -0.3908
  397TIP3    H2 1156   4.732   1.729   3.922  0.7635  0.7096 -1.2769
  398TIP3   OH2 1157   3.862   1.534   4.113  0.3306  0.2216  0.1750
  398TIP3    H1 1158   3.864   1.452   4.163  2.8671 -0.6309 -1.1032
  398TIP3    H2 1159   3.780   1.529   4.063 -0.1762 -0.9276  1.0649
  399TIP3   OH2 1160   4.544   1.666   2.279 -0.0988  0.2913 -0.4167
  399TIP3    H1 1161   4.631   1.661   2.241  0.9008 -1.4857  1.8259
  399TIP3    H2 1162   4.543   1.750   2.325 -0.0750  0.8885 -1.4712
  400TIP3   OH2 1163   6.329   1.431   1.050  0.6785  0.0434  0.4520
  400TIP3    H1 1164   6.398   1.497   1.038  0.9760 -0.4543 -0.6839
  400TIP3    H2 1165   6.375   1.348   1.046 -0.1422 -0.3540 -1.6684
  401TIP3   OH2 1166   6.119   4.009   5.795  0.7702 -0.0114  0.3275
  401TIP3    H1 1167   6.077   4.048   5.718 -0.4500 -0.0859  0.9439
  401TIP3    H2 1168   6.183   4.075   5.823  1.0283  0.1355 -0.5752
  402TIP3   OH2 1169   2.326   0.436   1.856  0.0722 -0.2215  0.0278
  402TIP3    H1 1170   2.308   0.514   1.803 -0.1921 -0.9291 -0.9453
  402TIP3    H2 1171   2.414   0.409   1.830  1.2111  1.1081  2.1240
  403TIP3   OH2 1172   4.619   1.595   5.174 -0.1195  0.0253 -0.0618
  403TIP3    H1 1173   4.580   1.515   5.139  2.1515 -0.6711 -1.2627
  403TIP3    H2 1174   4.653   1.570   5.260  0.1292 -0.1635 -0.2139
  404TIP3   OH2 1175   1.949   0.160   5.837 -0.0670 -0.1165 -0.3002
  404TIP3    H1 1176   1.973   0.248   5.864  0.7738 -0.6903  0.8936
  404TIP3    H2 1177   2.031   0.122   5.804 -0.4970 -0.3504 -1.1307
  405TIP3   OH2 1178   7.136   5.311   0.640 -0.4700 -0.2083 -0.2958
  405TIP3    H1 1179   7.093   5.330   0.557 -0.9710  1.7199  0.3604
  405TIP3    H2 1180   7.063   5.301   0.702 -0.0591  0.0731  0.2394
  406TIP3   OH2 1181   1.232   2.818   0.502  0.2643 -0.0840 -0.0446
  406TIP3    H1 1182   1.312   2.798   0.551  0.5285  0.7209 -0.1324
  406TIP3    H2 1183   1.200   2.900   0.542 -1.5799 -1.3756  1.2895
  407TIP3   OH2 1184   1.235   6.350   2.581 -0.0781  0.6673 -0.1746
  407TIP3    H1 1185   1.174   6.424   2.582 -0.8509  0.0545 -0.8063
  407TIP3    H2 1186   1.273   6.352   2.493  0.7766  1.0052  0.1921
  408TIP3   OH2 1187   2.014   4.028   5.435  0.0793 -0.0657  0.0898
  408TIP3    H1 1188   2.065   3.956   5.474  1.0888  0.2260 -0.6629
  408TIP3    H2 1189   1.948   3.983   5.381 -0.9856 -0.4610  1.6456
  409TIP3   OH2 1190   6.996   3.578   3.861 -0.6968  0.1429 -0.4239
  409TIP3    H1 1191   6.992   3.659   3.912 -1.8343  0.0150 -0.2958
  409TIP3    H2 1192   7.027   3.513   3.924 -1.2379  0.1686 -0.1302
  410TIP3   OH2 1193   0.840   3.135   4.160 -0.6525 -0.0409 -0.6483
  410TIP3    H1 1194   0.801   3.074   4.223 -0.8176  1.5084  0.8166
  410TIP3    H2 1195   0.767   3.166   4.107 -0.9403  0.4893  0.0373
  411TIP3   OH2 1196   5.280   6.405   4.839  0.8128  0.1794  0.4134
  411TIP3    H1 1197   5.209   6.367   4.787  1.5471  0.5611 -0.9257
  411TIP3    H2 1198   5.340   6.442   4.774  1.7059  0.8088  1.5543
  412TIP3   OH2 1199   6.961   1.004   3.745 -0.0617  0.1811  0.1012
  412TIP3    H1 1200   6.932   1.056   3.670 -0.9740  0.1211  0.3931
  412TIP3    H2 1201   6.880   0.984   3.792  0.3211 -1.1146  0.2379
  413TIP3   OH2 1202   6.469   6.173   5.211  0.5172 -0.3536 -0.3591
  413TIP3    H1 1203   6.448   6.261   5.179  1.6555 -0.2272 -0.8200
  413TIP3    H2 1204   6.564   6.175   5.225  0.1870 -0.6223  2.4155
  414TIP3   OH2 1205   0.818   4.125   0.294  0.0282 -0.8740 -0.0549
  414TIP3    H1 1206   0.789   4.098   0.206 -1.5808 -0.3891  0.2901
  414TIP3    H2 1207   0.907   4.158   0.281 -0.4499 -0.1127 -1.6513
  415TIP3   OH2 1208   4.350   5.724   2.507 -0.5316  0.0367  0.1554
  415TIP3    H1 1209   4.307   5.806   2.529  0.1789  0.2649  0.7113
  415TIP3    H2 1210   4.375   5.686   2.591 -2.4598 -1.6535  0.0450
  416TIP3   OH2 1211   1.661   1.494   1.128 -0.5105  0.4609  0.2648
  416TIP3    H1 1212   1.660   1.489   1.032 -1.3534 -1.4248  0.3270
  416TIP3    H2 1213   1.689   1.584   1.147 -0.9338  1.0750 -1.7473
  417TIP3   OH2 1214   0.813   5.975   1.182  0.1397  0.3422  0.4948
  417TIP3    H1 1215   0.817   5.899   1.124  0.2495 -0.2473  1.2556
  417TIP3    H2 1216   0.733   6.021   1.156 -1.2008 -1.2979  1.5187
  418TIP3   OH2 1217   3.036   4.286   1.364  0.0462 -0.6840 -0.5461
  418TIP3    H1 1218   3.112   4.227   1.368  0.3743 -0.4775 -2.6232
  418TIP3    H2 1219   3.057   4.347   1.293 -1.7424 -0.1458 -0.6591
  419TIP3   OH2 1220   1.351   1.482   1.229 -0.2515  0.0689  0.6954
  419TIP3    H1 1221   1.370   1.574   1.211  1.0455 -0.1273  0.9600
  419TIP3    H2 1222   1.417   1.456   1.293  0.7137 -1.5754 -0.8731
  420TIP3   OH2 1223   2.327   0.425   0.273  0.1021 -0.1805 -0.3632
  420TIP3    H1 1224   2.272   0.503   0.284 -2.6457 -1.9502 -0.8208
  420TIP3    H2 1225   2.354   0.403   0.363 -1.5636 -0.3472  0.1299
  421TIP3   OH2 1226   0.799   4.030   3.979 -0.1255 -0.0013  0.2225
  421TIP3    H1 1227   0.853   4.025   3.901 -0.8754 -0.1426 -0.2984
  421TIP3    H2 1228   0.727   3.969   3.962  0.5388 -1.2778  1.6949
  422TIP3   OH2 1229   6.163   6.007   2.327  0.0892  0.7622 -0.2238
  422TIP3    H1 1230   6.154   5.920   2.366 -0.0030  0.7833 -0.1978
  422TIP3    H2 1231   6.235   5.998   2.265  1.2646  1.1184  1.0423
  423TIP3   OH2 1232   2.808   4.625   0.876 -0.5379 -0.2943 -0.5683
  423TIP3    H1 1233   2.819   4.720   0.887  0.2504 -0.1418 -2.3140
  423TIP3    H2 1234   2.872   4.586   0.936 -0.1167  0.3087 -0.6147
  424TIP3   OH2 1235   3.988   5.778   4.408  0.6840 -0.2351  0.6497
  424TIP3    H1 1236   3.955   5.727   4.482  0.1230 -0.3132  0.3570
  424TIP3    H2 1237   3.943   5.741   4.332  2.3164 -1.1195  0.0561
  425TIP3   OH2 1238   0.600   5.691   3.947 -0.5276  0.5961  0.4546
  425TIP3    H1 1239   0.661   5.756   3.983 -1.3525  0.9820  1.2112
  425TIP3    H2 1240   0.528   5.689   4.011 -1.5972  0.6223 -0.7154
  426TIP3   OH2 1241   1.809   1.055   5.622 -0.0015 -0.4590  0.2466
  426TIP3    H1 1242   1.729   1.109   5.626 -0.2042 -0.5645 -1.5080
  426TIP3    H2 1243   1.879   1.116   5.645 -0.5559 -0.3850  1.9127
  427TIP3   OH2 1244   1.370   0.693   4.441  0.2674  0.3977 -0.2207
  427TIP3    H1 1245   1.362   0.741   4.523  1.4266  1.8660 -0.9329
  427TIP3    H2 1246   1.366   0.760   4.373  0.2021 -0.7011 -1.3471
  428TIP3   OH2 1247   0.419   3.993   5.320 -0.8478 -0.3382 -0.4673
  428TIP3    H1 1248   0.463   3.909   5.309 -0.8529 -0.2864 -0.9052
  428TIP3    H2 1249   0.368   4.004   5.240  0.7998  1.0737 -1.3894
  429TIP3   OH2 1250   5.097   3.036   3.756  0.6463 -0.1128  0.4135
  429TIP3    H1 1251   5.081   2.952   3.713  0.8692  0.4442 -0.7815
  429TIP3    H2 1252   5.009   3.070   3.774  0.4645  0.8223 -1.9697
  430TIP3   OH2 1253   1.315   1.080   4.081 -0.0026  0.2366  0.4593
  430TIP3    H1 1254   1.220   1.069   4.077 -0.1870  1.0669  1.7080
  430TIP3    H2 1255   1.335   1.078   4.175  1.3669 -0.9994  0.1851
  431TIP3   OH2 1256   4.660   2.973   3.978 -0.2263  0.0162 -0.8201
  431TIP3    H1 1257   4.644   3.061   4.011  1.4774  0.9105 -2.1642
  431TIP3    H2 1258   4.595   2.918   4.020 -2.0966  2.1183 -0.8194
  432TIP3   OH2 1259   5.100   5.348   4.958 -0.0814 -0.1404 -0.3290
  432TIP3    H1 1260   5.147   5.305   4.886  0.1087 -1.2371  0.4311
  432TIP3    H2 1261   5.046   5.279   4.996  0.9601  0.0218  1.5352
  433TIP3   OH2 1262   4.110   2.934   4.300 -0.4557  0.6030 -0.0205
  433TIP3    H1 1263   4.189   2.976   4.267  0.1130 -0.5940 -0.2297
  433TIP3    H2 1264   4.104   2.963   4.391  0.6443  0.1309  0.2183
  434TIP3   OH2 1265   6.889   1.132   3.427  0.4706  0.4141 -0.6962
  434TIP3    H1 1266   6.803   1.149   3.465  0.6003  1.6942 -0.9625
  434TIP3    H2 1267   6.920   1.217   3.396  2.7323  0.4042  1.2482
  435TIP3   OH2 1268   2.485   1.034   3.519  0.4628 -0.0658 -0.7134
  435TIP3    H1 1269   2.390   1.035   3.530  0.2932  0.6593 -2.0593
  435TIP3    H2 1270   2.517   0.980   3.591 -0.9607 -0.2399 -0.1874
  436TIP3   OH2 1271   0.350   1.270   4.635  0.3495  0.4608 -0.0794
  436TIP3    H1 1272   0.287   1.322   4.585 -1.8209 -1.4159  0.5417
  436TIP3    H2 1273   0.337   1.297   4.726  0.9355  0.5294 -0.0098
  437TIP3   OH2 1274   4.721   6.252   4.054 -0.3268  0.0862  0.4790
  437TIP3    H1 1275   4.663   6.306   4.001  1.7067  2.4252  0.4374
  437TIP3    H2 1276   4.756   6.186   3.994  0.6984  1.6909 -0.7617
  438TIP3   OH2 1277   4.258   5.577   2.766 -0.0476  0.6483  0.5386
  438TIP3    H1 1278   4.262   5.559   2.860  0.7245  1.5051  0.6860
  438TIP3    H2 1279   4.165   5.594   2.749 -0.2965 -0.1728  1.0051
  439TIP3   OH2 1280   5.069   3.993   4.800 -0.1356 -0.0816  0.7703
  439TIP3    H1 1281   5.047   4.031   4.885 -1.2686  1.2780 -0.0945
  439TIP3    H2 1282   5.154   4.031   4.778  0.3154 -0.6913  1.4264
  440TIP3   OH2 1283   7.171   3.158   5.297  0.1446 -0.1122  0.5033
  440TIP3    H1 1284   7.169   3.224   5.228  0.9086  0.1820  0.7565
  440TIP3    H2 1285   7.093   3.177   5.350  0.3120  0.5380  0.5214
  441TIP3   OH2 1286   5.724   0.115   5.683  0.2992 -0.6975 -0.0524
  441TIP3    H1 1287   5.652   0.178   5.686 -0.4421 -1.5329  1.9590
  441TIP3    H2 1288   5.775   0.140   5.607 -0.9934  1.1807 -0.3733
  442TIP3   OH2 1289   4.119   0.107   1.258 -0.8366  0.2620 -0.1371
  442TIP3    H1 1290   4.031   0.077   1.280 -0.0892 -0.5586  2.0566
  442TIP3    H2 1291   4.156   0.036   1.205 -0.8408 -0.3532  0.6594
  443TIP3   OH2 1292   3.902   4.745   1.658 -0.0945  0.2081 -0.0222
  443TIP3    H1 1293   3.955   4.670   1.684  0.0868  1.1971  2.8657
  443TIP3    H2 1294   3.960   4.820   1.670 -1.0583  1.0254 -0.3371
  444TIP3   OH2 1295   3.075   1.842   1.732 -0.2167  1.1194  0.1187
  444TIP3    H1 1296   3.158   1.887   1.745 -0.5862  1.8714 -0.0827
  444TIP3    H2 1297   3.100   1.754   1.702  0.4994  1.9590 -1.9105
  445TIP3   OH2 1298   5.151   0.991   5.874  0.4684 -0.2654  0.0870
  445TIP3    H1 1299   5.074   0.938   5.889 -0.1670  0.1143 -1.6210
  445TIP3    H2 1300   5.174   0.975   5.782  1.8824  0.3133  0.3117
  446TIP3   OH2 1301   6.593   2.598   2.928 -0.2268 -0.1591 -0.7307
  446TIP3    H1 1302   6.665   2.571   2.872 -0.3001  0.3472 -1.0807
  446TIP3    H2 1303   6.616   2.566   3.015  0.2074 -0.3761 -0.9230
  447TIP3   OH2 1304   4.236   6.033   0.063 -0.0639  0.1912  0.5479
  447TIP3    H1 1305   4.172   6.085   0.013 -0.4931 -2.5913 -2.0659
  447TIP3    H2 1306   4.310   6.022   0.004  0.7820 -0.6833  1.7244
  448TIP3   OH2 1307   7.187   4.015   4.731 -0.6871  0.3258 -0.4287
  448TIP3    H1 1308   7.256   4.033   4.794 -0.7561  0.4310 -0.3834
  448TIP3    H2 1309   7.139   4.097   4.724  0.9108  1.1769 -2.5997
  449TIP3   OH2 1310   6.424   3.587   0.895 -0.0944  0.2583 -0.4136
  449TIP3    H1 1311   6.484   3.646   0.941  0.3971  0.4629 -1.2884
  449TIP3    H2 1312   6.419   3.509   0.950  0.9523  0.2572 -0.3072
  450TIP3   OH2 1313   4.463   3.428   5.730  0.5481  0.0012  0.2846
  450TIP3    H1 1314   4.500   3.439   5.818  0.1296  2.7635  0.2089
  450TIP3    H2 1315   4.500   3.500   5.679  1.1749 -1.8132 -2.0020
  451TIP3   OH2 1316   5.831   5.164   3.245  0.4411  0.3364 -0.0234
  451TIP3    H1 1317   5.794   5.076   3.233 -0.2067  0.6160 -0.0763
  451TIP3    H2 1318   5.858   5.166   3.337  3.4433 -1.0497 -0.7446
  452TIP3   OH2 1319   6.318   2.109   4.785 -0.4250 -0.2125  0.4769
  452TIP3    H1 1320   6.352   2.034   4.834  0.2335  0.0970  0.5072
  452TIP3    H2 1321   6.232   2.127   4.825 -0.4363 -0.7355  0.6920
  453TIP3   OH2 1322   6.019   4.179   4.541  0.1773 -0.5974  0.3526
  453TIP3    H1 1323   6.056   4.260   4.505 -0.7133 -0.3101  0.0446
  453TIP3    H2 1324   6.072   4.160   4.619  0.6102  0.0980  0.2309
  454TIP3   OH2 1325   7.125   5.621   1.042 -0.0651  1.1790  0.2548
  454TIP3    H1 1326   7.120   5.677   1.120 -0.4975 -1.4294  2.2652
  454TIP3    H2 1327   7.034   5.610   1.015 -0.0951  0.5709  0.5834
  455TIP3   OH2 1328   0.938   6.257   2.221 -0.4256  0.3400 -0.0527
  455TIP3    H1 1329   0.925   6.242   2.127 -0.6618  1.1897 -0.1575
  455TIP3    H2 1330   1.006   6.323   2.226  1.0792 -1.1812  0.4294
  456TIP3   OH2 1331   6.005   3.152   4.265 -0.2772 -0.2141 -0.6264
  456TIP3    H1 1332   5.928   3.186   4.220  0.2454  1.2497 -0.4694
  456TIP3    H2 1333   6.008   3.059   4.242 -3.8493 -1.1330  1.8538
  457TIP3   OH2 1334   6.155   1.672   1.929 -0.3570 -0.0222 -0.2474
  457TIP3    H1 1335   6.145   1.680   1.834  0.8804 -0.0288 -0.3929
  457TIP3    H2 1336   6.177   1.761   1.959 -0.0614 -0.1552 -0.0618
  458TIP3   OH2 1337   5.750   3.076   5.661 -0.3954 -0.1530 -0.0895
  458TIP3    H1 1338   5.796   2.997   5.631 -1.7111 -0.5679 -1.0797
  458TIP3    H2 1339   5.658   3.051   5.661 -0.9390  1.7112 -1.4414
  459TIP3   OH2 1340   2.256   2.896   0.102  0.2007  0.5707  0.5949
  459TIP3    H1 1341   2.329   2.850   0.143  0.0746 -0.2403 -0.0633
  459TIP3    H2 1342   2.201   2.827   0.065  0.8079  1.2457 -1.7748
  460TIP3   OH2 1343   6.718   0.502   1.917  0.4016 -0.4590 -0.3125
  460TIP3    H1 1344   6.676   0.445   1.853 -2.2494  0.9735 -0.0249
  460TIP3    H2 1345   6.706   0.590   1.881  0.6713  0.2176  1.1969
  461TIP3   OH2 1346   4.233   6.701   1.611 -0.6154 -0.3912  0.0629
  461TIP3    H1 1347   4.152   6.686   1.562 -1.6799  1.5796  1.0473
  461TIP3    H2 1348   4.275   6.774   1.566 -1.2450  0.9606  1.5501
  462TIP3   OH2 1349   5.390   4.450   5.229  0.3071 -0.0300  0.2854
  462TIP3    H1 1350   5.298   4.439   5.207  0.2934 -0.2283  0.4394
  462TIP3    H2 1351   5.419   4.524   5.176  0.4716 -0.9760 -0.9894
  463TIP3   OH2 1352   1.265   2.884   3.056 -0.2738 -0.2640  0.1815
  463TIP3    H1 1353   1.206   2.912   2.986  3.4231  1.4290 -2.6142
  463TIP3    H2 1354   1.267   2.958   3.117 -1.3642 -0.5813  0.6402
  464TIP3   OH2 1355   0.701   2.507   0.217 -0.6475  0.0257  0.0618
  464TIP3    H1 1356   0.724   2.534   0.306 -1.8028  3.6860 -0.5927
  464TIP3    H2 1357   0.606   2.497   0.219 -0.4975 -1.7606 -0.3745
  465TIP3   OH2 1358   6.069   4.495   0.581 -0.3021 -0.6223  0.1660
  465TIP3    H1 1359   6.067   4.485   0.486 -1.5290 -0.0138  0.1035
  465TIP3    H2 1360   6.046   4.587   0.596 -1.9234 -1.1388  1.0959
  466TIP3   OH2 1361   0.342   5.266   2.635  0.0499 -0.3849  0.2337
  466TIP3    H1 1362   0.414   5.329   2.635 -0.8657  0.7983  2.7514
  466TIP3    H2 1363   0.370   5.197   2.696  0.3483 -1.6239 -1.2422
  467TIP3   OH2 1364   3.536   3.086   5.815  0.0188  0.0572 -0.1666
  467TIP3    H1 1365   3.574   3.007   5.776  0.8258  1.0720 -1.5210
  467TIP3    H2 1366   3.575   3.158   5.766 -0.4975  1.3253  1.2236
  468TIP3   OH2 1367   3.479   2.210   2.108  0.4432 -0.0979 -0.4804
  468TIP3    H1 1368   3.532   2.143   2.067  2.3384  0.4884  0.8812
  468TIP3    H2 1369   3.492   2.288   2.055  0.2582 -0.1577 -0.6167
  469TIP3   OH2 1370   7.107   1.098   0.612 -0.0442 -0.3641 -0.5061
  469TIP3    H1 1371   7.141   1.021   0.657  0.2400  0.3672  0.5632
  469TIP3    H2 1372   7.023   1.116   0.656  0.2536  0.3811 -0.2363
  470TIP3   OH2 1373   6.412   2.588   3.236  0.0880  0.3288 -0.6825
  470TIP3    H1 1374   6.343   2.641   3.196 -1.1719 -1.0108 -0.3577
  470TIP3    H2 1375   6.413   2.507   3.186  0.8295 -0.0334 -0.1067
  471TIP3   OH2 1376   6.918   1.831   2.263  0.8351  0.1435  0.0850
  471TIP3    H1 1377   6.854   1.811   2.331  0.3804 -0.3014 -0.4613
  471TIP3    H2 1378   6.951   1.918   2.285  0.1435  0.3135  0.4510
  472TIP3   OH2 1379   3.426   0.048   4.214 -0.0983 -0.2945  0.5199
  472TIP3    H1 1380   3.413   0.084   4.127 -0.1797 -0.7913  0.3266
  472TIP3    H2 1381   3.340   0.058   4.257 -0.1343 -0.3039  0.4505
  473TIP3   OH2 1382   4.070   4.176   3.087  0.1885 -0.4714  0.5742
  473TIP3    H1 1383   4.057   4.255   3.140 -0.1468 -1.2103  1.6202
  473TIP3    H2 1384   4.165   4.164   3.085  0.3006  0.4259 -0.3183
  474TIP3   OH2 1385   5.837   5.787   4.995 -0.6926  0.0919  0.3776
  474TIP3    H1 1386   5.889   5.834   5.061  1.1611 -0.6641 -0.4719
  474TIP3    H2 1387   5.759   5.841   4.984  0.1992  1.6519  1.2425
  475TIP3   OH2 1388   5.438   1.651   3.511  0.9174  0.2800 -0.3409
  475TIP3    H1 1389   5.527   1.640   3.544  1.2509 -1.1357 -1.5796
  475TIP3    H2 1390   5.448   1.662   3.416 -0.2556 -1.6129 -0.7584
  476TIP3   OH2 1391   5.522   1.355   1.772 -0.0341 -0.2670 -0.2445
  476TIP3    H1 1392   5.541   1.434   1.721 -1.1086  0.6836  0.7425
  476TIP3    H2 1393   5.606   1.313   1.785  0.8264  1.5981  0.5768
  477TIP3   OH2 1394   3.062   4.502   4.254  0.0597  0.1990  0.2015
  477TIP3    H1 1395   3.088   4.593   4.243 -1.1770  0.7349  1.4220
  477TIP3    H2 1396   3.004   4.502   4.331  0.0478 -1.6139  0.2536
  478TIP3   OH2 1397   6.311   5.433   5.208 -0.1328  0.7097 -0.4588
  478TIP3    H1 1398   6.357   5.390   5.137 -1.7544  0.1320 -1.1997
  478TIP3    H2 1399   6.240   5.482   5.165  0.3045  2.3314  0.5548
  479TIP3   OH2 1400   1.195   5.326   3.020  0.3201  0.1309 -0.6553
  479TIP3    H1 1401   1.140   5.402   3.003 -0.1611 -0.3933 -1.4917
  479TIP3    H2 1402   1.205   5.325   3.116 -1.0856  0.2787 -0.4793
  480TIP3   OH2 1403   4.653   4.689   0.861 -0.6925  0.4908 -0.1737
  480TIP3    H1 1404   4.625   4.733   0.781  1.1633 -0.7975 -1.6408
  480TIP3    H2 1405   4.740   4.725   0.879 -0.4099 -0.4032  0.3118
  481TIP3   OH2 1406   0.462   1.167   0.806  0.3443 -0.0937 -0.2038
  481TIP3    H1 1407   0.369   1.188   0.800  0.4142  0.2694 -0.0510
  481TIP3    H2 1408   0.506   1.245   0.773  0.5837 -0.5435 -0.9643
  482TIP3   OH2 1409   3.039   3.897   1.143 -0.2084 -0.2144  0.4823
  482TIP3    H1 1410   3.126   3.928   1.171 -0.0687 -0.3872  0.2460
  482TIP3    H2 1411   3.037   3.805   1.169  1.0891 -1.2606 -2.5964
  483TIP3   OH2 1412   0.706   2.627   4.133 -0.5778 -0.3987 -0.5088
  483TIP3    H1 1413   0.655   2.695   4.089 -0.3385  0.6387  0.7486
  483TIP3    H2 1414   0.641   2.570   4.174 -0.7749 -0.8332 -1.4096
  484TIP3   OH2 1415   3.694   2.721   4.215  0.2167 -0.5312  0.7036
  484TIP3    H1 1416   3.691   2.655   4.146 -3.4289  0.3883 -0.2008
  484TIP3    H2 1417   3.752   2.789   4.181 -0.6465 -0.6046 -0.9765
  485TIP3   OH2 1418   6.837   5.726   0.204 -0.5115  0.1230 -0.5500
  485TIP3    H1 1419   6.742   5.712   0.206 -0.2701 -1.6900 -0.2003
  485TIP3    H2 1420   6.847   5.822   0.207 -2.3358  0.4167 -1.7117
  486TIP3   OH2 1421   2.467   2.892   1.771  0.3762 -0.3632  0.0914
  486TIP3    H1 1422   2.380   2.933   1.772  0.2467 -0.6251 -0.2499
  486TIP3    H2 1423   2.528   2.966   1.768  0.3023 -0.0340  3.4931
  487TIP3   OH2 1424   0.449   6.027   1.147 -0.0027  0.3311 -0.6340
  487TIP3    H1 1425   0.384   5.957   1.156  0.7030 -0.1246  1.8998
  487TIP3    H2 1426   0.397   6.108   1.148 -0.6139  0.0193  2.1985
  488TIP3   OH2 1427   4.262   4.199   1.322  0.0577 -0.5880  0.0278
  488TIP3    H1 1428   4.184   4.149   1.297 -0.3706  0.0560  0.0422
  488TIP3    H2 1429   4.289   4.242   1.240 -2.0796  2.5373  0.7682
  489TIP3   OH2 1430   6.304   6.568   3.482 -0.0770  0.0637  0.0851
  489TIP3    H1 1431   6.322   6.594   3.572 -0.3511  1.1712 -0.1734
  489TIP3    H2 1432   6.375   6.507   3.461  0.1743  0.0425  0.9300
  490TIP3   OH2 1433   3.363   5.078   5.652 -0.2034  0.8650  0.0078
  490TIP3    H1 1434   3.290   5.130   5.619 -0.2587  0.9684  0.2873
  490TIP3    H2 1435   3.423   5.142   5.692 -1.7007  0.5185  3.1183
  491TIP3   OH2 1436   6.632   1.347   1.209  0.2956 -0.7156  0.1560
  491TIP3    H1 1437   6.633   1.423   1.152 -0.1511  0.0783  1.1674
  491TIP3    H2 1438   6.681   1.280   1.161 -0.1000 -0.0985 -1.1535
  492TIP3   OH2 1439   0.600   3.027   2.252 -0.0561 -0.2870 -0.6362
  492TIP3    H1 1440   0.512   3.005   2.222 -0.8811  2.4879 -0.5774
  492TIP3    H2 1441   0.647   3.050   2.171 -0.6039  1.8775 -0.3988
  493TIP3   OH2 1442   5.472   0.162   3.152 -0.0316 -0.1706 -0.3912
  493TIP3    H1 1443   5.444   0.124   3.069 -0.7864  0.2323 -0.3223
  493TIP3    H2 1444   5.493   0.253   3.132 -1.7357  0.3736  0.1479
  494TIP3   OH2 1445   2.712   0.387   3.113 -0.1985 -0.0097 -0.0961
  494TIP3    H1 1446   2.659   0.309   3.099  1.4281 -1.5001  1.5569
  494TIP3    H2 1447   2.777   0.385   3.042 -0.9957  0.6551 -0.8717
  495TIP3   OH2 1448   6.371   0.147   2.744 -0.9308  0.2316  0.1333
  495TIP3    H1 1449   6.367   0.159   2.649  0.8160 -0.4564 -0.0755
  495TIP3    H2 1450   6.306   0.079   2.763  0.1380 -1.1487 -0.9092
  496TIP3   OH2 1451   2.129   1.691   5.753 -0.1074 -0.0619  0.0963
  496TIP3    H1 1452   2.155   1.688   5.845  0.8157 -1.3787 -0.1851
  496TIP3    H2 1453   2.035   1.674   5.754 -0.0011 -0.6492  0.7609
  497TIP3   OH2 1454   0.173   1.465   1.020  0.0144 -0.3189  0.1192
  497TIP3    H1 1455   0.110   1.402   0.986  0.5206 -0.2657 -0.9791
  497TIP3    H2 1456   0.163   1.461   1.115 -2.1802  0.2466 -0.0323
  498TIP3   OH2 1457   2.068   5.718   1.073  0.3005  0.7827 -0.0959
  498TIP3    H1 1458   2.044   5.700   1.164  0.4055 -0.4016 -0.2795
  498TIP3    H2 1459   2.139   5.782   1.078  0.8634  0.1127  0.6994
  499TIP3   OH2 1460   3.385   2.813   0.035  0.8417 -0.5222  0.0022
  499TIP3    H1 1461   3.449   2.882   0.017 -2.2525  3.2979  2.3391
  499TIP3    H2 1462   3.414   2.775   0.118  0.6598  0.4943  0.5419
  500TIP3   OH2 1463   5.728   6.494   1.985  0.7906  0.2822 -0.6087
  500TIP3    H1 1464   5.655   6.433   1.988  0.2355  0.8204 -1.9827
  500TIP3    H2 1465   5.697   6.564   1.927  2.3772  0.5520 -1.1621
  501TIP3   OH2 1466   5.556   0.412   0.237  0.6047  0.4367 -0.5733
  501TIP3    H1 1467   5.489   0.381   0.176 -1.1512 -0.7542  1.8048
  501TIP3    H2 1468   5.636   0.368   0.210 -0.4648 -1.2774 -1.1153
  502TIP3   OH2 1469   3.877   1.045   4.305  0.1137 -0.0221 -0.0608
  502TIP3    H1 1470   3.866   0.985   4.379 -3.0967  0.5782  0.0710
  502TIP3    H2 1471   3.799   1.033   4.252  1.8179  0.3453 -2.8814
  503TIP3   OH2 1472  -0.006   3.529   4.085 -0.5173 -0.2496  0.2733
  503TIP3    H1 1473  -0.009   3.579   4.166  2.7640  0.6060  0.0104
  503TIP3    H2 1474   0.027   3.443   4.111  0.8719  0.1330 -0.1161
  504TIP3   OH2 1475   2.348   4.981   5.637  0.4576  0.2480  0.0636
  504TIP3    H1 1476   2.381   5.059   5.592  0.3139  3.0102  4.2141
  504TIP3    H2 1477   2.254   4.982   5.620  0.4075  1.2214  0.3223
  505TIP3   OH2 1478   6.129   3.428   3.962 -0.2919 -0.2588 -0.2293
  505TIP3    H1 1479   6.057   3.459   3.907  0.7150  1.1766 -0.8235
  505TIP3    H2 1480   6.173   3.361   3.909  0.5872  1.0162 -1.1671
  506TIP3   OH2 1481   4.871   2.399   4.802  0.6221  0.3299 -0.5038
  506TIP3    H1 1482   4.787   2.368   4.834  0.3059  2.0254  0.4079
  506TIP3    H2 1483   4.907   2.325   4.752 -1.3608 -0.4348 -0.8743
  507TIP3   OH2 1484   4.880   0.962   4.967  0.0891 -0.2356 -0.7195
  507TIP3    H1 1485   4.916   0.874   4.954  0.7366  0.1465 -1.6131
  507TIP3    H2 1486   4.786   0.948   4.980 -0.1193 -0.9428 -2.6580
  508TIP3   OH2 1487   5.582   5.001   5.248 -0.6546 -0.2570  0.1106
  508TIP3    H1 1488   5.626   4.984   5.165  0.0293 -0.1508  0.4518
  508TIP3    H2 1489   5.502   5.049   5.223 -1.3723 -1.7623 -0.6457
  509TIP3   OH2 1490   0.339   0.966   4.701 -0.2273  0.5411 -0.4157
  509TIP3    H1 1491   0.271   0.961   4.768 -0.6084  1.1634 -0.7397
  509TIP3    H2 1492   0.347   1.060   4.682  1.7637  0.6323  0.6485
  510TIP3   OH2 1493   3.306   5.585   0.488 -0.3856  0.1522 -0.3178
  510TIP3    H1 1494   3.360   5.574   0.566  0.1488  0.8887 -0.5641
  510TIP3    H2 1495   3.370   5.590   0.416 -0.9094 -1.4429 -0.9254
  511TIP3   OH2 1496   2.410   5.009   0.533  0.3732  0.0696  0.2511
  511TIP3    H1 1497   2.421   5.059   0.613 -1.8775 -0.6412  1.0911
  511TIP3    H2 1498   2.379   4.923   0.562  0.8382 -0.6841 -1.3247
  512TIP3   OH2 1499   0.069   2.239   1.710  0.0415 -0.3967 -0.3461
  512TIP3    H1 1500  -0.007   2.298   1.707  0.7947  0.6826  0.9001
  512TIP3    H2 1501   0.040   2.166   1.764  0.0727  0.3195  0.6610
  513TIP3   OH2 1502   0.766   5.576   5.421  0.5156 -0.4099 -0.1175
  513TIP3    H1 1503   0.705   5.519   5.375  0.4211 -0.5197  0.1433
  513TIP3    H2 1504   0.743   5.567   5.514  1.3262 -0.9313  0.0451
  514TIP3   OH2 1505   2.243   5.314   4.898  0.9970  0.2059 -0.0735
  514TIP3    H1 1506   2.157   5.342   4.868  0.6714 -1.2803 -0.6416
  514TIP3    H2 1507   2.290   5.395   4.920 -0.3470  1.0549 -0.2731
  515TIP3   OH2 1508   6.593   3.018   5.067  0.2272 -0.2567  0.8705
  515TIP3    H1 1509   6.507   2.992   5.101 -0.3389 -0.7482 -0.8295
  515TIP3    H2 1510   6.650   2.944   5.087 -0.0920 -0.5434  0.7276
  516TIP3   OH2 1511   3.272   3.851   1.750  0.3940  0.0297  0.6623
  516TIP3    H1 1512   3.336   3.909   1.790  0.9648 -1.1261  1.5113
  516TIP3    H2 1513   3.220   3.819   1.824 -1.2743  1.0406 -0.0285
  517TIP3   OH2 1514   4.900   2.084   3.493  0.7958  1.1211  0.0195
  517TIP3    H1 1515   4.974   2.055   3.547 -0.3486  0.4706  1.3087
  517TIP3    H2 1516   4.909   2.033   3.412  0.3392 -0.9422  1.1921
  518TIP3   OH2 1517   0.100   5.565   1.395 -0.3632 -0.0011  0.0405
  518TIP3    H1 1518   0.024   5.560   1.453 -1.0625 -2.2060 -0.9438
  518TIP3    H2 1519   0.173   5.589   1.452 -1.7401  2.1351  1.0240
  519TIP3   OH2 1520   0.199   4.645   3.548 -0.7179  0.0338 -0.3261
  519TIP3    H1 1521   0.217   4.551   3.547 -1.5648 -0.1712  1.2752
  519TIP3    H2 1522   0.150   4.660   3.629  1.0863  2.1923  0.4661
  520TIP3   OH2 1523   5.079   6.284   4.684  0.2409  0.5781 -0.3660
  520TIP3    H1 1524   4.993   6.251   4.710  1.3761 -0.4374  2.5766
  520TIP3    H2 1525   5.090   6.253   4.594 -1.5332 -1.3513 -0.0064
  521TIP3   OH2 1526   3.333   4.180   1.950 -0.3313 -0.2342 -0.4258
  521TIP3    H1 1527   3.248   4.222   1.964 -0.4772 -0.8986  0.8154
  521TIP3    H2 1528   3.387   4.249   1.912  0.0515  1.8181  3.4266
  522TIP3   OH2 1529   5.961   1.370   4.347  0.6640  0.0421 -0.1614
  522TIP3    H1 1530   5.895   1.354   4.415  1.1564 -1.0623  0.0935
  522TIP3    H2 1531   5.911   1.383   4.267  0.1098 -1.8195 -0.1764
  523TIP3   OH2 1532   3.205   6.576   2.670  0.0979  0.2061 -0.5195
  523TIP3    H1 1533   3.287   6.540   2.704 -0.4700 -0.0024  0.7169
  523TIP3    H2 1534   3.138   6.518   2.707 -0.5890  0.1790 -1.7695
  524TIP3   OH2 1535   0.881   4.552   4.103  0.0228  0.2871  0.3242
  524TIP3    H1 1536   0.877   4.458   4.085 -0.1325  0.1558  1.0189
  524TIP3    H2 1537   0.938   4.559   4.179  0.7343  0.8394 -0.2345
  525TIP3   OH2 1538   2.433   4.309   2.421  0.1718 -0.2391  0.0437
  525TIP3    H1 1539   2.487   4.268   2.353 -1.4084 -0.2078 -1.2829
  525TIP3    H2 1540   2.485   4.384   2.450  1.9029 -1.5687  0.5758
  526TIP3   OH2 1541   2.411   3.197   1.056  0.4320 -0.2407  0.0907
  526TIP3    H1 1542   2.406   3.124   1.117 -1.9468 -0.8253 -0.6966
  526TIP3    H2 1543   2.446   3.269   1.109  1.9256 -1.6517  1.1267
  527TIP3   OH2 1544   0.277   6.783   1.524 -0.3577 -0.2173 -0.0478
  527TIP3    H1 1545   0.304   6.859   1.576 -0.9960  0.1757 -0.2721
  527TIP3    H2 1546   0.265   6.713   1.588 -0.2957  0.0190  0.2256
  528TIP3   OH2 1547   0.602   1.215   2.061  0.1535  0.4247 -0.0323
  528TIP3    H1 1548   0.533   1.189   2.000  0.5062  0.6955 -0.5588
  528TIP3    H2 1549   0.576   1.177   2.145  0.0925 -0.6569 -0.5360
  529TIP3   OH2 1550   3.121   3.866   4.473  0.1208 -0.4293 -0.0609
  529TIP3    H1 1551   3.199   3.899   4.429  0.2966  0.9250  1.2118
  529TIP3    H2 1552   3.048   3.902   4.422  0.2490 -1.9359 -1.4293
  530TIP3   OH2 1553   0.095   1.464   3.743  0.2747  0.3021 -0.0043
  530TIP3    H1 1554   0.104   1.390   3.804  0.5398  1.0794  0.9189
  530TIP3    H2 1555   0.028   1.519   3.784  1.1094  1.2861  0.0572
  531TIP3   OH2 1556   0.029   3.333   3.418  0.0501  0.2464  0.1374
  531TIP3    H1 1557   0.074   3.417   3.409 -1.1621  1.0105  0.8009
  531TIP3    H2 1558   0.099   3.268   3.425  1.0139  1.2142 -0.2922
  532TIP3   OH2 1559   0.718   1.423   4.144 -0.2051  0.3427 -0.1605
  532TIP3    H1 1560   0.730   1.464   4.229  2.2730 -0.8182  0.1507
  532TIP3    H2 1561   0.763   1.481   4.083  2.5688 -1.2727  0.1634
  533TIP3   OH2 1562   2.846   6.553   1.894  0.4265 -0.0511  0.7054
  533TIP3    H1 1563   2.837   6.571   1.800 -0.6557  1.0453  0.9834
  533TIP3    H2 1564   2.804   6.467   1.905 -3.7663  1.7427  0.7844
  534TIP3   OH2 1565   4.964   0.919   5.486 -0.3821 -0.0550  0.3481
  534TIP3    H1 1566   4.937   0.902   5.395  2.2450  0.0515 -0.5446
  534TIP3    H2 1567   4.962   0.833   5.528 -2.5124  0.0355  0.4999
  535TIP3   OH2 1568   4.864   3.599   3.786 -0.0001 -0.0471 -0.1355
  535TIP3    H1 1569   4.804   3.673   3.797  0.8612  0.3537  2.7311
  535TIP3    H2 1570   4.824   3.528   3.835  0.7734 -0.4596 -0.0787
  536TIP3   OH2 1571   1.174   4.259   2.560 -0.2471 -0.6413 -0.2752
  536TIP3    H1 1572   1.201   4.317   2.488 -0.1478 -0.7735 -0.3454
  536TIP3    H2 1573   1.166   4.317   2.636  0.8309 -0.6952 -0.1053
  537TIP3   OH2 1574   5.505   0.095   0.532  0.0177  0.4387  0.3029
  537TIP3    H1 1575   5.559   0.174   0.533  1.0825 -0.2685  1.2689
  537TIP3    H2 1576   5.564   0.027   0.499 -1.9102  0.6570 -4.4822
  538TIP3   OH2 1577   2.506   5.570   5.692 -0.2965  0.2675  0.3854
  538TIP3    H1 1578   2.556   5.647   5.718  0.9637 -0.2141 -0.5168
  538TIP3    H2 1579   2.414   5.598   5.696  0.1472  1.8433 -0.0256
  539TIP3   OH2 1580   0.882   1.996   2.914 -0.2604  0.5609  0.4513
  539TIP3    H1 1581   0.946   1.925   2.918 -2.2594 -1.3402  0.6740
  539TIP3    H2 1582   0.910   2.050   2.840  0.9585 -0.8381 -0.1512
  540TIP3   OH2 1583   6.082   3.688   2.729 -0.7189  0.1220  0.2654
  540TIP3    H1 1584   6.099   3.738   2.650  0.0057 -0.4369  0.0579
  540TIP3    H2 1585   6.123   3.604   2.714 -1.1240 -0.2182  0.9846
  541TIP3   OH2 1586   5.817   4.840   2.525  0.3261  0.2984 -0.4590
  541TIP3    H1 1587   5.743   4.780   2.524 -0.1914  0.8306 -3.2289
  541TIP3    H2 1588   5.778   4.926   2.540  0.7859  0.2690  1.0772
  542TIP3   OH2 1589   6.729   4.704   0.527 -0.1274 -0.2161  0.0595
  542TIP3    H1 1590   6.756   4.779   0.581 -1.9169  1.2122 -0.8962
  542TIP3    H2 1591   6.798   4.697   0.461  0.3694  0.2243  0.5209
  543TIP3   OH2 1592   1.694   3.504   4.284 -0.4293  1.2359 -0.3823
  543TIP3    H1 1593   1.626   3.516   4.218 -0.6796  0.8219 -0.2052
  543TIP3    H2 1594   1.776   3.502   4.234 -0.7397 -0.7514 -0.8776
  544TIP3   OH2 1595   0.105   5.680   0.115  0.4653 -0.1663 -0.4809
  544TIP3    H1 1596   0.116   5.610   0.180  1.0105  0.4860  0.1391
  544TIP3    H2 1597   0.063   5.636   0.040 -0.3362 -0.8967  0.3607
  545TIP3   OH2 1598   5.782   3.229   2.483 -0.1911 -0.0303  0.0177
  545TIP3    H1 1599   5.782   3.264   2.572  3.2054 -0.2035  0.2119
  545TIP3    H2 1600   5.829   3.146   2.489  0.3684  0.0853 -1.9826
  546TIP3   OH2 1601   3.242   6.648   4.133  0.0681 -0.2240 -0.3545
  546TIP3    H1 1602   3.269   6.738   4.147  2.2900 -1.0456  1.1642
  546TIP3    H2 1603   3.291   6.619   4.056  1.6003 -0.9314  0.8401
  547TIP3   OH2 1604   0.777   1.451   0.127  0.1027 -0.3186 -0.2043
  547TIP3    H1 1605   0.772   1.372   0.181 -0.3767 -1.1617 -1.4403
  547TIP3    H2 1606   0.687   1.482   0.120  0.2803  0.3249  0.2258
  548TIP3   OH2 1607   2.659   5.296   0.312 -0.3359  0.3978 -0.2056
  548TIP3    H1 1608   2.601   5.318   0.385  0.7063 -1.0603  1.1301
  548TIP3    H2 1609   2.704   5.378   0.290  0.2333  0.6081  1.6319
  549TIP3   OH2 1610   7.144   1.488   1.953  0.0767  0.7059  0.4283
  549TIP3    H1 1611   7.238   1.491   1.935 -0.0645  0.0130 -0.4943
  549TIP3    H2 1612   7.103   1.506   1.869 -0.6086 -0.8925  0.3829
  550TIP3   OH2 1613   0.226   6.668   3.459 -0.4073 -0.0998  0.5852
  550TIP3    H1 1614   0.262   6.730   3.395  1.1365  1.0756  2.5125
  550TIP3    H2 1615   0.137   6.650   3.426 -0.0109  1.1695 -1.3691
  551TIP3   OH2 1616   4.689   0.106   0.699 -0.9735  0.5506  1.0197
  551TIP3    H1 1617   4.645   0.023   0.679  0.9223  0.2000 -2.4257
  551TIP3    H2 1618   4.778   0.081   0.724  0.5937  1.4265 -2.9978
  552TIP3   OH2 1619   1.376   5.988   2.564  0.4312  0.4666  0.3255
  552TIP3    H1 1620   1.284   6.011   2.575  0.3277  1.5725 -2.2170
  552TIP3    H2 1621   1.381   5.946   2.479  1.9699 -1.7462  1.4201
  553TIP3   OH2 1622   5.782   2.918   0.605  0.1435  0.0051  0.1629
  553TIP3    H1 1623   5.801   2.824   0.603 -1.0197 -0.2304 -0.9577
  553TIP3    H2 1624   5.693   2.924   0.640 -0.5536  0.5107 -1.5678
  554TIP3   OH2 1625   2.335   2.399   4.490 -0.3887 -0.1973 -0.1215
  554TIP3    H1 1626   2.387   2.478   4.474 -2.6829  1.4851  0.2724
  554TIP3    H2 1627   2.392   2.344   4.544  2.3807 -0.1732 -2.7591
  555TIP3   OH2 1628   2.197   6.705   0.402 -0.2165  0.5725 -0.1266
  555TIP3    H1 1629   2.190   6.800   0.398  0.5806  0.6682  0.4656
  555TIP3    H2 1630   2.110   6.675   0.427  0.2972  1.4041  3.0975
  556TIP3   OH2 1631   5.490   2.982   5.674 -0.5564 -0.1573 -0.4511
  556TIP3    H1 1632   5.439   2.918   5.625 -2.1525  1.8311 -1.5976
  556TIP3    H2 1633   5.424   3.038   5.715  0.6523  1.9236 -1.1598
  557TIP3   OH2 1634   4.408   6.715   1.336  0.2663 -0.3369  0.0751
  557TIP3    H1 1635   4.373   6.632   1.369 -1.0362  0.0664 -0.2536
  557TIP3    H2 1636   4.451   6.691   1.253  1.1108 -0.8917  0.6567
  558TIP3   OH2 1637   5.751   3.295   4.642 -0.7229  0.0061  0.0222
  558TIP3    H1 1638   5.665   3.322   4.674 -1.0428 -0.3980 -0.4773
  558TIP3    H2 1639   5.744   3.200   4.633 -0.4922  0.0637 -0.8039
  559TIP3   OH2 1640   1.631   2.975   3.299  0.0968  0.0716  0.4399
  559TIP3    H1 1641   1.708   3.017   3.260 -0.6446  1.5379  0.4585
  559TIP3    H2 1642   1.663   2.935   3.380  1.1195 -0.6619 -0.3083
  560TIP3   OH2 1643   2.330   3.113   4.818  0.3541 -0.2330  0.3481
  560TIP3    H1 1644   2.287   3.044   4.868 -1.1496 -0.6155 -1.3725
  560TIP3    H2 1645   2.326   3.190   4.874 -0.3912 -0.8703  1.2000
  561TIP3   OH2 1646   5.999   5.434   3.422  0.1602  0.0589  0.5035
  561TIP3    H1 1647   5.914   5.462   3.389  0.2745 -0.1735  0.0068
  561TIP3    H2 1648   5.978   5.367   3.488 -0.0908  0.9200  1.3269
  562TIP3   OH2 1649   3.358   6.287   3.970 -0.5287  0.0418  0.5063
  562TIP3    H1 1650   3.285   6.278   4.031 -0.7830 -1.4376  0.0378
  562TIP3    H2 1651   3.321   6.268   3.884  0.1610  0.4459  0.1067
  563TIP3   OH2 1652   3.227   0.018   2.473 -0.2506 -0.3625  0.1835
  563TIP3    H1 1653   3.247  -0.073   2.450  0.2712 -0.4809  1.0807
  563TIP3    H2 1654   3.247   0.068   2.393  1.4412 -0.7718  0.3163
  564TIP3   OH2 1655   4.098   3.028   4.585 -0.0531 -0.7987  0.0778
  564TIP3    H1 1656   4.077   2.972   4.660  1.3426  0.0592  1.1596
  564TIP3    H2 1657   4.189   3.053   4.598 -0.2751  0.7649 -1.0102
  565TIP3   OH2 1658   3.388   0.347   1.677  0.4036  0.2048 -0.2570
  565TIP3    H1 1659   3.388   0.374   1.769  0.4731 -0.7054  0.0138
  565TIP3    H2 1660   3.362   0.426   1.629  0.7105  0.7792  0.5124
  566TIP3   OH2 1661   3.331   5.120   3.653 -0.2685  0.2335  0.0094
  566TIP3    H1 1662   3.339   5.087   3.563  0.9098  3.0879 -1.0198
  566TIP3    H2 1663   3.329   5.215   3.644 -2.1177  0.5788  2.9041
  567TIP3   OH2 1664   1.158   1.803   1.249  0.0541 -0.1982  0.4261
  567TIP3    H1 1665   1.182   1.802   1.342 -0.9480 -0.4191  0.6993
  567TIP3    H2 1666   1.108   1.884   1.237 -1.6543 -1.1683  0.6035
  568TIP3   OH2 1667   1.385   3.060   3.410 -0.1814 -0.3365 -0.2097
  568TIP3    H1 1668   1.463   3.035   3.360  0.1740  0.0269  0.1564
  568TIP3    H2 1669   1.349   3.135   3.363  0.3254  0.1990  0.2326
  569TIP3   OH2 1670   4.355   2.544   1.119 -0.2657 -0.0553  0.1389
  569TIP3    H1 1671   4.421   2.583   1.061  1.4717 -2.5255  0.3122
  569TIP3    H2 1672   4.355   2.451   1.097 -1.6463 -0.5991  2.1564
  570TIP3   OH2 1673   4.137   0.056   4.440  0.1590 -0.1805 -0.1468
  570TIP3    H1 1674   4.147  -0.036   4.417  0.1297 -0.1420 -0.3162
  570TIP3    H2 1675   4.194   0.068   4.516 -2.4973 -1.1783  2.1811
  571TIP3   OH2 1676   5.238   6.796   1.750 -0.5259 -0.2328  0.2950
  571TIP3    H1 1677   5.196   6.839   1.675  0.9615  0.1476 -0.3559
  571TIP3    H2 1678   5.303   6.738   1.711  0.1228 -0.1998  1.3005
  572TIP3   OH2 1679   2.174   0.092   1.733  0.1541 -0.4022 -0.1960
  572TIP3    H1 1680   2.219   0.081   1.817 -1.6207 -2.9600  0.5485
  572TIP3    H2 1681   2.215   0.028   1.676 -0.5040 -0.6250 -0.4242
  573TIP3   OH2 1682   5.881   3.981   1.404  0.1171  0.7161  0.0432
  573TIP3    H1 1683   5.926   3.898   1.420 -2.9422 -1.2069 -0.6044
  573TIP3    H2 1684   5.921   4.015   1.324  2.6638  0.9246  1.2766
  574TIP3   OH2 1685   6.223   6.714   4.952 -0.2753 -0.2076 -0.6594
  574TIP3    H1 1686   6.317   6.716   4.934  0.0303 -0.6650  0.7317
  574TIP3    H2 1687   6.185   6.779   4.892  0.7148 -1.0705 -2.2890
  575TIP3   OH2 1688   1.670   5.017   4.506 -0.1680  0.3823  0.0976
  575TIP3    H1 1689   1.688   5.078   4.578 -1.9400  0.8473  0.1912
  575TIP3    H2 1690   1.580   4.988   4.522 -1.4024  2.0803 -3.0350
  576TIP3   OH2 1691   6.003   3.165   1.157 -0.0083  0.1122  0.0418
  576TIP3    H1 1692   6.052   3.083   1.153 -0.4893 -0.1556 -2.8074
  576TIP3    H2 1693   5.968   3.168   1.245  2.1053 -1.4780  1.0300
  577TIP3   OH2 1694   1.754   6.305   1.258 -0.3081 -0.0687  0.4605
  577TIP3    H1 1695   1.844   6.335   1.247 -0.5432  0.5191  0.0444
  577TIP3    H2 1696   1.758   6.241   1.329  0.6902 -1.2347 -0.5960
  578TIP3   OH2 1697   6.785   1.801   1.080  0.3645 -0.0182  0.2700
  578TIP3    H1 1698   6.712   1.804   1.142  0.4364 -0.4059  0.3729
  578TIP3    H2 1699   6.744   1.783   0.996  0.5605 -3.3978  0.7594
  579TIP3   OH2 1700   3.788   3.961   5.401  0.3962 -1.0317  0.1707
  579TIP3    H1 1701   3.767   4.041   5.450  0.3107 -1.3092  0.5986
  579TIP3    H2 1702   3.703   3.927   5.372  0.3898 -1.2047  0.3814
  580TIP3   OH2 1703   5.549   3.482   4.382  0.6001 -0.0139 -0.0770
  580TIP3    H1 1704   5.638   3.448   4.372  0.4237 -0.5344  0.1090
  580TIP3    H2 1705   5.513   3.482   4.293 -0.8410 -4.3029  0.2799
  581TIP3   OH2 1706   5.127   2.292   1.512 -0.1134 -0.2692 -0.5797
  581TIP3    H1 1707   5.081   2.375   1.496  1.1485  0.3278 -1.2750
  581TIP3    H2 1708   5.220   2.315   1.506  0.3509 -1.1703  2.0854
  582TIP3   OH2 1709   6.784   5.299   2.924 -0.1579 -0.2342  0.4640
  582TIP3    H1 1710   6.809   5.207   2.930 -1.0814 -0.4405  1.3121
  582TIP3    H2 1711   6.783   5.317   2.830 -0.5815 -1.2623  0.2565
  583TIP3   OH2 1712   0.310   1.637   3.706  0.1286 -0.0214  0.0627
  583TIP3    H1 1713   0.379   1.580   3.741 -0.5962 -1.1156 -0.2356
  583TIP3    H2 1714   0.230   1.585   3.712 -0.3952  0.6055 -1.1309
  584TIP3   OH2 1715   6.286   3.614   1.469  0.0243 -0.0890 -0.4251
  584TIP3    H1 1716   6.323   3.546   1.525 -0.3900 -0.7014 -0.8744
  584TIP3    H2 1717   6.319   3.594   1.381 -0.0838  0.3062 -0.5607
  585TIP3   OH2 1718   5.410   4.576   4.239  0.0020 -0.4429 -0.0558
  585TIP3    H1 1719   5.470   4.560   4.313 -1.7504 -2.7791  0.9856
  585TIP3    H2 1720   5.396   4.671   4.240 -0.0984 -0.3947  2.7972
  586TIP3   OH2 1721   4.749   0.131   2.311 -0.0531 -0.2916  0.1612
  586TIP3    H1 1722   4.719   0.170   2.229 -1.3779 -0.7446  0.4124
  586TIP3    H2 1723   4.843   0.118   2.298  0.0904  1.2565 -0.6132
  587TIP3   OH2 1724   6.336   5.530   2.553 -0.1559 -0.3247 -0.2500
  587TIP3    H1 1725   6.304   5.524   2.463 -0.9315  0.9719 -0.0794
  587TIP3    H2 1726   6.431   5.538   2.544 -0.3229  1.1161 -1.0285
  588TIP3   OH2 1727   2.422   5.316   0.081  0.1054 -0.0062 -0.0960
  588TIP3    H1 1728   2.452   5.373   0.152  1.2153  0.0966 -0.6410
  588TIP3    H2 1729   2.367   5.372   0.027 -1.0164 -0.1642  0.8294
  589TIP3   OH2 1730   6.268   4.921   0.870  0.4972  0.4785  0.0285
  589TIP3    H1 1731   6.346   4.924   0.815  0.5587 -0.4436  0.0634
  589TIP3    H2 1732   6.232   5.010   0.865  0.6658  0.4864 -1.2466
  590TIP3   OH2 1733   2.947   0.182   5.522  1.0900 -0.2396  0.1073
  590TIP3    H1 1734   2.973   0.224   5.441  2.2316  0.3250  0.7415
  590TIP3    H2 1735   2.899   0.103   5.495 -1.9842  1.8727 -1.1173
  591TIP3   OH2 1736   4.756   4.265   0.922 -0.4346 -0.8898  0.5799
  591TIP3    H1 1737   4.668   4.299   0.936 -0.4398 -0.4958 -0.3287
  591TIP3    H2 1738   4.813   4.341   0.933 -0.2282 -1.0967  0.9519
  592TIP3   OH2 1739   0.942   0.248   0.516  0.5111 -0.3492  0.0898
  592TIP3    H1 1740   1.006   0.180   0.535  1.0963 -0.1664 -1.1530
  592TIP3    H2 1741   0.981   0.328   0.552  0.8495 -0.2917 -0.3979
  593TIP3   OH2 1742   3.005   6.446   2.797  1.0623  0.2478  0.3892
  593TIP3    H1 1743   3.075   6.426   2.860  0.0875  0.7531  1.6592
  593TIP3    H2 1744   2.958   6.519   2.835  0.1340  0.2516 -0.7071
  594TIP3   OH2 1745   1.480   0.652   5.863  0.6379 -0.6187 -0.0435
  594TIP3    H1 1746   1.466   0.622   5.773 -0.8550 -0.3544  0.0835
  594TIP3    H2 1747   1.503   0.573   5.911  1.9844 -0.6808 -0.7423
  595TIP3   OH2 1748   6.332   3.968   2.593 -0.2447 -0.5043 -0.1209
  595TIP3    H1 1749   6.332   4.039   2.529  1.7434  0.2554  0.6566
  595TIP3    H2 1750   6.308   3.890   2.542 -0.4385  0.3674 -1.4081
  596TIP3   OH2 1751   5.995   3.327   0.964  0.1965  0.3806  0.5911
  596TIP3    H1 1752   6.007   3.273   1.043  1.5410  0.1114  0.2204
  596TIP3    H2 1753   6.038   3.278   0.894 -1.1358  0.5315 -0.3756
  597TIP3   OH2 1754   1.754   3.049   5.169 -0.1205  0.0321 -0.3065
  597TIP3    H1 1755   1.783   3.128   5.214 -0.6941  0.0255  0.0769
  597TIP3    H2 1756   1.671   3.026   5.211 -0.8401  0.2025 -1.5732
  598TIP3   OH2 1757   1.454   3.477   4.902 -0.0559  0.0199 -0.1802
  598TIP3    H1 1758   1.511   3.458   4.977  1.2853  0.8602 -0.9459
  598TIP3    H2 1759   1.440   3.571   4.906 -1.9340 -0.2572  0.3407
  599TIP3   OH2 1760   4.118   4.845   2.373  0.2215 -0.4326 -0.0142
  599TIP3    H1 1761   4.192   4.896   2.338  0.0964 -0.9031 -1.0226
  599TIP3    H2 1762   4.057   4.910   2.407  0.7189  0.0073  0.0442
  600TIP3   OH2 1763   4.301   0.547   5.163 -0.4635  0.2514 -0.0845
  600TIP3    H1 1764   4.312   0.456   5.136  0.8957 -0.5507  2.7412
  600TIP3    H2 1765   4.259   0.541   5.249  0.4842  2.2247  0.5698
  601TIP3   OH2 1766   7.170   4.727   1.425  0.7832 -0.4735  0.0955
  601TIP3    H1 1767   7.153   4.816   1.455  1.2998 -0.9215  1.8893
  601TIP3    H2 1768   7.097   4.706   1.368  0.8686  1.2250 -0.6957
  602TIP3   OH2 1769   3.444   6.102   1.164 -0.2853 -0.2840 -0.1708
  602TIP3    H1 1770   3.497   6.050   1.224 -0.5287 -1.0373 -0.5986
  602TIP3    H2 1771   3.353   6.085   1.190 -0.3398  0.8500  0.4374
  603TIP3   OH2 1772   0.194   5.001   0.058 -0.4143 -0.2019 -0.2203
  603TIP3    H1 1773   0.138   5.072   0.088 -1.5214 -0.9506 -0.4401
  603TIP3    H2 1774   0.170   4.927   0.114 -1.3932 -1.1949 -1.8681
  604TIP3   OH2 1775   0.993   4.666   4.346  0.0628 -0.0337  0.0024
  604TIP3    H1 1776   1.057   4.707   4.405 -0.8901  2.1491 -0.3810
  604TIP3    H2 1777   0.946   4.603   4.402  1.1827 -0.1989  0.7861
  605TIP3   OH2 1778   2.238   0.347   0.025  0.2480  0.2443 -0.3162
  605TIP3    H1 1779   2.278   0.356   0.111 -0.1783  0.4095 -0.1333
  605TIP3    H2 1780   2.145   0.366   0.039  0.1628  0.2029 -0.7975
  606TIP3   OH2 1781   6.546   1.880   1.746  0.1354  0.7345 -0.7227
  606TIP3    H1 1782   6.585   1.797   1.776  1.4054  1.7717  0.6690
  606TIP3    H2 1783   6.531   1.929   1.826 -1.6118  1.4536 -1.4583
  607TIP3   OH2 1784   0.190   4.676   1.181 -0.9068  0.3392 -0.0992
  607TIP3    H1 1785   0.178   4.751   1.238 -1.5470  0.1046  0.0900
  607TIP3    H2 1786   0.126   4.612   1.212  1.5755 -1.4781  1.7060
  608TIP3   OH2 1787   5.936   0.933   4.504 -0.1600 -0.0490  0.2949
  608TIP3    H1 1788   5.979   0.854   4.470 -0.5307  0.0405 -0.4074
  608TIP3    H2 1789   5.877   0.960   4.433  0.1960  1.0400  0.3903
  609TIP3   OH2 1790   4.297   4.468   1.157 -0.1270  0.4358  0.0432
  609TIP3    H1 1791   4.302   4.516   1.240 -0.5565  0.5561  0.0038
  609TIP3    H2 1792   4.286   4.536   1.091  0.0188  0.3272 -0.0910
  610TIP3   OH2 1793   1.428   2.469   0.101 -0.2596 -0.2547 -0.1869
  610TIP3    H1 1794   1.446   2.376   0.113  0.4616 -0.2768 -1.3225
  610TIP3    H2 1795   1.337   2.472   0.070 -1.0241 -0.4024  1.8220
  611TIP3   OH2 1796   2.657   1.510   2.664 -0.6522 -0.5676 -0.1079
  611TIP3    H1 1797   2.572   1.466   2.668 -0.7194 -0.3789  0.6657
  611TIP3    H2 1798   2.699   1.490   2.748  0.1864 -0.8863 -0.5898
  612TIP3   OH2 1799   1.521   3.407   1.379 -0.1880  0.2262 -0.4245
  612TIP3    H1 1800   1.434   3.441   1.398 -0.0657  0.9897 -1.1843
  612TIP3    H2 1801   1.578   3.483   1.385  0.4054 -0.2427 -0.0806
  613TIP3   OH2 1802   3.717   2.469   5.729  0.0967  0.1855 -0.3691
  613TIP3    H1 1803   3.710   2.537   5.662 -0.5933  0.9638  0.4592
  613TIP3    H2 1804   3.811   2.459   5.743  0.2427  0.0865 -1.3652
  614TIP3   OH2 1805   6.263   4.712   1.535  0.4478  0.2357  0.1117
  614TIP3    H1 1806   6.268   4.717   1.440  0.8880  1.0054  0.1673
  614TIP3    H2 1807   6.346   4.750   1.565 -0.2915  1.3520  0.8214
  615TIP3   OH2 1808   0.403   5.888   3.829 -0.1555  0.0825  0.1735
  615TIP3    H1 1809   0.357   5.822   3.880  0.9420  0.2401  1.4315
  615TIP3    H2 1810   0.427   5.955   3.893 -0.6792  1.3905 -0.9675
  616TIP3   OH2 1811   3.614   1.416   5.042 -0.4103 -0.3150 -0.2745
  616TIP3    H1 1812   3.668   1.422   4.963  0.8492 -2.3825  0.3545
  616TIP3    H2 1813   3.651   1.343   5.091 -2.9228 -0.9115  0.8951
  617TIP3   OH2 1814   3.304   4.220   1.235 -0.4817 -0.6812  0.1769
  617TIP3    H1 1815   3.297   4.165   1.157  0.5263 -3.1536  1.6882
  617TIP3    H2 1816   3.380   4.275   1.218  2.0488 -3.7016  0.6643
  618TIP3   OH2 1817   2.020   4.280   1.752 -0.6266 -1.0839  0.1910
  618TIP3    H1 1818   1.984   4.365   1.728 -2.7546 -2.0355 -0.2627
  618TIP3    H2 1819   2.112   4.297   1.773 -1.0097  1.3074  0.1756
  619TIP3   OH2 1820   1.744   4.308   2.538 -0.3100 -0.4537  0.0415
  619TIP3    H1 1821   1.783   4.392   2.513  0.4555 -0.1883  1.9310
  619TIP3    H2 1822   1.802   4.242   2.499  0.5807 -0.0654  0.6758
  620TIP3   OH2 1823   1.839   6.564   5.501  0.0222 -0.1574 -0.1560
  620TIP3    H1 1824   1.762   6.605   5.542 -0.2558  0.5253 -1.2785
  620TIP3    H2 1825   1.913   6.593   5.554 -0.4837 -0.8360  0.9544
  621TIP3   OH2 1826   5.047   4.716   0.070 -0.0846  0.1580  0.4192
  621TIP3    H1 1827   5.092   4.774   0.008  1.7792 -0.0948  1.4827
  621TIP3    H2 1828   5.056   4.629   0.032 -0.8527  0.2589 -0.0155
  622TIP3   OH2 1829   5.797   5.830   5.615  0.2230  0.3094  0.1581
  622TIP3    H1 1830   5.823   5.750   5.660 -0.7064  0.1166  0.3774
  622TIP3    H2 1831   5.748   5.880   5.680 -0.0703  0.5954 -0.2706
  623TIP3   OH2 1832   0.138   4.750   4.584 -0.3191  0.1579 -0.2353
  623TIP3    H1 1833   0.133   4.725   4.677 -0.2705 -1.2217 -0.5870
  623TIP3    H2 1834   0.144   4.667   4.537  1.5008  0.8908 -1.3849
  624TIP3   OH2 1835   4.147   6.403   0.394 -0.1586  0.9074 -0.3764
  624TIP3    H1 1836   4.064   6.414   0.348  0.0880  0.5854 -0.9046
  624TIP3    H2 1837   4.141   6.315   0.432  0.2403  0.5938 -1.0345
  625TIP3   OH2 1838   3.493   2.670   0.459 -0.2010 -0.2902  0.4073
  625TIP3    H1 1839   3.492   2.587   0.411 -0.8737 -0.4735  0.7162
  625TIP3    H2 1840   3.548   2.728   0.407  0.2174 -0.9136  0.1514
  626TIP3   OH2 1841   4.604   2.131   1.175  0.2375  0.3802 -0.0770
  626TIP3    H1 1842   4.680   2.088   1.136  0.4622  0.5209  0.2002
  626TIP3    H2 1843   4.642   2.191   1.240 -0.0708  0.9395 -0.4098
  627TIP3   OH2 1844   6.360   4.089   0.883  0.4993 -0.3614  0.2154
  627TIP3    H1 1845   6.305   4.095   0.804 -1.0264  3.1416  1.3172
  627TIP3    H2 1846   6.329   4.011   0.928  0.3199 -1.5646 -1.8383
  628TIP3   OH2 1847   0.172   2.361   2.595 -0.6313 -0.1220 -0.3255
  628TIP3    H1 1848   0.199   2.273   2.567 -1.3329 -0.4704  0.0639
  628TIP3    H2 1849   0.231   2.382   2.667  0.0543  0.0610 -0.9305
  629TIP3   OH2 1850   7.066   5.565   3.025  0.0067  0.1864 -0.2216
  629TIP3    H1 1851   6.971   5.562   3.038  0.0982 -0.1253  0.3968
  629TIP3    H2 1852   7.079   5.537   2.934 -0.5314  0.7899 -0.4922
  630TIP3   OH2 1853   2.932   2.791   5.711 -0.0359  0.1434 -0.0378
  630TIP3    H1 1854   2.977   2.820   5.631  1.1621 -0.4114  0.4113
  630TIP3    H2 1855   2.899   2.871   5.751  0.0171  0.5004 -0.6935
  631TIP3   OH2 1856   3.705   0.773   2.882 -0.0707 -0.4456 -0.4754
  631TIP3    H1 1857   3.633   0.711   2.869  0.6007 -1.6107  1.1244
  631TIP3    H2 1858   3.758   0.764   2.802 -0.2261 -1.6076 -0.4654
  632TIP3   OH2 1859   2.303   1.903   0.895  0.1049 -0.1693  0.0639
  632TIP3    H1 1860   2.258   1.981   0.865  1.5879  2.0333  3.0651
  632TIP3    H2 1861   2.248   1.830   0.867 -1.3452  1.9015 -2.8279
  633TIP3   OH2 1862   5.135   2.021   2.230  0.6544 -0.0332 -0.6784
  633TIP3    H1 1863   5.071   1.954   2.207  2.1945 -1.4667 -0.9967
  633TIP3    H2 1864   5.141   2.076   2.152  1.4743 -1.2934 -1.5491
  634TIP3   OH2 1865   5.140   3.625   2.412  0.5310 -0.3316  0.3558
  634TIP3    H1 1866   5.196   3.582   2.347 -0.8870  0.8216 -1.7825
  634TIP3    H2 1867   5.113   3.555   2.471  1.4614 -1.5608 -0.6185
  635TIP3   OH2 1868   3.904   2.006   1.537  0.4284  0.4709  0.0643
  635TIP3    H1 1869   3.897   1.923   1.491 -1.7458  0.2222  0.7698
  635TIP3    H2 1870   3.954   2.062   1.477 -1.1995 -0.2113 -2.0495
  636TIP3   OH2 1871   7.128   2.959   4.128  0.5337 -0.5266  0.3676
  636TIP3    H1 1872   7.203   2.999   4.172  0.7502 -0.6072  0.0772
  636TIP3    H2 1873   7.152   2.961   4.035 -0.2683  0.3885  0.1662
  637TIP3   OH2 1874   6.442   4.569   4.923 -0.2513  0.3650 -0.2990
  637TIP3    H1 1875   6.476   4.590   4.836  3.3963 -0.6754  0.6822
  637TIP3    H2 1876   6.521   4.563   4.978 -2.2597 -0.8223  2.6862
  638TIP3   OH2 1877   5.608   5.305   1.790  0.0322 -0.3503  0.3005
  638TIP3    H1 1878   5.579   5.214   1.792 -1.7613  0.1413 -0.7938
  638TIP3    H2 1879   5.701   5.300   1.768  0.0362 -1.9227  0.5480
  639TIP3   OH2 1880   5.867   3.899   4.817 -0.0551 -0.7775  0.0658
  639TIP3    H1 1881   5.846   3.874   4.907  3.0998  0.7445  1.3794
  639TIP3    H2 1882   5.921   3.826   4.785 -0.4720 -0.9315 -0.2809
  640TIP3   OH2 1883   3.979   4.826   4.854  0.3765 -0.6908  0.2453
  640TIP3    H1 1884   3.917   4.881   4.901  1.2894 -0.4528  1.2062
  640TIP3    H2 1885   4.041   4.888   4.815  0.2820 -0.9459 -0.3196
  641TIP3   OH2 1886   3.506   4.500   4.161 -0.2858  0.1872 -0.6313
  641TIP3    H1 1887   3.435   4.476   4.221  0.6768  1.5086  1.1314
  641TIP3    H2 1888   3.461   4.519   4.078 -1.8248 -0.4057  0.0229
  642TIP3   OH2 1889   4.449   1.986   3.126  0.1322 -0.1195 -0.0058
  642TIP3    H1 1890   4.377   1.944   3.175 -0.0384  1.9560  1.6949
  642TIP3    H2 1891   4.405   2.036   3.058 -0.1473  1.4399  1.2574
  643TIP3   OH2 1892   3.017   6.607   2.306 -0.5583  0.3234 -0.0877
  643TIP3    H1 1893   3.104   6.576   2.282 -0.3831 -0.7216  1.7198
  643TIP3    H2 1894   3.029   6.649   2.392 -2.2005 -2.3132  1.5766
  644TIP3   OH2 1895   1.114   0.216   4.096  0.8246  0.5655 -0.4645
  644TIP3    H1 1896   1.049   0.225   4.026 -0.8944 -0.9367  0.8733
  644TIP3    H2 1897   1.182   0.279   4.072 -0.7587  1.7088 -2.3022
  645TIP3   OH2 1898   0.594   5.925   0.943  0.2444 -0.3665 -0.2503
  645TIP3    H1 1899   0.641   6.002   0.910  0.5255 -0.0635  0.8228
  645TIP3    H2 1900   0.539   5.959   1.013  0.5395 -1.1706  0.3854
  646TIP3   OH2 1901   2.030   0.091   3.745 -0.1376  0.0747 -0.0808
  646TIP3    H1 1902   2.051   0.124   3.832  0.7110  1.2509 -0.6861
  646TIP3    H2 1903   2.074   0.007   3.739  0.0379  0.1226  0.5246
  647TIP3   OH2 1904   4.412   1.520   2.056  0.1233  0.2105  0.2040
  647TIP3    H1 1905   4.493   1.497   2.010 -0.0023 -1.1420  0.6192
  647TIP3    H2 1906   4.437   1.592   2.113  0.8867  0.2119 -0.1175
  648TIP3   OH2 1907   4.451   4.745   1.588 -0.1035 -0.3237  0.4766
  648TIP3    H1 1908   4.409   4.688   1.523 -0.9439 -0.1086  0.8147
  648TIP3    H2 1909   4.398   4.825   1.587 -1.2920 -0.9856  2.7190
  649TIP3   OH2 1910   4.770   4.404   3.770 -0.0482  0.8191  0.7466
  649TIP3    H1 1911   4.799   4.398   3.861  0.3086  0.5121  0.6151
  649TIP3    H2 1912   4.817   4.479   3.734  0.2062  0.6272  0.6743
  650TIP3   OH2 1913   3.845   2.647   0.411 -0.1008  0.0284  0.3339
  650TIP3    H1 1914   3.859   2.723   0.467 -0.6029 -0.8635  1.7319
  650TIP3    H2 1915   3.883   2.574   0.461 -0.5307 -0.7858 -0.5151
  651TIP3   OH2 1916   3.617   1.450   1.298 -0.1845 -0.5041 -0.4368
  651TIP3    H1 1917   3.583   1.405   1.220 -0.0928 -0.2066 -0.6519
  651TIP3    H2 1918   3.566   1.531   1.303  0.1478 -0.2893 -0.4753
  652TIP3   OH2 1919   7.037   6.599   0.165  0.4273 -0.0620  0.3118
  652TIP3    H1 1920   7.054   6.511   0.133  1.0063  0.3704 -0.6016
  652TIP3    H2 1921   7.113   6.620   0.220  0.0443 -0.3178  0.9512
  653TIP3   OH2 1922   1.354   3.596   5.692 -0.3185  0.1128  0.1592
  653TIP3    H1 1923   1.396   3.667   5.741 -1.6496  0.0831  1.3905
  653TIP3    H2 1924   1.326   3.637   5.610 -0.4068  0.8279  0.5384
  654TIP3   OH2 1925   0.137   3.724   1.831 -0.0016 -0.0038  0.5371
  654TIP3    H1 1926   0.075   3.783   1.788  0.9775  0.6171 -0.0688
  654TIP3    H2 1927   0.212   3.721   1.772 -0.2083 -2.2584  0.3172
  655TIP3   OH2 1928   4.986   3.175   1.147 -0.5436  0.4810 -0.1033
  655TIP3    H1 1929   5.051   3.152   1.081  1.1999 -3.4594  2.5519
  655TIP3    H2 1930   4.903   3.144   1.110  0.3297 -1.3172 -0.7102
  656TIP3   OH2 1931   3.765   1.136   3.530  0.0833 -0.7278 -0.4415
  656TIP3    H1 1932   3.858   1.139   3.551  0.3734  1.9448 -1.7518
  656TIP3    H2 1933   3.727   1.209   3.578 -0.9612 -0.5142 -1.5346
  657TIP3   OH2 1934   4.941   3.009   0.784  0.0866  0.1737  0.5943
  657TIP3    H1 1935   4.988   3.092   0.789  1.5775 -0.3967 -2.2110
  657TIP3    H2 1936   4.992   2.950   0.839  1.8693 -0.0356 -1.1861
  658TIP3   OH2 1937   5.035   2.232   3.792 -0.2316 -0.2268 -0.2065
  658TIP3    H1 1938   5.053   2.144   3.759 -1.2747 -0.3020 -0.6218
  658TIP3    H2 1939   5.096   2.243   3.865  0.7505 -0.8174 -0.9115
  659TIP3   OH2 1940   4.817   2.815   4.809 -0.0001  0.0170 -0.8511
  659TIP3    H1 1941   4.829   2.801   4.715  1.8585  0.1209 -0.6700
  659TIP3    H2 1942   4.906   2.813   4.845 -0.7264 -0.7387  1.0153
  660TIP3   OH2 1943   2.150   0.517   1.505 -0.6270  0.3879  0.3049
  660TIP3    H1 1944   2.073   0.478   1.547  0.1989  0.7165  2.2201
  660TIP3    H2 1945   2.207   0.442   1.486  0.7258  0.4501  3.5041
  661TIP3   OH2 1946   1.113   6.296   1.559 -0.2873 -0.0040  0.3262
  661TIP3    H1 1947   1.082   6.340   1.480  1.1521  1.2590  0.4242
  661TIP3    H2 1948   1.116   6.365   1.625 -0.3283 -0.7933  1.1807
  662TIP3   OH2 1949   3.252   1.381   4.193  0.1316 -0.2906 -0.3514
  662TIP3    H1 1950   3.169   1.335   4.198  0.7994 -1.5984 -0.8448
  662TIP3    H2 1951   3.230   1.473   4.210 -1.6545 -0.3393 -2.0834
  663TIP3   OH2 1952   4.610   3.816   3.506  0.1169 -0.0096  0.1872
  663TIP3    H1 1953   4.553   3.861   3.444  0.8329 -0.2366 -0.6531
  663TIP3    H2 1954   4.671   3.884   3.535 -0.2994  0.1295  0.7650
  664TIP3   OH2 1955   2.508   3.004   0.323 -0.3020  0.1022 -0.0713
  664TIP3    H1 1956   2.472   3.038   0.406 -2.5938  1.1477 -1.3772
  664TIP3    H2 1957   2.469   2.917   0.314 -0.3151  0.1198 -0.1899
  665TIP3   OH2 1958   6.242   2.857   2.509 -0.2043 -0.4378  0.4082
  665TIP3    H1 1959   6.323   2.832   2.464 -0.5015 -1.4207  0.4155
  665TIP3    H2 1960   6.216   2.780   2.558 -2.1633 -0.8040 -1.0690
  666TIP3   OH2 1961   5.356   5.398   2.447 -0.0943  0.0748  0.1009
  666TIP3    H1 1962   5.400   5.465   2.499 -0.4253 -0.6099  1.2810
  666TIP3    H2 1963   5.422   5.330   2.433  0.1737  0.5180 -0.9094
  667TIP3   OH2 1964   3.035   1.225   0.543 -0.0933  0.2475  0.7749
  667TIP3    H1 1965   2.957   1.171   0.535  0.2933 -0.6753  2.6492
  667TIP3    H2 1966   3.069   1.206   0.631  2.1415  0.7480  0.0885
  668TIP3   OH2 1967   6.609   4.612   2.962 -0.2525 -0.0429  0.1507
  668TIP3    H1 1968   6.561   4.658   3.031  1.3391  1.0179  0.5983
  668TIP3    H2 1969   6.670   4.555   3.008 -1.2899 -1.6677 -0.4165
  669TIP3   OH2 1970   7.017   2.347   3.691 -0.2146 -0.1628  0.2494
  669TIP3    H1 1971   6.986   2.432   3.660 -0.7006 -0.0023  1.1422
  669TIP3    H2 1972   7.044   2.363   3.781 -0.8567 -1.0768  0.6154
  670TIP3   OH2 1973   5.119   3.893   3.690 -0.4322  0.1617 -0.0800
  670TIP3    H1 1974   5.053   3.851   3.634 -0.0945  0.1232 -0.4565
  670TIP3    H2 1975   5.119   3.842   3.770 -0.5797 -0.0761 -0.2305
  671TIP3   OH2 1976   1.473   1.642   3.340 -0.7538 -0.1395  0.2444
  671TIP3    H1 1977   1.518   1.590   3.406 -0.1208 -0.4477 -0.4107
  671TIP3    H2 1978   1.384   1.651   3.373  0.1503  1.9684  2.4379
  672TIP3   OH2 1979   2.147   2.265   0.570  0.2631  0.1621 -0.2024
  672TIP3    H1 1980   2.072   2.225   0.526 -0.2947  2.2656 -1.2845
  672TIP3    H2 1981   2.223   2.229   0.524 -0.2954  2.0905 -2.9300
  673TIP3   OH2 1982   6.091   2.366   2.154 -0.2698  0.3916  0.0944
  673TIP3    H1 1983   6.116   2.401   2.068 -1.9087  1.1534 -0.1102
  673TIP3    H2 1984   6.090   2.443   2.212 -0.4372  0.0961  0.4884
  674TIP3   OH2 1985   2.661   3.183   2.825  0.4570 -0.5800 -0.4365
  674TIP3    H1 1986   2.685   3.243   2.754 -0.0248  0.2148  0.0618
  674TIP3    H2 1987   2.624   3.107   2.780  1.8925 -0.9229 -1.1206
  675TIP3   OH2 1988   3.991   2.192   2.642 -0.3929  0.4314  0.1807
  675TIP3    H1 1989   4.020   2.259   2.702  0.3374  0.1670  0.1270
  675TIP3    H2 1990   3.914   2.230   2.599  0.0672  1.2672  0.0776
  676TIP3   OH2 1991   5.419   4.570   0.548 -0.4862 -0.1953 -0.0680
  676TIP3    H1 1992   5.489   4.634   0.561  0.3792 -0.8009 -1.5314
  676TIP3    H2 1993   5.414   4.522   0.631 -3.0825  3.4521  2.2126
  677TIP3   OH2 1994   0.075   3.461   2.399  0.1471  0.0319 -0.6061
  677TIP3    H1 1995   0.160   3.421   2.418 -0.3776 -0.5224  0.6710
  677TIP3    H2 1996   0.077   3.478   2.305  2.4802  1.9225 -0.3065
  678TIP3   OH2 1997   1.376   5.670   0.108  0.7451  0.2954 -0.5285
  678TIP3    H1 1998   1.423   5.741   0.151  0.0514 -0.7443  2.1198
  678TIP3    H2 1999   1.296   5.711   0.074  1.0569  1.0358 -0.3923
  679TIP3   OH2 2000   5.859   5.921   2.774 -0.0072  0.2164  0.7384
  679TIP3    H1 2001   5.796   5.911   2.846 -2.0328 -1.1051 -1.0740
  679TIP3    H2 2002   5.899   5.835   2.766  0.1587  0.3388  0.2544
  680TIP3   OH2 2003   5.829   0.372   2.718 -0.4123  0.5495  0.1254
  680TIP3    H1 2004   5.783   0.343   2.639 -2.6103  2.3085  0.6674
  680TIP3    H2 2005   5.920   0.385   2.689 -0.3319 -2.1754 -1.2054
  681TIP3   OH2 2006   6.475   1.905   4.894  0.0813 -0.5195  0.3959
  681TIP3    H1 2007   6.419   1.871   4.964 -0.1515 -1.1408 -0.0849
  681TIP3    H2 2008   6.461   1.845   4.821  0.1585  0.2363 -0.2573
  682TIP3   OH2 2009   6.229   1.360   5.420  0.0115 -0.8037  0.0651
  682TIP3    H1 2010   6.311   1.376   5.467 -1.4894  2.6669  1.8881
  682TIP3    H2 2011   6.173   1.315   5.482 -0.9654  1.1038  0.6516
  683TIP3   OH2 2012   1.664   2.452   1.110  0.0635 -0.0365  0.1733
  683TIP3    H1 2013   1.651   2.378   1.170  0.0453 -0.2240 -0.0622
  683TIP3    H2 2014   1.655   2.414   1.023 -3.3050  0.8201  0.0252
  684TIP3   OH2 2015   6.972   5.498   3.943 -0.1791  0.0489 -0.0370
  684TIP3    H1 2016   6.936   5.513   3.856  1.2850 -1.2273 -0.9099
  684TIP3    H2 2017   6.957   5.405   3.960 -0.0229  0.1776  0.8751
  685TIP3   OH2 2018   0.780   0.252   4.263 -0.7457 -0.1814  0.5736
  685TIP3    H1 2019   0.809   0.161   4.273 -0.1743 -0.2473 -1.3347
  685TIP3    H2 2020   0.686   0.249   4.280 -0.6773 -1.0687  0.8669
  686TIP3   OH2 2021   7.191   4.794   5.014 -0.1838  0.1291  0.2002
  686TIP3    H1 2022   7.216   4.855   4.944  0.2994  0.4276  0.6192
  686TIP3    H2 2023   7.162   4.716   4.968  1.9213 -0.3969 -0.3527
  687TIP3   OH2 2024   2.064   1.679   5.073  0.1265  0.5604  0.4564
  687TIP3    H1 2025   2.077   1.762   5.026  1.2629  0.3989  0.4542
  687TIP3    H2 2026   2.153   1.646   5.088 -0.2834 -0.2429  1.2032
  688TIP3   OH2 2027   2.508   3.840   0.436  0.0389 -0.1181 -0.6315
  688TIP3    H1 2028   2.488   3.883   0.353 -1.1643  1.3527  0.3684
  688TIP3    H2 2029   2.458   3.889   0.501  1.8311 -0.5065  1.1388
  689TIP3   OH2 2030   6.655   5.005   4.233  0.1372  0.0558  0.4307
  689TIP3    H1 2031   6.607   5.068   4.180  0.3893 -1.2523 -1.4407
  689TIP3    H2 2032   6.601   4.993   4.311 -0.9945  0.9397 -0.1895
  690TIP3   OH2 2033   6.626   6.654   2.423 -0.3179  0.3216  0.4391
  690TIP3    H1 2034   6.608   6.652   2.517 -1.1989  1.7781  0.3196
  690TIP3    H2 2035   6.542   6.638   2.381 -0.4212  2.0164 -0.0894
  691TIP3   OH2 2036   6.527   3.064   5.695 -0.1025 -0.1605 -0.2237
  691TIP3    H1 2037   6.573   2.980   5.697 -0.8166 -0.6006 -1.5978
  691TIP3    H2 2038   6.437   3.043   5.720 -0.4734  0.0606 -1.3448
  692TIP3   OH2 2039   5.373   2.878   1.237  0.2858 -0.2193  0.4237
  692TIP3    H1 2040   5.404   2.967   1.252  0.9077  0.0322 -1.8609
  692TIP3    H2 2041   5.447   2.822   1.263 -0.2824 -0.1581  2.3232
  693TIP3   OH2 2042   4.068   1.419   0.186  0.0101 -0.0548  0.2432
  693TIP3    H1 2043   4.154   1.443   0.150 -0.0253  0.5759  0.5659
  693TIP3    H2 2044   4.038   1.498   0.231 -0.2134 -0.6389  1.1508
  694TIP3   OH2 2045   4.702   5.258   4.396  0.1653  0.4754 -0.1174
  694TIP3    H1 2046   4.635   5.196   4.424  0.4124  1.0923  1.9918
  694TIP3    H2 2047   4.785   5.212   4.410  0.2817  0.4522 -0.8138
  695TIP3   OH2 2048   1.482   5.182   4.923 -0.2348 -0.0842  0.0416
  695TIP3    H1 2049   1.487   5.229   5.006 -0.1223  0.3356 -0.1994
  695TIP3    H2 2050   1.393   5.148   4.919 -0.2450 -0.0916  0.3245
  696TIP3   OH2 2051   4.443   0.581   2.046 -0.0954 -0.3804  0.3670
  696TIP3    H1 2052   4.419   0.561   2.137 -0.7138  0.1182  0.3209
  696TIP3    H2 2053   4.370   0.634   2.014  0.6652  0.4073 -0.0761
  697TIP3   OH2 2054   4.646   1.101   1.670  0.4471 -0.0846  0.2630
  697TIP3    H1 2055   4.703   1.025   1.661  0.0395 -0.5841  1.6120
  697TIP3    H2 2056   4.563   1.065   1.703 -0.1354  0.8048 -0.1815
  698TIP3   OH2 2057   0.641   0.236   1.694 -0.4708  0.2928 -0.5641
  698TIP3    H1 2058   0.634   0.183   1.615 -1.8821  0.2648 -0.4467
  698TIP3    H2 2059   0.558   0.222   1.739  0.0454  0.8407  0.5902
  699TIP3   OH2 2060   0.494   0.283   3.819  0.0123  0.0659 -0.2022
  699TIP3    H1 2061   0.536   0.211   3.772  2.0317  0.7170  0.5012
  699TIP3    H2 2062   0.465   0.343   3.751 -0.7270 -0.8782 -0.7440
  700TIP3   OH2 2063   6.706   5.585   4.564 -0.0006 -0.2399 -0.6786
  700TIP3    H1 2064   6.800   5.593   4.581 -0.1346  1.1631 -0.5125
  700TIP3    H2 2065   6.670   5.547   4.644  0.3345 -0.2176 -0.5146
  701TIP3   OH2 2066   0.382   3.268   2.841  0.0473  0.3814  0.3428
  701TIP3    H1 2067   0.447   3.300   2.904  1.9075 -1.6472 -0.4280
  701TIP3    H2 2068   0.376   3.338   2.776  1.5384  0.6012  0.3972
  702TIP3   OH2 2069   5.561   4.977   1.622  0.0682 -0.2796  0.2666
  702TIP3    H1 2070   5.606   4.892   1.616 -0.1871 -0.5015  1.2590
  702TIP3    H2 2071   5.624   5.040   1.585  0.0660 -0.9502 -0.9414
  703TIP3   OH2 2072   0.022   3.458   5.842 -0.3163 -0.3864 -0.5540
  703TIP3    H1 2073  -0.050   3.519   5.855  0.6837  1.2377 -2.1240
  703TIP3    H2 2074   0.049   3.433   5.930 -0.6171  1.6631  0.1699
  704TIP3   OH2 2075   3.585   1.550   4.001  0.5359  0.3881 -0.1781
  704TIP3    H1 2076   3.545   1.505   4.076 -0.2970  0.2646 -0.6766
  704TIP3    H2 2077   3.511   1.587   3.953  1.2624  4.1482  1.3024
  705TIP3   OH2 2078   1.906   1.358   5.814 -0.0805 -0.2337 -0.0366
  705TIP3    H1 2079   1.867   1.410   5.744 -0.5644  0.4029  0.6953
  705TIP3    H2 2080   1.956   1.290   5.768 -2.1522 -1.1871 -0.9980
  706TIP3   OH2 2081   5.993   2.193   5.678 -0.1375  0.6525  0.6077
  706TIP3    H1 2082   6.015   2.286   5.674 -1.8679  1.0685 -0.2975
  706TIP3    H2 2083   6.054   2.157   5.742  1.4509  2.1366  0.0176
  707TIP3   OH2 2084   3.330   4.637   1.718 -0.1551  0.0304 -0.7394
  707TIP3    H1 2085   3.248   4.674   1.687 -0.0693  1.5566  0.7565
  707TIP3    H2 2086   3.312   4.609   1.807  1.2472  1.6174  0.0997
  708TIP3   OH2 2087   6.132   1.629   5.356  0.3249  0.0732  0.3475
  708TIP3    H1 2088   6.152   1.563   5.423 -0.3419 -1.1317 -0.5919
  708TIP3    H2 2089   6.201   1.619   5.291  0.4107  0.5401  0.3675
  709TIP3   OH2 2090   2.171   3.308   5.629 -0.1306  0.5498  0.6838
  709TIP3    H1 2091   2.212   3.394   5.635  1.6358 -0.2166  0.4313
  709TIP3    H2 2092   2.164   3.291   5.535 -2.5080  1.2939  0.6848
  710TIP3   OH2 2093   2.670   5.222   1.016 -0.8166  0.6986 -0.3856
  710TIP3    H1 2094   2.743   5.186   1.066 -0.8108 -1.3321 -1.7898
  710TIP3    H2 2095   2.704   5.306   0.983  0.7156  0.0068 -0.6530
  711TIP3   OH2 2096   1.347   4.487   5.774 -0.3257 -0.1126 -0.3868
  711TIP3    H1 2097   1.323   4.394   5.772  0.6936 -0.3790 -1.1288
  711TIP3    H2 2098   1.443   4.487   5.777 -0.3187  0.9224  0.0076
  712TIP3   OH2 2099   1.456   4.396   3.501 -0.7301  1.0232 -0.1032
  712TIP3    H1 2100   1.435   4.426   3.590  0.5282  1.2227  0.1484
  712TIP3    H2 2101   1.374   4.407   3.453 -1.6146  0.3268  1.1720
  713TIP3   OH2 2102   2.068   5.480   3.431 -0.5022 -0.1997 -0.0949
  713TIP3    H1 2103   2.145   5.463   3.376  1.1018  0.9712  1.6654
  713TIP3    H2 2104   2.056   5.399   3.480  0.7433  0.1800  0.8862
  714TIP3   OH2 2105   0.495   1.884   0.592 -0.4799 -0.0935  0.6980
  714TIP3    H1 2106   0.408   1.917   0.569 -0.3425  0.7697  1.3842
  714TIP3    H2 2107   0.519   1.931   0.672  0.8435  0.0739  0.2351
  715TIP3   OH2 2108   6.872   2.282   0.392 -0.0530 -0.6852 -0.1352
  715TIP3    H1 2109   6.836   2.368   0.371  0.3680 -0.4834 -0.0416
  715TIP3    H2 2110   6.967   2.293   0.386  0.0332 -0.9542  0.6040
  716TIP3   OH2 2111   4.627   2.934   3.712  0.0363  0.1770 -0.0062
  716TIP3    H1 2112   4.686   3.008   3.705  0.8907 -0.4627  0.2653
  716TIP3    H2 2113   4.629   2.909   3.804 -0.9570  0.3800  0.0818
  717TIP3   OH2 2114   3.439   6.287   1.411 -0.5528  0.9775 -0.2350
  717TIP3    H1 2115   3.488   6.276   1.329  0.1478 -1.8456  0.4743
  717TIP3    H2 2116   3.469   6.215   1.467 -2.6547  1.5037  1.7045
  718TIP3   OH2 2117   4.261   0.653   4.014 -0.7735 -0.2133  0.4364
  718TIP3    H1 2118   4.196   0.684   4.077  0.4504 -1.0765  2.2271
  718TIP3    H2 2119   4.336   0.711   4.027 -1.2686  1.1079 -1.9691
  719TIP3   OH2 2120   4.343   2.905   5.588  0.0373 -0.8637  0.1848
  719TIP3    H1 2121   4.324   2.885   5.680 -0.4937 -2.8403 -0.3019
  719TIP3    H2 2122   4.340   3.000   5.583 -1.5559 -0.7622  1.8943
  720TIP3   OH2 2123   2.199   5.949   2.480 -0.4460 -0.0621  0.0396
  720TIP3    H1 2124   2.199   6.045   2.486 -1.5194 -0.0257 -0.4229
  720TIP3    H2 2125   2.286   5.928   2.444 -0.1534  0.7205  0.2660
  721TIP3   OH2 2126   1.299   2.484   3.498 -0.0683  0.3547  0.1627
  721TIP3    H1 2127   1.381   2.534   3.500 -0.1885  0.5726 -0.2412
  721TIP3    H2 2128   1.248   2.519   3.571  0.5532 -0.4052  0.9848
  722TIP3   OH2 2129   1.094   6.169   5.493  0.0555  0.3746 -0.3110
  722TIP3    H1 2130   1.139   6.244   5.530  0.9150 -1.0885  1.8476
  722TIP3    H2 2131   1.064   6.119   5.569 -0.9521 -1.1943 -1.6633
  723TIP3   OH2 2132   2.436   4.567   0.337 -0.0623 -0.1919  0.5534
  723TIP3    H1 2133   2.366   4.525   0.387 -0.1300  0.7544  1.2671
  723TIP3    H2 2134   2.493   4.494   0.311 -1.2648 -0.9724 -0.0031
  724TIP3   OH2 2135   2.453   2.378   3.022  0.5883 -0.8942 -0.6513
  724TIP3    H1 2136   2.441   2.426   2.940 -0.8296  0.0629  0.0775
  724TIP3    H2 2137   2.408   2.294   3.007 -0.4482 -0.3726 -0.5864
  725TIP3   OH2 2138   0.648   2.658   5.003 -0.4771  0.5498  0.9881
  725TIP3    H1 2139   0.646   2.721   5.075 -0.7147  1.3945  0.2702
  725TIP3    H2 2140   0.741   2.647   4.983 -0.4788  1.7344  0.2406
  726TIP3   OH2 2141   4.880   4.024   3.425 -0.0715  0.2845  0.3974
  726TIP3    H1 2142   4.902   3.931   3.424 -2.0169 -0.2198  1.3402
  726TIP3    H2 2143   4.854   4.044   3.335  1.7899  0.3306 -0.1728
  727TIP3   OH2 2144   5.181   3.346   4.887  0.0660  0.1778 -0.1214
  727TIP3    H1 2145   5.258   3.288   4.886  0.1215  0.2240  0.7153
  727TIP3    H2 2146   5.202   3.415   4.825  0.0314 -0.6478 -1.0916
  728TIP3   OH2 2147   0.732   2.266   0.104  0.5786 -0.3287 -0.0551
  728TIP3    H1 2148   0.667   2.221   0.157 -0.3672  0.5223 -0.4563
  728TIP3    H2 2149   0.745   2.351   0.148  3.1966 -1.3315  1.3625
  729TIP3   OH2 2150   2.697   6.623   4.046 -0.2173 -1.0290 -0.0958
  729TIP3    H1 2151   2.763   6.648   3.982 -1.5274  0.0931 -1.0884
  729TIP3    H2 2152   2.734   6.647   4.130 -0.3625  2.1632 -0.8087
  730TIP3   OH2 2153   5.702   3.460   0.961  0.0673 -0.0257 -0.0724
  730TIP3    H1 2154   5.713   3.366   0.947  0.3113  0.1226 -0.9078
  730TIP3    H2 2155   5.621   3.467   1.013  0.7049 -0.7556  1.0709
  731TIP3   OH2 2156   2.262   0.002   1.131 -0.3472 -0.2053  0.2828
  731TIP3    H1 2157   2.232   0.012   1.222 -1.1367  0.3685 -0.0332
  731TIP3    H2 2158   2.184   0.017   1.078  0.4963  1.5142 -0.5572
  732TIP3   OH2 2159   2.420   1.570   5.716  0.0003 -0.1478  1.3076
  732TIP3    H1 2160   2.500   1.623   5.714  0.3928 -0.7275  1.4518
  732TIP3    H2 2161   2.352   1.629   5.685  0.4431  0.4232  1.3996
  733TIP3   OH2 2162   4.239   3.094   2.489 -0.1937 -0.3398  0.0462
  733TIP3    H1 2163   4.204   3.007   2.471 -3.0814  1.0383 -1.6728
  733TIP3    H2 2164   4.300   3.110   2.418 -0.8372 -0.4004 -0.5386
  734TIP3   OH2 2165   3.588   3.477   2.190 -0.0119 -0.0319 -0.8494
  734TIP3    H1 2166   3.514   3.419   2.168  0.1187 -0.7714  0.5746
  734TIP3    H2 2167   3.655   3.455   2.125  0.3852 -2.2043  0.1979
  735TIP3   OH2 2168   0.592   3.254   1.400  0.2680  0.6222 -0.4627
  735TIP3    H1 2169   0.651   3.204   1.344  0.7002  1.4738 -0.7840
  735TIP3    H2 2170   0.550   3.316   1.340  0.7654  1.5716  0.1524
  736TIP3   OH2 2171   2.393   5.260   1.138 -0.2810  0.5450  0.2582
  736TIP3    H1 2172   2.475   5.223   1.107 -1.3899 -0.4260 -1.6886
  736TIP3    H2 2173   2.418   5.312   1.215  1.7159 -2.2058  1.6825
  737TIP3   OH2 2174   3.151   5.220   5.547  0.1129  0.3876  0.0657
  737TIP3    H1 2175   3.124   5.210   5.455 -0.9450  1.0517  0.2832
  737TIP3    H2 2176   3.191   5.307   5.550  3.7511 -1.0918 -0.5529
  738TIP3   OH2 2177   3.919   0.351   5.173  0.7921  0.3368  0.4272
  738TIP3    H1 2178   4.003   0.389   5.147  1.0504 -0.2627  0.3725
  738TIP3    H2 2179   3.882   0.414   5.236  0.4944  1.4536 -0.8051
  739TIP3   OH2 2180   5.040   4.480   2.729  0.2788  0.4749 -0.7394
  739TIP3    H1 2181   5.055   4.494   2.822 -0.7089 -0.1617 -0.4732
  739TIP3    H2 2182   5.024   4.386   2.721 -1.0587  0.7314 -1.3441
  740TIP3   OH2 2183   2.852   2.517   0.837  0.1162 -0.8120  0.1371
  740TIP3    H1 2184   2.763   2.500   0.805  0.9114 -3.6668 -0.8156
  740TIP3    H2 2185   2.850   2.488   0.929 -0.4695  1.3577  0.8805
  741TIP3   OH2 2186   3.496   1.916   4.665  1.0918 -0.5472 -0.1334
  741TIP3    H1 2187   3.582   1.942   4.697  0.7323  0.3907  0.0990
  741TIP3    H2 2188   3.514   1.870   4.583  1.9811 -2.5592  1.1404
  742TIP3   OH2 2189   5.708   4.253   0.195 -0.5041  0.3372 -0.2421
  742TIP3    H1 2190   5.657   4.173   0.210 -0.2903  0.0402 -1.0145
  742TIP3    H2 2191   5.651   4.323   0.226 -0.8837 -0.0789  0.0305
  743TIP3   OH2 2192   2.675   1.546   0.017  0.1307  0.5443  0.7312
  743TIP3    H1 2193   2.627   1.487  -0.041  1.2640  0.7467 -0.4580
  743TIP3    H2 2194   2.698   1.492   0.092 -0.0219 -0.1566  0.2814
  744TIP3   OH2 2195   5.865   4.382   2.027 -0.5975  0.0424 -0.9251
  744TIP3    H1 2196   5.906   4.296   2.034 -1.1729 -0.1721  0.0685
  744TIP3    H2 2197   5.786   4.366   1.974 -0.8162 -0.0943 -0.5646
  745TIP3   OH2 2198   5.104   6.540   4.233  0.1571 -0.0487 -1.0280
  745TIP3    H1 2199   5.053   6.522   4.154  0.5966 -2.9512 -0.7343
  745TIP3    H2 2200   5.145   6.457   4.256  0.4890  0.8188  1.9860
  746TIP3   OH2 2201   4.431   2.707   5.408 -0.3970 -0.6057  0.4696
  746TIP3    H1 2202   4.520   2.694   5.438 -1.3021 -3.2616  2.3126
  746TIP3    H2 2203   4.398   2.780   5.461 -0.3639 -1.8955  2.3378
  747TIP3   OH2 2204   5.049   2.675   5.375 -0.4097  0.3896 -0.1513
  747TIP3    H1 2205   5.100   2.595   5.364 -0.1208  0.8495 -2.7213
  747TIP3    H2 2206   5.056   2.695   5.468  1.4367 -1.2952  0.1408
  748TIP3   OH2 2207   2.802   4.612   5.116 -0.2019  0.1198 -0.4728
  748TIP3    H1 2208   2.896   4.605   5.104  0.0962  0.5243  1.3673
  748TIP3    H2 2209   2.785   4.706   5.115 -0.2735  0.1493  1.1173
  749TIP3   OH2 2210   6.617   2.783   5.727  0.0380  0.4910  0.6132
  749TIP3    H1 2211   6.664   2.775   5.810 -0.3723  0.0861  0.8094
  749TIP3    H2 2212   6.550   2.715   5.730  1.6510 -1.3009 -1.1415
  750TIP3   OH2 2213   0.208   0.891   3.745 -0.1963  0.0314 -0.2457
  750TIP3    H1 2214   0.126   0.896   3.696 -0.6738  1.7625  0.6536
  750TIP3    H2 2215   0.276   0.887   3.677 -0.8119  2.8226 -1.1398
  751TIP3   OH2 2216   6.732   2.512   2.624 -0.1938 -0.1617 -0.0172
  751TIP3    H1 2217   6.674   2.585   2.645 -1.8716 -0.8005 -2.0923
  751TIP3    H2 2218   6.676   2.447   2.583  2.0200 -0.6271 -2.6194
  752TIP3   OH2 2219   2.403   4.732   0.568 -0.3486  0.1705  0.3946
  752TIP3    H1 2220   2.447   4.665   0.516 -1.4632 -0.5895  0.3971
  752TIP3    H2 2221   2.441   4.724   0.656  0.3595  0.3517  0.1130
  753TIP3   OH2 2222   0.171   5.947   1.886  0.1307  0.2142  0.2081
  753TIP3    H1 2223   0.082   5.915   1.905 -0.1401  0.1696 -1.0474
  753TIP3    H2 2224   0.184   5.927   1.793  1.2587  0.7027  0.2499
  754TIP3   OH2 2225   0.902   0.940   5.468  0.1710  0.1291 -0.6238
  754TIP3    H1 2226   0.964   0.956   5.539 -0.4144  1.3324 -0.3527
  754TIP3    H2 2227   0.889   1.026   5.428  0.8150 -0.6037 -2.4812
  755TIP3   OH2 2228   3.691   3.474   0.502 -0.1256 -0.3337  0.6321
  755TIP3    H1 2229   3.758   3.421   0.459  1.0370 -0.0881  2.0450
  755TIP3    H2 2230   3.637   3.509   0.431  1.8533  0.2734 -0.6316
  756TIP3   OH2 2231   4.543   3.541   4.462  0.1382  0.0232 -0.2029
  756TIP3    H1 2232   4.623   3.586   4.489  0.4866  0.4325 -1.7907
  756TIP3    H2 2233   4.496   3.523   4.544  2.3349 -1.2042  0.8729
  757TIP3   OH2 2234   1.390   0.851   4.772 -0.7329 -0.1998 -0.3631
  757TIP3    H1 2235   1.421   0.762   4.788 -1.3497 -0.5034 -0.8522
  757TIP3    H2 2236   1.306   0.856   4.818 -0.9349 -0.0276 -0.7516
  758TIP3   OH2 2237   1.147   6.612   4.083 -0.4241  0.8442 -0.1948
  758TIP3    H1 2238   1.069   6.618   4.028  0.2463 -0.3577 -1.3331
  758TIP3    H2 2239   1.119   6.646   4.168 -1.7869  1.7296 -0.9717
  759TIP3   OH2 2240   3.720   4.804   3.226 -0.8745 -0.5038 -0.6137
  759TIP3    H1 2241   3.726   4.791   3.131 -0.5760 -0.0201 -0.6617
  759TIP3    H2 2242   3.726   4.715   3.262  1.7165 -0.4990 -0.9057
  760TIP3   OH2 2243   2.612   4.179   3.794  0.0632  0.2503  0.1302
  760TIP3    H1 2244   2.643   4.216   3.877  1.0811  0.0613 -0.1604
  760TIP3    H2 2245   2.519   4.203   3.791  0.4965  2.0498  0.3410
  761TIP3   OH2 2246   4.380   2.423   3.812  0.0412  0.7679  0.1195
  761TIP3    H1 2247   4.456   2.391   3.861  1.3495  0.1900 -2.1520
  761TIP3    H2 2248   4.317   2.448   3.880  1.6361 -0.1934  2.0739
  762TIP3   OH2 2249   5.016   0.936   3.598 -0.0116  0.0398 -0.1140
  762TIP3    H1 2250   5.088   0.982   3.642  0.8787 -1.0754 -0.3484
  762TIP3    H2 2251   5.039   0.843   3.606 -2.1166 -0.4432  0.9759
  763TIP3   OH2 2252   6.940   1.250   3.955 -0.0265  0.0256 -0.1044
  763TIP3    H1 2253   6.883   1.320   3.987 -1.2021 -0.8937 -0.1238
  763TIP3    H2 2254   6.929   1.251   3.860 -1.1667 -1.0890 -0.0055
  764TIP3   OH2 2255   7.078   4.248   2.944  0.0864 -0.0796 -0.1077
  764TIP3    H1 2256   7.169   4.241   2.971 -0.0657 -0.6959  0.2509
  764TIP3    H2 2257   7.083   4.272   2.852  0.6327 -1.7477 -0.5528
  765TIP3   OH2 2258   5.404   5.889   2.980 -0.5186  0.6266  0.2559
  765TIP3    H1 2259   5.384   5.883   2.886 -1.2219  0.9034  0.3793
  765TIP3    H2 2260   5.330   5.844   3.022  0.7123 -1.1865  0.6082
  766TIP3   OH2 2261   2.739   4.357   0.175  0.0222 -0.4613  0.8878
  766TIP3    H1 2262   2.761   4.447   0.200 -0.6393  0.9286 -2.8374
  766TIP3    H2 2263   2.824   4.318   0.151  0.0248  0.3247 -0.5165
  767TIP3   OH2 2264   6.905   0.948   0.887  0.2601 -0.0617 -0.2243
  767TIP3    H1 2265   6.952   0.868   0.865  0.6208 -0.1450  0.7734
  767TIP3    H2 2266   6.894   0.943   0.982 -0.2916  0.7611 -0.2385
  768TIP3   OH2 2267   6.275   3.207   3.858 -0.1676 -0.2146  0.5075
  768TIP3    H1 2268   6.368   3.188   3.867 -0.5963 -1.4127  2.9881
  768TIP3    H2 2269   6.231   3.123   3.870 -1.6461  0.5693  0.8948
  769TIP3   OH2 2270   1.653   0.386   3.051 -0.1780  0.1224  0.1482
  769TIP3    H1 2271   1.572   0.425   3.017  0.1159 -0.4086 -1.2160
  769TIP3    H2 2272   1.723   0.437   3.011  0.1883 -0.9915 -0.6827
  770TIP3   OH2 2273   1.023   6.247   5.250 -0.5121 -0.2254 -0.5215
  770TIP3    H1 2274   1.043   6.229   5.341 -0.6410 -0.7353 -0.5885
  770TIP3    H2 2275   1.097   6.298   5.218 -0.9441  0.8562  0.1368
  771TIP3   OH2 2276   1.105   6.694   5.382  0.1986  0.5283 -0.0931
  771TIP3    H1 2277   1.143   6.641   5.312 -0.8057  0.5213 -0.6464
  771TIP3    H2 2278   1.128   6.784   5.360 -1.9517  0.7560 -1.6626
  772TIP3   OH2 2279   4.792   1.599   2.143 -0.2749 -0.1746  0.0696
  772TIP3    H1 2280   4.849   1.540   2.193 -0.1664 -1.5588 -1.5679
  772TIP3    H2 2281   4.752   1.542   2.077  1.0620  1.8444 -2.6747
  773TIP3   OH2 2282   4.615   4.379   4.718 -0.2299  0.5446 -0.0373
  773TIP3    H1 2283   4.571   4.311   4.669  1.3512 -0.2042 -0.4898
  773TIP3    H2 2284   4.624   4.452   4.657 -0.5847  0.5980 -0.0264
  774TIP3   OH2 2285   4.425   4.839   0.197 -0.5888  0.3004 -0.1634
  774TIP3    H1 2286   4.438   4.749   0.229  0.0723  0.8522  1.2250
  774TIP3    H2 2287   4.394   4.828   0.107  0.8558 -1.2940 -0.5284
  775TIP3   OH2 2288   1.999   2.637   2.398 -0.1852 -0.2172  0.0461
  775TIP3    H1 2289   2.055   2.677   2.331 -0.9877  0.4481 -0.2458
  775TIP3    H2 2290   1.949   2.571   2.351 -2.0050  1.4152 -0.4300
  776TIP3   OH2 2291   5.263   5.062   5.326 -0.0914 -0.4919  0.0537
  776TIP3    H1 2292   5.180   5.105   5.346 -0.4785 -0.9319 -0.5787
  776TIP3    H2 2293   5.321   5.089   5.397 -0.5362  0.4704  0.0793
  777TIP3   OH2 2294   6.463   5.328   2.774  0.3511 -0.2505  0.2026
  777TIP3    H1 2295   6.492   5.318   2.865  1.3932 -0.2388 -0.1163
  777TIP3    H2 2296   6.507   5.407   2.744  1.2013 -1.0660 -0.7635
  778TIP3   OH2 2297   4.522   4.735   5.543  0.2350  0.1797 -0.3192
  778TIP3    H1 2298   4.597   4.755   5.598 -0.3645  1.3295  0.1157
  778TIP3    H2 2299   4.560   4.692   5.466  1.0438 -1.8324  1.1106
  779TIP3   OH2 2300   5.020   2.406   3.092  0.4720  0.7645  0.0400
  779TIP3    H1 2301   4.970   2.449   3.161  0.6946  0.8322  0.1580
  779TIP3    H2 2302   5.064   2.478   3.046 -1.3025  0.9579 -1.4945
  780TIP3   OH2 2303   5.933   0.093   1.986  0.2850  0.3812 -0.0772
  780TIP3    H1 2304   5.841   0.071   1.970  0.9675 -1.5444 -1.9837
  780TIP3    H2 2305   5.930   0.170   2.042 -2.4620 -0.9907  1.8900
  781TIP3   OH2 2306   5.610   3.533   2.989 -0.6581 -0.0956  1.4880
  781TIP3    H1 2307   5.693   3.520   2.943 -1.7873  0.8769 -1.0694
  781TIP3    H2 2308   5.620   3.619   3.032 -0.4511  0.1963  0.8755
  782TIP3   OH2 2309   5.115   1.666   1.369 -0.3062 -0.3693 -0.1164
  782TIP3    H1 2310   5.040   1.606   1.365 -0.6903 -0.0480  1.5163
  782TIP3    H2 2311   5.190   1.609   1.390 -0.5930 -0.3570  0.9933
  783TIP3   OH2 2312   5.944   4.655   3.986  0.4964 -0.2160  0.8583
  783TIP3    H1 2313   6.002   4.659   4.061  2.0032 -0.6791 -0.2242
  783TIP3    H2 2314   6.003   4.653   3.910 -0.9442 -0.3301 -0.3126
  784TIP3   OH2 2315   6.889   3.387   2.167  0.1058 -0.3433  0.1744
  784TIP3    H1 2316   6.899   3.482   2.163 -0.3720 -0.2607  0.7640
  784TIP3    H2 2317   6.842   3.364   2.087 -2.2423  0.2687  1.2859
  785TIP3   OH2 2318   4.695   1.079   0.774 -0.1842  0.1897 -0.2871
  785TIP3    H1 2319   4.636   1.006   0.753 -0.5995  0.3030  0.4789
  785TIP3    H2 2320   4.676   1.101   0.865  0.4234  0.8109 -0.2997
  786TIP3   OH2 2321   3.691   5.169   1.674 -1.0006  0.3910  0.6095
  786TIP3    H1 2322   3.780   5.169   1.708 -0.7853 -1.2880  0.1238
  786TIP3    H2 2323   3.699   5.203   1.585 -0.5502 -1.3880 -0.0597
  787TIP3   OH2 2324   6.003   0.876   2.902  0.3303 -0.5246  0.1192
  787TIP3    H1 2325   5.991   0.798   2.849  1.5410 -0.3396 -0.4521
  787TIP3    H2 2326   5.995   0.949   2.840  0.2668 -0.2387  0.4572
  788TIP3   OH2 2327   5.417   5.394   1.034  0.6690 -0.0540 -0.0120
  788TIP3    H1 2328   5.337   5.409   1.085  0.9583 -0.1546  0.4758
  788TIP3    H2 2329   5.399   5.436   0.950 -0.5927 -1.5812 -0.5547
  789TIP3   OH2 2330   4.138   2.658   2.757 -0.0770  0.5129 -0.3101
  789TIP3    H1 2331   4.091   2.616   2.829  0.2854  1.6946  0.6454
  789TIP3    H2 2332   4.127   2.598   2.683 -1.1163 -0.3482  0.5104
  790TIP3   OH2 2333   0.613   2.908   1.025  0.0884  0.0168  0.2769
  790TIP3    H1 2334   0.535   2.963   1.028 -1.6782 -2.1338 -1.7929
  790TIP3    H2 2335   0.630   2.896   0.931  2.4712 -0.2122  0.6816
  791TIP3   OH2 2336   1.512   4.481   4.715 -0.6871  0.1806 -0.3994
  791TIP3    H1 2337   1.488   4.424   4.643 -1.6985 -2.1253  1.5990
  791TIP3    H2 2338   1.473   4.439   4.792  0.0395  2.6683  1.4565
  792TIP3   OH2 2339   4.589   4.559   0.029 -0.1460  0.1732  0.2240
  792TIP3    H1 2340   4.654   4.628   0.040  2.3616 -1.5528 -2.3937
  792TIP3    H2 2341   4.558   4.570  -0.061 -0.6740 -1.3132  0.2069
  793TIP3   OH2 2342   4.594   1.111   1.014 -0.3237 -0.5159  0.2972
  793TIP3    H1 2343   4.525   1.048   1.038  1.1149 -1.7830  1.3592
  793TIP3    H2 2344   4.546   1.188   0.983 -2.2196 -1.2686  1.1379
  794TIP3   OH2 2345   5.661   1.234   3.675 -0.4645 -0.0634  0.2147
  794TIP3    H1 2346   5.656   1.194   3.589 -0.0214 -0.4076  0.3472
  794TIP3    H2 2347   5.622   1.170   3.734 -0.0957 -0.1445  0.3739
  795TIP3   OH2 2348   4.359   4.526   4.785 -0.0540 -0.6640  0.5787
  795TIP3    H1 2349   4.317   4.563   4.862  1.1893  0.0029  0.9541
  795TIP3    H2 2350   4.451   4.552   4.792  0.0521 -0.4063 -1.2271
  796TIP3   OH2 2351   2.271   6.156   0.952 -0.2575  0.1689  0.2428
  796TIP3    H1 2352   2.313   6.229   0.908 -0.4875  1.4941  2.1087
  796TIP3    H2 2353   2.192   6.140   0.901  0.4529  0.3298 -0.9465
  797TIP3   OH2 2354   0.950   5.712   1.631 -0.0339  0.6197 -0.5385
  797TIP3    H1 2355   1.013   5.759   1.686  0.3199  0.5144 -0.8412
  797TIP3    H2 2356   0.956   5.755   1.546 -0.5816  0.7868 -0.4930
  798TIP3   OH2 2357   1.337   4.755   0.216  0.1241 -0.2603 -0.6795
  798TIP3    H1 2358   1.328   4.672   0.169  1.2390 -1.4981  1.1862
  798TIP3    H2 2359   1.405   4.739   0.281 -0.1350  1.9147  0.2101
  799TIP3   OH2 2360   4.773   6.457   4.511  0.5720 -0.1446 -0.6315
  799TIP3    H1 2361   4.693   6.494   4.474  0.7927  0.6353 -0.3453
  799TIP3    H2 2362   4.745   6.421   4.595  0.2641 -1.0616 -1.1140
  800TIP3   OH2 2363   3.775   3.525   5.498 -0.2200 -0.3118 -0.4176
  800TIP3    H1 2364   3.685   3.492   5.492 -0.3226  0.1414 -1.8771
  800TIP3    H2 2365   3.800   3.541   5.407  0.7328  1.1839  0.0738
  801TIP3   OH2 2366   2.057   3.148   2.418  0.5259 -0.6890  0.1393
  801TIP3    H1 2367   2.036   3.093   2.493 -0.9210 -0.4448 -0.0658
  801TIP3    H2 2368   2.130   3.102   2.375 -0.0149 -1.9381  0.5066
  802TIP3   OH2 2369   2.234   4.876   0.186 -0.1009  0.3191 -0.4374
  802TIP3    H1 2370   2.141   4.891   0.200  0.2834  3.6741 -0.6220
  802TIP3    H2 2371   2.275   4.962   0.201  3.0519 -1.1455  0.2520
  803TIP3   OH2 2372   6.507   0.572   5.502 -0.1800  0.4220 -0.2053
  803TIP3    H1 2373   6.573   0.554   5.570 -1.9517 -1.8376  1.0609
  803TIP3    H2 2374   6.426   0.585   5.551 -1.2043  0.3665 -1.8303
  804TIP3   OH2 2375   4.047   0.315   1.879  0.1973  0.1964 -0.3061
  804TIP3    H1 2376   3.994   0.332   1.957  1.4139 -0.1979  0.6299
  804TIP3    H2 2377   4.049   0.399   1.833 -0.4164  0.4691  0.1504
  805TIP3   OH2 2378   2.590   4.904   2.153  0.0739  0.6096 -0.2827
  805TIP3    H1 2379   2.575   4.948   2.069 -2.0836 -0.4466 -0.5218
  805TIP3    H2 2380   2.628   4.972   2.209  1.6594  1.3108 -2.1201
  806TIP3   OH2 2381   4.524   2.447   1.409 -0.5864 -0.1280 -0.1841
  806TIP3    H1 2382   4.588   2.480   1.346 -2.1832  0.4431 -1.5895
  806TIP3    H2 2383   4.576   2.394   1.470  1.1501 -0.0446 -1.4921
  807TIP3   OH2 2384   6.513   1.097   0.674  0.0586 -0.1686 -0.3236
  807TIP3    H1 2385   6.469   1.160   0.731 -0.3359 -0.2676 -0.5104
  807TIP3    H2 2386   6.565   1.151   0.614  1.6253 -0.1082  1.0176
  808TIP3   OH2 2387   7.031   2.656   1.004 -0.0332  0.6150  0.6418
  808TIP3    H1 2388   7.100   2.670   1.068  1.8167 -2.4010 -0.4719
  808TIP3    H2 2389   7.070   2.679   0.920 -0.9939  0.5805  0.1674
  809TIP3   OH2 2390   6.033   1.078   3.599  0.1216 -0.4443  0.4670
  809TIP3    H1 2391   5.986   1.158   3.577  1.1030 -0.1882 -0.8212
  809TIP3    H2 2392   5.966   1.010   3.597 -0.4316  0.1029 -0.0860
  810TIP3   OH2 2393   6.635   4.402   3.177  0.2922  0.2954  0.0012
  810TIP3    H1 2394   6.701   4.387   3.109  0.0828 -1.9353  0.2199
  810TIP3    H2 2395   6.679   4.378   3.259  0.2581  2.0995  0.5941
  811TIP3   OH2 2396   1.128   3.918   5.871 -0.4225  0.0761  0.0626
  811TIP3    H1 2397   1.206   3.931   5.816 -0.4907  0.3081  0.0202
  811TIP3    H2 2398   1.159   3.934   5.960  0.0986 -1.9615  0.2945
  812TIP3   OH2 2399   6.565   1.065   4.494  0.1043 -0.0837 -0.2717
  812TIP3    H1 2400   6.637   1.022   4.541 -0.7763 -0.7059  0.5529
  812TIP3    H2 2401   6.599   1.082   4.407  1.9967  1.5834  0.7079
  813TIP3   OH2 2402   2.296   6.439   4.119  0.5872 -0.5394  0.0118
  813TIP3    H1 2403   2.377   6.412   4.075  1.6397  1.0725  0.8391
  813TIP3    H2 2404   2.321   6.450   4.211  0.0345  2.0729 -0.0646
  814TIP3   OH2 2405   2.513   4.783   0.183 -0.0361  0.0859 -0.0037
  814TIP3    H1 2406   2.502   4.696   0.221 -0.0869 -0.0069 -0.2325
  814TIP3    H2 2407   2.432   4.829   0.205 -0.4067 -0.2263 -0.6900
  815TIP3   OH2 2408   5.564   6.010   2.204 -0.2058 -0.3506 -0.4420
  815TIP3    H1 2409   5.534   5.920   2.191 -2.8072  0.4452 -0.6205
  815TIP3    H2 2410   5.656   6.002   2.229 -0.1469 -2.9898 -1.2127
  816TIP3   OH2 2411   0.271   0.639   3.310  0.3615 -0.3291 -0.4057
  816TIP3    H1 2412   0.362   0.665   3.326  0.6802 -2.2231  1.2561
  816TIP3    H2 2413   0.272   0.544   3.316 -1.9570 -0.3246  0.9609
  817TIP3   OH2 2414   3.873   5.518   0.977  0.1277  0.3589  0.3632
  817TIP3    H1 2415   3.886   5.438   0.925 -1.7023  0.7162 -0.7275
  817TIP3    H2 2416   3.849   5.585   0.913 -3.3283  0.5527  1.6522
  818TIP3   OH2 2417   5.205   2.946   4.597  0.0150 -0.3298  0.0933
  818TIP3    H1 2418   5.223   2.856   4.570  0.8592 -0.7270  1.8612
  818TIP3    H2 2419   5.290   2.989   4.600 -0.4086  0.6556 -1.0356
  819TIP3   OH2 2420   4.844   0.857   2.531  0.1629 -0.3103 -0.4775
  819TIP3    H1 2421   4.783   0.914   2.578  0.5035 -0.1733 -0.2065
  819TIP3    H2 2422   4.921   0.851   2.587 -0.1786 -1.6798 -0.1129
  820TIP3   OH2 2423   3.997   2.665   4.245  0.3922 -0.7119 -0.4458
  820TIP3    H1 2424   4.039   2.752   4.243  0.4491 -0.4647  3.3776
  820TIP3    H2 2425   3.908   2.681   4.215  1.1482  0.0355 -2.4961
  821TIP3   OH2 2426   5.022   1.256   4.664  0.3387 -0.6363 -0.0938
  821TIP3    H1 2427   4.996   1.168   4.691 -0.5690 -0.5046 -0.4883
  821TIP3    H2 2428   4.999   1.260   4.571  0.2175  0.0700 -0.0377
  822TIP3   OH2 2429   4.808   2.890   1.471  0.0515  0.4136 -0.6172
  822TIP3    H1 2430   4.860   2.818   1.507  0.6911  0.5764 -1.2000
  822TIP3    H2 2431   4.811   2.958   1.539  0.1785  0.2276 -0.4347
  823TIP3   OH2 2432   6.250   4.358   0.718  0.1889 -0.1837 -0.2017
  823TIP3    H1 2433   6.176   4.403   0.678  1.0109  0.7182 -0.7416
  823TIP3    H2 2434   6.278   4.416   0.789 -0.8227 -1.4423  1.3117
  824TIP3   OH2 2435   2.475   2.145   3.409 -0.1545 -0.2094  0.0909
  824TIP3    H1 2436   2.442   2.074   3.354  0.6746 -1.3818  1.0472
  824TIP3    H2 2437   2.515   2.101   3.483  1.5486  1.2290  0.0818
  825TIP3   OH2 2438   5.358   3.400   2.473  0.2743 -0.1885  0.2547
  825TIP3    H1 2439   5.298   3.447   2.530 -1.8012 -0.7414 -1.3211
  825TIP3    H2 2440   5.436   3.454   2.470 -0.8941  1.6208  0.8325
  826TIP3   OH2 2441   5.177   2.515   1.223 -0.0174  0.3787  0.2709
  826TIP3    H1 2442   5.231   2.524   1.145 -1.5094 -1.2161 -1.0218
  826TIP3    H2 2443   5.238   2.488   1.291  1.2003  1.1251 -0.4820
  827TIP3   OH2 2444   0.088   4.843   3.961  0.3772 -0.3666 -0.3790
  827TIP3    H1 2445   0.131   4.768   4.002  0.5678 -0.9130 -1.5423
  827TIP3    H2 2446   0.005   4.851   4.008  0.7780 -0.7031  0.3991
  828TIP3   OH2 2447   1.550   0.513   2.096 -0.9678 -0.6783 -0.0558
  828TIP3    H1 2448   1.455   0.506   2.089 -0.9830 -1.7980  0.9232
  828TIP3    H2 2449   1.566   0.533   2.189 -0.2882  0.4192 -0.4003
  829TIP3   OH2 2450   6.547   0.102   5.756 -0.0667 -0.6853 -0.4151
  829TIP3    H1 2451   6.544   0.068   5.846 -0.2080  0.7020  0.1344
  829TIP3    H2 2452   6.478   0.168   5.754  1.1059  0.5607 -0.9947
  830TIP3   OH2 2453   6.709   4.872   0.038 -0.2169 -0.1402 -0.5340
  830TIP3    H1 2454   6.662   4.837  -0.037  0.6939 -2.3762 -0.1518
  830TIP3    H2 2455   6.642   4.886   0.105 -0.7906  0.1797 -1.1631
  831TIP3   OH2 2456   3.871   1.939   0.288 -0.6911  0.0340  0.0573
  831TIP3    H1 2457   3.825   1.938   0.204  0.6968 -1.3328 -0.7399
  831TIP3    H2 2458   3.962   1.920   0.266 -0.3254 -0.5719  1.8955
  832TIP3   OH2 2459   3.967   4.504   1.274 -0.2180 -0.6376 -0.3724
  832TIP3    H1 2460   3.877   4.499   1.307  0.2385 -2.2144  0.7424
  832TIP3    H2 2461   4.021   4.500   1.353  0.8477  0.1218 -1.0487
  833TIP3   OH2 2462   6.964   0.883   5.496 -0.0317 -0.3779 -0.5446
  833TIP3    H1 2463   6.893   0.828   5.463 -0.4023 -0.1203 -0.1845
  833TIP3    H2 2464   6.963   0.960   5.439  1.0359 -1.0961 -1.5958
  834TIP3   OH2 2465   3.012   4.768   2.035  0.0746  0.0119  0.0381
  834TIP3    H1 2466   2.949   4.838   2.015  0.0253  0.1290  0.6003
  834TIP3    H2 2467   2.989   4.698   1.974 -1.0468 -0.2144  0.6918
  835TIP3   OH2 2468   4.641   2.909   1.895  0.8811  0.2359  0.0489
  835TIP3    H1 2469   4.707   2.841   1.881  0.8246  0.2749 -0.4316
  835TIP3    H2 2470   4.681   2.970   1.957  1.0389 -0.0892  0.2688
  836TIP3   OH2 2471   4.933   6.625   1.312 -0.0781  0.0215 -0.3373
  836TIP3    H1 2472   4.972   6.675   1.384 -0.5483 -0.6217  0.3686
  836TIP3    H2 2473   4.901   6.545   1.352  0.6061 -0.8358 -1.4474
  837TIP3   OH2 2474   3.566   5.854   5.891  0.4184  0.7759  0.4428
  837TIP3    H1 2475   3.530   5.885   5.808  0.9209 -0.0774 -0.1064
  837TIP3    H2 2476   3.549   5.760   5.891  1.6072  0.5391  0.6859
  838TIP3   OH2 2477   1.973   6.800   2.669  0.0905  0.9376 -0.1476
  838TIP3    H1 2478   1.980   6.772   2.760 -1.4456  0.8928 -0.0050
  838TIP3    H2 2479   2.063   6.801   2.636  0.6222  0.5442  1.2408
  839TIP3   OH2 2480   0.449   1.522   0.958 -0.0590 -0.3235 -0.4741
  839TIP3    H1 2481   0.475   1.580   0.887 -0.9584 -0.5473 -0.9955
  839TIP3    H2 2482   0.353   1.518   0.953  0.0262 -3.6376 -1.9344
  840TIP3   OH2 2483   1.134   4.880   2.376  0.0518  0.0732 -0.0068
  840TIP3    H1 2484   1.186   4.862   2.298  0.1967  0.9436 -0.1219
  840TIP3    H2 2485   1.044   4.866   2.348  0.0672  0.8083 -0.4743
  841TIP3   OH2 2486   3.604   1.196   3.752 -0.3543  0.2188 -0.3633
  841TIP3    H1 2487   3.610   1.289   3.728 -0.5697  0.0624 -1.0369
  841TIP3    H2 2488   3.512   1.184   3.775 -0.1594  0.3583  0.5427
  842TIP3   OH2 2489   1.304   1.866   2.504  0.1369 -0.5679  0.3383
  842TIP3    H1 2490   1.303   1.962   2.502  0.7454 -0.5469  0.5485
  842TIP3    H2 2491   1.251   1.839   2.429 -0.7411 -0.0761  0.7744
  843TIP3   OH2 2492   1.060   1.924   4.533 -0.0474  0.0040  0.0732
  843TIP3    H1 2493   1.014   1.946   4.614  0.9221  0.8982  0.3933
  843TIP3    H2 2494   1.148   1.961   4.544  0.5353 -1.0582 -0.8208
  844TIP3   OH2 2495   4.952   4.216   2.709  0.3465 -0.0371 -0.0126
  844TIP3    H1 2496   4.958   4.149   2.777  2.6448 -1.2526 -1.2955
  844TIP3    H2 2497   4.930   4.167   2.629 -0.2663  1.0738 -0.5458
  845TIP3   OH2 2498   6.859   5.935   4.567  0.1804 -0.1745  0.1462
  845TIP3    H1 2499   6.830   5.905   4.481 -1.3181  1.3299  0.0796
  845TIP3    H2 2500   6.806   5.884   4.629  1.0786 -1.0729  0.2100
  846TIP3   OH2 2501   3.943   0.346   2.853  0.0908 -0.6520  0.0800
  846TIP3    H1 2502   4.037   0.366   2.857  0.1663 -0.8019 -0.7345
  846TIP3    H2 2503   3.906   0.417   2.799 -0.7539  1.0551  2.7193
  847TIP3   OH2 2504   1.616   2.735   5.519 -0.3085  1.1015  0.1526
  847TIP3    H1 2505   1.700   2.781   5.512  0.0130  0.5597  0.3583
  847TIP3    H2 2506   1.626   2.658   5.463 -0.5389  0.8515  0.4516
  848TIP3   OH2 2507   3.019   5.380   3.248  0.1103 -0.4706  0.1291
  848TIP3    H1 2508   3.043   5.294   3.282 -1.8266 -2.3408 -2.8048
  848TIP3    H2 2509   3.054   5.381   3.159  0.4470  1.9953  0.2254
  849TIP3   OH2 2510   1.854   5.519   0.575 -0.1961 -0.5100  0.0922
  849TIP3    H1 2511   1.770   5.478   0.596 -0.4069 -0.2951 -0.3164
  849TIP3    H2 2512   1.917   5.447   0.580 -0.3170 -0.5691  0.9261
  850TIP3   OH2 2513   0.597   4.298   2.239  0.9726 -0.6820  0.0754
  850TIP3    H1 2514   0.523   4.239   2.243  0.4508 -0.0988 -0.6763
  850TIP3    H2 2515   0.662   4.252   2.187  0.1682 -0.1980 -1.4101
  851TIP3   OH2 2516   5.100   1.976   3.718  0.3992  0.1282  0.9981
  851TIP3    H1 2517   5.187   1.940   3.698 -0.1201 -0.5423 -0.1420
  851TIP3    H2 2518   5.039   1.909   3.688 -0.5847  1.5515 -0.3468
  852TIP3   OH2 2519   3.063   0.363   5.708 -0.1174 -0.0603  0.6053
  852TIP3    H1 2520   2.980   0.405   5.731 -0.1323  1.9444 -2.5387
  852TIP3    H2 2521   3.040   0.303   5.637  0.5765 -2.6417  2.4166
  853TIP3   OH2 2522   2.707   5.715   1.932  0.3573 -0.1384 -0.0762
  853TIP3    H1 2523   2.724   5.659   1.857  1.5139  0.3031 -0.1609
  853TIP3    H2 2524   2.788   5.711   1.983  1.2338  2.9490 -1.0515
  854TIP3   OH2 2525   5.460   4.717   4.003  0.1842  0.1866  0.2294
  854TIP3    H1 2526   5.409   4.639   4.024  0.2541  0.4492  1.4676
  854TIP3    H2 2527   5.405   4.790   4.032 -0.1159  0.6457 -1.4155
  855TIP3   OH2 2528   2.498   1.352   0.584  0.1372  0.0046  0.2904
  855TIP3    H1 2529   2.405   1.331   0.589 -0.0939  0.9695  0.2858
  855TIP3    H2 2530   2.500   1.441   0.550  1.0471  0.1826  0.7941
  856TIP3   OH2 2531   7.113   5.820   2.108 -0.0616 -0.3312  0.5522
  856TIP3    H1 2532   7.166   5.785   2.037  1.5266  0.4527  1.2780
  856TIP3    H2 2533   7.104   5.913   2.088 -0.0521 -0.2040  1.0999
  857TIP3   OH2 2534   5.014   5.846   4.181  0.2982  0.6582 -0.2986
  857TIP3    H1 2535   5.066   5.834   4.260 -0.2804  1.0075  0.1376
  857TIP3    H2 2536   5.062   5.799   4.113  0.5509 -0.0505  0.3644
  858TIP3   OH2 2537   6.742   1.434   3.918 -0.1595  0.3601  0.2392
  858TIP3    H1 2538   6.716   1.396   3.835  0.4930  1.1565 -0.3442
  858TIP3    H2 2539   6.704   1.522   3.918 -0.7304  0.1341  1.0914
  859TIP3   OH2 2540   3.821   2.186   4.972 -0.2336  0.4260  0.0702
  859TIP3    H1 2541   3.812   2.205   5.066 -0.7900 -0.6202  0.2493
  859TIP3    H2 2542   3.901   2.134   4.966 -0.0422  0.7360 -0.0787
  860TIP3   OH2 2543   2.911   3.318   0.108 -0.0764  0.3827 -0.2439
  860TIP3    H1 2544   2.984   3.257   0.098 -1.2417 -1.0911 -0.0680
  860TIP3    H2 2545   2.915   3.346   0.200  0.9446  1.2365 -0.5321
  861TIP3   OH2 2546   7.104   2.028   0.062 -0.1272  0.0706 -0.0987
  861TIP3    H1 2547   7.044   2.061  -0.005 -0.8146 -1.1762 -0.1347
  861TIP3    H2 2548   7.138   1.945   0.026 -0.6056 -0.6881  1.1172
  862TIP3   OH2 2549   6.833   0.728   3.094  0.0417 -0.2034  0.3359
  862TIP3    H1 2550   6.902   0.691   3.149  0.2709  0.4219  0.4865
  862TIP3    H2 2551   6.859   0.820   3.084 -0.5413 -0.0725  0.0307
  863TIP3   OH2 2552   4.503   0.911   0.634 -0.0796 -0.7495 -0.2256
  863TIP3    H1 2553   4.537   0.857   0.706  2.3204 -1.0841 -1.5181
  863TIP3    H2 2554   4.462   0.848   0.575  1.2844 -0.9847 -0.9457
  864TIP3   OH2 2555   3.308   2.013   0.189  0.3411 -0.3173  0.5278
  864TIP3    H1 2556   3.231   2.004   0.245  0.3907 -0.4596  0.5753
  864TIP3    H2 2557   3.382   2.009   0.250  0.3546  1.1388  0.6364
  865TIP3   OH2 2558   1.124   1.064   5.107  0.0344  0.5007  0.0989
  865TIP3    H1 2559   1.029   1.050   5.110 -0.2307  1.8204 -1.1498
  865TIP3    H2 2560   1.135   1.159   5.104  1.2145  0.3959 -2.8444
  866TIP3   OH2 2561   5.085   2.186   2.443  0.3910 -0.4910 -0.0876
  866TIP3    H1 2562   5.173   2.214   2.469  0.4985 -1.6280  0.8603
  866TIP3    H2 2563   5.099   2.119   2.376  0.1434  1.3379 -2.0849
  867TIP3   OH2 2564   0.522   1.034   5.034 -0.0702  0.5107 -0.3838
  867TIP3    H1 2565   0.587   1.008   5.099 -0.7926 -0.3742  0.0016
  867TIP3    H2 2566   0.560   1.008   4.950  0.2064  0.2621 -0.1822
  868TIP3   OH2 2567   0.266   2.789   2.606  0.0198  0.1144 -0.2867
  868TIP3    H1 2568   0.199   2.736   2.562  0.7829  0.6279 -2.1859
  868TIP3    H2 2569   0.277   2.748   2.692 -2.0342 -0.5482 -0.2741
  869TIP3   OH2 2570   2.451   1.018   4.272  0.1867  0.0953  0.1295
  869TIP3    H1 2571   2.386   0.987   4.209 -0.0549 -2.0204  1.2890
  869TIP3    H2 2572   2.408   1.008   4.357  0.9756  1.5628  0.7318
  870TIP3   OH2 2573   7.099   2.594   2.766  0.0855 -0.1424 -0.1808
  870TIP3    H1 2574   7.074   2.633   2.849  0.3561 -1.1038  0.3736
  870TIP3    H2 2575   7.081   2.661   2.701  1.7794  1.4136  0.8484
  871TIP3   OH2 2576   0.239   1.412   3.352  0.6895 -0.3989 -0.4481
  871TIP3    H1 2577   0.208   1.499   3.378 -0.5613 -1.0154  0.2050
  871TIP3    H2 2578   0.159   1.361   3.339  1.3982 -1.3783 -1.1295
  872TIP3   OH2 2579   4.923   5.362   1.298  0.2087 -0.4764 -0.8990
  872TIP3    H1 2580   4.859   5.291   1.304  0.1218 -0.5517 -2.2727
  872TIP3    H2 2581   4.902   5.419   1.371 -1.3555 -0.5713 -1.2314
  873TIP3   OH2 2582   6.996   5.151   3.276  0.4438  0.1232  0.1381
  873TIP3    H1 2583   6.924   5.140   3.213  0.6744  0.7877 -0.2618
  873TIP3    H2 2584   7.007   5.065   3.316 -0.1529 -0.1439 -0.2581
  874TIP3   OH2 2585   3.616   1.806   1.195  0.0454 -0.3046 -0.0247
  874TIP3    H1 2586   3.702   1.807   1.154  1.6626 -0.0638  3.0593
  874TIP3    H2 2587   3.587   1.897   1.191  1.4756  0.2956  1.6604
  875TIP3   OH2 2588   6.743   6.337   5.640 -0.0682 -0.3357  0.3554
  875TIP3    H1 2589   6.797   6.259   5.653  0.1847 -0.2087  0.0534
  875TIP3    H2 2590   6.784   6.404   5.694 -0.9230 -0.7021  1.4986
  876TIP3   OH2 2591   1.482   0.850   4.134 -0.1283 -0.5817 -0.3518
  876TIP3    H1 2592   1.493   0.779   4.071 -0.2580  0.0338 -1.0874
  876TIP3    H2 2593   1.422   0.911   4.091 -0.6514 -0.4122  0.6039
  877TIP3   OH2 2594   0.748   6.212   0.111  0.7600  0.0272 -0.4143
  877TIP3    H1 2595   0.782   6.301   0.101  0.0174  0.1132 -2.8701
  877TIP3    H2 2596   0.799   6.159   0.049  0.0581 -0.8940 -0.2294
  878TIP3   OH2 2597   5.372   3.440   1.985  0.6620  0.4838 -0.0480
  878TIP3    H1 2598   5.432   3.425   1.911  0.7460  3.5139 -0.7218
  878TIP3    H2 2599   5.295   3.388   1.964  2.6472 -3.0026  0.5086
  879TIP3   OH2 2600   3.592   6.002   1.388  0.4622 -0.1691 -0.0579
  879TIP3    H1 2601   3.632   5.915   1.394  1.8712  0.4259 -0.5108
  879TIP3    H2 2602   3.517   5.998   1.447  0.9844 -1.4422  0.5488
  880TIP3   OH2 2603   6.502   6.724   3.222  0.1438 -0.0794 -0.1118
  880TIP3    H1 2604   6.519   6.782   3.297 -1.6991  0.0520  0.2582
  880TIP3    H2 2605   6.503   6.782   3.146 -1.2153  0.3922  0.2037
  881TIP3   OH2 2606   2.441   1.607   0.501  0.0684  0.0789 -0.0168
  881TIP3    H1 2607   2.358   1.649   0.524 -0.2517 -0.7399  0.3685
  881TIP3    H2 2608   2.451   1.624   0.408  1.1994  3.1547  0.5575
  882TIP3   OH2 2609   4.874   6.529   0.502  0.1624 -0.0642  0.2930
  882TIP3    H1 2610   4.894   6.484   0.420  1.1805  0.7220  0.0887
  882TIP3    H2 2611   4.786   6.498   0.525  0.1302 -0.8077 -0.7373
  883TIP3   OH2 2612   6.612   4.735   4.647 -0.2729 -0.1802 -0.2802
  883TIP3    H1 2613   6.617   4.825   4.679 -0.0227  0.2775 -1.5487
  883TIP3    H2 2614   6.700   4.716   4.614 -0.2040 -1.0542  0.3571
  884TIP3   OH2 2615   4.480   6.583   4.485  0.2975 -0.4756 -0.5592
  884TIP3    H1 2616   4.454   6.661   4.436  0.4319 -1.5273 -2.3915
  884TIP3    H2 2617   4.406   6.523   4.477  1.2365 -1.5489 -1.4763
  885TIP3   OH2 2618   4.255   2.504   4.049 -0.0761 -0.3362  0.4175
  885TIP3    H1 2619   4.261   2.418   4.091 -2.2898 -1.0445 -0.5639
  885TIP3    H2 2620   4.255   2.567   4.121  1.2558 -1.1325  1.1692
  886TIP3   OH2 2621   6.652   1.554   1.003  0.0089 -0.7270 -0.2557
  886TIP3    H1 2622   6.660   1.475   0.949  2.4530  0.5304 -1.9709
  886TIP3    H2 2623   6.693   1.622   0.950 -1.9024  1.7095  1.2041
  887TIP3   OH2 2624   2.220   2.054   2.347  0.1925 -0.1272  0.2770
  887TIP3    H1 2625   2.167   2.030   2.422 -0.0056  0.3008  0.2777
  887TIP3    H2 2626   2.242   2.146   2.361  1.0665 -0.3411  0.3546
  888TIP3   OH2 2627   4.646   3.227   4.099 -0.0364 -0.6293  0.8096
  888TIP3    H1 2628   4.631   3.278   4.179  0.1091 -0.6170  0.8290
  888TIP3    H2 2629   4.612   3.282   4.029 -1.4640 -1.2328  0.9969
  889TIP3   OH2 2630   4.487   5.141   5.195  0.2901  0.5462  0.0434
  889TIP3    H1 2631   4.543   5.079   5.241 -2.0224 -1.7719 -0.0026
  889TIP3    H2 2632   4.474   5.102   5.108 -3.1743 -0.3696  0.8036
  890TIP3   OH2 2633   5.380   2.000   1.000 -0.1286  0.9994  0.7617
  890TIP3    H1 2634   5.412   1.910   1.003  1.4181  1.5096  0.4169
  890TIP3    H2 2635   5.318   2.005   1.072 -0.9418 -0.5795  0.2311
  891TIP3   OH2 2636   1.061   3.394   1.938  0.4488 -0.1903  0.3230
  891TIP3    H1 2637   1.011   3.469   1.968  0.8611  0.9777 -1.7387
  891TIP3    H2 2638   1.000   3.344   1.885  0.9712  0.3526 -0.8251
  892TIP3   OH2 2639   0.287   1.382   1.615  0.1582 -0.0909 -0.0171
  892TIP3    H1 2640   0.227   1.322   1.572  0.6437 -0.6083  0.0060
  892TIP3    H2 2641   0.361   1.391   1.554 -0.3014  1.1956 -0.4200
  893TIP3   OH2 2642   0.373   5.187   4.147 -0.2842  0.1014 -0.2377
  893TIP3    H1 2643   0.406   5.098   4.135 -0.3260  0.0762 -0.1673
  893TIP3    H2 2644   0.391   5.207   4.239 -2.3820 -0.7149  0.4064
  894TIP3   OH2 2645   2.707   4.398   1.114 -0.3480 -0.6014 -0.0829
  894TIP3    H1 2646   2.707   4.491   1.139  0.0368 -0.3230 -1.0617
  894TIP3    H2 2647   2.788   4.387   1.065 -1.2023 -1.0284 -1.4665
  895TIP3   OH2 2648   5.133   3.825   4.354 -0.1987  0.4067  0.5582
  895TIP3    H1 2649   5.159   3.848   4.444 -2.0909 -1.0837  1.5616
  895TIP3    H2 2650   5.057   3.880   4.337 -2.0710 -1.8009  1.3244
  896TIP3   OH2 2651   5.765   0.463   2.189 -0.0045  0.1243 -0.8674
  896TIP3    H1 2652   5.796   0.546   2.152 -1.4861  1.6961  1.2126
  896TIP3    H2 2653   5.845   0.415   2.209  0.8821  0.4816 -3.2036
  897TIP3   OH2 2654   0.868   3.033   5.381  0.0592  0.3705  0.9434
  897TIP3    H1 2655   0.849   2.987   5.299 -0.6817 -0.2493  1.4514
  897TIP3    H2 2656   0.784   3.035   5.427  0.2285  1.6473  1.2297
  898TIP3   OH2 2657   1.453   3.267   0.230  0.1063  0.8644  0.6745
  898TIP3    H1 2658   1.457   3.355   0.192 -0.5377 -0.0996 -1.8472
  898TIP3    H2 2659   1.539   3.229   0.210 -0.3275  0.2595 -0.1112
  899TIP3   OH2 2660   6.147   2.959   1.638  0.1387  0.6559 -0.2166
  899TIP3    H1 2661   6.164   3.054   1.633  1.5658  0.4727  0.5434
  899TIP3    H2 2662   6.157   2.928   1.548 -1.4810  1.3698 -0.6836
  900TIP3   OH2 2663   4.515   0.671   5.358 -0.0565 -0.0132 -0.4393
  900TIP3    H1 2664   4.455   0.658   5.285  0.5831 -0.5269 -0.8814
  900TIP3    H2 2665   4.516   0.586   5.404  0.4979 -0.0840 -0.5714
  901TIP3   OH2 2666   5.822   4.424   0.852 -0.9598 -0.5083  0.7903
  901TIP3    H1 2667   5.887   4.360   0.826 -0.1789  0.0151  1.3967
  901TIP3    H2 2668   5.751   4.373   0.890 -2.2764 -1.3323 -2.4482
  902TIP3   OH2 2669   4.883   6.452   3.201  0.5124 -0.2493  0.2194
  902TIP3    H1 2670   4.957   6.441   3.261  0.3075  1.2952  0.7828
  902TIP3    H2 2671   4.922   6.437   3.114  1.2576 -0.4454  0.5725
  903TIP3   OH2 2672   6.758   6.511   0.653  0.9284  0.5796  0.3510
  903TIP3    H1 2673   6.747   6.527   0.747  0.2219  1.9363  0.0569
  903TIP3    H2 2674   6.853   6.509   0.641  1.0581  2.2154  0.8315
  904TIP3   OH2 2675   4.771   4.797   0.062  0.0742 -0.0749  0.5900
  904TIP3    H1 2676   4.861   4.764   0.070 -0.5043 -1.3216  2.9049
  904TIP3    H2 2677   4.771   4.849  -0.019  2.2282 -2.0542 -0.7987
  905TIP3   OH2 2678   4.056   4.246   0.037  0.5114  0.1710 -0.0927
  905TIP3    H1 2679   4.096   4.265  -0.048 -1.1367 -0.4039 -1.0410
  905TIP3    H2 2680   3.999   4.172   0.020 -0.2531  0.3889  1.4131
  906TIP3   OH2 2681   1.278   3.498   1.410 -0.1347  0.0639 -0.1345
  906TIP3    H1 2682   1.219   3.515   1.483  1.4188 -0.0890  1.2225
  906TIP3    H2 2683   1.300   3.585   1.376 -0.6170  0.1552 -0.2133
  907TIP3   OH2 2684   0.848   2.798   5.186 -0.0166 -0.4506  0.5967
  907TIP3    H1 2685   0.929   2.761   5.151 -0.8118 -1.9076  0.2340
  907TIP3    H2 2686   0.843   2.765   5.276 -0.3111 -0.5172  0.5570
  908TIP3   OH2 2687   2.882   6.615   0.464  0.4700  0.0633  0.3660
  908TIP3    H1 2688   2.896   6.646   0.553  0.3281 -1.1960  0.8340
  908TIP3    H2 2689   2.967   6.628   0.421  0.2227  1.7678  0.3142
  909TIP3   OH2 2690   1.054   1.301   2.696  0.0118 -0.2052  0.3967
  909TIP3    H1 2691   1.094   1.361   2.758 -0.8041 -0.4342  1.1535
  909TIP3    H2 2692   1.071   1.340   2.610  2.0140 -0.3809  0.6513
  910TIP3   OH2 2693   3.831   1.790   2.155  0.1306 -0.2324  0.0897
  910TIP3    H1 2694   3.737   1.774   2.160  0.3149 -1.5260 -0.1811
  910TIP3    H2 2695   3.845   1.823   2.066 -0.0197 -0.3681  0.0156
  911TIP3   OH2 2696   1.207   3.175   3.191 -0.8549 -0.1922 -0.6582
  911TIP3    H1 2697   1.116   3.180   3.161 -0.0890  1.2874 -3.0728
  911TIP3    H2 2698   1.212   3.240   3.262 -1.2935  1.1455 -1.7990
  912TIP3   OH2 2699   5.763   2.103   5.467  0.2334 -0.0024 -0.1504
  912TIP3    H1 2700   5.774   2.016   5.504  1.0784  0.9468  2.0104
  912TIP3    H2 2701   5.851   2.142   5.470 -0.3411  1.3457  0.1010
  913TIP3   OH2 2702   5.031   0.311   1.804 -0.2151 -0.3630  0.0413
  913TIP3    H1 2703   4.976   0.352   1.872 -0.6668  0.1142 -0.6007
  913TIP3    H2 2704   5.038   0.378   1.736  1.9283 -0.0760  0.4929
  914TIP3   OH2 2705   4.240   5.238   2.444 -0.1651  0.6320  0.2067
  914TIP3    H1 2706   4.313   5.176   2.455  0.1664  1.2068  1.3993
  914TIP3    H2 2707   4.165   5.195   2.485 -0.5651 -0.0286 -1.1611
  915TIP3   OH2 2708   2.182   4.288   4.746 -0.1827  0.3650  0.3098
  915TIP3    H1 2709   2.268   4.329   4.739 -0.7673  1.6129  0.2217
  915TIP3    H2 2710   2.201   4.197   4.769  1.2262  0.0484 -1.8490
  916TIP3   OH2 2711   0.197   6.383   3.945  0.0771  0.1213  0.7630
  916TIP3    H1 2712   0.146   6.442   3.999  0.7054  1.5064 -0.0879
  916TIP3    H2 2713   0.194   6.422   3.857  0.1361 -1.3637  0.0682
  917TIP3   OH2 2714   4.656   2.222   3.237 -0.3193  0.4743  0.2173
  917TIP3    H1 2715   4.620   2.134   3.246 -3.1559  1.4825 -0.1808
  917TIP3    H2 2716   4.708   2.219   3.157 -2.7706 -0.2392 -1.4832
  918TIP3   OH2 2717   1.822   1.455   5.573  0.6539 -0.6226  0.4213
  918TIP3    H1 2718   1.884   1.381   5.567  0.2286 -0.9623  0.1574
  918TIP3    H2 2719   1.855   1.518   5.509 -0.2937 -1.5864 -1.0986
  919TIP3   OH2 2720   6.962   2.279   5.672 -0.7264  0.0166  0.1503
  919TIP3    H1 2721   6.980   2.300   5.764  0.5351 -1.1109  0.1894
  919TIP3    H2 2722   6.934   2.363   5.634  0.6381  0.9679  1.1204
  920TIP3   OH2 2723   1.488   6.724   4.995 -0.4820 -0.1123 -0.2029
  920TIP3    H1 2724   1.573   6.764   4.977 -0.0122 -0.5168  1.0159
  920TIP3    H2 2725   1.507   6.631   5.008 -0.9662 -0.0660  0.9713
  921TIP3   OH2 2726   2.316   4.092   4.044  0.1397 -0.2987  0.2601
  921TIP3    H1 2727   2.251   4.033   4.007 -1.1048  0.6963  0.7806
  921TIP3    H2 2728   2.289   4.179   4.014  1.1569  0.1469  0.5955
  922TIP3   OH2 2729   3.878   1.896   4.948  0.0718 -0.0542  0.3546
  922TIP3    H1 2730   3.901   1.866   4.860 -1.6488 -0.2892 -0.0491
  922TIP3    H2 2731   3.902   1.823   5.005 -0.7373 -0.7577 -0.1877
  923TIP3   OH2 2732   1.765   4.954   5.417  0.2667 -0.1563 -0.0366
  923TIP3    H1 2733   1.765   4.988   5.327 -2.6005 -1.2401 -0.5530
  923TIP3    H2 2734   1.857   4.935   5.435  0.8941 -0.5091 -2.9937
  924TIP3   OH2 2735   7.045   6.317   1.286 -0.3165  0.0702  0.5951
  924TIP3    H1 2736   7.090   6.390   1.243 -0.6475 -0.4476 -0.6946
  924TIP3    H2 2737   7.101   6.241   1.271 -0.7467 -0.2386  0.5023
  925TIP3   OH2 2738   4.148   5.610   4.620  0.0017 -0.1448  0.0844
  925TIP3    H1 2739   4.182   5.526   4.652  0.2626 -0.2194 -0.3780
  925TIP3    H2 2740   4.060   5.589   4.589 -0.1283 -0.1394  0.4411
  926TIP3   OH2 2741   2.909   4.354   4.765 -0.5007 -0.3157 -0.1750
  926TIP3    H1 2742   2.976   4.311   4.712 -1.2173  1.2408 -2.4799
  926TIP3    H2 2743   2.837   4.291   4.767 -0.6666 -0.2077 -1.5738
  927TIP3   OH2 2744   2.145   5.849   5.239  0.1665 -0.1465  0.2723
  927TIP3    H1 2745   2.131   5.938   5.272  0.2026  0.7539 -2.0186
  927TIP3    H2 2746   2.068   5.831   5.185  0.6569 -1.1159 -0.1247
  928TIP3   OH2 2747   3.824   2.396   4.787  0.2066 -0.4529  0.1911
  928TIP3    H1 2748   3.826   2.304   4.812 -0.5602 -0.5787 -0.1880
  928TIP3    H2 2749   3.731   2.419   4.788  0.1592 -0.3349 -1.9966
  929TIP3   OH2 2750   7.043   0.626   3.607  0.0400  0.1254 -0.4620
  929TIP3    H1 2751   7.032   0.538   3.571 -2.8672  0.3697 -0.3356
  929TIP3    H2 2752   6.986   0.629   3.683  0.2131  2.0752 -0.3518
  930TIP3   OH2 2753   6.819   4.789   3.916 -0.3366 -0.9758  0.1327
  930TIP3    H1 2754   6.829   4.884   3.908  0.1202 -1.1044 -0.9564
  930TIP3    H2 2755   6.745   4.778   3.976 -2.8305  0.1301 -2.4968
  931TIP3   OH2 2756   1.375   3.910   5.691  0.3316  0.3661 -0.1634
  931TIP3    H1 2757   1.469   3.921   5.677  0.3225 -0.1541 -0.6634
  931TIP3    H2 2758   1.345   3.858   5.616 -0.0024 -1.1645  0.9915
  932TIP3   OH2 2759   5.583   4.700   2.468 -0.2641 -0.2400  0.0287
  932TIP3    H1 2760   5.607   4.611   2.441 -0.8863 -0.3797 -0.0840
  932TIP3    H2 2761   5.495   4.691   2.505  0.5056 -0.0510  2.0567
  933TIP3   OH2 2762   1.551   2.502   4.438 -0.6423 -0.1939  0.7533
  933TIP3    H1 2763   1.528   2.412   4.460  0.7064 -0.6678  0.3569
  933TIP3    H2 2764   1.503   2.520   4.357 -0.8184 -0.5923  0.7669
  934TIP3   OH2 2765   5.148   6.746   3.343  0.0632  0.0453 -0.4351
  934TIP3    H1 2766   5.159   6.665   3.393  1.3834  0.2486 -0.3466
  934TIP3    H2 2767   5.159   6.816   3.407 -0.2515  0.2966 -0.6529
  935TIP3   OH2 2768   3.420   5.701   3.454  0.0704  0.1787 -0.2788
  935TIP3    H1 2769   3.440   5.655   3.535  1.4719 -0.0789 -0.7539
  935TIP3    H2 2770   3.463   5.650   3.385 -1.6453  0.0217 -1.2879
  936TIP3   OH2 2771   1.978   0.717   5.284  0.2369 -0.2574 -0.7317
  936TIP3    H1 2772   2.035   0.669   5.345  3.3926  2.0451 -1.6016
  936TIP3    H2 2773   1.931   0.779   5.339  0.4727 -0.4716 -0.2807
  937TIP3   OH2 2774   0.736   6.389   5.413  0.1100 -0.3519 -0.2051
  937TIP3    H1 2775   0.760   6.478   5.442  0.6879 -1.1416  1.9703
  937TIP3    H2 2776   0.778   6.380   5.327  1.4720  0.9060  0.2680
  938TIP3   OH2 2777   0.417   1.344   1.206 -0.1001  0.3953  0.0023
  938TIP3    H1 2778   0.437   1.421   1.259  1.7574 -0.1951  0.2327
  938TIP3    H2 2779   0.363   1.377   1.135 -0.1845  1.7271  0.6537
  939TIP3   OH2 2780   3.058   0.620   3.209  0.3247  0.4779  0.3533
  939TIP3    H1 2781   3.120   0.561   3.251 -0.2450 -0.5052 -0.1488
  939TIP3    H2 2782   3.083   0.707   3.240  0.5199 -0.1137  1.9640
  940TIP3   OH2 2783   3.568   3.780   0.267 -0.0759  0.3685  0.8918
  940TIP3    H1 2784   3.580   3.754   0.176 -0.3291 -1.0106  1.2320
  940TIP3    H2 2785   3.536   3.701   0.310 -2.4174  1.6781  1.6735
  941TIP3   OH2 2786   2.760   0.727   2.702 -0.2621  0.2861 -0.6574
  941TIP3    H1 2787   2.717   0.746   2.618 -0.5445  2.5267 -0.0719
  941TIP3    H2 2788   2.726   0.794   2.762  2.0779  0.5373  0.5036
  942TIP3   OH2 2789   3.893   1.641   0.295  0.1877  0.0184 -0.1229
  942TIP3    H1 2790   3.827   1.654   0.227 -2.2186  0.5492  2.1685
  942TIP3    H2 2791   3.946   1.720   0.293  0.3967 -0.1398 -1.6076
  943TIP3   OH2 2792   1.298   4.898   3.566 -0.2137  0.1388 -0.2446
  943TIP3    H1 2793   1.324   4.938   3.484  0.6460  1.0531  0.4457
  943TIP3    H2 2794   1.203   4.891   3.561 -0.0999 -0.6959 -1.6848
  944TIP3   OH2 2795   5.058   3.124   1.405 -0.4362  1.3611 -0.2516
  944TIP3    H1 2796   5.086   3.032   1.407  0.6686  1.6857  0.8510
  944TIP3    H2 2797   5.014   3.134   1.321  0.4988  0.1156 -0.9317
  945TIP3   OH2 2798   6.086   1.594   0.489  0.5861  0.1152 -0.3250
  945TIP3    H1 2799   6.124   1.537   0.557  0.9087  0.3734 -0.2859
  945TIP3    H2 2800   6.003   1.623   0.526  1.4029  1.4125  0.5954
  946TIP3   OH2 2801   1.075   5.934   3.830  0.0629  0.5953 -0.1196
  946TIP3    H1 2802   0.984   5.930   3.801  0.0297 -0.8394  0.0876
  946TIP3    H2 2803   1.073   5.987   3.910 -0.7033  0.0624  0.2258
  947TIP3   OH2 2804   6.333   3.519   3.317 -0.5032  0.1178  0.3100
  947TIP3    H1 2805   6.427   3.529   3.333 -0.6501  0.7926  0.7815
  947TIP3    H2 2806   6.295   3.504   3.403 -1.0186  1.4594  0.3430
  948TIP3   OH2 2807   3.773   3.204   0.720  0.2392 -0.6096 -0.1888
  948TIP3    H1 2808   3.779   3.129   0.662  0.9056 -1.3056  0.7398
  948TIP3    H2 2809   3.840   3.265   0.688 -0.5519 -0.2302 -1.1679
  949TIP3   OH2 2810   2.069   6.598   5.794  0.2533  0.6608 -0.4224
  949TIP3    H1 2811   2.114   6.635   5.870  1.1019 -0.3126 -0.4326
  949TIP3    H2 2812   2.005   6.538   5.831  1.6251 -0.8936 -0.4649
  950TIP3   OH2 2813   4.201   0.901   4.531 -0.0466  0.0861  0.2102
  950TIP3    H1 2814   4.215   0.957   4.607 -1.1284 -0.3109  0.7276
  950TIP3    H2 2815   4.282   0.851   4.523  1.5033  2.5709 -1.0537
  951TIP3   OH2 2816   5.332   2.027   3.042 -0.2407  0.4094  0.0069
  951TIP3    H1 2817   5.322   1.933   3.029 -0.3198  0.0874  2.0579
  951TIP3    H2 2818   5.299   2.043   3.130  0.4365  2.2477 -0.0205
  952TIP3   OH2 2819   4.056   2.867   4.791 -0.1662  0.2673 -0.0188
  952TIP3    H1 2820   4.056   2.909   4.877 -0.4323  1.2708 -0.4927
  952TIP3    H2 2821   4.072   2.775   4.809  0.7353  0.6081  1.0319
  953TIP3   OH2 2822   3.081   0.021   0.357 -0.2039 -0.5367 -0.0482
  953TIP3    H1 2823   3.047   0.066   0.434  0.2719  2.2194 -1.3258
  953TIP3    H2 2824   3.144   0.083   0.319 -0.7193 -1.6148 -2.8718
  954TIP3   OH2 2825   3.711   4.823   0.518  0.1653  0.8896  0.3616
  954TIP3    H1 2826   3.684   4.737   0.552 -0.1530  0.0282 -1.8789
  954TIP3    H2 2827   3.723   4.877   0.596  0.8211 -1.3087  1.8768
  955TIP3   OH2 2828   6.597   5.172   4.731  0.1048 -0.4569  0.5135
  955TIP3    H1 2829   6.549   5.110   4.785 -0.3494  1.4501  2.4641
  955TIP3    H2 2830   6.650   5.223   4.793  2.7053 -0.7305 -1.2792
  956TIP3   OH2 2831   1.477   0.812   1.987 -0.2838 -0.1394 -0.3016
  956TIP3    H1 2832   1.504   0.757   1.913  1.8447 -1.0979  1.0694
  956TIP3    H2 2833   1.556   0.861   2.010 -1.0909  0.6435  0.9009
  957TIP3   OH2 2834   0.409   3.896   3.402  0.5043  0.3727 -0.0323
  957TIP3    H1 2835   0.391   3.980   3.445  2.2426  0.6306  0.2608
  957TIP3    H2 2836   0.459   3.919   3.324  0.3274 -0.3519 -0.3726
  958TIP3   OH2 2837   6.886   4.363   2.594 -0.0128  0.3546  0.2005
  958TIP3    H1 2838   6.840   4.347   2.676  0.7503 -2.8541  0.1377
  958TIP3    H2 2839   6.816   4.370   2.529 -0.5680 -0.0718  0.7369
  959TIP3   OH2 2840   1.206   6.702   3.244  0.2547  0.2929  0.1044
  959TIP3    H1 2841   1.239   6.613   3.255  0.9386  0.3649 -1.1936
  959TIP3    H2 2842   1.112   6.695   3.258  0.2752 -0.6731 -0.1980
  960TIP3   OH2 2843   1.834   3.234   3.698 -0.0847 -0.8447  0.3165
  960TIP3    H1 2844   1.799   3.322   3.683 -0.3372 -0.7199  1.5630
  960TIP3    H2 2845   1.862   3.205   3.611  1.0539  0.9133  0.0351
  961TIP3   OH2 2846   5.306   2.663   2.233  0.0587 -0.0659 -0.0595
  961TIP3    H1 2847   5.384   2.664   2.288  0.5302  1.8797 -0.6886
  961TIP3    H2 2848   5.267   2.577   2.248  0.4110  0.2115  2.9283
  962TIP3   OH2 2849   5.168   0.435   3.964  0.2854  0.5340  0.9308
  962TIP3    H1 2850   5.198   0.506   3.907  0.7562 -0.4101 -0.0076
  962TIP3    H2 2851   5.077   0.459   3.985 -0.0698  0.6510 -0.6180
  963TIP3   OH2 2852   2.799   5.207   2.746  0.2787 -0.6536 -0.0682
  963TIP3    H1 2853   2.733   5.158   2.697 -2.0780  0.2190  2.0018
  963TIP3    H2 2854   2.812   5.156   2.827  1.7389 -0.4893 -0.1665
  964TIP3   OH2 2855   4.203   0.577   4.409 -0.3796  0.1127 -0.0571
  964TIP3    H1 2856   4.285   0.627   4.420  0.1108 -0.9092  1.2511
  964TIP3    H2 2857   4.139   0.642   4.381  0.2979  1.4557  1.3434
  965TIP3   OH2 2858   6.462   4.281   2.667  0.0045 -0.6015  0.2045
  965TIP3    H1 2859   6.429   4.282   2.578  0.4450  0.7666  0.0252
  965TIP3    H2 2860   6.533   4.216   2.667 -0.3580 -0.9986 -0.2895
  966TIP3   OH2 2861   7.085   0.373   3.303 -1.1387  0.3666  0.1915
  966TIP3    H1 2862   7.002   0.347   3.343  0.1575 -1.2322  1.9996
  966TIP3    H2 2863   7.103   0.305   3.238 -1.8118  1.3987 -1.1260
  967TIP3   OH2 2864   3.238   0.070   0.705  0.2930  0.0277  0.1372
  967TIP3    H1 2865   3.180   0.140   0.675 -0.9160 -0.9005  0.2048
  967TIP3    H2 2866   3.200  -0.010   0.668  1.0104 -0.7163  0.9491
  968TIP3   OH2 2867   6.179   2.798   0.127  0.3426 -0.9596  0.2458
  968TIP3    H1 2868   6.191   2.705   0.142 -1.3185 -1.2718 -0.1948
  968TIP3    H2 2869   6.253   2.823   0.071 -0.1316 -2.4003 -1.1003
  969TIP3   OH2 2870   3.795   1.300   2.541 -0.3388 -0.8035 -0.4321
  969TIP3    H1 2871   3.854   1.342   2.478 -1.8497  1.3030 -0.5565
  969TIP3    H2 2872   3.719   1.276   2.488 -0.6933 -1.0507  0.1879
  970TIP3   OH2 2873   2.878   6.695   2.673 -0.2218 -0.3577 -0.0389
  970TIP3    H1 2874   2.809   6.652   2.623 -1.6071 -0.1653  1.6251
  970TIP3    H2 2875   2.835   6.769   2.716  1.3897  0.7315 -0.1998
  971TIP3   OH2 2876   0.938   1.656   2.856 -0.0154 -0.5678  0.0664
  971TIP3    H1 2877   0.940   1.590   2.925  0.0834  0.5337  1.1456
  971TIP3    H2 2878   0.846   1.671   2.838 -0.1107  0.3326  1.1684
  972TIP3   OH2 2879   1.940   6.482   4.903  0.6311  0.0651  0.6564
  972TIP3    H1 2880   1.912   6.512   4.816  0.1789  0.4016  0.9101
  972TIP3    H2 2881   1.990   6.555   4.939 -1.9574  1.3173  1.9825
  973TIP3   OH2 2882   1.594   4.396   0.747  0.5884 -0.3751 -0.0779
  973TIP3    H1 2883   1.513   4.418   0.702  1.3837  1.1286 -0.8480
  973TIP3    H2 2884   1.587   4.441   0.832  0.2370 -1.0037  0.2321
  974TIP3   OH2 2885   5.201   4.852   3.925  0.1784  0.4149 -0.3593
  974TIP3    H1 2886   5.177   4.876   4.014  2.4866  0.8763  0.2047
  974TIP3    H2 2887   5.160   4.767   3.911 -1.0121  0.7619  0.7614
  975TIP3   OH2 2888   5.477   6.360   5.808  0.2272  0.5597  0.0755
  975TIP3    H1 2889   5.460   6.279   5.857 -0.2265 -0.0776 -1.0866
  975TIP3    H2 2890   5.566   6.348   5.772  1.1970  1.6961  1.9727
  976TIP3   OH2 2891   5.990   3.709   1.817 -0.0608 -0.0598 -0.0199
  976TIP3    H1 2892   6.002   3.801   1.796 -2.5124  0.2860 -0.2992
  976TIP3    H2 2893   6.023   3.700   1.906 -0.1859  1.2207  0.1778
  977TIP3   OH2 2894   7.069   4.301   0.966 -0.5019 -0.0987  0.0562
  977TIP3    H1 2895   7.087   4.207   0.969 -0.1413 -0.0966 -1.2797
  977TIP3    H2 2896   6.986   4.311   1.012 -2.1346 -1.5319 -2.3317
  978TIP3   OH2 2897   5.281   5.575   0.187 -0.2497 -0.4388  0.4710
  978TIP3    H1 2898   5.328   5.586   0.104 -2.1926 -0.4684 -0.6942
  978TIP3    H2 2899   5.208   5.517   0.165 -2.2873  1.5753  1.5537
  979TIP3   OH2 2900   2.883   0.012   0.044 -0.2127  0.3312 -0.2795
  979TIP3    H1 2901   2.919   0.077  -0.016  0.3845 -0.2883 -0.6225
  979TIP3    H2 2902   2.874   0.057   0.128  0.1747  0.8525 -0.5179
  980TIP3   OH2 2903   0.579   3.766   5.009 -0.6008 -0.3202  0.3074
  980TIP3    H1 2904   0.634   3.714   5.067 -1.8802 -0.9897  0.9621
  980TIP3    H2 2905   0.586   3.722   4.924  3.7270  2.3653 -1.0748
  981TIP3   OH2 2906   0.143   0.225   2.088 -0.6641 -0.6661  0.6984
  981TIP3    H1 2907   0.185   0.301   2.128 -1.6641  0.1605  0.2323
  981TIP3    H2 2908   0.143   0.244   1.994 -0.6039 -1.4071  0.5416
  982TIP3   OH2 2909   2.065   2.966   4.744 -0.2892  0.6999 -0.4956
  982TIP3    H1 2910   2.006   2.958   4.669 -1.6547  0.4592  0.5710
  982TIP3    H2 2911   2.096   2.877   4.761 -2.0381  0.3050  0.8105
  983TIP3   OH2 2912   5.332   0.926   1.055  0.4506  0.3075 -0.1871
  983TIP3    H1 2913   5.238   0.912   1.047  0.5029 -0.6229  0.6482
  983TIP3    H2 2914   5.371   0.861   0.996  0.5762  0.6058 -0.4344
  984TIP3   OH2 2915   6.531   6.412   4.868 -0.0458  0.2798  0.3315
  984TIP3    H1 2916   6.618   6.403   4.907  0.0976  0.8074  0.1402
  984TIP3    H2 2917   6.544   6.470   4.793 -0.7716  1.3237  0.9929
  985TIP3   OH2 2918   4.703   4.125   2.163  0.6359  0.2505  0.0303
  985TIP3    H1 2919   4.616   4.150   2.131  0.4521 -0.7366 -0.2596
  985TIP3    H2 2920   4.689   4.102   2.254  0.9907  2.1232  0.6119
  986TIP3   OH2 2921   5.127  -0.013   1.735  0.7865  0.1435 -0.3317
  986TIP3    H1 2922   5.179  -0.052   1.805 -0.4718  0.5029  0.8588
  986TIP3    H2 2923   5.112   0.078   1.764 -3.5174 -0.8338  1.3410
  987TIP3   OH2 2924   3.962   5.385   2.553  0.4659  0.3324 -0.3704
  987TIP3    H1 2925   3.955   5.432   2.636  2.4976 -1.0051  0.6331
  987TIP3    H2 2926   3.987   5.451   2.490 -0.0674  1.1817  0.2825
  988TIP3   OH2 2927   6.760  -0.016   0.806 -0.8445  1.1017 -0.0304
  988TIP3    H1 2928   6.770   0.078   0.820  0.6655  1.1304 -1.0451
  988TIP3    H2 2929   6.767  -0.027   0.711  0.3644 -0.1465  0.1589
  989TIP3   OH2 2930   5.693   5.516   2.503 -0.6194 -0.4803  0.0141
  989TIP3    H1 2931   5.658   5.435   2.465 -0.0417 -0.1065 -1.3943
  989TIP3    H2 2932   5.787   5.499   2.511 -0.4326  0.1686 -0.6602
  990TIP3   OH2 2933   4.221   4.301   2.385  0.4344  0.2209 -0.0660
  990TIP3    H1 2934   4.157   4.371   2.399  0.5582 -0.1762  3.3170
  990TIP3    H2 2935   4.305   4.346   2.384  0.3303  0.4702 -2.0457
  991TIP3   OH2 2936   1.691   2.245   2.019 -0.2300  0.3350  0.2832
  991TIP3    H1 2937   1.729   2.319   2.067 -1.5113  0.5149  1.0471
  991TIP3    H2 2938   1.601   2.239   2.051 -0.2836 -1.2746 -0.1081
  992TIP3   OH2 2939   2.535   1.886   3.505  0.6635 -0.2482 -0.2557
  992TIP3    H1 2940   2.587   1.894   3.586 -2.4607 -0.8320  2.0096
  992TIP3    H2 2941   2.489   1.803   3.516  0.1800 -0.3589 -2.7463
  993TIP3   OH2 2942   5.636   3.664   2.239  0.2545  0.0230 -0.0970
  993TIP3    H1 2943   5.640   3.758   2.221 -1.5583 -0.0776 -1.3524
  993TIP3    H2 2944   5.664   3.656   2.330 -0.7992  1.9651  0.4752
  994TIP3   OH2 2945   4.532   3.523   1.245 -0.3313  0.5338  0.3938
  994TIP3    H1 2946   4.592   3.597   1.250  0.2043  0.3102 -1.8111
  994TIP3    H2 2947   4.589   3.446   1.241 -0.7331  0.2797 -1.0645
  995TIP3   OH2 2948   4.112   3.234   5.046 -0.1849  0.2721 -0.3912
  995TIP3    H1 2949   4.202   3.201   5.038  0.4396  1.7416  0.1686
  995TIP3    H2 2950   4.114   3.321   5.005 -2.0436 -0.7407 -2.8290
  996TIP3   OH2 2951   0.046   5.009   3.629  0.2577 -0.2574  0.2598
  996TIP3    H1 2952  -0.008   4.990   3.551 -0.6411 -1.6009  1.1698
  996TIP3    H2 2953  -0.011   5.061   3.685  1.1769  1.4008 -0.2678
  997TIP3   OH2 2954   2.855   3.340   5.816 -0.1903  0.1021  0.2449
  997TIP3    H1 2955   2.910   3.384   5.881  1.8932 -0.4333 -1.0819
  997TIP3    H2 2956   2.787   3.404   5.795  0.5083  1.1870  1.1980
  998TIP3   OH2 2957   0.716   2.554   2.644 -0.1064 -0.5984 -0.0769
  998TIP3    H1 2958   0.744   2.468   2.612  1.1741  0.0612 -0.7945
  998TIP3    H2 2959   0.757   2.563   2.730  0.7303 -0.2455 -0.4985
  999TIP3   OH2 2960   5.282   0.304   2.117 -0.2241 -0.1142  0.1914
  999TIP3    H1 2961   5.345   0.255   2.170 -0.3093 -0.4155  0.0174
  999TIP3    H2 2962   5.235   0.360   2.179  1.2760  1.2832  0.1405
 1000TIP3   OH2 2963   6.523   4.750   5.326 -0.6619 -0.1191  0.1200
 1000TIP3    H1 2964   6.473   4.817   5.279  0.9484  0.4624 -0.8631
 1000TIP3    H2 2965   6.533   4.784   5.414  0.9352  1.4369 -0.6111
 1001TIP3   OH2 2966   0.538   0.693   5.759 -0.2409 -0.2154 -0.5513
 1001TIP3    H1 2967   0.544   0.781   5.798  2.1207  0.0797 -1.4406
 1001TIP3    H2 2968   0.607   0.643   5.804  0.8580 -0.5628 -2.5265
 1002TIP3   OH2 2969   3.177   3.630   3.813 -0.2705 -0.1723 -0.2813
 1002TIP3    H1 2970   3.092   3.622   3.769 -0.3439  1.0911 -0.3952
 1002TIP3    H2 2971   3.230   3.683   3.754  0.1323  0.2271  0.4290
 1003TIP3   OH2 2972   2.346   0.444   2.746 -0.8387  0.6468  0.2175
 1003TIP3    H1 2973   2.373   0.387   2.674  0.5272  1.5432 -0.0190
 1003TIP3    H2 2974   2.339   0.531   2.706 -0.4708  1.0764  1.0579
 1004TIP3   OH2 2975   5.479   5.973   2.606 -0.0253 -0.8817  0.6495
 1004TIP3    H1 2976   5.432   5.897   2.638 -1.5315  0.3237  1.4481
 1004TIP3    H2 2977   5.429   6.048   2.639 -0.2303  0.4736 -2.4211
 1005TIP3   OH2 2978   3.341   5.336   0.824 -0.0612  0.5767 -0.3472
 1005TIP3    H1 2979   3.282   5.408   0.846 -0.5331  0.0708  0.0303
 1005TIP3    H2 2980   3.289   5.257   0.835  0.1334  0.2108 -1.7700
 1006TIP3   OH2 2981   3.115   4.985   1.075 -0.1463  0.0581 -0.3330
 1006TIP3    H1 2982   3.105   4.920   1.144  0.8501 -0.5171 -0.7066
 1006TIP3    H2 2983   3.076   5.064   1.111 -1.4390 -0.7429  0.1144
 1007TIP3   OH2 2984   6.971   4.745   1.061 -0.1439  0.4778 -0.3904
 1007TIP3    H1 2985   6.887   4.792   1.059  1.0588  2.7403 -2.1161
 1007TIP3    H2 2986   6.988   4.723   0.970  0.4832 -1.2991  0.1231
 1008TIP3   OH2 2987   2.296   6.076   3.682  0.0801  0.7504  0.2955
 1008TIP3    H1 2988   2.359   6.014   3.646  0.3044  0.7697  0.6456
 1008TIP3    H2 2989   2.336   6.162   3.668  0.2651  0.7470  0.7595
 1009TIP3   OH2 2990   4.810   3.612   4.431 -0.9896  0.2079  0.5125
 1009TIP3    H1 2991   4.830   3.561   4.352 -1.2881  0.0504  0.5387
 1009TIP3    H2 2992   4.891   3.610   4.482 -0.4370  1.2009 -0.2735
 1010TIP3   OH2 2993   5.027   5.484   2.746 -0.2256 -0.7319  0.7159
 1010TIP3    H1 2994   4.985   5.536   2.677 -0.7910 -2.6300 -0.4586
 1010TIP3    H2 2995   5.070   5.548   2.802  0.7284  0.8834 -1.6940
 1011TIP3   OH2 2996   7.110   5.423   0.345 -0.0361 -0.0515  0.0197
 1011TIP3    H1 2997   7.116   5.508   0.302 -0.4254  0.5365  1.0976
 1011TIP3    H2 2998   7.029   5.385   0.311  0.8537 -0.6348 -1.5485
 1012TIP3   OH2 2999   0.563   2.816   3.259 -0.4193 -0.8585 -0.7832
 1012TIP3    H1 3000   0.507   2.879   3.214  0.1875  0.7235  0.5700
 1012TIP3    H2 3001   0.523   2.806   3.345 -0.7481 -2.7097 -1.1113
 1013TIP3   OH2 3002   2.252   6.022   2.998  0.5714 -0.0254 -0.1473
 1013TIP3    H1 3003   2.307   5.944   3.009  2.4929  1.0253 -1.7294
 1013TIP3    H2 3004   2.206   6.008   2.916  0.5936  0.3288 -0.2215
 1014TIP3   OH2 3005   4.406   3.538   2.151 -0.3715 -0.0732 -0.4619
 1014TIP3    H1 3006   4.488   3.587   2.151 -0.9479  0.9361  0.7365
 1014TIP3    H2 3007   4.372   3.548   2.062  1.7748 -2.2776 -1.6494
 1015TIP3   OH2 3008   3.567   5.300   1.370 -0.1022  0.4544 -0.1923
 1015TIP3    H1 3009   3.636   5.365   1.380 -0.5120  0.9361 -0.4653
 1015TIP3    H2 3010   3.577   5.267   1.281  1.0856 -1.0093  0.4221
 1016TIP3   OH2 3011   5.918   4.607   3.277  0.6482  0.2762 -0.5324
 1016TIP3    H1 3012   5.898   4.519   3.309  0.4515  0.4327 -0.2196
 1016TIP3    H2 3013   5.867   4.665   3.334  0.2846  0.5592 -1.1362
 1017TIP3   OH2 3014   3.979   5.384   0.573  0.1489  0.7998  0.0508
 1017TIP3    H1 3015   4.031   5.341   0.641 -0.4957  1.1137  0.7568
 1017TIP3    H2 3016   3.967   5.317   0.506  0.4808  0.3664  0.4215
 1018TIP3   OH2 3017   7.092   1.501   5.099  0.7158 -0.1610 -0.0246
 1018TIP3    H1 3018   7.146   1.462   5.168  2.1245 -0.3126 -1.1684
 1018TIP3    H2 3019   7.034   1.430   5.070  0.7567 -0.3539  0.3668
 1019TIP3   OH2 3020   5.194   2.323   3.986 -0.3571 -0.4101 -0.1620
 1019TIP3    H1 3021   5.221   2.411   4.012 -0.5065 -0.5286  0.3969
 1019TIP3    H2 3022   5.265   2.267   4.016  0.5258 -0.3295 -1.9112
 1020TIP3   OH2 3023   0.643   4.955   2.094 -0.5366  0.2270  0.0735
 1020TIP3    H1 3024   0.672   4.879   2.044  1.7298  0.1412  1.3832
 1020TIP3    H2 3025   0.610   5.016   2.029  1.3378 -0.2955 -1.4378
 1021TIP3   OH2 3026   6.221   2.633   3.759 -0.0701 -0.4993  0.7871
 1021TIP3    H1 3027   6.227   2.540   3.781  0.5087 -0.1494  2.1569
 1021TIP3    H2 3028   6.254   2.638   3.669  0.3953 -1.5424  0.8836
 1022TIP3   OH2 3029   5.560   0.294   5.424 -0.0181  0.0083 -0.5373
 1022TIP3    H1 3030   5.508   0.241   5.363 -1.3269  2.1335 -1.3721
 1022TIP3    H2 3031   5.506   0.300   5.502  0.9627 -1.3820  0.2948
 1023TIP3   OH2 3032   4.778   5.649   0.642 -1.0368 -0.2607 -0.3638
 1023TIP3    H1 3033   4.809   5.652   0.552 -0.6075  0.6142 -0.2023
 1023TIP3    H2 3034   4.786   5.558   0.668  1.0833 -0.1482 -0.4590
 1024TIP3   OH2 3035   2.267   1.560   2.983  0.1887  0.1769 -0.5624
 1024TIP3    H1 3036   2.229   1.483   3.026  1.0503  0.6831  1.2025
 1024TIP3    H2 3037   2.255   1.631   3.045  0.4501  1.2371 -1.6757
 1025TIP3   OH2 3038   1.548   6.490   4.324 -0.1394 -0.2849 -0.4309
 1025TIP3    H1 3039   1.631   6.530   4.299  0.0070  0.8400  1.6557
 1025TIP3    H2 3040   1.525   6.530   4.408 -2.1810 -1.4715 -0.3316
 1026TIP3   OH2 3041   4.165   3.951   5.053  0.3556 -0.1529  0.9340
 1026TIP3    H1 3042   4.125   3.988   4.975  0.8264 -1.0849  0.2342
 1026TIP3    H2 3043   4.241   4.007   5.070 -0.6184  0.9833  1.6503
 1027TIP3   OH2 3044   2.051   5.442   4.162  0.1233 -0.7142 -0.3455
 1027TIP3    H1 3045   2.106   5.505   4.116 -0.5336 -0.9168 -1.4420
 1027TIP3    H2 3046   1.967   5.485   4.171  0.5785 -0.1478  1.9083
 1028TIP3   OH2 3047   4.751   5.292   4.710  0.6568 -0.3213 -0.9425
 1028TIP3    H1 3048   4.701   5.368   4.680  2.8612  0.6253 -2.4617
 1028TIP3    H2 3049   4.703   5.261   4.787 -0.7123  2.1600 -0.6858
 1029TIP3   OH2 3050   2.020   2.401   1.620 -0.0779 -0.1857  0.1408
 1029TIP3    H1 3051   1.994   2.411   1.712 -0.2504 -0.1642  0.0895
 1029TIP3    H2 3052   1.942   2.424   1.570 -0.7418 -2.4421  0.0179
 1030TIP3   OH2 3053   2.886   2.872   1.853  0.4786 -0.4219 -0.0655
 1030TIP3    H1 3054   2.900   2.967   1.855 -1.9759 -0.0004  1.1936
 1030TIP3    H2 3055   2.961   2.835   1.899  0.1152  1.1743  1.9446
 1031TIP3   OH2 3056   2.892   4.822   4.355 -0.1278  0.7827 -0.4665
 1031TIP3    H1 3057   2.866   4.776   4.276 -0.0386  0.7347 -0.4684
 1031TIP3    H2 3058   2.840   4.782   4.425  0.7111 -0.0624 -0.2961
 1032TIP3   OH2 3059   0.554   4.074   2.580 -0.1966 -0.0652  0.0533
 1032TIP3    H1 3060   0.539   4.100   2.489  2.0981  0.2555 -0.3009
 1032TIP3    H2 3061   0.572   3.980   2.576 -2.2816 -0.5294  0.5154
 1033TIP3   OH2 3062   5.071   6.142   2.351  1.0228 -0.4264  0.4804
 1033TIP3    H1 3063   5.162   6.113   2.359  1.5350  0.3263 -1.9120
 1033TIP3    H2 3064   5.052   6.136   2.257 -1.0253  0.5698  0.7785
 1034TIP3   OH2 3065   7.164   4.350   2.651 -0.0352  0.3979  0.1075
 1034TIP3    H1 3066   7.088   4.320   2.602  0.6432 -1.1170 -0.0674
 1034TIP3    H2 3067   7.239   4.327   2.595  0.6275  0.5102  0.9288
 1035TIP3   OH2 3068   3.695   2.189   1.323  0.4200  0.0010  0.0323
 1035TIP3    H1 3069   3.766   2.179   1.258  1.2697  2.4588  0.4883
 1035TIP3    H2 3070   3.634   2.250   1.282  0.6388  1.0726  1.2856
 1036TIP3   OH2 3071   2.424   1.276   5.591  0.1008 -0.0045  0.8809
 1036TIP3    H1 3072   2.360   1.329   5.638 -0.4386  0.7412 -0.6279
 1036TIP3    H2 3073   2.377   1.246   5.512  2.0532  2.0082 -1.1897
 1037TIP3   OH2 3074   1.507   0.926   3.775  0.3137 -0.2268  0.5284
 1037TIP3    H1 3075   1.498   0.954   3.683 -0.7200 -0.0799  0.6630
 1037TIP3    H2 3076   1.520   1.008   3.824 -3.2490  0.1947  0.9889
 1038TIP3   OH2 3077   0.850   6.452   0.045 -0.0504 -0.6406 -0.2689
 1038TIP3    H1 3078   0.898   6.465  -0.037  0.0380 -0.8240 -0.2468
 1038TIP3    H2 3079   0.860   6.535   0.092 -1.0553 -0.1254 -0.9262
 1039TIP3   OH2 3080   1.903   4.298   5.544  0.2818 -0.7262 -0.0267
 1039TIP3    H1 3081   1.907   4.355   5.468 -1.2767  0.1373  0.4877
 1039TIP3    H2 3082   1.921   4.210   5.510 -0.2176 -0.3331 -1.3582
 1040TIP3   OH2 3083   0.077   1.183   4.308 -0.3707  0.1516  0.1843
 1040TIP3    H1 3084   0.167   1.152   4.305  0.3933  1.5810  3.4449
 1040TIP3    H2 3085   0.038   1.136   4.382 -2.2536 -0.2001 -0.9640
 1041TIP3   OH2 3086   6.747   3.287   1.123  0.3130  0.2537  0.7447
 1041TIP3    H1 3087   6.800   3.291   1.203  1.9372 -0.7369 -0.2329
 1041TIP3    H2 3088   6.796   3.231   1.064 -2.3553 -1.6201  0.1224
 1042TIP3   OH2 3089   2.102   4.306   3.881 -0.3131  0.9201  0.4793
 1042TIP3    H1 3090   2.024   4.256   3.905 -1.3014  1.8742 -0.6450
 1042TIP3    H2 3091   2.124   4.354   3.961 -0.5279  0.2251  0.9719
 1043TIP3   OH2 3092   0.050   0.970   1.724 -0.9241  0.1457 -0.5399
 1043TIP3    H1 3093   0.022   1.008   1.807  0.3804 -0.2086  0.0868
 1043TIP3    H2 3094  -0.004   0.892   1.713 -0.4374 -0.3564  0.4833
 1044TIP3   OH2 3095   3.201   5.976   1.236 -0.2709  0.0044  0.3670
 1044TIP3    H1 3096   3.165   5.986   1.324  1.4950 -0.6634  1.2200
 1044TIP3    H2 3097   3.201   5.881   1.222 -0.4093  0.1021 -0.2877
 1045TIP3   OH2 3098   7.118   1.600   2.672 -0.5437 -0.8353 -0.1410
 1045TIP3    H1 3099   7.115   1.567   2.762 -0.1457  1.1195  0.6603
 1045TIP3    H2 3100   7.204   1.575   2.639  0.1728  0.2257  0.8263
 1046TIP3   OH2 3101   1.539   5.196   2.000 -0.2743  0.7110  0.2872
 1046TIP3    H1 3102   1.569   5.164   1.915  0.7155 -1.5460  1.3842
 1046TIP3    H2 3103   1.615   5.240   2.037  0.7393 -1.8932  1.5933
 1047TIP3   OH2 3104   6.823   4.669   1.979 -0.6115  0.0735 -0.6304
 1047TIP3    H1 3105   6.862   4.663   2.066 -1.2070  0.9476 -0.2906
 1047TIP3    H2 3106   6.897   4.661   1.919 -0.4442 -2.9691 -0.1576
 1048TIP3   OH2 3107   0.858   4.842   3.953  0.0343 -0.2138 -0.3330
 1048TIP3    H1 3108   0.842   4.748   3.958  0.0092 -0.2012 -0.1814
 1048TIP3    H2 3109   0.771   4.881   3.952 -0.0275 -0.2769 -2.2605
 1049TIP3   OH2 3110   7.168   2.719   1.237 -0.2965  0.4606  0.1210
 1049TIP3    H1 3111   7.234   2.786   1.220  0.7436 -0.8715 -1.3500
 1049TIP3    H2 3112   7.160   2.716   1.332  0.1944  2.1092  0.2349
 1050TIP3   OH2 3113   1.393   2.649   2.929  0.2761  0.0777  0.5660
 1050TIP3    H1 3114   1.319   2.592   2.908  0.3103  0.0925  0.3993
 1050TIP3    H2 3115   1.354   2.732   2.954  0.2569  0.3767 -0.4159
 1051TIP3   OH2 3116   5.325   6.226   5.369 -0.4311 -0.2197 -0.0552
 1051TIP3    H1 3117   5.308   6.269   5.284  0.8360 -0.9034 -0.6705
 1051TIP3    H2 3118   5.296   6.290   5.434 -1.2130  0.4109 -0.9886
 1052TIP3   OH2 3119   0.060   1.219   1.522 -0.0114 -0.0749  0.1935
 1052TIP3    H1 3120   0.073   1.140   1.574  2.4802 -0.7529 -1.2803
 1052TIP3    H2 3121   0.044   1.187   1.433 -0.6503  1.0779 -0.1271
 1053TIP3   OH2 3122   5.835   1.379   2.033  0.2742 -0.8922  0.0343
 1053TIP3    H1 3123   5.875   1.371   2.120  0.7037  1.0500  0.0684
 1053TIP3    H2 3124   5.854   1.470   2.007  0.4292 -1.5215 -2.2245
 1054TIP3   OH2 3125   6.441   1.409   1.602  0.0223  0.3826  0.1202
 1054TIP3    H1 3126   6.467   1.437   1.690 -0.8751 -0.5122  0.6906
 1054TIP3    H2 3127   6.362   1.460   1.583 -1.3184 -1.2812  0.9523
 1055TIP3   OH2 3128   1.473   1.234   3.364  0.4527  0.2154 -0.1747
 1055TIP3    H1 3129   1.425   1.178   3.303  0.6662 -1.0665  0.8037
 1055TIP3    H2 3130   1.413   1.307   3.382 -1.2714 -1.4632  1.2088
 1056TIP3   OH2 3131   5.483   5.261   4.718 -0.1857  0.5757 -0.4334
 1056TIP3    H1 3132   5.558   5.312   4.686  1.5173 -0.8992  0.9943
 1056TIP3    H2 3133   5.463   5.299   4.803  0.7336 -0.6899  0.3879
 1057TIP3   OH2 3134   4.543   0.282   4.901 -0.0943  0.5900 -0.0562
 1057TIP3    H1 3135   4.504   0.355   4.853 -1.5784  0.3320  0.6897
 1057TIP3    H2 3136   4.620   0.258   4.850  0.3713  2.5869 -0.3888
 1058TIP3   OH2 3137   0.108   4.233   2.239 -0.3134 -0.4629  0.5732
 1058TIP3    H1 3138   0.035   4.294   2.222  1.1527  1.7187  1.6318
 1058TIP3    H2 3139   0.168   4.247   2.166  1.0106  1.0025  1.8788
 1059TIP3   OH2 3140   6.250   0.490   1.099  0.0979  0.5060  0.5636
 1059TIP3    H1 3141   6.316   0.480   1.030 -0.9343  0.6418 -0.4863
 1059TIP3    H2 3142   6.250   0.406   1.144 -0.2924 -0.1657 -0.6299
 1060TIP3   OH2 3143   3.350   5.614   0.148  0.2833  0.1631  0.4784
 1060TIP3    H1 3144   3.435   5.582   0.117 -0.0945 -0.3278 -0.0632
 1060TIP3    H2 3145   3.372   5.675   0.219  1.0286 -1.4692  1.7156
 1061TIP3   OH2 3146   3.897   0.943   3.752  0.8269  0.1004  0.5848
 1061TIP3    H1 3147   3.946   0.903   3.681 -0.7089  1.2990 -1.2602
 1061TIP3    H2 3148   3.909   1.037   3.740 -0.7386  0.3763  0.8902
 1062TIP3   OH2 3149   1.028   0.430   1.334 -0.7578  0.5332 -0.3276
 1062TIP3    H1 3150   0.944   0.453   1.295 -1.1532  1.0712  0.8003
 1062TIP3    H2 3151   1.078   0.512   1.332 -1.9182  1.5152  3.0685
 1063TIP3   OH2 3152   6.661   6.791   0.120 -0.1234 -0.0392  0.0904
 1063TIP3    H1 3153   6.630   6.722   0.061  1.2151 -1.1040  0.5698
 1063TIP3    H2 3154   6.745   6.819   0.083 -0.4941  1.1052  0.0882
 1064TIP3   OH2 3155   5.264   0.629   0.123  0.1338  0.1901 -0.5891
 1064TIP3    H1 3156   5.180   0.604   0.162 -0.9353  1.8750 -1.6722
 1064TIP3    H2 3157   5.329   0.601   0.187 -0.8971 -4.1450 -1.0656
 1065TIP3   OH2 3158   0.583   0.606   0.453 -0.4555 -0.3557 -0.1997
 1065TIP3    H1 3159   0.616   0.679   0.505  2.0499 -0.8115 -1.0280
 1065TIP3    H2 3160   0.593   0.529   0.509 -1.6472 -0.3163  0.1034
 1066TIP3   OH2 3161   1.805   4.372   4.285  0.0020 -0.6629 -0.0796
 1066TIP3    H1 3162   1.884   4.397   4.238  0.2739  1.8580  1.4757
 1066TIP3    H2 3163   1.754   4.453   4.290 -1.4323 -1.5795  1.2486
 1067TIP3   OH2 3164   2.899   6.195   2.731  0.1197  0.0112 -0.2512
 1067TIP3    H1 3165   2.818   6.191   2.783  1.5181 -2.7170  1.9989
 1067TIP3    H2 3166   2.940   6.277   2.757 -0.9336  0.4268  0.1675
 1068TIP3   OH2 3167   6.817   2.148   3.728 -0.1750  0.3960  0.1746
 1068TIP3    H1 3168   6.895   2.200   3.709 -1.3065  2.3071  0.5304
 1068TIP3    H2 3169   6.777   2.190   3.804 -0.8277 -1.3931  0.8766
 1069TIP3   OH2 3170   4.098   3.002   1.386  0.0538  0.4790  0.2051
 1069TIP3    H1 3171   4.081   3.091   1.416 -1.6851  0.3499 -0.2775
 1069TIP3    H2 3172   4.094   2.948   1.465  0.5547  0.7464  0.4169
 1070TIP3   OH2 3173   0.150   6.012   3.349  0.1825  0.0749 -0.4003
 1070TIP3    H1 3174   0.094   6.012   3.272  0.1710 -2.2659 -0.4710
 1070TIP3    H2 3175   0.094   5.982   3.420  1.1504 -1.9281 -0.3932
 1071TIP3   OH2 3176   6.065   5.403   2.009  0.3340  0.3412  0.3084
 1071TIP3    H1 3177   5.972   5.384   2.023  0.6960 -1.2489  0.7933
 1071TIP3    H2 3178   6.066   5.473   1.944 -1.1896 -0.5514 -0.7423
 1072TIP3   OH2 3179   4.232   5.690   4.333 -0.0851 -0.0929 -0.0148
 1072TIP3    H1 3180   4.152   5.727   4.369  0.9985  1.5161  0.9012
 1072TIP3    H2 3181   4.244   5.608   4.381 -0.4830  0.3405  0.8558
 1073TIP3   OH2 3182   6.838   0.568   3.794  0.5381  0.1877 -0.1534
 1073TIP3    H1 3183   6.778   0.586   3.866  0.9301  0.7969  0.0217
 1073TIP3    H2 3184   6.858   0.474   3.802 -1.4062 -0.3501 -0.9984
 1074TIP3   OH2 3185   4.574   4.259   5.458  0.4876 -0.5788  0.4194
 1074TIP3    H1 3186   4.613   4.172   5.458  0.0135 -0.8325 -1.3565
 1074TIP3    H2 3187   4.644   4.317   5.488  0.5613 -1.6215  2.4434
 1075TIP3   OH2 3188   1.447   3.022   2.133 -0.0117 -0.0851  0.4839
 1075TIP3    H1 3189   1.367   3.016   2.185  0.1108 -0.5685  0.6207
 1075TIP3    H2 3190   1.419   3.059   2.050 -0.1990  0.7632  0.9158
 1076TIP3   OH2 3191   4.191   6.537   4.759 -0.1849 -0.4352  0.3528
 1076TIP3    H1 3192   4.223   6.616   4.715 -0.2272 -0.2880  0.5828
 1076TIP3    H2 3193   4.098   6.554   4.775 -0.0758 -0.2979  0.8927
 1077TIP3   OH2 3194   6.695   4.656   1.714  1.3202 -0.4825 -0.4100
 1077TIP3    H1 3195   6.764   4.710   1.675  1.4718 -0.1562  0.2855
 1077TIP3    H2 3196   6.712   4.660   1.808  0.1595 -0.1145 -0.1964
 1078TIP3   OH2 3197   3.754   1.311   2.985 -0.1015  0.3153 -0.2314
 1078TIP3    H1 3198   3.701   1.253   3.039  0.9786 -0.6456 -0.1682
 1078TIP3    H2 3199   3.834   1.326   3.036 -0.0696  1.3044 -0.5500
 1079TIP3   OH2 3200   0.067   5.532   2.575  0.1735  0.4333  0.6723
 1079TIP3    H1 3201   0.048   5.441   2.598 -1.5484  0.7860  0.8097
 1079TIP3    H2 3202   0.152   5.550   2.616  0.1835 -0.8815  1.2814
 1080TIP3   OH2 3203   3.421   2.631   2.061  0.3786  0.0641 -0.0541
 1080TIP3    H1 3204   3.500   2.659   2.108  0.2715  0.5044 -0.1331
 1080TIP3    H2 3205   3.454   2.580   1.987  0.5862  0.0988  0.0131
 1081TIP3   OH2 3206   1.588   1.132   0.341  0.4312  0.1877 -0.4891
 1081TIP3    H1 3207   1.505   1.126   0.294 -0.5172 -1.1774  1.2530
 1081TIP3    H2 3208   1.649   1.171   0.277 -1.8199  2.5391 -1.4037
 1082TIP3   OH2 3209   6.570   5.212   4.081 -0.1092 -0.1890  0.3607
 1082TIP3    H1 3210   6.604   5.233   3.994 -1.9392 -1.3481 -0.7052
 1082TIP3    H2 3211   6.483   5.253   4.084 -1.1303 -2.2595  0.6227
 1083TIP3   OH2 3212   4.641   0.404   0.267  0.3304  0.5290  0.0396
 1083TIP3    H1 3213   4.563   0.460   0.264  0.6450  0.9575 -0.3167
 1083TIP3    H2 3214   4.672   0.401   0.176 -0.4723 -1.3812 -0.2276
 1084TIP3   OH2 3215   1.495   3.977   1.408  0.2923  0.8676  0.2578
 1084TIP3    H1 3216   1.562   3.934   1.355  0.4770  0.7555  0.5816
 1084TIP3    H2 3217   1.488   4.065   1.371  0.6183  0.8779  0.2233
 1085TIP3   OH2 3218   5.470   3.038   4.617  0.3714 -0.1981 -0.2421
 1085TIP3    H1 3219   5.484   2.956   4.664  1.2521 -0.7468 -1.4074
 1085TIP3    H2 3220   5.554   3.058   4.576  0.1945  1.3468  0.0886
 1086TIP3   OH2 3221   5.811   5.808   3.492  0.1888  0.0365  0.4309
 1086TIP3    H1 3222   5.897   5.825   3.530  1.0298 -3.0359  0.1621
 1086TIP3    H2 3223   5.803   5.712   3.490 -3.8563  0.1286  1.7704
 1087TIP3   OH2 3224   1.188   5.093   2.888 -0.1067  0.4943  0.4862
 1087TIP3    H1 3225   1.197   5.135   2.803 -0.2878  1.4635  0.9396
 1087TIP3    H2 3226   1.193   5.164   2.952  1.7301 -0.3542  1.4017
 1088TIP3   OH2 3227   0.256   4.357   4.763 -0.2219 -0.1316 -0.4190
 1088TIP3    H1 3228   0.244   4.301   4.686  2.4017 -0.3284 -0.7750
 1088TIP3    H2 3229   0.340   4.328   4.800 -0.3535  1.4623  1.2235
 1089TIP3   OH2 3230   5.460   3.602   3.239 -0.2195  0.1989 -0.4165
 1089TIP3    H1 3231   5.437   3.689   3.204 -1.8847 -0.4401 -1.0567
 1089TIP3    H2 3232   5.377   3.553   3.235  0.5114 -1.1815  0.6535
 1090TIP3   OH2 3233   4.827   3.124   3.699  0.9415  0.2306 -0.0756
 1090TIP3    H1 3234   4.844   3.196   3.760  3.3773 -0.2377 -0.0950
 1090TIP3    H2 3235   4.870   3.150   3.618  0.0501 -0.3333 -0.7381
 1091TIP3   OH2 3236   6.711   0.070   1.907  0.1151  0.2994  0.1468
 1091TIP3    H1 3237   6.771   0.134   1.946  1.3445 -1.1410  0.7283
 1091TIP3    H2 3238   6.760   0.032   1.834 -0.8332  0.4457 -0.5764
 1092TIP3   OH2 3239   3.172   1.019   5.830  0.5260 -0.4434  0.5267
 1092TIP3    H1 3240   3.142   1.077   5.900 -3.2134  0.4986 -1.6115
 1092TIP3    H2 3241   3.176   0.933   5.871 -2.1102 -0.0326  1.8567
 1093TIP3   OH2 3242   0.722   4.425   5.073 -0.1356 -0.8479  0.4110
 1093TIP3    H1 3243   0.813   4.403   5.053  0.3579  1.0507  0.3172
 1093TIP3    H2 3244   0.670   4.374   5.011  0.9873 -0.4400 -0.9140
 1094TIP3   OH2 3245   1.241   5.276   0.496  0.3122 -0.1097 -0.1098
 1094TIP3    H1 3246   1.238   5.343   0.428  1.8631 -0.0661 -0.1679
 1094TIP3    H2 3247   1.263   5.195   0.449 -1.1251 -0.6166  0.0158
 1095TIP3   OH2 3248   1.656   3.809   5.495  0.0201  0.0062 -0.2438
 1095TIP3    H1 3249   1.637   3.900   5.520  0.7046  0.4909 -1.4099
 1095TIP3    H2 3250   1.584   3.785   5.437 -0.3836 -0.3534  0.3943
 1096TIP3   OH2 3251   1.526   3.814   0.064 -0.0897  0.4758  0.5330
 1096TIP3    H1 3252   1.500   3.750   0.130 -0.2133  0.5833  0.5887
 1096TIP3    H2 3253   1.460   3.883   0.070 -1.1294 -0.3229 -0.8887
 1097TIP3   OH2 3254   5.839   4.685   0.905  0.3732  0.2088  0.0342
 1097TIP3    H1 3255   5.833   4.592   0.884  4.1554 -0.3590  0.7219
 1097TIP3    H2 3256   5.826   4.729   0.821 -1.3966 -0.8884 -0.3105
 1098TIP3   OH2 3257   5.830   1.998   4.583  0.1651 -0.5490 -0.4313
 1098TIP3    H1 3258   5.851   2.091   4.573 -0.4422 -0.2486  0.7478
 1098TIP3    H2 3259   5.811   1.989   4.677  2.8619 -2.4447  0.0511
 1099TIP3   OH2 3260   1.646   5.768   3.135 -0.0672  0.1572  0.0950
 1099TIP3    H1 3261   1.679   5.814   3.212  1.1817  0.2949 -0.4956
 1099TIP3    H2 3262   1.654   5.832   3.064  0.3461 -0.4992 -0.4580
 1100TIP3   OH2 3263   2.925   0.749   1.237 -0.5850 -0.6623 -0.8599
 1100TIP3    H1 3264   3.013   0.733   1.204 -0.2710 -1.1949  0.1991
 1100TIP3    H2 3265   2.888   0.662   1.250 -0.7729 -0.4688 -0.0373
 1101TIP3   OH2 3266   2.284   3.069   2.810 -0.2010 -0.3316 -0.3188
 1101TIP3    H1 3267   2.257   3.144   2.863 -0.6178 -0.5620 -0.1975
 1101TIP3    H2 3268   2.202   3.026   2.786  0.0413 -0.8709 -0.2039
 1102TIP3   OH2 3269   3.274   0.062   5.688 -0.6258  0.2356 -0.1167
 1102TIP3    H1 3270   3.212   0.107   5.746 -2.5783 -0.6988 -1.3748
 1102TIP3    H2 3271   3.267   0.109   5.605  0.1075 -0.0881 -0.3640
 1103TIP3   OH2 3272   5.318   4.666   3.667 -0.0891 -0.1581 -0.0302
 1103TIP3    H1 3273   5.228   4.695   3.652  0.3447  1.0566 -0.4306
 1103TIP3    H2 3274   5.351   4.643   3.581  0.3525  0.5611 -0.0611
 1104TIP3   OH2 3275   2.515   0.034   0.740 -0.0019  0.1828  0.2511
 1104TIP3    H1 3276   2.605   0.005   0.724  0.9634  2.3382  1.2468
 1104TIP3    H2 3277   2.475  -0.037   0.790  0.6107 -1.4798 -1.5064
 1105TIP3   OH2 3278   0.115   2.272   4.045  0.4067  0.1251 -0.5179
 1105TIP3    H1 3279   0.186   2.235   3.993  0.0945  0.0150 -0.8638
 1105TIP3    H2 3280   0.116   2.221   4.126  1.5644  0.9708  0.0402
 1106TIP3   OH2 3281   3.443   5.324   1.933 -0.1459  0.0532 -0.0128
 1106TIP3    H1 3282   3.445   5.343   2.027  0.3748 -1.2148  0.2421
 1106TIP3    H2 3283   3.534   5.329   1.905 -0.2274 -0.2143 -0.3288
 1107TIP3   OH2 3284   5.534   2.642   1.289  0.1313 -0.6923 -0.1701
 1107TIP3    H1 3285   5.614   2.649   1.236  1.9010  1.0983  2.4659
 1107TIP3    H2 3286   5.522   2.548   1.303  1.7390 -1.0014 -0.6748
 1108TIP3   OH2 3287   2.406   4.015   0.620 -0.2210 -0.0925  0.4024
 1108TIP3    H1 3288   2.499   4.031   0.636 -0.2561 -1.1224  1.8466
 1108TIP3    H2 3289   2.363   4.097   0.642  0.3894  0.6772 -1.0980
 1109TIP3   OH2 3290   2.453   4.880   1.110 -0.1745 -0.2111  0.0252
 1109TIP3    H1 3291   2.416   4.843   1.191 -0.2286 -0.0967  0.0543
 1109TIP3    H2 3292   2.376   4.909   1.060 -0.1061  0.6097  0.3684
 1110TIP3   OH2 3293   3.307   5.143   2.394  0.5487  0.1244 -0.1088
 1110TIP3    H1 3294   3.228   5.122   2.443 -0.7180  2.7699 -0.8198
 1110TIP3    H2 3295   3.283   5.131   2.302  1.4455 -0.3715 -0.2982
 1111TIP3   OH2 3296   5.860   0.797   3.120 -0.2452  0.5818 -0.1191
 1111TIP3    H1 3297   5.926   0.795   3.051  0.3478 -0.3487  0.4622
 1111TIP3    H2 3298   5.822   0.884   3.114  1.7978  1.5392  0.2545
 1112TIP3   OH2 3299   5.579   0.806   2.710  0.2034  0.2334 -0.1053
 1112TIP3    H1 3300   5.543   0.794   2.798  1.2510 -1.7189  0.1087
 1112TIP3    H2 3301   5.544   0.890   2.681 -1.8598 -0.0457  1.3466
 1113TIP3   OH2 3302   2.154   3.311   0.990 -0.4665 -0.3627  0.0928
 1113TIP3    H1 3303   2.155   3.401   0.956 -0.7698 -0.6448 -0.6748
 1113TIP3    H2 3304   2.241   3.277   0.970  0.5297  0.5042  2.4973
 1114TIP3   OH2 3305   3.172   2.307   5.309 -0.4535  0.2961  0.1445
 1114TIP3    H1 3306   3.078   2.312   5.329 -0.5159 -3.2801  1.5621
 1114TIP3    H2 3307   3.214   2.365   5.372 -1.5493 -0.7684  1.9252
 1115TIP3   OH2 3308   0.756   1.591   2.282 -0.7847  0.4248  0.0692
 1115TIP3    H1 3309   0.676   1.539   2.269 -0.1764 -0.6587  0.5017
 1115TIP3    H2 3310   0.752   1.618   2.374 -0.0670 -0.6964  0.4509
 1116TIP3   OH2 3311   0.786   5.010   3.314  0.5259 -0.1952 -0.4473
 1116TIP3    H1 3312   0.792   4.917   3.292 -1.6322 -0.4663 -0.0360
 1116TIP3    H2 3313   0.736   5.048   3.242  0.8561  0.5412 -0.2965
 1117TIP3   OH2 3314   0.308   1.902   3.012  0.5817 -0.0706  1.1065
 1117TIP3    H1 3315   0.261   1.877   3.092 -0.0772  0.0694  0.7731
 1117TIP3    H2 3316   0.354   1.982   3.034 -2.5244  2.1160  0.3603
 1118TIP3   OH2 3317   6.399   0.026   1.751 -0.3192 -0.3337  0.1807
 1118TIP3    H1 3318   6.490   0.055   1.757 -0.7075  0.9990 -0.1068
 1118TIP3    H2 3319   6.387  -0.030   1.828  0.1127  1.3316  1.5227
 1119TIP3   OH2 3320   2.441   3.563   4.115  0.0631  0.0083  0.1047
 1119TIP3    H1 3321   2.522   3.549   4.163 -0.4180  0.1823  0.9993
 1119TIP3    H2 3322   2.392   3.626   4.168 -0.7353 -0.2412 -0.3119
 1120TIP3   OH2 3323   5.629   1.974   2.342 -0.5634 -0.2400  0.2243
 1120TIP3    H1 3324   5.683   1.902   2.375 -1.1048 -1.0794 -0.6437
 1120TIP3    H2 3325   5.617   2.032   2.417  1.9431  0.2472  0.3298
 1121TIP3   OH2 3326   6.916   0.584   4.444 -0.0062  0.4728  0.0279
 1121TIP3    H1 3327   6.971   0.621   4.513  0.6608  3.4040 -1.8944
 1121TIP3    H2 3328   6.976   0.530   4.393 -0.3502 -1.1446  1.2466
 1122TIP3   OH2 3329   2.772   4.216   1.448 -0.0242  0.0015  0.4573
 1122TIP3    H1 3330   2.856   4.219   1.401 -0.2568 -0.7318 -0.0325
 1122TIP3    H2 3331   2.787   4.266   1.528  0.4986  0.9670 -0.2250
 1123TIP3   OH2 3332   3.187   3.627   4.117 -0.0012  0.3466 -0.0086
 1123TIP3    H1 3333   3.170   3.721   4.125  0.2675  0.3994 -0.0349
 1123TIP3    H2 3334   3.200   3.613   4.023  0.1552  0.3196  0.0165
 1124TIP3   OH2 3335   6.210   1.161   5.244  0.2640 -0.3434  0.1897
 1124TIP3    H1 3336   6.225   1.231   5.309 -0.9527  0.3275 -0.2082
 1124TIP3    H2 3337   6.167   1.092   5.294  1.1371 -0.6784  0.5059
 1125TIP3   OH2 3338   6.451   5.237   5.072 -0.0028 -0.2677  0.7368
 1125TIP3    H1 3339   6.493   5.192   5.145  0.0419 -0.8387  0.3659
 1125TIP3    H2 3340   6.476   5.187   4.995 -0.9880 -0.3487  0.4560
 1126TIP3   OH2 3341   5.077   1.066   1.249 -0.2257  0.0607 -0.4161
 1126TIP3    H1 3342   4.992   1.049   1.209  0.5112 -0.5273 -1.7929
 1126TIP3    H2 3343   5.120   1.127   1.190  0.3741  0.2289  0.1799
 1127TIP3   OH2 3344   6.712   0.155   1.478 -0.5754  0.4118 -0.1425
 1127TIP3    H1 3345   6.653   0.197   1.415  1.0539  1.3299 -1.1260
 1127TIP3    H2 3346   6.757   0.088   1.426 -0.6820 -0.2253  0.5772
 1128TIP3   OH2 3347   1.361   1.801   4.062 -0.8983 -0.3748 -0.5038
 1128TIP3    H1 3348   1.358   1.706   4.066  1.2348 -0.4428  1.4163
 1128TIP3    H2 3349   1.373   1.829   4.152 -1.6968  1.7604 -0.9994
 1129TIP3   OH2 3350   4.072   5.818   3.669 -0.4285  0.0001  0.3668
 1129TIP3    H1 3351   4.026   5.804   3.752 -0.0571  0.3689  0.6397
 1129TIP3    H2 3352   4.045   5.906   3.642 -2.7537 -1.1107 -1.3309
 1130TIP3   OH2 3353   2.089   5.117   4.684 -0.2431  0.9740  0.3631
 1130TIP3    H1 3354   2.082   5.068   4.603 -2.8826 -0.1442  1.1498
 1130TIP3    H2 3355   2.061   5.206   4.662 -0.6266  0.7561 -0.0327
 1131TIP3   OH2 3356   3.951   4.580   0.225 -0.0897  0.1131  0.0282
 1131TIP3    H1 3357   3.942   4.605   0.317  0.6770 -0.1652  0.1877
 1131TIP3    H2 3358   4.012   4.506   0.225 -0.1955  0.0107 -0.6885
 1132TIP3   OH2 3359   4.921   2.754   3.232  0.4723 -0.5102 -0.2123
 1132TIP3    H1 3360   4.876   2.838   3.242 -0.0642 -0.9461  1.2517
 1132TIP3    H2 3361   5.008   2.769   3.271 -0.3221 -1.1504  1.9802
 1133TIP3   OH2 3362   4.533   6.616   2.588 -0.0894  0.2940 -0.6512
 1133TIP3    H1 3363   4.448   6.657   2.571 -0.7718 -0.6451  0.4215
 1133TIP3    H2 3364   4.596   6.685   2.568 -1.2040  1.9432  1.1637
 1134TIP3   OH2 3365   6.314   3.041   4.157  0.0713  0.0486 -0.1274
 1134TIP3    H1 3366   6.393   3.048   4.104  0.8492  0.6982  1.0775
 1134TIP3    H2 3367   6.242   3.052   4.094  0.9735  1.6595 -0.9503
 1135TIP3   OH2 3368   4.334   1.213  -0.001 -0.2794 -0.0226 -0.1603
 1135TIP3    H1 3369   4.422   1.183  -0.026 -0.7317 -0.4960 -1.2794
 1135TIP3    H2 3370   4.297   1.140   0.048  0.5615  0.8573  1.9173
 1136TIP3   OH2 3371   5.181   1.464   5.494  1.0307 -0.0936 -0.0375
 1136TIP3    H1 3372   5.230   1.382   5.498  1.9042  0.2498 -2.2028
 1136TIP3    H2 3373   5.101   1.447   5.545  0.8885 -2.5108 -0.9343
 1137TIP3   OH2 3374   4.499   5.647   1.671  0.3050 -0.0338 -0.6842
 1137TIP3    H1 3375   4.503   5.637   1.766 -1.6712 -0.0256 -0.5689
 1137TIP3    H2 3376   4.507   5.741   1.657 -0.7658  0.1095 -0.4130
 1138TIP3   OH2 3377   0.265   2.656   0.091  0.3039 -0.5326  0.0613
 1138TIP3    H1 3378   0.292   2.591   0.156  2.0016 -0.5209 -0.5775
 1138TIP3    H2 3379   0.209   2.717   0.139 -1.5009 -2.5134  0.6452
 1139TIP3   OH2 3380   2.124   2.343   2.504  0.4521  0.2137 -0.3780
 1139TIP3    H1 3381   2.030   2.359   2.494  0.5723  1.1327 -0.0753
 1139TIP3    H2 3382   2.164   2.381   2.426  0.4007 -2.1433 -1.6547
 1140TIP3   OH2 3383   0.695   2.142   2.051 -0.0522  0.2688 -0.2026
 1140TIP3    H1 3384   0.615   2.136   2.104 -0.0622 -0.2083 -0.2649
 1140TIP3    H2 3385   0.766   2.126   2.113 -0.1193 -1.4818 -0.5148
 1141TIP3   OH2 3386   6.780   6.636   4.552  0.2666  0.0785 -0.0143
 1141TIP3    H1 3387   6.870   6.634   4.521  0.2951 -0.1331  0.0839
 1141TIP3    H2 3388   6.780   6.702   4.621  0.1407  0.7548 -0.6507
 1142TIP3   OH2 3389   1.493   3.650   3.688  0.4720  0.4511  0.1662
 1142TIP3    H1 3390   1.528   3.735   3.718 -0.4639  0.8950  0.0375
 1142TIP3    H2 3391   1.409   3.642   3.732 -0.4171  0.5779 -1.4282
 1143TIP3   OH2 3392   2.845   2.465   1.113 -0.0261 -0.6808  0.0295
 1143TIP3    H1 3393   2.913   2.431   1.171 -0.7740 -2.3675 -0.0270
 1143TIP3    H2 3394   2.766   2.466   1.167 -0.1911  0.2837 -0.2071
 1144TIP3   OH2 3395   0.057   3.207   2.699  1.1784 -0.2677  0.0174
 1144TIP3    H1 3396  -0.016   3.256   2.736  1.0776 -0.7018  0.4095
 1144TIP3    H2 3397   0.133   3.264   2.711  0.7688  0.5760 -1.2272
 1145TIP3   OH2 3398   6.304   1.303   0.577 -0.3452  0.0149 -0.4526
 1145TIP3    H1 3399   6.285   1.374   0.639 -0.1331 -1.0441  0.8578
 1145TIP3    H2 3400   6.354   1.346   0.507  1.5702  0.8233  1.2903
 1146TIP3   OH2 3401   3.334   5.278   4.872 -0.1753 -0.2174 -0.5631
 1146TIP3    H1 3402   3.405   5.227   4.910  0.1375 -0.7159 -1.7439
 1146TIP3    H2 3403   3.330   5.248   4.781 -1.0183  0.7658 -0.8697
 1147TIP3   OH2 3404   4.243   6.104   4.457  0.3326  0.0750 -0.2367
 1147TIP3    H1 3405   4.216   6.024   4.502 -0.3995  1.6299  2.3388
 1147TIP3    H2 3406   4.163   6.157   4.454  1.3075  1.6543  0.3808
 1148TIP3   OH2 3407   0.387   0.043   4.692  0.1389  0.3272  0.0031
 1148TIP3    H1 3408   0.470   0.003   4.666  0.1552  1.4199 -1.7718
 1148TIP3    H2 3409   0.329  -0.031   4.711  1.3313 -0.4498  0.6865
 1149TIP3   OH2 3410   0.974   2.151   4.118  0.1262  0.2078  0.2166
 1149TIP3    H1 3411   0.887   2.153   4.159 -0.0110  0.9693 -0.0938
 1149TIP3    H2 3412   1.023   2.087   4.170 -0.7727 -0.6205  0.0697
 1150TIP3   OH2 3413   6.019   5.177   0.605 -0.0694 -0.0766  0.5202
 1150TIP3    H1 3414   5.954   5.109   0.621  0.0143  0.2242  2.2559
 1150TIP3    H2 3415   5.998   5.209   0.517 -1.4368 -0.8687  0.5303
 1151TIP3   OH2 3416   7.137   0.671   1.435  0.1082 -0.1733  0.2400
 1151TIP3    H1 3417   7.156   0.583   1.465 -0.2449 -0.2718  0.1779
 1151TIP3    H2 3418   7.223   0.711   1.421  0.2697 -0.3228  0.7945
 1152TIP3   OH2 3419   5.587   6.226   5.436  0.3889 -0.2455 -0.3773
 1152TIP3    H1 3420   5.495   6.238   5.413  0.2868  0.3369  0.3198
 1152TIP3    H2 3421   5.602   6.132   5.424 -0.1727 -0.2767 -0.9175
 1153TIP3   OH2 3422   5.241   2.287   3.317 -0.0786 -0.0572  0.4115
 1153TIP3    H1 3423   5.170   2.352   3.314  0.5855  0.6430 -1.7588
 1153TIP3    H2 3424   5.198   2.204   3.301 -0.7501 -0.0283  1.8623
 1154TIP3   OH2 3425   6.470   6.441   0.844  0.5553 -0.4785 -0.2173
 1154TIP3    H1 3426   6.522   6.363   0.862  2.2417  0.5894 -0.2856
 1154TIP3    H2 3427   6.400   6.410   0.786  0.7446 -2.0608  0.3393
 1155TIP3   OH2 3428   7.013   1.654   1.110  0.1373  0.2898 -0.2423
 1155TIP3    H1 3429   6.979   1.605   1.186 -0.5455 -0.0804 -0.7760
 1155TIP3    H2 3430   6.942   1.715   1.089 -0.2727 -0.5655 -1.4422
 1156TIP3   OH2 3431   5.267   5.439   3.873 -0.0302  0.3226  0.0152
 1156TIP3    H1 3432   5.243   5.486   3.953  1.7199 -1.5101  1.7221
 1156TIP3    H2 3433   5.194   5.378   3.858  0.4060 -0.5529  1.2874
 1157TIP3   OH2 3434   3.084   4.807   0.335  0.1167 -0.6127 -0.0615
 1157TIP3    H1 3435   3.082   4.874   0.403 -3.6198  0.4759 -1.0171
 1157TIP3    H2 3436   3.149   4.838   0.273 -0.1976  1.1813  0.4510
 1158TIP3   OH2 3437   3.853   3.481   0.076  0.2823  0.2984 -0.3149
 1158TIP3    H1 3438   3.908   3.542   0.025 -0.1852 -0.1941 -1.4480
 1158TIP3    H2 3439   3.764   3.501   0.048  0.1452 -1.1440 -0.9812
 1159TIP3   OH2 3440   6.619   3.900   2.430  0.7450 -0.1093 -0.1624
 1159TIP3    H1 3441   6.528   3.912   2.402  0.1627 -1.0017  1.2405
 1159TIP3    H2 3442   6.627   3.954   2.509  1.7497  0.7436 -0.8156
 1160TIP3   OH2 3443   5.988   1.972   1.377 -0.0629 -0.5692  0.2475
 1160TIP3    H1 3444   5.974   2.031   1.304  0.9994 -2.1477 -1.3179
 1160TIP3    H2 3445   5.918   1.907   1.370  0.8265 -1.5202 -0.2800
 1161TIP3   OH2 3446   4.572   2.618   0.419 -0.3347 -0.4310 -0.0904
 1161TIP3    H1 3447   4.646   2.676   0.437 -0.5109 -0.4602  0.8047
 1161TIP3    H2 3448   4.514   2.629   0.495 -0.8012 -1.0986 -0.3359
 1162TIP3   OH2 3449   4.689   0.740   4.240  0.0225 -0.2365  0.0473
 1162TIP3    H1 3450   4.705   0.767   4.330 -1.4923 -0.5826  0.4381
 1162TIP3    H2 3451   4.695   0.821   4.189  0.7968 -0.0274  0.4592
 1163TIP3   OH2 3452   5.572   0.120   1.344  0.2277  0.3006 -0.3646
 1163TIP3    H1 3453   5.552   0.029   1.324 -0.9102  0.0408  1.6266
 1163TIP3    H2 3454   5.667   0.126   1.337  0.3113 -1.0325 -0.5811
 1164TIP3   OH2 3455   2.422   4.627   3.322 -0.0853 -0.9236 -0.2791
 1164TIP3    H1 3456   2.418   4.538   3.286  1.1576 -1.9388  1.8702
 1164TIP3    H2 3457   2.510   4.634   3.358 -1.2098 -0.1424  2.6459
 1165TIP3   OH2 3458   0.479   6.392   1.352  0.2033  0.1527  0.0363
 1165TIP3    H1 3459   0.398   6.442   1.363  0.7562  1.2160 -0.5690
 1165TIP3    H2 3460   0.518   6.428   1.272  0.8470 -0.9472 -0.1584
 1166TIP3   OH2 3461   1.844   3.747   4.315  0.2775  0.5092 -0.0491
 1166TIP3    H1 3462   1.750   3.735   4.327  0.4765 -2.2357 -0.6426
 1166TIP3    H2 3463   1.874   3.783   4.399 -1.1073  0.0219  0.6941
 1167TIP3   OH2 3464   3.030   2.141   0.670  0.0473 -0.0720  0.5988
 1167TIP3    H1 3465   2.982   2.058   0.661 -0.7607  0.4425  0.1065
 1167TIP3    H2 3466   3.085   2.128   0.747 -0.1742 -1.0222  0.6097
 1168TIP3   OH2 3467   1.499   1.239   0.852  0.2239  0.1454  0.1344
 1168TIP3    H1 3468   1.561   1.304   0.819  1.8266 -0.2389  2.2040
 1168TIP3    H2 3469   1.501   1.169   0.786  0.8064  0.8107 -0.5819
 1169TIP3   OH2 3470   3.340   1.436   1.210 -0.1248  0.6945 -0.0788
 1169TIP3    H1 3471   3.363   1.511   1.155 -0.9015  1.0155  0.0285
 1169TIP3    H2 3472   3.251   1.453   1.239  1.0425  1.8142  3.3581
 1170TIP3   OH2 3473   6.590   6.632   1.223 -0.2214 -0.2088 -0.5918
 1170TIP3    H1 3474   6.653   6.575   1.180  1.9384  1.2022  0.4912
 1170TIP3    H2 3475   6.612   6.720   1.191  0.3878  0.6784  1.9482
 1171TIP3   OH2 3476   2.482   1.034   3.224 -0.4379 -0.0796 -0.0710
 1171TIP3    H1 3477   2.522   0.950   3.200  0.0295 -0.2454  1.1963
 1171TIP3    H2 3478   2.489   1.037   3.319 -0.8515  1.2071 -0.0641
 1172TIP3   OH2 3479   0.451   4.868   2.942  0.2447 -0.9420  0.0104
 1172TIP3    H1 3480   0.526   4.810   2.951  0.6320 -0.2841  1.2360
 1172TIP3    H2 3481   0.379   4.823   2.986 -0.0323 -1.4523 -0.9337
 1173TIP3   OH2 3482   0.871   1.185   1.159 -0.7114 -0.1184 -0.9486
 1173TIP3    H1 3483   0.906   1.264   1.199 -1.4208 -0.4678  0.4005
 1173TIP3    H2 3484   0.779   1.182   1.185 -0.6995 -1.3975 -0.9588
 1174TIP3   OH2 3485   5.333   6.483   2.558  0.6069 -0.3339  0.0382
 1174TIP3    H1 3486   5.421   6.483   2.595  1.4754 -0.3371 -1.9030
 1174TIP3    H2 3487   5.285   6.550   2.607  1.9851  0.3833  0.4278
 1175TIP3   OH2 3488   3.576   0.674   5.445  0.1817  0.1024  0.1448
 1175TIP3    H1 3489   3.652   0.672   5.386 -0.1527 -0.8234 -0.2603
 1175TIP3    H2 3490   3.572   0.765   5.474  0.1210  0.6943 -1.5744
 1176TIP3   OH2 3491   6.266   2.620   4.111  0.5861  0.3512  0.1960
 1176TIP3    H1 3492   6.336   2.684   4.099  1.1662 -0.5152 -1.3811
 1176TIP3    H2 3493   6.192   2.656   4.062  0.5276  0.3655  0.2938
 1177TIP3   OH2 3494   2.765   1.654   1.729  0.0146 -0.8855  0.0312
 1177TIP3    H1 3495   2.741   1.746   1.741 -2.4915 -1.5330  0.6417
 1177TIP3    H2 3496   2.853   1.647   1.767  0.1897  1.1896  0.1428
 1178TIP3   OH2 3497   5.943   4.928   1.737  0.3992 -1.1292  0.2505
 1178TIP3    H1 3498   5.910   4.884   1.658  1.5667  1.4966 -1.8542
 1178TIP3    H2 3499   5.979   4.857   1.790 -2.0550 -3.2092 -0.6544
 1179TIP3   OH2 3500   0.214   4.953   5.531 -0.0275 -0.0155  0.7487
 1179TIP3    H1 3501   0.233   4.886   5.597  1.6012 -0.0411  0.3036
 1179TIP3    H2 3502   0.171   5.023   5.579 -0.1022 -0.6053  1.5678
 1180TIP3   OH2 3503   1.042   2.565   5.749 -0.5741 -0.6461  0.5831
 1180TIP3    H1 3504   1.087   2.637   5.705 -0.4130 -1.3395 -0.4199
 1180TIP3    H2 3505   1.107   2.529   5.809  0.0006 -1.2032 -0.3560
 1181TIP3   OH2 3506   3.562   6.549   0.598 -0.0895 -0.1239 -0.1223
 1181TIP3    H1 3507   3.646   6.595   0.601  0.1656 -0.5992  0.5544
 1181TIP3    H2 3508   3.572   6.485   0.527  1.0910 -1.8949  1.5215
 1182TIP3   OH2 3509   6.437   4.101   2.058  0.1128  0.0312 -0.1147
 1182TIP3    H1 3510   6.374   4.106   2.129  0.3641  0.5133  0.0818
 1182TIP3    H2 3511   6.503   4.039   2.088  0.6242  0.8070  0.4149
 1183TIP3   OH2 3512   4.077   3.254   5.860  0.1476  0.1466  0.4682
 1183TIP3    H1 3513   4.011   3.270   5.928 -0.0285  1.9825 -0.0727
 1183TIP3    H2 3514   4.032   3.276   5.778  0.7226 -0.9032 -0.1503
 1184TIP3   OH2 3515   4.123   5.665   3.240  0.0823  0.0741 -0.0242
 1184TIP3    H1 3516   4.052   5.724   3.212  0.9629  1.1282 -0.1324
 1184TIP3    H2 3517   4.201   5.721   3.241  0.6788 -0.7277  1.3884
 1185TIP3   OH2 3518   6.620   1.844   5.152 -0.4047  0.0064  0.0236
 1185TIP3    H1 3519   6.697   1.882   5.193  0.3339 -0.9193 -0.4731
 1185TIP3    H2 3520   6.600   1.902   5.079 -2.1993  2.1219  2.0375
 1186TIP3   OH2 3521   1.695   4.401   2.916 -0.1684 -0.3943 -0.8236
 1186TIP3    H1 3522   1.740   4.482   2.891 -1.5860  0.4193 -0.9135
 1186TIP3    H2 3523   1.764   4.337   2.930  0.9823  0.7821 -0.9739
 1187TIP3   OH2 3524   0.655   5.681   0.838  0.2021  0.4818  0.2785
 1187TIP3    H1 3525   0.584   5.648   0.892 -0.9614  0.7467 -1.0118
 1187TIP3    H2 3526   0.648   5.777   0.845  1.4002  0.5189  1.3142
 1188TIP3   OH2 3527   1.861   5.306   4.964 -0.4267 -0.2631  0.0777
 1188TIP3    H1 3528   1.913   5.226   4.976  0.6283  0.4706  0.5916
 1188TIP3    H2 3529   1.874   5.356   5.045  0.4425  1.2428 -0.9289
 1189TIP3   OH2 3530   4.263   1.811   5.579  0.5357 -0.4154  0.1012
 1189TIP3    H1 3531   4.318   1.837   5.653 -0.2695 -0.7815  0.8455
 1189TIP3    H2 3532   4.292   1.867   5.507  0.5917  0.7150  0.9785
 1190TIP3   OH2 3533   4.385   0.291   2.593  0.2309  0.5387  0.1106
 1190TIP3    H1 3534   4.470   0.292   2.548 -0.7404 -2.4245 -2.0946
 1190TIP3    H2 3535   4.386   0.211   2.646 -1.6597 -0.3457 -1.0909
 1191TIP3   OH2 3536   2.067   0.300   1.199  0.2621 -0.1611  0.3635
 1191TIP3    H1 3537   2.023   0.372   1.243 -0.3420 -1.5093  2.0679
 1191TIP3    H2 3538   2.015   0.284   1.120  1.2447  2.1501 -0.8602
 1192TIP3   OH2 3539   0.017   3.421   4.820  0.0646 -0.0335 -0.2916
 1192TIP3    H1 3540  -0.028   3.340   4.796 -1.6054 -0.0533  2.4836
 1192TIP3    H2 3541   0.107   3.407   4.792 -0.4398 -2.3349 -1.0082
 1193TIP3   OH2 3542   1.760   1.761   5.230  0.2950  0.4540  0.4784
 1193TIP3    H1 3543   1.675   1.763   5.187  1.1804  0.0373 -1.3970
 1193TIP3    H2 3544   1.761   1.677   5.277 -0.2427  0.3604  0.3258
 1194TIP3   OH2 3545   4.347   0.098   4.622  0.4465 -0.2524 -0.0962
 1194TIP3    H1 3546   4.417   0.074   4.561  1.5946 -0.2673  1.1803
 1194TIP3    H2 3547   4.330   0.191   4.603  1.1657 -0.1146 -0.0974
 1195TIP3   OH2 3548   4.754   2.538   3.380  0.1082  0.0046  0.2457
 1195TIP3    H1 3549   4.787   2.604   3.441 -0.9830  0.0028  0.8588
 1195TIP3    H2 3550   4.668   2.570   3.354  0.1309 -0.5111 -0.5198
 1196TIP3   OH2 3551   1.020   1.811   0.462  0.1231 -0.1819  0.1399
 1196TIP3    H1 3552   1.024   1.745   0.394 -0.9462  0.2467 -0.3522
 1196TIP3    H2 3553   0.974   1.885   0.422  0.9929  0.7423  0.7825
 1197TIP3   OH2 3554   5.773   1.289   0.150 -0.0134  0.2980  0.2168
 1197TIP3    H1 3555   5.823   1.345   0.208 -0.0524 -0.8782  1.4288
 1197TIP3    H2 3556   5.692   1.271   0.198 -1.0791  1.1314 -1.1697
 1198TIP3   OH2 3557   3.845   6.380   5.252  0.3805 -0.4834  0.2708
 1198TIP3    H1 3558   3.857   6.426   5.168  0.4359  0.7300  0.9277
 1198TIP3    H2 3559   3.801   6.443   5.308  0.8143 -1.1012  1.3296
 1199TIP3   OH2 3560   4.047   2.076   4.301 -0.0983  0.7943  0.2145
 1199TIP3    H1 3561   3.972   2.088   4.359 -0.9138  0.2128 -0.6721
 1199TIP3    H2 3562   4.048   1.981   4.283 -1.0745  1.1498 -2.1890
 1200TIP3   OH2 3563   4.385   0.860   4.165  0.2915 -0.0273 -0.1588
 1200TIP3    H1 3564   4.396   0.947   4.127 -0.8054 -0.4758 -1.5855
 1200TIP3    H2 3565   4.290   0.849   4.172  0.4376 -0.7157  0.9786
 1201TIP3   OH2 3566   0.339   3.891   5.053  0.1451 -0.0791  0.1415
 1201TIP3    H1 3567   0.272   3.825   5.034 -0.5174  0.2552  1.2321
 1201TIP3    H2 3568   0.422   3.844   5.046 -0.3550 -1.3514  2.0958
 1202TIP3   OH2 3569   2.416   5.627   1.184 -0.8923 -0.1603 -0.8854
 1202TIP3    H1 3570   2.340   5.631   1.242 -0.6772  1.1565 -0.6610
 1202TIP3    H2 3571   2.448   5.717   1.180  0.2777 -0.5786 -1.4884
 1203TIP3   OH2 3572   1.262   6.636   1.369  0.2955 -0.1283  0.7775
 1203TIP3    H1 3573   1.308   6.578   1.429 -1.1546 -2.0336  0.1286
 1203TIP3    H2 3574   1.187   6.585   1.339  1.1741  0.5553 -3.0052
 1204TIP3   OH2 3575   0.884   2.435   5.564  0.6520  0.0490  0.1504
 1204TIP3    H1 3576   0.951   2.476   5.619 -0.3621  0.0852  1.3911
 1204TIP3    H2 3577   0.920   2.349   5.543  1.4517  0.3894  0.0785
 1205TIP3   OH2 3578   1.265   0.427   1.815 -0.3684 -0.1801  0.2181
 1205TIP3    H1 3579   1.172   0.409   1.830 -0.6267  1.0100  0.1326
 1205TIP3    H2 3580   1.294   0.472   1.893  0.3244 -1.1367  0.5280
 1206TIP3   OH2 3581   0.336   6.538   2.433 -0.2626 -0.0092  0.4420
 1206TIP3    H1 3582   0.283   6.594   2.377  0.1363 -0.0914 -0.0305
 1206TIP3    H2 3583   0.324   6.450   2.397 -1.3275 -0.3248  1.5187
 1207TIP3   OH2 3584   6.207   3.583   2.248 -0.0380  0.2873  0.2968
 1207TIP3    H1 3585   6.147   3.643   2.204 -1.8773 -1.3836  0.3506
 1207TIP3    H2 3586   6.261   3.547   2.178  0.9378  1.7830  0.2395
 1208TIP3   OH2 3587   4.622   3.186   5.312 -0.1114 -0.5274 -0.8734
 1208TIP3    H1 3588   4.551   3.208   5.373  1.4905  0.6026  0.6618
 1208TIP3    H2 3589   4.629   3.263   5.256  1.3476  0.3416  0.4423
 1209TIP3   OH2 3590   2.060   1.846   4.515  0.2660  0.3852  0.4958
 1209TIP3    H1 3591   2.075   1.761   4.475  1.9304 -0.4530  2.7016
 1209TIP3    H2 3592   1.965   1.853   4.521  0.0857 -1.1076 -0.1324
 1210TIP3   OH2 3593   4.962   5.384   4.143 -0.2207 -0.7462 -0.2959
 1210TIP3    H1 3594   5.007   5.301   4.132 -0.8381 -1.1823  0.4152
 1210TIP3    H2 3595   5.032   5.449   4.142  0.2776 -1.2776 -0.7297
 1211TIP3   OH2 3596   3.069   1.558   2.694  0.0580  0.0028  0.1936
 1211TIP3    H1 3597   3.039   1.515   2.614 -0.3263 -1.0483  0.8801
 1211TIP3    H2 3598   3.054   1.493   2.763  1.1190  0.5810  1.0044
 1212TIP3   OH2 3599   1.677   4.820   2.044 -0.1155 -0.0713  0.2355
 1212TIP3    H1 3600   1.602   4.813   1.985  0.3626  1.2675 -0.5741
 1212TIP3    H2 3601   1.639   4.837   2.130 -0.7831 -1.0655  0.1608
 1213TIP3   OH2 3602   6.000   4.937   3.929  0.2752  0.2286  0.0130
 1213TIP3    H1 3603   6.070   4.954   3.993 -0.0958  0.0123  0.4834
 1213TIP3    H2 3604   5.977   4.845   3.943 -0.5847  0.4868  0.3490
 1214TIP3   OH2 3605   4.031   1.104   2.510 -0.2669  0.3000  0.4382
 1214TIP3    H1 3606   3.946   1.142   2.532 -0.1646  0.0036  1.3873
 1214TIP3    H2 3607   4.014   1.050   2.432 -0.4056  2.2516 -0.9566
 1215TIP3   OH2 3608   1.149   1.366   4.820 -0.1536  0.8783  0.3033
 1215TIP3    H1 3609   1.235   1.326   4.809 -0.3994  0.1455  0.9417
 1215TIP3    H2 3610   1.094   1.323   4.756  0.0522  1.6933 -0.4423
 1216TIP3   OH2 3611   1.056   2.687   2.298  0.3071  0.1143 -0.5330
 1216TIP3    H1 3612   1.109   2.725   2.228  0.2187  0.3116 -0.4950
 1216TIP3    H2 3613   0.997   2.626   2.254  0.2890  0.1969 -0.6226
 1217TIP3   OH2 3614   4.207   6.596   3.325 -0.1194 -0.7708 -0.0811
 1217TIP3    H1 3615   4.293   6.561   3.302  0.8420  1.1415  0.3759
 1217TIP3    H2 3616   4.193   6.568   3.415  1.2589  1.0163  0.7557
 1218TIP3   OH2 3617   6.061   0.333   5.530 -0.5636 -0.3022 -0.3134
 1218TIP3    H1 3618   6.040   0.347   5.622  0.2779 -0.8826 -0.0147
 1218TIP3    H2 3619   6.077   0.421   5.495  3.1876 -0.2002  1.1464
 1219TIP3   OH2 3620   6.642   1.574   2.783  0.1007  0.1958  0.0151
 1219TIP3    H1 3621   6.595   1.490   2.775  2.0313 -1.3584  3.0869
 1219TIP3    H2 3622   6.726   1.558   2.741  0.8592  0.2091  1.4882
 1220TIP3   OH2 3623   3.795   5.566   3.455  0.0217  0.1895 -0.3550
 1220TIP3    H1 3624   3.843   5.567   3.372 -0.3283  0.9897 -0.5685
 1220TIP3    H2 3625   3.703   5.561   3.429 -0.1997  2.1747 -0.1112
 1221TIP3   OH2 3626   6.692   6.447   3.775 -0.1156 -0.2015  0.2644
 1221TIP3    H1 3627   6.655   6.364   3.805  0.3326 -0.9860 -1.2395
 1221TIP3    H2 3628   6.618   6.495   3.738 -0.1480 -0.5168 -0.0851
 1222TIP3   OH2 3629   0.521   6.586   0.313 -0.1078  0.4362 -0.1493
 1222TIP3    H1 3630   0.513   6.555   0.223 -0.4679 -1.0186  0.3615
 1222TIP3    H2 3631   0.592   6.650   0.310 -0.1353  0.4267 -1.4647
 1223TIP3   OH2 3632   2.053   6.165   1.407  0.2621 -0.1931  0.3892
 1223TIP3    H1 3633   2.130   6.210   1.443 -0.3783  1.7875 -0.6017
 1223TIP3    H2 3634   2.090   6.091   1.358  1.5858  1.0268 -0.5261
 1224TIP3   OH2 3635   0.690   2.001   5.729 -0.3141 -0.1375  0.0611
 1224TIP3    H1 3636   0.615   1.994   5.669 -0.5828  1.1369  0.2235
 1224TIP3    H2 3637   0.668   1.941   5.800 -1.4046  0.5129  0.3092
 1225TIP3   OH2 3638   0.390   6.168   2.713 -0.1266  0.0512  0.3443
 1225TIP3    H1 3639   0.376   6.239   2.777 -0.0215 -0.3825  0.8550
 1225TIP3    H2 3640   0.485   6.156   2.712  0.1679  1.8072 -1.8270
 1226TIP3   OH2 3641   4.582   2.451   3.097  0.3078  0.3266 -0.0672
 1226TIP3    H1 3642   4.577   2.509   3.173 -0.1247  0.0236  0.1363
 1226TIP3    H2 3643   4.573   2.363   3.133 -0.9851  0.2343 -0.5752
 1227TIP3   OH2 3644   5.032   0.455   4.269 -0.3114  0.6136  0.2436
 1227TIP3    H1 3645   4.972   0.459   4.343 -0.0029  0.8818  0.4821
 1227TIP3    H2 3646   5.093   0.527   4.284 -0.6788  1.1296 -0.6441
 1228TIP3   OH2 3647   6.995   5.218   4.070  0.1653  0.1039 -0.3823
 1228TIP3    H1 3648   7.087   5.227   4.093  0.2605  0.8460 -1.0538
 1228TIP3    H2 3649   6.964   5.148   4.128  0.6968  1.0649  1.1418
 1229TIP3   OH2 3650   4.478   1.572   2.813  0.0608 -0.2897 -0.4499
 1229TIP3    H1 3651   4.496   1.524   2.894 -2.0181  1.1907  0.9708
 1229TIP3    H2 3652   4.564   1.606   2.786  0.6576  0.0131  1.6875
 1230TIP3   OH2 3653   6.385   5.390   1.740  0.0371 -0.2786 -0.3527
 1230TIP3    H1 3654   6.417   5.341   1.815 -0.0172  0.6679  0.3070
 1230TIP3    H2 3655   6.465   5.419   1.695  0.0688 -1.3681 -1.0265
 1231TIP3   OH2 3656   0.925   5.780   0.442 -0.2464  0.3059 -0.1227
 1231TIP3    H1 3657   0.862   5.724   0.397 -1.5082 -0.0981  2.0137
 1231TIP3    H2 3658   0.875   5.859   0.463 -0.1498 -0.0752  1.7163
 1232TIP3   OH2 3659   4.269   3.783   4.349  0.0086 -0.1887 -0.1279
 1232TIP3    H1 3660   4.205   3.718   4.378 -0.4962  0.4945  0.3147
 1232TIP3    H2 3661   4.298   3.751   4.263 -0.6689 -0.6832 -0.1808
 1233TIP3   OH2 3662   4.819   1.692   1.795  0.1438 -0.0085 -0.0866
 1233TIP3    H1 3663   4.853   1.770   1.839  0.2304 -0.5228  0.7889
 1233TIP3    H2 3664   4.727   1.688   1.821  0.1585 -0.2399 -0.0736
 1234TIP3   OH2 3665   3.508   0.158   5.291 -0.4697  0.1842  0.1972
 1234TIP3    H1 3666   3.555   0.240   5.280  1.8999 -1.2544 -1.4595
 1234TIP3    H2 3667   3.462   0.145   5.208 -2.1264  0.5242  1.0200
 1235TIP3   OH2 3668   5.676   0.715   0.459 -0.4105  0.0341 -0.3642
 1235TIP3    H1 3669   5.693   0.685   0.370  1.9597 -1.2199  0.4335
 1235TIP3    H2 3670   5.598   0.667   0.487 -0.5001 -0.4145 -1.3665
 1236TIP3   OH2 3671   3.001   4.748  -0.012 -0.9440 -0.8366 -0.1819
 1236TIP3    H1 3672   3.080   4.790   0.021 -0.8594  0.2047 -1.6339
 1236TIP3    H2 3673   2.943   4.745   0.064 -0.3546  0.4942  0.3518
 1237TIP3   OH2 3674   1.784   5.437   4.034 -0.1198  0.2598  0.3936
 1237TIP3    H1 3675   1.698   5.396   4.029 -0.3014  0.7646 -1.4298
 1237TIP3    H2 3676   1.770   5.525   3.998  1.0892  0.4516  0.3669
 1238TIP3   OH2 3677   4.201   6.726   3.721  0.4577 -0.4304 -0.3383
 1238TIP3    H1 3678   4.253   6.783   3.666  0.2728  1.6890  1.5479
 1238TIP3    H2 3679   4.196   6.643   3.672  3.4881  0.0500 -1.6701
 1239TIP3   OH2 3680   3.408   5.542   1.629  0.9001  0.8372  0.3180
 1239TIP3    H1 3681   3.372   5.461   1.666  0.3443  1.1865  0.5555
 1239TIP3    H2 3682   3.503   5.530   1.634  0.8324 -0.0527 -0.2139
 1240TIP3   OH2 3683   4.014   4.240   1.815 -0.1296 -0.3654  0.1961
 1240TIP3    H1 3684   4.076   4.260   1.745 -0.2514  0.0544  0.2049
 1240TIP3    H2 3685   3.933   4.283   1.787  0.0257  0.4387  0.9601
 1241TIP3   OH2 3686   4.462   5.048   5.631  0.3143  0.2135  0.1365
 1241TIP3    H1 3687   4.415   4.980   5.583  1.1386  0.8050 -1.5963
 1241TIP3    H2 3688   4.403   5.123   5.632 -0.5855 -0.4553  2.0285
 1242TIP3   OH2 3689   6.866   2.037   4.663  0.7769  0.6289  0.1543
 1242TIP3    H1 3690   6.944   1.984   4.652 -0.0323 -0.6054  0.1098
 1242TIP3    H2 3691   6.867   2.063   4.754  1.7349  1.4520 -0.0802
 1243TIP3   OH2 3692   3.565   0.393   4.340 -0.0475 -0.1737  0.2046
 1243TIP3    H1 3693   3.605   0.473   4.373 -1.1848  0.8586 -0.8099
 1243TIP3    H2 3694   3.638   0.340   4.309  0.6132  1.2019 -0.6338
 1244TIP3   OH2 3695   2.152   5.342   1.421  0.6608 -0.4965 -0.2577
 1244TIP3    H1 3696   2.244   5.343   1.395  0.3935  0.7983 -1.2357
 1244TIP3    H2 3697   2.131   5.249   1.430  1.8168 -0.8382 -0.9088
 1245TIP3   OH2 3698   5.437   3.001   3.817 -0.1348  0.1902 -0.7438
 1245TIP3    H1 3699   5.434   2.945   3.895 -0.3508 -0.4349 -1.1934
 1245TIP3    H2 3700   5.411   3.088   3.849  1.1290  0.2761  0.1573
 1246TIP3   OH2 3701   0.163   3.433   5.321 -0.4948 -0.3043 -0.3952
 1246TIP3    H1 3702   0.140   3.410   5.411 -0.5232  0.4330 -0.2110
 1246TIP3    H2 3703   0.083   3.417   5.271 -0.6087 -0.2960 -0.2182
 1247TIP3   OH2 3704   2.875   6.686   5.153 -0.3668 -0.0752  0.6731
 1247TIP3    H1 3705   2.868   6.614   5.216  0.2620  0.6454  1.5884
 1247TIP3    H2 3706   2.832   6.652   5.074  1.6175 -2.2083  0.3910
 1248TIP3   OH2 3707   1.139   1.608   1.051  0.3798  0.0201 -0.4139
 1248TIP3    H1 3708   1.134   1.683   1.109 -1.5752 -0.9771  0.7901
 1248TIP3    H2 3709   1.192   1.544   1.099 -0.6871 -0.5636 -0.0042
 1249TIP3   OH2 3710   4.685   2.637   1.728  0.5114 -0.3657 -0.0047
 1249TIP3    H1 3711   4.591   2.645   1.708  0.6759 -0.0825 -0.6876
 1249TIP3    H2 3712   4.687   2.622   1.823 -0.1441  1.7159  0.4098
 1250TIP3   OH2 3713   6.703   4.823   5.018 -0.1491  0.2979 -0.2306
 1250TIP3    H1 3714   6.759   4.848   5.091 -0.4130  1.7538 -0.4933
 1250TIP3    H2 3715   6.741   4.742   4.986 -0.0176 -0.3716  1.5012
 1251TIP3   OH2 3716   0.649   5.403   1.217 -0.5780 -0.3115 -0.1192
 1251TIP3    H1 3717   0.689   5.478   1.260 -1.9849  1.1168 -1.1763
 1251TIP3    H2 3718   0.721   5.362   1.169 -0.2078  1.8874 -1.5831
 1252TIP3   OH2 3719   4.015   3.229   4.219 -0.1380  0.1459  0.3551
 1252TIP3    H1 3720   3.942   3.223   4.158  0.5264 -1.1287 -0.3732
 1252TIP3    H2 3721   4.093   3.237   4.163  0.3182  1.1571  1.1027
 1253TIP3   OH2 3722   4.386   1.158   3.224  0.0269 -0.3279 -0.2729
 1253TIP3    H1 3723   4.475   1.194   3.214  0.3962 -1.0930  0.1662
 1253TIP3    H2 3724   4.386   1.079   3.170  0.4823 -1.7866  1.7157
 1254TIP3   OH2 3725   0.882   3.518   0.290 -0.0783  0.0735  0.6673
 1254TIP3    H1 3726   0.826   3.445   0.264  0.1486 -0.3256  1.2892
 1254TIP3    H2 3727   0.827   3.596   0.276 -1.5821 -0.4129  3.1158
 1255TIP3   OH2 3728   4.579   5.389   0.241 -0.0693 -0.5797  0.1206
 1255TIP3    H1 3729   4.510   5.430   0.189  0.6313  0.7652  0.1986
 1255TIP3    H2 3730   4.658   5.440   0.220  0.8995 -2.0399  0.0690
 1256TIP3   OH2 3731   6.020   1.810   2.629 -0.7498  0.3154  0.4364
 1256TIP3    H1 3732   6.082   1.881   2.644  0.5710 -1.1582  2.4467
 1256TIP3    H2 3733   5.985   1.789   2.716 -0.0006 -2.3836  0.1812
 1257TIP3   OH2 3734   1.925   2.332   0.171 -0.3396 -0.2411  0.6366
 1257TIP3    H1 3735   1.878   2.249   0.155 -0.7589 -0.0176  0.6962
 1257TIP3    H2 3736   1.968   2.319   0.255  1.8786 -1.4275 -0.5864
 1258TIP3   OH2 3737   2.467   1.213   1.612  0.0601  0.5643  0.5531
 1258TIP3    H1 3738   2.525   1.266   1.667  0.3022  0.1350  0.7183
 1258TIP3    H2 3739   2.526   1.171   1.549 -0.2780  1.4879 -0.4000
 1259TIP3   OH2 3740   4.968   2.931   1.971  0.0161 -0.1246  0.3411
 1259TIP3    H1 3741   5.053   2.958   1.936 -0.7033 -0.0960 -1.4644
 1259TIP3    H2 3742   4.955   2.987   2.048  1.6768 -0.2339  0.7326
 1260TIP3   OH2 3743   3.984   6.107   5.064  0.7516 -0.0011 -0.1946
 1260TIP3    H1 3744   3.933   6.185   5.040 -0.3902 -1.1241 -1.5713
 1260TIP3    H2 3745   3.918   6.039   5.076  1.8954 -1.5033 -1.9637
 1261TIP3   OH2 3746   2.662   5.839   4.056  0.2185 -0.1134  0.2366
 1261TIP3    H1 3747   2.598   5.900   4.019  1.0028 -0.4016 -1.7075
 1261TIP3    H2 3748   2.622   5.808   4.137 -1.9753 -0.0757 -0.7752
 1262TIP3   OH2 3749   6.715   2.847   1.629  0.0532 -0.2831 -0.2480
 1262TIP3    H1 3750   6.780   2.906   1.591 -0.7974  0.8050 -0.0537
 1262TIP3    H2 3751   6.742   2.837   1.720 -1.0876  1.7342  0.3664
 1263TIP3   OH2 3752   3.621   1.364   0.334 -0.0090 -0.2409 -0.2590
 1263TIP3    H1 3753   3.608   1.278   0.294  0.4662 -0.5087  0.1550
 1263TIP3    H2 3754   3.569   1.423   0.280  1.5088 -0.3942 -1.9836
 1264TIP3   OH2 3755   2.231   5.742   0.499 -0.4363 -0.8272 -0.1125
 1264TIP3    H1 3756   2.259   5.697   0.579 -0.1319 -1.8837 -0.7880
 1264TIP3    H2 3757   2.213   5.671   0.437  0.6254 -0.0258 -1.4052
 1265TIP3   OH2 3758   1.123   0.700   2.854 -0.2400 -0.1605  0.1655
 1265TIP3    H1 3759   1.137   0.702   2.760  1.5997 -0.5648  0.4078
 1265TIP3    H2 3760   1.032   0.673   2.864  0.0704 -1.9915 -1.4615
 1266TIP3   OH2 3761   6.528   1.121   0.357 -0.3407 -0.2669 -0.5257
 1266TIP3    H1 3762   6.450   1.082   0.397 -0.1123  0.6714  0.9089
 1266TIP3    H2 3763   6.587   1.047   0.341 -0.6630 -0.7395  0.3978
 1267TIP3   OH2 3764   5.908   1.041   2.302 -0.6200 -0.2891  0.0535
 1267TIP3    H1 3765   5.920   1.104   2.373  1.7365 -0.5410 -0.0590
 1267TIP3    H2 3766   5.813   1.029   2.297 -1.0366  2.0051  1.1349
 1268TIP3   OH2 3767   6.069   1.853   4.915 -0.4350  0.3674 -0.2083
 1268TIP3    H1 3768   6.026   1.768   4.925 -0.2315  0.2985  0.0717
 1268TIP3    H2 3769   6.138   1.837   4.850  0.3234  0.0491  0.6554
 1269TIP3   OH2 3770   1.469   2.938   5.126 -0.4838 -0.3776  0.2648
 1269TIP3    H1 3771   1.475   3.023   5.083  0.1700  0.6839  2.2894
 1269TIP3    H2 3772   1.499   2.875   5.061 -0.2471  1.0275 -1.0348
 1270TIP3   OH2 3773   6.908   0.845   1.783  0.1043 -0.0670 -0.0200
 1270TIP3    H1 3774   6.843   0.866   1.850  0.0615 -0.6930  0.1389
 1270TIP3    H2 3775   6.957   0.926   1.770  1.4987 -0.4645  2.2688
 1271TIP3   OH2 3776   3.886   3.015   0.895 -0.3545 -0.3161  0.2337
 1271TIP3    H1 3777   3.807   3.065   0.914 -1.2383 -1.3677 -0.6177
 1271TIP3    H2 3778   3.939   3.023   0.975  0.1536  3.0223 -0.2914
 1272TIP3   OH2 3779   4.466   3.934   1.014  0.2490 -0.3298 -0.6769
 1272TIP3    H1 3780   4.410   4.008   1.038 -0.9641 -1.7955  1.3178
 1272TIP3    H2 3781   4.554   3.969   1.014 -0.2503  1.0390  0.6701
 1273TIP3   OH2 3782   1.775   0.961   1.597 -0.7528  0.2196 -0.2487
 1273TIP3    H1 3783   1.833   1.036   1.582  0.5642 -0.9197 -1.0813
 1273TIP3    H2 3784   1.803   0.924   1.681 -0.3291 -0.2642 -0.5965
 1274TIP3   OH2 3785   0.196   3.097   5.146  0.1048 -0.3359 -0.9594
 1274TIP3    H1 3786   0.152   3.080   5.062 -1.2100  1.1342 -0.6159
 1274TIP3    H2 3787   0.128   3.138   5.200  1.6421  1.1520 -0.0686
 1275TIP3   OH2 3788   3.694   3.525   0.845 -0.1366  0.3767  0.1851
 1275TIP3    H1 3789   3.604   3.552   0.830 -0.3533 -0.0671  0.6285
 1275TIP3    H2 3790   3.716   3.471   0.769  0.0477  1.1675 -0.3355
 1276TIP3   OH2 3791   1.986   5.265   3.578  0.1940 -0.6969  0.2593
 1276TIP3    H1 3792   2.026   5.292   3.660  0.0671 -1.7690  0.6969
 1276TIP3    H2 3793   1.899   5.234   3.602  0.2106 -1.1710 -0.2489
 1277TIP3   OH2 3794   3.680   1.099   5.615 -0.4824 -0.0575  0.2171
 1277TIP3    H1 3795   3.654   1.160   5.684 -0.4214 -1.3852  1.4747
 1277TIP3    H2 3796   3.602   1.047   5.599 -0.2067 -0.4041 -0.0150
 1278TIP3   OH2 3797   6.214   2.746   4.765 -0.2133  0.0089 -0.1176
 1278TIP3    H1 3798   6.275   2.815   4.788 -0.3488  0.4966 -1.1733
 1278TIP3    H2 3799   6.189   2.764   4.675 -0.4056 -1.3024 -0.3552
 1279TIP3   OH2 3800   0.172   2.521   1.294 -0.4329  0.3836 -0.1623
 1279TIP3    H1 3801   0.125   2.561   1.367 -2.4687  2.2853 -2.3688
 1279TIP3    H2 3802   0.104   2.498   1.231  1.2825 -0.7914 -1.6780
 1280TIP3   OH2 3803   0.353   1.174   4.290  0.2037 -0.2014  0.7738
 1280TIP3    H1 3804   0.426   1.176   4.228  0.1315  0.3357  0.7038
 1280TIP3    H2 3805   0.389   1.130   4.367  0.1464 -1.3348  0.1793
 1281TIP3   OH2 3806   3.105   3.226   4.395 -0.2732  0.7277 -0.0636
 1281TIP3    H1 3807   3.176   3.178   4.351  1.7727  3.6123 -0.2288
 1281TIP3    H2 3808   3.041   3.242   4.325 -0.9564 -1.5430 -0.0211
 1282TIP3   OH2 3809   3.844   1.204   0.798  0.2234 -0.5713 -1.4728
 1282TIP3    H1 3810   3.776   1.227   0.734 -1.2752 -1.6804 -0.3527
 1282TIP3    H2 3811   3.803   1.137   0.853  1.0074  1.1523  1.3956
 1283TIP3   OH2 3812   5.749   5.403   0.277 -0.2174  0.0139 -0.0755
 1283TIP3    H1 3813   5.756   5.483   0.329 -2.1979  1.3035 -1.6748
 1283TIP3    H2 3814   5.800   5.420   0.199  2.1317 -1.6414  0.9940
 1284TIP3   OH2 3815   2.209   4.554   3.768 -0.9817 -0.3954  0.0017
 1284TIP3    H1 3816   2.174   4.482   3.820 -0.2388 -0.2878  0.6653
 1284TIP3    H2 3817   2.293   4.522   3.735  0.6491  1.0089  2.4447
 1285TIP3   OH2 3818   0.473   0.910   2.940  0.0198  0.1871 -0.5045
 1285TIP3    H1 3819   0.448   0.983   2.884  1.1049 -0.5490 -2.0253
 1285TIP3    H2 3820   0.395   0.854   2.942 -1.7836  2.4821  2.7952
 1286TIP3   OH2 3821   2.711   5.999   4.876 -0.1622  0.7528 -0.0735
 1286TIP3    H1 3822   2.636   6.030   4.826 -0.6642 -0.1016  0.1314
 1286TIP3    H2 3823   2.744   5.923   4.827 -0.9818 -0.4241  1.1233
 1287TIP3   OH2 3824   3.149   5.451   5.279 -0.0281 -0.4501 -0.2134
 1287TIP3    H1 3825   3.182   5.491   5.360  2.2423 -1.2505 -0.6786
 1287TIP3    H2 3826   3.175   5.512   5.210 -0.2921 -0.6788 -0.5153
 1288TIP3   OH2 3827   0.284   3.805   3.729 -0.6506 -0.0970 -0.3205
 1288TIP3    H1 3828   0.211   3.856   3.764  0.0074 -0.3218  1.4909
 1288TIP3    H2 3829   0.281   3.820   3.635 -0.7452  2.9448  0.0715
 1289TIP3   OH2 3830   2.168   6.182   4.811 -0.1208  0.1518  0.3980
 1289TIP3    H1 3831   2.190   6.094   4.843  0.8673  0.0207 -0.5875
 1289TIP3    H2 3832   2.094   6.169   4.752  1.3254 -0.3622 -1.3999
 1290TIP3   OH2 3833   2.894   4.429   4.464  0.1625  0.0083 -0.2535
 1290TIP3    H1 3834   2.937   4.354   4.505  0.5275  0.0592 -0.5347
 1290TIP3    H2 3835   2.840   4.467   4.533  1.0500  0.3123  0.2845
 1291TIP3   OH2 3836   1.669   5.232   5.366 -0.0918  0.2889 -0.5950
 1291TIP3    H1 3837   1.597   5.204   5.423 -0.2794  2.7281  0.4926
 1291TIP3    H2 3838   1.652   5.188   5.283 -2.6810  0.5316 -0.2850
 1292TIP3   OH2 3839   2.916   6.228   1.640 -0.1550  0.5833 -0.0705
 1292TIP3    H1 3840   2.851   6.185   1.584  1.1214  0.8888 -1.8747
 1292TIP3    H2 3841   2.896   6.197   1.728 -1.9530 -0.2963 -0.7417
 1293TIP3   OH2 3842   1.099   6.485   1.747  0.3632 -0.4822  0.0425
 1293TIP3    H1 3843   1.046   6.496   1.826 -1.9647 -1.3059 -1.2815
 1293TIP3    H2 3844   1.088   6.567   1.699 -1.5606 -1.3937 -1.2000
 1294TIP3   OH2 3845   1.336   5.845   3.218  0.0877  0.0215 -0.3524
 1294TIP3    H1 3846   1.322   5.855   3.124  2.8858 -0.0501 -0.8676
 1294TIP3    H2 3847   1.261   5.794   3.248 -0.4495 -0.7070 -2.7201
 1295TIP3   OH2 3848   6.534   0.675   0.792  0.1215  0.1843 -0.4018
 1295TIP3    H1 3849   6.493   0.722   0.865  3.1059 -1.3059  2.5001
 1295TIP3    H2 3850   6.483   0.594   0.785  0.8560 -0.4952  1.4078
 1296TIP3   OH2 3851   2.585   1.262   3.418 -0.1787 -0.5348 -0.3511
 1296TIP3    H1 3852   2.633   1.311   3.486  2.1098 -0.8735 -1.6146
 1296TIP3    H2 3853   2.532   1.199   3.467  1.1197 -0.5226  1.1535
 1297TIP3   OH2 3854   2.717   4.827   4.854 -0.1817  0.3663 -0.6640
 1297TIP3    H1 3855   2.634   4.848   4.895  0.3773  0.9449  0.2124
 1297TIP3    H2 3856   2.783   4.859   4.915  0.6984 -0.7749 -0.9706
 1298TIP3   OH2 3857   3.381   4.942   1.323  0.3499  0.3223  0.0048
 1298TIP3    H1 3858   3.385   4.896   1.239 -2.9547 -0.6877  0.2728
 1298TIP3    H2 3859   3.373   5.034   1.298  0.3917  0.1289 -0.7595
 1299TIP3   OH2 3860   2.996   3.092   5.090 -0.1815 -0.2001  0.0841
 1299TIP3    H1 3861   2.975   3.068   5.181 -2.7851  0.6743 -0.1907
 1299TIP3    H2 3862   2.912   3.118   5.053  0.3203 -2.7030 -3.2921
 1300TIP3   OH2 3863   3.725   5.236   3.791 -0.2405 -0.2036  0.7055
 1300TIP3    H1 3864   3.820   5.242   3.779 -0.5479  2.5660 -1.5277
 1300TIP3    H2 3865   3.702   5.149   3.759  1.2773  0.2250 -1.8750
 1301TIP3   OH2 3866   4.273   3.628   3.726 -0.0901  0.4614 -0.9312
 1301TIP3    H1 3867   4.207   3.692   3.699  0.2407  1.1237 -0.1975
 1301TIP3    H2 3868   4.346   3.680   3.760  0.5594 -0.2780 -1.1507
 1302TIP3   OH2 3869   4.690   5.141   2.134  0.2399 -0.2554 -0.1435
 1302TIP3    H1 3870   4.750   5.077   2.095  1.8756  0.0655  1.6911
 1302TIP3    H2 3871   4.695   5.217   2.076 -0.8442 -1.3160 -1.7123
 1303TIP3   OH2 3872   4.492   3.414   3.912 -0.1967 -0.0925  0.0520
 1303TIP3    H1 3873   4.538   3.440   3.833 -0.0720 -0.3857  0.0287
 1303TIP3    H2 3874   4.404   3.391   3.882  0.7183 -3.3095 -0.5258
 1304TIP3   OH2 3875   4.668   3.179   4.546 -0.2252  0.3491 -0.4368
 1304TIP3    H1 3876   4.685   3.133   4.628  0.4059  0.5987 -0.4187
 1304TIP3    H2 3877   4.581   3.149   4.519  0.2072 -0.9538 -0.4893
 1305TIP3   OH2 3878   0.393   0.444   5.794  0.4941  0.2007  0.3670
 1305TIP3    H1 3879   0.413   0.537   5.789 -0.0169  0.2571 -1.5952
 1305TIP3    H2 3880   0.446   0.405   5.724  1.6321 -1.2000  1.9182
 1306TIP3   OH2 3881   0.642   5.100   2.381 -0.2266  0.1565  0.3522
 1306TIP3    H1 3882   0.579   5.059   2.440 -0.9454  1.8850  0.8738
 1306TIP3    H2 3883   0.592   5.120   2.303  0.5690 -1.5430 -0.6483
 1307TIP3   OH2 3884   6.647   2.708   3.688 -0.5886  0.3531  0.4163
 1307TIP3    H1 3885   6.685   2.691   3.601  0.8119 -0.8179  1.2273
 1307TIP3    H2 3886   6.715   2.757   3.734 -0.5502 -0.6621  1.4697
 1308TIP3   OH2 3887   7.012   2.747   0.656 -0.4866  0.2260 -0.3854
 1308TIP3    H1 3888   7.096   2.781   0.688 -0.4297 -2.0247  2.2398
 1308TIP3    H2 3889   7.032   2.659   0.625 -1.7514 -0.0632 -0.4372
 1309TIP3   OH2 3890   4.954   0.362   2.897 -0.6498 -0.3775  0.2291
 1309TIP3    H1 3891   4.893   0.371   2.823 -0.6919  1.7601  0.4400
 1309TIP3    H2 3892   4.944   0.444   2.945  0.7329 -0.9588  1.5838
 1310TIP3   OH2 3893   6.878   4.610   2.307  0.1880  0.6451  0.7028
 1310TIP3    H1 3894   6.877   4.640   2.398  1.1191  2.1424  0.2546
 1310TIP3    H2 3895   6.935   4.533   2.308  1.6691  1.6975  1.1206
 1311TIP3   OH2 3896   2.657   1.891   3.243 -0.2395 -0.2911 -0.0773
 1311TIP3    H1 3897   2.633   1.814   3.192  0.3963 -0.8426  0.4381
 1311TIP3    H2 3898   2.588   1.900   3.309 -0.0082 -0.7738  0.2347
 1312TIP3   OH2 3899   5.470   0.204   2.316  0.2848  0.0562 -0.7254
 1312TIP3    H1 3900   5.450   0.155   2.395  0.3044  1.8355  0.4372
 1312TIP3    H2 3901   5.510   0.140   2.257 -0.6284 -1.5175  0.3103
 1313TIP3   OH2 3902   6.034   6.657   3.107 -0.1767  0.0459 -0.0719
 1313TIP3    H1 3903   5.996   6.615   3.030  0.7213 -1.4105  0.2316
 1313TIP3    H2 3904   6.118   6.613   3.119 -0.2374  0.3088  1.6527
 1314TIP3   OH2 3905   2.672   2.016   2.972  0.5017  0.2168 -0.2738
 1314TIP3    H1 3906   2.711   2.103   2.969 -1.4064  1.1785  0.6774
 1314TIP3    H2 3907   2.680   1.989   3.063  0.0274 -0.0722 -0.3146
 1315TIP3   OH2 3908   1.018   0.963   1.140  0.3727 -0.0096  0.6756
 1315TIP3    H1 3909   0.979   1.049   1.151  0.4827  0.2117 -0.5296
 1315TIP3    H2 3910   1.112   0.980   1.130  0.5159 -0.3567  1.3262
 1316TIP3   OH2 3911   6.754   0.317   4.457 -0.6203  0.1631  0.4006
 1316TIP3    H1 3912   6.817   0.266   4.508  0.2434  1.1315  0.3380
 1316TIP3    H2 3913   6.798   0.402   4.443 -1.7171  0.6604 -0.1148
 1317TIP3   OH2 3914   7.211   6.301   3.039 -0.5285 -0.2203 -0.5130
 1317TIP3    H1 3915   7.256   6.219   3.058  0.5270  0.1525 -1.3402
 1317TIP3    H2 3916   7.118   6.281   3.052 -0.1855 -1.1545  0.6572
 1318TIP3   OH2 3917   0.801   6.108   3.803 -0.1169 -0.5202  0.1301
 1318TIP3    H1 3918   0.786   6.107   3.709 -0.0469 -0.4245  0.1177
 1318TIP3    H2 3919   0.794   6.017   3.830 -0.2463 -0.5354  0.0492
 1319TIP3   OH2 3920   5.259   0.645   2.819  0.2123 -0.1442  0.2168
 1319TIP3    H1 3921   5.243   0.566   2.872  0.4268 -1.4226 -1.5317
 1319TIP3    H2 3922   5.316   0.699   2.873 -2.8332  0.5817  3.0214
 1320TIP3   OH2 3923   6.178   0.299   3.316 -0.5843  0.1088  0.5254
 1320TIP3    H1 3924   6.151   0.215   3.353 -0.3504 -0.4521 -0.5439
 1320TIP3    H2 3925   6.224   0.276   3.235  0.5769  1.1977  0.8363
 1321TIP3   OH2 3926   5.152   4.028   2.644  0.2279  0.5215 -0.1352
 1321TIP3    H1 3927   5.214   3.973   2.691  0.4153  0.0263 -0.9418
 1321TIP3    H2 3928   5.149   4.110   2.694 -2.2025 -1.1349  2.7662
 1322TIP3   OH2 3929   3.482   6.777   1.727 -0.1630  0.4116  0.2461
 1322TIP3    H1 3930   3.540   6.813   1.794 -0.0488 -0.1834  0.4808
 1322TIP3    H2 3931   3.523   6.693   1.703  0.0995  0.8729 -0.9753
 1323TIP3   OH2 3932   3.166   0.950   2.363 -0.0700  0.2963  0.3949
 1323TIP3    H1 3933   3.251   0.906   2.365  0.6194  1.5133 -0.9724
 1323TIP3    H2 3934   3.107   0.886   2.320  0.5225  0.0497 -0.0640
 1324TIP3   OH2 3935   2.126   3.423   4.485 -0.9453 -0.4352  0.2088
 1324TIP3    H1 3936   2.146   3.334   4.455 -0.3888 -0.4302  0.5504
 1324TIP3    H2 3937   2.134   3.419   4.580  0.7253  0.3578  0.1380
 1325TIP3   OH2 3938   2.861   6.728   2.095  0.6338 -0.1418  0.5412
 1325TIP3    H1 3939   2.877   6.668   2.023  1.3971 -0.6223  1.0970
 1325TIP3    H2 3940   2.933   6.713   2.156  0.7319  1.1941  0.7917
 1326TIP3   OH2 3941   3.841   5.138   2.630 -0.1879 -0.4533 -0.4176
 1326TIP3    H1 3942   3.843   5.136   2.535 -0.4779 -0.4366 -0.4247
 1326TIP3    H2 3943   3.848   5.231   2.652 -0.4068 -0.4350 -0.4287
 1327TIP3   OH2 3944   3.770   4.473   4.100  0.7152  0.6943 -0.3657
 1327TIP3    H1 3945   3.748   4.389   4.061  0.8942  0.9016 -0.9318
 1327TIP3    H2 3946   3.696   4.494   4.157  1.2720 -0.4605  0.8188
 1328TIP3   OH2 3947   0.996   6.609   5.789 -0.1132 -0.8933 -0.6922
 1328TIP3    H1 3948   1.086   6.640   5.777 -1.0746  2.7818  0.1807
 1328TIP3    H2 3949   0.943   6.676   5.746 -2.5594 -0.4784  2.6043
 1329TIP3   OH2 3950   5.614   1.623   0.229  0.4169  0.0668  0.0154
 1329TIP3    H1 3951   5.675   1.690   0.197  0.0609 -0.9156 -3.0976
 1329TIP3    H2 3952   5.550   1.671   0.281  1.3489  1.8204 -0.3934
 1330TIP3   OH2 3953   3.543   6.498   2.456  0.7897  0.2998 -0.0547
 1330TIP3    H1 3954   3.541   6.517   2.362 -0.1625  0.6369  0.0258
 1330TIP3    H2 3955   3.529   6.582   2.498 -1.5161 -0.1882  0.3259
 1331TIP3   OH2 3956   2.118   3.570   1.333 -0.0929  0.2018 -0.2537
 1331TIP3    H1 3957   2.050   3.616   1.284  0.4499  2.4229  0.9284
 1331TIP3    H2 3958   2.194   3.569   1.275 -0.8242 -1.5175 -1.2443
 1332TIP3   OH2 3959   4.676   2.687   5.111  0.2771  0.0894 -0.6171
 1332TIP3    H1 3960   4.594   2.668   5.156 -1.1494 -0.8158 -3.4038
 1332TIP3    H2 3961   4.653   2.751   5.044  2.2322  1.0951 -0.3981
 1333TIP3   OH2 3962   0.228   6.589   4.669 -0.7289 -0.2535 -0.5290
 1333TIP3    H1 3963   0.205   6.531   4.741 -0.6107 -1.1976 -1.2387
 1333TIP3    H2 3964   0.145   6.629   4.643 -0.9701 -0.8137 -0.6409
 1334TIP3   OH2 3965   1.314   3.046   3.710 -0.0399  0.3000 -0.1166
 1334TIP3    H1 3966   1.324   3.136   3.741  0.5092 -0.2301  1.3303
 1334TIP3    H2 3967   1.364   3.043   3.629  0.1921  1.2244 -0.0160
 1335TIP3   OH2 3968   3.617   2.657   2.376 -0.3198  0.1309  0.1440
 1335TIP3    H1 3969   3.688   2.623   2.322 -1.1593 -1.5245  0.0081
 1335TIP3    H2 3970   3.655   2.664   2.463  0.7109  1.7110 -0.3924
 1336TIP3   OH2 3971   5.168   1.558   3.540 -0.1816 -0.4107  0.2652
 1336TIP3    H1 3972   5.260   1.575   3.519 -0.8154  0.4445 -2.0365
 1336TIP3    H2 3973   5.158   1.463   3.530  0.3184 -0.4356 -0.0280
 1337TIP3   OH2 3974   3.736   0.751   1.143  0.1839 -0.9603 -0.6786
 1337TIP3    H1 3975   3.795   0.817   1.107 -0.2471 -0.0558  0.2245
 1337TIP3    H2 3976   3.789   0.703   1.206  0.0553 -0.3762 -0.1199
 1338TIP3   OH2 3977   5.111   5.297   5.508  0.5125  0.5122  0.0010
 1338TIP3    H1 3978   5.158   5.380   5.501  1.3063  0.1246  0.6162
 1338TIP3    H2 3979   5.143   5.258   5.589  0.2971 -0.4902 -0.3784
 1339TIP3   OH2 3980   3.006   5.091   5.748 -0.3061 -0.0615 -0.9127
 1339TIP3    H1 3981   3.076   5.095   5.682  0.0671  0.0847 -0.5125
 1339TIP3    H2 3982   2.934   5.142   5.709  0.2684  0.8713 -0.7968
 1340TIP3   OH2 3983   5.884   5.848   2.014  0.6773  0.6482  0.3222
 1340TIP3    H1 3984   5.907   5.760   1.988 -1.5730  0.2587 -0.5857
 1340TIP3    H2 3985   5.861   5.841   2.107 -0.2349  0.0760  0.0687
 1341TIP3   OH2 3986   1.881   1.356   4.830 -0.1632  0.2237 -0.5408
 1341TIP3    H1 3987   1.898   1.406   4.751  3.6693  0.0682 -0.0086
 1341TIP3    H2 3988   1.868   1.422   4.898 -0.2946  0.4095 -0.7452
 1342TIP3   OH2 3989   0.016   1.098   1.960  0.1665 -0.4746  0.2413
 1342TIP3    H1 3990  -0.012   1.157   2.030 -0.0017 -0.2155 -0.0407
 1342TIP3    H2 3991   0.111   1.108   1.957  0.1534 -0.3247  0.2910
 1343TIP3   OH2 3992   1.085   5.838   0.909 -0.3071  0.1566 -0.4948
 1343TIP3    H1 3993   1.072   5.932   0.894  0.7592  0.5330  0.7733
 1343TIP3    H2 3994   1.165   5.833   0.960 -1.1890 -1.3459  0.8331
 1344TIP3   OH2 3995   0.699   0.157   4.843  0.5141 -0.4487  0.1784
 1344TIP3    H1 3996   0.690   0.147   4.748 -1.8171 -0.1771  0.3253
 1344TIP3    H2 3997   0.691   0.068   4.877  1.9407 -0.6262  0.1333
 1345TIP3   OH2 3998   0.480   5.966   4.896  0.5362  0.6492  0.0641
 1345TIP3    H1 3999   0.478   5.937   4.987 -2.4327  0.1305 -0.0751
 1345TIP3    H2 4000   0.568   5.941   4.865  2.8092  3.4744  3.4602
 1346TIP3   OH2 4001   0.941   2.531   5.209 -0.1009  0.0370  0.0780
 1346TIP3    H1 4002   0.855   2.530   5.250  0.1469  0.1053  0.5963
 1346TIP3    H2 4003   1.002   2.553   5.279  0.3366  0.0355 -0.2951
 1347TIP3   OH2 4004   4.638   0.110   2.707 -0.7435  0.0365  0.6600
 1347TIP3    H1 4005   4.608   0.184   2.758  1.9262  0.5323  1.6396
 1347TIP3    H2 4006   4.663   0.044   2.772 -2.5840 -1.5854 -0.1789
 1348TIP3   OH2 4007   6.505   0.938   1.337 -0.3872 -0.0674  0.0605
 1348TIP3    H1 4008   6.537   0.893   1.416 -1.5058 -0.6185  0.2211
 1348TIP3    H2 4009   6.491   1.028   1.365 -1.4279 -0.4083  0.7015
 1349TIP3   OH2 4010   3.161   4.168   2.219  0.6519 -0.0255 -0.0411
 1349TIP3    H1 4011   3.216   4.131   2.149  1.0425 -0.1308  0.3176
 1349TIP3    H2 4012   3.078   4.187   2.176  0.7021 -0.6031 -0.4175
 1350TIP3   OH2 4013   6.619   5.349   0.480 -0.0359  0.0053 -0.7019
 1350TIP3    H1 4014   6.540   5.294   0.481  0.0609 -0.3251  3.1929
 1350TIP3    H2 4015   6.587   5.437   0.498  0.3305  0.1526 -0.7732
 1351TIP3   OH2 4016   6.426   1.620   4.528  0.2783 -0.4298 -0.0408
 1351TIP3    H1 4017   6.443   1.526   4.517  0.0786 -0.4302 -0.3656
 1351TIP3    H2 4018   6.430   1.655   4.439 -3.0530 -0.7151 -0.4296
 1352TIP3   OH2 4019   5.974   4.955   5.275 -0.5638 -0.2936 -0.0127
 1352TIP3    H1 4020   6.053   4.992   5.235 -0.6882  0.9026  0.8013
 1352TIP3    H2 4021   6.006   4.911   5.353 -0.5616 -0.9373 -0.3670
 1353TIP3   OH2 4022   6.331   6.449   1.456 -0.4110  0.4784 -0.1811
 1353TIP3    H1 4023   6.352   6.540   1.436  1.1140 -0.0628 -1.1688
 1353TIP3    H2 4024   6.414   6.402   1.447 -1.6640 -1.4941 -2.4655
 1354TIP3   OH2 4025   6.309   2.185   3.443 -0.0995 -0.2346 -0.2364
 1354TIP3    H1 4026   6.384   2.182   3.502  0.5394 -0.4277 -1.0506
 1354TIP3    H2 4027   6.344   2.217   3.360  0.0540 -4.3137 -1.9787
 1355TIP3   OH2 4028   0.061   2.508   1.825 -0.6955 -0.1290  0.1734
 1355TIP3    H1 4029   0.072   2.489   1.918 -2.9483 -0.2447  0.4669
 1355TIP3    H2 4030   0.135   2.465   1.782  0.1744 -0.3844  1.8600
 1356TIP3   OH2 4031   1.329   1.134   0.215  0.2898  0.0388  0.2466
 1356TIP3    H1 4032   1.276   1.156   0.291 -1.7492 -0.5353 -0.9415
 1356TIP3    H2 4033   1.333   1.214   0.163  1.1956  0.2711  0.6578
 1357TIP3   OH2 4034   5.582   1.558   1.611  0.1992  0.0939 -0.0402
 1357TIP3    H1 4035   5.586   1.626   1.544  0.1602  0.6539  0.5130
 1357TIP3    H2 4036   5.663   1.507   1.599  0.4750  0.5515 -0.1400
 1358TIP3   OH2 4037   1.523   3.562   4.079  0.2022  0.4076 -0.5204
 1358TIP3    H1 4038   1.565   3.558   3.993  0.5654  0.7573 -0.3587
 1358TIP3    H2 4039   1.485   3.650   4.083  3.4485  1.8949  1.1830
 1359TIP3   OH2 4040   5.913   2.074   1.113  0.0173  0.0825 -0.1665
 1359TIP3    H1 4041   5.818   2.077   1.126 -0.2259 -1.7564 -1.2068
 1359TIP3    H2 4042   5.925   2.015   1.039  1.9500  0.8559 -0.5125
 1360TIP3   OH2 4043   1.916   2.996   4.525 -0.8484 -0.5946 -0.3199
 1360TIP3    H1 4044   1.841   2.953   4.485 -0.9018 -1.2425  0.4288
 1360TIP3    H2 4045   1.932   3.073   4.472 -2.6801  0.1196  0.1024
 1361TIP3   OH2 4046   5.326   4.302   1.833 -0.0599  0.0228  0.0796
 1361TIP3    H1 4047   5.337   4.390   1.868  0.4667  0.8062 -1.9712
 1361TIP3    H2 4048   5.259   4.310   1.766  0.6206 -0.9469 -0.7568
 1362TIP3   OH2 4049   3.934   3.607   2.640 -0.4331  1.2456 -0.4468
 1362TIP3    H1 4050   3.990   3.608   2.717  0.0196  1.5002 -0.7790
 1362TIP3    H2 4051   3.855   3.653   2.667 -1.2344 -0.5914  0.5708
 1363TIP3   OH2 4052   1.417   3.521   4.512 -0.1880 -0.1023  0.1428
 1363TIP3    H1 4053   1.404   3.594   4.451  1.2573 -0.9124 -1.1739
 1363TIP3    H2 4054   1.349   3.458   4.487 -0.4052  0.0972  0.2188
 1364TIP3   OH2 4055   4.133   6.554   1.187  0.5868 -0.4420  0.3048
 1364TIP3    H1 4056   4.058   6.501   1.215  0.7807 -0.7696  0.2017
 1364TIP3    H2 4057   4.150   6.612   1.262  0.8357 -1.0280  0.7033
 1365TIP3   OH2 4058   6.132   6.336   0.152 -0.3743 -0.2387  0.2768
 1365TIP3    H1 4059   6.217   6.354   0.190 -1.2944 -0.8954  2.8800
 1365TIP3    H2 4060   6.146   6.341   0.057  2.2773  0.6722  0.6358
 1366TIP3   OH2 4061   0.175   0.772   1.358  0.0734  0.5024 -0.8947
 1366TIP3    H1 4062   0.238   0.701   1.372 -0.9555 -0.2096  0.3394
 1366TIP3    H2 4063   0.226   0.842   1.318  1.4879 -0.3148 -0.5910
 1367TIP3   OH2 4064   3.155   1.585   5.101  0.0231 -0.4818  0.3627
 1367TIP3    H1 4065   3.137   1.653   5.036 -0.3017 -0.4208  0.5153
 1367TIP3    H2 4066   3.140   1.628   5.185  1.5065 -0.2383  0.5312
 1368TIP3   OH2 4067   3.174   5.920   0.365  0.0008  0.2472 -0.5059
 1368TIP3    H1 4068   3.268   5.917   0.382 -0.4476 -1.5159  2.2116
 1368TIP3    H2 4069   3.142   5.992   0.420 -0.3356  0.5924 -1.1306
 1369TIP3   OH2 4070   1.468   1.187   2.880  0.0914 -0.7579  0.7576
 1369TIP3    H1 4071   1.436   1.185   2.790 -0.6648  1.9931  0.8524
 1369TIP3    H2 4072   1.429   1.266   2.918  1.0617 -1.3547  3.2558
 1370TIP3   OH2 4073   6.112   2.264   4.212 -0.1230 -0.1740  0.7770
 1370TIP3    H1 4074   6.193   2.217   4.232  1.0678  1.0585 -0.8945
 1370TIP3    H2 4075   6.110   2.337   4.275 -0.8467 -1.1377  1.9204
 1371TIP3   OH2 4076   5.838   6.797   5.578 -0.4801  0.0240  0.8458
 1371TIP3    H1 4077   5.857   6.752   5.496 -0.3290 -0.2213  1.0121
 1371TIP3    H2 4078   5.915   6.781   5.633  0.2013  1.6461  0.4259
 1372TIP3   OH2 4079   5.156   0.152   5.744  0.3212  0.3949 -0.6087
 1372TIP3    H1 4080   5.108   0.196   5.814 -0.1428  1.1172 -1.3645
 1372TIP3    H2 4081   5.184   0.068   5.782  0.4918  0.9812  0.5789
 1373TIP3   OH2 4082   6.099   3.691   0.111  0.1851  0.3744  0.3968
 1373TIP3    H1 4083   6.084   3.651   0.197  0.4639  1.5662  1.0125
 1373TIP3    H2 4084   6.056   3.631   0.049 -0.0992 -0.4512  1.3611
 1374TIP3   OH2 4085   2.066   5.235   2.829  0.3707 -0.3649  0.6717
 1374TIP3    H1 4086   2.110   5.168   2.776  0.7211 -0.1463  0.6850
 1374TIP3    H2 4087   2.066   5.199   2.918  1.8182  0.2577  0.9449
 1375TIP3   OH2 4088   5.589   1.021   0.835  0.0086 -0.5444  0.2373
 1375TIP3    H1 4089   5.584   0.934   0.796  1.8863  0.7213 -3.2845
 1375TIP3    H2 4090   5.505   1.061   0.816  0.6194 -0.2218 -2.0897
 1376TIP3   OH2 4091   6.328   1.617   2.538 -0.4631 -0.1103  0.3832
 1376TIP3    H1 4092   6.411   1.571   2.552  1.0832  2.2597 -0.5800
 1376TIP3    H2 4093   6.316   1.669   2.618  0.5560  1.7867 -0.6355
 1377TIP3   OH2 4094   2.426   1.836   4.668  0.2946  0.1025  0.1578
 1377TIP3    H1 4095   2.382   1.905   4.617 -1.2642 -1.7322 -1.1758
 1377TIP3    H2 4096   2.464   1.779   4.601  2.3623  0.1294  1.2583
 1378TIP3   OH2 4097   3.136   3.564   5.108 -0.1585 -0.7739 -0.6745
 1378TIP3    H1 4098   3.044   3.540   5.098 -0.5255  0.2934 -0.0234
 1378TIP3    H2 4099   3.165   3.518   5.187 -1.1019  1.4481  1.0800
 1379TIP3   OH2 4100   2.471   5.030   3.396  0.0940 -0.5773 -0.0746
 1379TIP3    H1 4101   2.518   4.992   3.470 -1.7894  0.5255  1.7833
 1379TIP3    H2 4102   2.400   5.082   3.435 -0.4031  0.8713 -2.6160
 1380TIP3   OH2 4103   6.043   0.987   4.955 -0.4355  0.2125 -0.0640
 1380TIP3    H1 4104   5.977   0.922   4.930  0.1382 -0.5678  0.3978
 1380TIP3    H2 4105   6.101   0.941   5.016 -0.7859  1.5505  1.3382
 1381TIP3   OH2 4106   3.919   0.257   2.441 -0.0502 -0.3979 -0.5931
 1381TIP3    H1 4107   3.833   0.248   2.402  0.9200 -0.1658 -2.9511
 1381TIP3    H2 4108   3.948   0.167   2.458 -0.2184 -0.5431 -1.0743
 1382TIP3   OH2 4109   2.563   1.645   3.135  0.4592  0.3282 -0.0524
 1382TIP3    H1 4110   2.595   1.563   3.173 -0.6969 -0.8112 -1.3836
 1382TIP3    H2 4111   2.479   1.660   3.179  0.5297  0.6306 -0.0225
 1383TIP3   OH2 4112   6.149   6.569   2.121 -0.1457 -0.3108 -0.2779
 1383TIP3    H1 4113   6.148   6.550   2.027 -0.7815 -0.6529 -0.2101
 1383TIP3    H2 4114   6.063   6.540   2.152 -0.7247  1.6137  0.0578
 1384TIP3   OH2 4115   6.446   4.675   0.049 -0.5248  0.4305  0.0690
 1384TIP3    H1 4116   6.428   4.598  -0.006 -1.6467 -0.3515  1.4638
 1384TIP3    H2 4117   6.373   4.677   0.111 -0.3625  2.4775  0.2440
 1385TIP3   OH2 4118   2.194   4.211   5.320  0.0620  0.5316 -0.5717
 1385TIP3    H1 4119   2.219   4.155   5.247  0.3688  2.7710 -2.3236
 1385TIP3    H2 4120   2.139   4.156   5.375 -1.3164 -0.9358 -3.1915
 1386TIP3   OH2 4121   4.748   0.706   5.636  0.2037  0.1484  0.1094
 1386TIP3    H1 4122   4.718   0.711   5.727 -1.7488 -0.3649 -0.4685
 1386TIP3    H2 4123   4.707   0.627   5.601  3.2953 -1.3491 -0.4219
 1387TIP3   OH2 4124   3.144   4.225   3.580  0.4130  0.3538 -0.3790
 1387TIP3    H1 4125   3.078   4.224   3.650 -1.9498 -0.2458 -2.4708
 1387TIP3    H2 4126   3.214   4.170   3.613 -1.3346 -1.2254  0.9318
 1388TIP3   OH2 4127   6.630   1.833   5.763  0.4357  0.3104  0.1987
 1388TIP3    H1 4128   6.698   1.770   5.788  2.1671  2.5018  1.4386
 1388TIP3    H2 4129   6.647   1.852   5.671  2.1075  1.4206  0.6920
 1389TIP3   OH2 4130   2.825   4.930   1.175  0.0258  0.4365 -0.0631
 1389TIP3    H1 4131   2.898   4.889   1.222  0.4985  1.4682  0.1300
 1389TIP3    H2 4132   2.848   4.922   1.083 -0.1302 -0.1585 -0.0582
 1390TIP3   OH2 4133   5.465   1.025   3.729  0.2551 -0.5133 -0.6109
 1390TIP3    H1 4134   5.449   1.007   3.636 -1.7302  2.4080 -0.9798
 1390TIP3    H2 4135   5.377   1.040   3.766  1.1165  0.1075  1.3294
 1391TIP3   OH2 4136   2.898   4.941   2.271 -0.2755  0.1005  0.1313
 1391TIP3    H1 4137   2.944   4.947   2.187  2.6628 -1.3058  1.4969
 1391TIP3    H2 4138   2.820   4.888   2.252 -0.9154  1.6805 -2.0827
 1392TIP3   OH2 4139   3.782   1.067   1.439  1.1770 -0.2002  0.0018
 1392TIP3    H1 4140   3.806   1.073   1.347 -0.2714 -0.7840 -0.4469
 1392TIP3    H2 4141   3.859   1.030   1.482  1.7974 -0.1067 -1.0067
 1393TIP3   OH2 4142   2.262   0.762   3.390 -0.3493 -0.0822  0.3567
 1393TIP3    H1 4143   2.188   0.705   3.409 -0.8537  0.5346  0.2934
 1393TIP3    H2 4144   2.310   0.718   3.320 -0.6768 -0.4686  0.3766
 1394TIP3   OH2 4145   2.200   1.104   2.664  0.3525 -0.8903 -1.1190
 1394TIP3    H1 4146   2.162   1.118   2.751 -0.2261 -0.2755 -1.4559
 1394TIP3    H2 4147   2.158   1.171   2.610  1.2287 -0.8226 -1.7185
 1395TIP3   OH2 4148   0.715   0.566   5.339  0.2595  0.1447 -0.1365
 1395TIP3    H1 4149   0.752   0.578   5.426  0.1303  2.5979 -0.3578
 1395TIP3    H2 4150   0.767   0.495   5.300  0.1410 -1.1999  1.9808
 1396TIP3   OH2 4151   1.726   3.522   3.875 -0.1734  0.1336 -0.3540
 1396TIP3    H1 4152   1.762   3.554   3.792 -1.8804  1.4786 -0.6398
 1396TIP3    H2 4153   1.795   3.540   3.939  1.7913 -2.2998 -1.6214
 1397TIP3   OH2 4154   0.270   2.653   5.596  0.4718  0.1181 -0.1091
 1397TIP3    H1 4155   0.284   2.590   5.526 -1.5664 -0.2615 -0.2344
 1397TIP3    H2 4156   0.356   2.693   5.610  1.2479 -0.8775 -1.7542
 1398TIP3   OH2 4157   2.478   4.299   4.381  0.2456 -0.1746 -0.0738
 1398TIP3    H1 4158   2.390   4.311   4.416  0.3294  0.4200 -0.0549
 1398TIP3    H2 4159   2.491   4.374   4.324  0.4276 -0.6972 -0.7361
 1399TIP3   OH2 4160   2.967   4.048   4.352  0.1857 -0.1651 -0.0475
 1399TIP3    H1 4161   2.872   4.062   4.355  0.0383 -1.2344  0.3818
 1399TIP3    H2 4162   2.994   4.089   4.269 -0.7997 -0.7493 -0.6763
 1400TIP3   OH2 4163   0.568   3.811   2.502 -0.5657  0.2508 -0.1486
 1400TIP3    H1 4164   0.618   3.730   2.503 -2.9749 -1.3213  0.1457
 1400TIP3    H2 4165   0.538   3.820   2.412 -0.4542  0.7376 -0.1404
 1401TIP3   OH2 4166   5.987   0.990   0.445  0.4412 -0.0007 -0.4843
 1401TIP3    H1 4167   6.060   0.970   0.504 -0.9410 -1.3584  0.8413
 1401TIP3    H2 4168   6.020   1.062   0.390  3.1731 -1.3222 -0.7302
 1402TIP3   OH2 4169   5.756   4.022   2.336 -0.3627  0.1043  0.5955
 1402TIP3    H1 4170   5.775   3.934   2.369 -1.1825  0.1095  1.1211
 1402TIP3    H2 4171   5.752   4.012   2.241  0.3352 -0.2611  0.6011
 1403TIP3   OH2 4172   5.630   1.679   1.189  0.1476 -0.5327 -0.4441
 1403TIP3    H1 4173   5.716   1.660   1.153  0.8385  0.6189  0.5718
 1403TIP3    H2 4174   5.647   1.722   1.272 -1.3751  1.5758 -1.1530
 1404TIP3   OH2 4175   0.322   0.694   0.373  0.0846 -0.2210 -0.2441
 1404TIP3    H1 4176   0.416   0.675   0.368  0.1745  0.4813 -2.4838
 1404TIP3    H2 4177   0.313   0.748   0.451  1.7136  0.4560 -0.4736
 1405TIP3   OH2 4178   1.289   6.689   2.974 -0.4038 -0.0138  0.6310
 1405TIP3    H1 4179   1.245   6.659   3.055  0.3547  0.2722  1.1567
 1405TIP3    H2 4180   1.300   6.783   2.986  0.2747 -0.0699  0.4656
 1406TIP3   OH2 4181   5.403   5.111   4.047 -0.9079  0.4954 -0.6801
 1406TIP3    H1 4182   5.424   5.104   4.140  0.2979 -0.7976 -1.0172
 1406TIP3    H2 4183   5.440   5.195   4.020  0.8835 -0.1647 -0.4652
 1407TIP3   OH2 4184   3.646   2.726   5.321  0.4659 -0.2009 -0.4369
 1407TIP3    H1 4185   3.734   2.761   5.304 -0.0604  1.5645  0.2416
 1407TIP3    H2 4186   3.592   2.762   5.250  0.1952 -0.8742 -0.5726
 1408TIP3   OH2 4187   5.783   2.347   4.755  0.1953  0.2687 -0.2260
 1408TIP3    H1 4188   5.794   2.272   4.813  1.5929  0.0928 -0.6710
 1408TIP3    H2 4189   5.740   2.413   4.809  0.6232 -0.2232  0.7397
 1409TIP3   OH2 4190   2.503   2.009   0.258  0.3946  0.3160 -0.3817
 1409TIP3    H1 4191   2.466   1.940   0.203  1.8745 -0.6325 -0.2251
 1409TIP3    H2 4192   2.592   1.981   0.275  0.7203  1.8011  0.5097
 1410TIP3   OH2 4193   6.972   1.081   2.428 -0.2951 -0.8758 -0.1102
 1410TIP3    H1 4194   6.913   1.006   2.430 -0.6106 -0.6784 -1.2917
 1410TIP3    H2 4195   7.059   1.042   2.413 -0.5061 -0.9969 -1.0885
 1411TIP3   OH2 4196   5.987   5.007   2.928  0.3455 -0.4991 -0.2755
 1411TIP3    H1 4197   5.990   5.025   3.022  1.4887  0.2785 -0.4495
 1411TIP3    H2 4198   5.893   5.011   2.907  0.1065 -0.2901  0.7441
 1412TIP3   OH2 4199   5.903   0.120   5.043 -0.3835 -0.1563  0.1713
 1412TIP3    H1 4200   5.826   0.108   4.988 -0.9985  0.1088  0.9458
 1412TIP3    H2 4201   5.964   0.169   4.989 -1.3659  0.9806  0.0555
 1413TIP3   OH2 4202   3.914   0.387   4.620 -0.5057  0.2007 -0.3730
 1413TIP3    H1 4203   3.866   0.307   4.597 -2.0692  0.6658  1.0590
 1413TIP3    H2 4204   3.997   0.380   4.572 -0.3702 -2.5111  0.1045
 1414TIP3   OH2 4205   0.461   4.128   1.977  0.1737  0.3100 -0.1822
 1414TIP3    H1 4206   0.432   4.185   1.906  1.3097  0.2641 -0.7127
 1414TIP3    H2 4207   0.396   4.057   1.980 -1.0572  1.4182  0.2491
 1415TIP3   OH2 4208   4.696   3.323   1.292  0.1914 -0.6576 -0.5652
 1415TIP3    H1 4209   4.769   3.267   1.266  0.0208 -1.6220  0.8896
 1415TIP3    H2 4210   4.645   3.269   1.353  0.2797  1.2426  1.3006
 1416TIP3   OH2 4211   6.557   1.166   3.566 -0.4031  0.2740  0.3433
 1416TIP3    H1 4212   6.503   1.222   3.510 -0.9381 -0.5211  0.0554
 1416TIP3    H2 4213   6.526   1.184   3.655  0.6255  1.7372  0.4527
 1417TIP3   OH2 4214   5.385   1.914   1.425 -0.2891  0.1867 -0.1163
 1417TIP3    H1 4215   5.327   1.841   1.446 -0.5840  0.3643 -0.2962
 1417TIP3    H2 4216   5.473   1.880   1.436 -0.3832 -0.6666 -1.7476
 1418TIP3   OH2 4217   1.923   2.870   2.108 -0.0091  0.0538 -0.1755
 1418TIP3    H1 4218   1.868   2.877   2.186 -1.9276 -1.6332 -1.2863
 1418TIP3    H2 4219   1.914   2.779   2.081  1.5377  0.3227 -1.7162
 1419TIP3   OH2 4220   2.212   4.470   4.082 -0.6676  0.0473  0.1276
 1419TIP3    H1 4221   2.174   4.557   4.074  0.4136  0.4232 -1.1262
 1419TIP3    H2 4222   2.253   4.470   4.169  0.6649  1.3504 -0.4648
 1420TIP3   OH2 4223   5.474   6.577   2.820 -0.2326 -0.0026  0.4150
 1420TIP3    H1 4224   5.488   6.485   2.802  0.7852  0.1117  0.5395
 1420TIP3    H2 4225   5.439   6.579   2.909 -2.7119 -0.3994 -0.4862
 1421TIP3   OH2 4226   5.342   6.281   1.535 -0.1160 -0.1655 -0.3112
 1421TIP3    H1 4227   5.251   6.253   1.523 -0.5659  1.0873 -0.0397
 1421TIP3    H2 4228   5.394   6.219   1.484 -1.2662  0.1191 -1.8983
 1422TIP3   OH2 4229   5.434   4.027   2.490 -0.0916 -0.3302 -0.6315
 1422TIP3    H1 4230   5.351   3.989   2.461 -0.2338  0.3072 -1.0794
 1422TIP3    H2 4231   5.489   3.952   2.510 -0.6264 -0.7645 -0.7628
 1423TIP3   OH2 4232   2.687   2.943   2.201  0.1776  0.0640 -0.2203
 1423TIP3    H1 4233   2.652   2.866   2.157 -0.3514  1.2138 -1.9199
 1423TIP3    H2 4234   2.780   2.942   2.179  0.1935 -0.1496 -0.1452
 1424TIP3   OH2 4235   6.294   4.338   4.697  0.4350  0.1306 -0.1965
 1424TIP3    H1 4236   6.293   4.343   4.792  1.7861  0.6930 -0.1918
 1424TIP3    H2 4237   6.350   4.263   4.677  0.3750  0.1808 -0.5623
 1425TIP3   OH2 4238   0.525   2.861   5.384  0.3145  0.2688 -0.0248
 1425TIP3    H1 4239   0.582   2.785   5.391 -0.2298 -0.1235  0.1898
 1425TIP3    H2 4240   0.549   2.916   5.459  0.0280 -0.1562  0.3805
 1426TIP3   OH2 4241   2.055   1.988   0.069 -0.2510  0.6114  0.3217
 1426TIP3    H1 4242   2.139   2.034   0.067  0.6213 -0.8631  1.0653
 1426TIP3    H2 4243   2.019   2.000  -0.019  0.5273  1.6206  0.1211
 1427TIP3   OH2 4244   0.942   3.552   5.390 -0.4426  0.4268  0.2686
 1427TIP3    H1 4245   0.981   3.617   5.449  0.2712  1.6061 -1.4247
 1427TIP3    H2 4246   0.986   3.566   5.306 -0.1407 -2.3827 -0.1349
 1428TIP3   OH2 4247   6.605   6.435   5.446  0.6221  0.5523  0.1462
 1428TIP3    H1 4248   6.646   6.394   5.522 -0.0799  1.2804  0.9278
 1428TIP3    H2 4249   6.513   6.411   5.453  0.4022  1.3609  0.0091
 1429TIP3   OH2 4250   1.395   6.075   0.034  0.0651  0.2627 -0.4838
 1429TIP3    H1 4251   1.380   6.033   0.119 -0.3866  1.7701  0.2168
 1429TIP3    H2 4252   1.488   6.061   0.016  0.2992  0.4140  0.5496
 1430TIP3   OH2 4253   5.163   3.051   1.840 -0.2236 -0.2081  0.2127
 1430TIP3    H1 4254   5.205   2.979   1.886 -1.5499  0.3440  2.4512
 1430TIP3    H2 4255   5.204   3.053   1.753  0.2636 -3.2321  0.2981
 1431TIP3   OH2 4256   5.166   6.099   4.048 -0.1107 -0.1050  0.6365
 1431TIP3    H1 4257   5.127   6.014   4.026 -0.2864  0.4551 -1.4034
 1431TIP3    H2 4258   5.095   6.147   4.091 -0.3340 -0.6307  0.8630
 1432TIP3   OH2 4259   5.498   6.689   2.313  0.6903 -0.3061 -0.0652
 1432TIP3    H1 4260   5.496   6.652   2.225  0.3917  1.2320 -0.7532
 1432TIP3    H2 4261   5.451   6.772   2.305  0.2045 -0.3673  1.6735
 1433TIP3   OH2 4262   6.923   6.245   2.303 -0.3693 -0.2473  0.2874
 1433TIP3    H1 4263   6.844   6.193   2.315 -0.2966 -0.0919  1.5842
 1433TIP3    H2 4264   6.892   6.329   2.270 -0.5566 -0.8175 -1.0512
 1434TIP3   OH2 4265   5.727   4.745   4.935  0.1195  0.1887 -0.0705
 1434TIP3    H1 4266   5.769   4.706   5.012 -0.6620  0.8561  0.7094
 1434TIP3    H2 4267   5.773   4.706   4.861  0.4469 -0.9713  0.7127
 1435TIP3   OH2 4268   6.867   5.343   1.329  0.0473 -0.5643  0.4452
 1435TIP3    H1 4269   6.782   5.306   1.355  1.4555 -3.0954  1.7686
 1435TIP3    H2 4270   6.907   5.371   1.411  0.5587  0.5508 -0.1639
 1436TIP3   OH2 4271   3.891   1.090   1.186 -0.2894 -0.6409  0.3211
 1436TIP3    H1 4272   3.982   1.073   1.209 -0.1800 -2.3602 -1.1873
 1436TIP3    H2 4273   3.883   1.062   1.094 -1.7099  1.9146 -0.4539
 1437TIP3   OH2 4274   7.195   5.817   3.043 -0.3801 -0.5690  0.1383
 1437TIP3    H1 4275   7.181   5.724   3.061 -0.3867 -0.0045  3.7762
 1437TIP3    H2 4276   7.159   5.862   3.118 -2.2874  2.6377 -2.4210
 1438TIP3   OH2 4277   0.461   5.304   4.412 -0.8108 -0.2014  0.0592
 1438TIP3    H1 4278   0.519   5.235   4.444 -1.2205 -0.8133 -0.5189
 1438TIP3    H2 4279   0.409   5.329   4.488  0.4974  0.6816  0.7215
 1439TIP3   OH2 4280   6.421   3.186   2.730  0.5855 -0.7264  0.1443
 1439TIP3    H1 4281   6.478   3.263   2.722 -0.5296  0.1428  0.3358
 1439TIP3    H2 4282   6.400   3.162   2.640 -0.7737  0.5284  0.0895
 1440TIP3   OH2 4283   2.707   1.194   0.664 -0.0968  0.2918  0.5510
 1440TIP3    H1 4284   2.642   1.253   0.625 -0.3264  0.6720  1.4735
 1440TIP3    H2 4285   2.744   1.244   0.737  0.1826 -0.4659  0.9413
 1441TIP3   OH2 4286   1.384   0.481   3.012 -0.3324  0.0130 -0.5600
 1441TIP3    H1 4287   1.350   0.476   3.101 -1.8380 -1.8132 -1.1664
 1441TIP3    H2 4288   1.353   0.565   2.978  2.2737  1.8914  1.3068
 1442TIP3   OH2 4289   5.306   0.789   5.080 -0.2681 -0.0291  0.0004
 1442TIP3    H1 4290   5.401   0.791   5.093 -0.2165  0.2874 -0.4088
 1442TIP3    H2 4291   5.270   0.804   5.168  0.0583  0.0038  0.1308
 1443TIP3   OH2 4292   3.531   0.332   2.446 -0.2303 -0.0438  0.1572
 1443TIP3    H1 4293   3.509   0.240   2.462 -1.7282 -0.1309 -1.9829
 1443TIP3    H2 4294   3.479   0.380   2.511 -0.9301 -0.6532  0.0720
 1444TIP3   OH2 4295   5.761   3.720   1.677  0.4655  0.4054 -0.5922
 1444TIP3    H1 4296   5.855   3.727   1.693  0.2168  1.1454  0.6390
 1444TIP3    H2 4297   5.730   3.657   1.742  0.0750  0.3111 -0.8672
 1445TIP3   OH2 4298   5.766   5.995   0.288  0.0852 -0.0362 -0.0258
 1445TIP3    H1 4299   5.798   6.054   0.356 -0.5952  0.2028  0.1006
 1445TIP3    H2 4300   5.676   5.975   0.315 -0.7964  1.4052 -1.7232
 1446TIP3   OH2 4301   4.900   6.455   4.088 -0.0677  0.1083  0.2581
 1446TIP3    H1 4302   4.838   6.385   4.068 -0.1805  0.4578 -0.7149
 1446TIP3    H2 4303   4.861   6.502   4.161  0.2598 -1.1333  1.2795
 1447TIP3   OH2 4304   3.194   0.782   4.876  0.3667 -0.7128 -0.1955
 1447TIP3    H1 4305   3.151   0.859   4.839  0.7555 -1.1915 -1.7055
 1447TIP3    H2 4306   3.125   0.717   4.885  0.2708 -0.5955 -0.0887
 1448TIP3   OH2 4307   4.462   0.082   5.079 -0.0112 -0.9500 -0.0515
 1448TIP3    H1 4308   4.383   0.129   5.105  1.9072  0.9952  2.9073
 1448TIP3    H2 4309   4.501   0.136   5.011 -0.6969 -1.3923 -0.8080
 1449TIP3   OH2 4310   3.097   6.775   2.494  0.2944 -0.4635  0.5181
 1449TIP3    H1 4311   3.021   6.790   2.551  0.5835 -0.3617  0.8864
 1449TIP3    H2 4312   3.157   6.723   2.548  0.7854  0.0556  0.4796
 1450TIP3   OH2 4313   2.179   1.734   3.494 -0.2819 -0.5407  0.5672
 1450TIP3    H1 4314   2.141   1.810   3.451 -0.0749 -1.1552 -0.7476
 1450TIP3    H2 4315   2.167   1.750   3.588  0.9123  1.7252  0.4012
 1451TIP3   OH2 4316   2.070   0.191   5.428 -0.0371  0.1682  0.3281
 1451TIP3    H1 4317   2.124   0.162   5.501 -0.6766  1.0969  1.1904
 1451TIP3    H2 4318   2.132   0.201   5.355  0.5725 -0.9686  0.6616
 1452TIP3   OH2 4319   1.768   1.622   2.851  0.3035  0.5337 -0.2025
 1452TIP3    H1 4320   1.714   1.649   2.925 -0.6727  0.1787 -0.7690
 1452TIP3    H2 4321   1.841   1.684   2.850  2.1218 -1.3080  2.9943
 1453TIP3   OH2 4322   2.162   2.158   1.614  0.0349  0.5026  0.5147
 1453TIP3    H1 4323   2.096   2.228   1.610  0.5487  0.9466 -1.2183
 1453TIP3    H2 4324   2.229   2.191   1.673 -0.7095  0.5722  1.3375
 1454TIP3   OH2 4325   6.756   4.619   0.810  0.2148 -0.0045 -0.1534
 1454TIP3    H1 4326   6.850   4.606   0.798  0.6343  0.4877  2.2229
 1454TIP3    H2 4327   6.731   4.678   0.739  1.4456 -0.9752 -1.4660
 1455TIP3   OH2 4328   5.663   1.276   4.366 -0.2471 -0.3474  0.3590
 1455TIP3    H1 4329   5.675   1.306   4.456  0.8240  1.6333 -0.3911
 1455TIP3    H2 4330   5.600   1.337   4.329  0.9697  0.2333 -0.8370
 1456TIP3   OH2 4331   3.710   5.449   0.524  0.2559 -0.7708  0.1394
 1456TIP3    H1 4332   3.711   5.545   0.531 -0.3969 -0.7612  0.1684
 1456TIP3    H2 4333   3.797   5.422   0.552  0.7572 -0.1250 -0.7324
 1457TIP3   OH2 4334   3.823   3.078   3.172  0.3716  0.8604  0.7000
 1457TIP3    H1 4335   3.740   3.030   3.170  0.4252  0.7223  1.3894
 1457TIP3    H2 4336   3.889   3.011   3.156  0.3082  1.1375 -0.9003
 1458TIP3   OH2 4337   1.908   2.712   3.972  0.2401  0.3227  0.0204
 1458TIP3    H1 4338   1.880   2.693   4.062 -0.5550  1.4638  0.0390
 1458TIP3    H2 4339   1.884   2.804   3.959 -1.3573 -0.3288 -1.9953
 1459TIP3   OH2 4340   3.379   3.036   2.906  0.0147 -0.3889  0.1619
 1459TIP3    H1 4341   3.433   2.968   2.946 -0.6958 -0.3441  1.2284
 1459TIP3    H2 4342   3.303   2.989   2.871 -0.1027 -0.2335  0.2102
 1460TIP3   OH2 4343   5.106   6.389   2.089 -0.3530 -0.3152  0.0610
 1460TIP3    H1 4344   5.070   6.302   2.106  1.3286 -1.1841 -0.6442
 1460TIP3    H2 4345   5.124   6.425   2.176  1.3712 -1.7653  0.3656
 1461TIP3   OH2 4346   0.049   5.123   0.342 -0.4923  0.5062  0.3076
 1461TIP3    H1 4347   0.012   5.178   0.273  0.8405  0.1201 -0.7308
 1461TIP3    H2 4348   0.128   5.168   0.370 -1.4927  1.1618  2.3080
 1462TIP3   OH2 4349   0.222   6.144   5.779 -0.3708  0.1554 -0.1263
 1462TIP3    H1 4350   0.275   6.116   5.705 -0.7167 -2.5073  0.5195
 1462TIP3    H2 4351   0.241   6.238   5.789  3.3522 -0.3967 -0.5856
 1463TIP3   OH2 4352   0.679   1.869   4.508 -0.1757  0.0487 -0.3468
 1463TIP3    H1 4353   0.726   1.938   4.461 -0.5266  1.0055  0.6578
 1463TIP3    H2 4354   0.713   1.874   4.597 -0.5432 -0.7792 -0.1521
 1464TIP3   OH2 4355   1.346   0.371   3.989 -0.5727 -0.3820  0.0148
 1464TIP3    H1 4356   1.343   0.414   4.075 -0.8669 -2.4494  1.1008
 1464TIP3    H2 4357   1.415   0.306   3.998  0.9758  0.8505 -2.1243
 1465TIP3   OH2 4358   6.567   0.008   5.108  0.5614  0.1126  0.8023
 1465TIP3    H1 4359   6.618  -0.052   5.163  0.4518  0.6572  1.5191
 1465TIP3    H2 4360   6.616   0.090   5.110  0.4716  0.1875  0.2009
 1466TIP3   OH2 4361   2.730   1.707   1.445  0.1588  0.7013  0.2510
 1466TIP3    H1 4362   2.724   1.663   1.530  1.0920  1.6659  0.8389
 1466TIP3    H2 4363   2.765   1.794   1.465  1.0329  0.7113 -1.1884
 1467TIP3   OH2 4364   6.675   4.807   2.294 -0.0449 -0.3683 -0.2758
 1467TIP3    H1 4365   6.708   4.717   2.294 -1.1561 -0.8062  0.8210
 1467TIP3    H2 4366   6.627   4.815   2.377 -1.4562  0.6841 -1.1485
 1468TIP3   OH2 4367   6.138   4.763   4.711  0.5313  0.1357  0.4690
 1468TIP3    H1 4368   6.175   4.851   4.699  1.1484 -0.2935 -0.9140
 1468TIP3    H2 4369   6.209   4.704   4.688  0.0848 -0.7428  1.2873
 1469TIP3   OH2 4370   5.372   3.975   3.640 -0.4325  0.5854 -0.4093
 1469TIP3    H1 4371   5.282   3.947   3.656  0.4868 -1.7412  1.3202
 1469TIP3    H2 4372   5.387   3.957   3.547 -0.8141 -2.2158 -0.0234
 1470TIP3   OH2 4373   5.879   4.639   4.721 -0.1508  0.0621 -0.7163
 1470TIP3    H1 4374   5.908   4.549   4.734 -1.1297 -0.2760 -0.7214
 1470TIP3    H2 4375   5.959   4.691   4.719  0.3448 -0.5809  1.0730
 1471TIP3   OH2 4376   6.686   3.940   3.006  0.4097 -0.1307 -0.2039
 1471TIP3    H1 4377   6.708   3.959   3.098  0.9286 -1.0903 -0.1148
 1471TIP3    H2 4378   6.619   4.004   2.984 -0.2759 -0.3740  1.0850
 1472TIP3   OH2 4379   2.342   0.381   3.893 -0.0629 -0.2648 -0.2709
 1472TIP3    H1 4380   2.426   0.369   3.848  0.0281 -2.1558  0.3208
 1472TIP3    H2 4381   2.277   0.351   3.829 -0.4226  1.9019 -1.0195
 1473TIP3   OH2 4382   5.933   4.118   1.621  0.3663 -0.1905 -0.0983
 1473TIP3    H1 4383   6.028   4.120   1.607  0.3629 -1.8908 -0.5840
 1473TIP3    H2 4384   5.900   4.060   1.553 -1.0187  0.2290  0.1828
 1474TIP3   OH2 4385   2.312   4.460   5.310  0.3636 -0.1607 -0.1342
 1474TIP3    H1 4386   2.280   4.371   5.324  1.4528 -0.2700  2.2315
 1474TIP3    H2 4387   2.407   4.451   5.307  0.7213  1.1312  3.1750
 1475TIP3   OH2 4388   2.321   1.714   3.257 -0.0587  0.2704 -0.1004
 1475TIP3    H1 4389   2.280   1.697   3.342 -1.3842  2.0842 -0.3156
 1475TIP3    H2 4390   2.303   1.806   3.240 -0.5199 -0.2157 -2.7018
 1476TIP3   OH2 4391   2.831   1.037   0.987  0.0125 -0.3275  0.1858
 1476TIP3    H1 4392   2.909   1.063   0.938 -0.5762  0.5147 -0.3355
 1476TIP3    H2 4393   2.853   1.056   1.078  0.4003 -0.0555  0.0405
 1477TIP3   OH2 4394   3.651   6.082   3.455 -0.2924  0.5985 -0.0173
 1477TIP3    H1 4395   3.706   6.097   3.378 -1.9832 -0.6371 -1.5532
 1477TIP3    H2 4396   3.701   6.020   3.508 -0.7927 -1.8392 -2.1885
 1478TIP3   OH2 4397   4.719   0.054   1.815  0.1912 -0.0101  0.3515
 1478TIP3    H1 4398   4.631   0.039   1.781  0.3728 -0.0874 -0.0894
 1478TIP3    H2 4399   4.721   0.147   1.839 -0.2248 -0.1663  1.0001
 1479TIP3   OH2 4400   2.514   3.931   0.177  0.3589 -0.2458 -0.4800
 1479TIP3    H1 4401   2.511   4.023   0.152 -2.9256 -0.3665 -0.9786
 1479TIP3    H2 4402   2.555   3.887   0.104  1.2802  0.7249 -0.5625
 1480TIP3   OH2 4403   5.410   3.267   5.619  0.0736  0.0813  0.3863
 1480TIP3    H1 4404   5.432   3.228   5.534  0.0736  2.0790 -0.6184
 1480TIP3    H2 4405   5.321   3.301   5.607 -0.8351 -1.5815  1.9887
 1481TIP3   OH2 4406   1.433   4.516   0.938 -0.2808 -0.4425  0.9773
 1481TIP3    H1 4407   1.495   4.573   0.984 -1.0607  0.3796  1.0268
 1481TIP3    H2 4408   1.382   4.475   1.008 -1.2636  0.5763  0.8787
 1482TIP3   OH2 4409   1.764   1.519   2.139 -0.5829 -0.3588 -0.2009
 1482TIP3    H1 4410   1.794   1.541   2.051 -0.4156  1.7217  0.3206
 1482TIP3    H2 4411   1.844   1.520   2.192 -0.9014  0.1190  0.2752
 1483TIP3   OH2 4412   3.005   5.243   1.072  0.3299 -0.6114 -0.0728
 1483TIP3    H1 4413   2.972   5.251   0.982 -1.2273 -1.3390  0.4053
 1483TIP3    H2 4414   3.087   5.293   1.072  0.2056 -0.3512 -1.8140
 1484TIP3   OH2 4415   2.812   4.664   0.221  0.4153 -0.1542 -0.4046
 1484TIP3    H1 4416   2.799   4.617   0.304  1.8923 -1.2429 -0.7359
 1484TIP3    H2 4417   2.847   4.749   0.247  0.7484 -0.4413  0.1146
 1485TIP3   OH2 4418   2.514   2.484   1.084 -0.0547 -0.2861  0.2220
 1485TIP3    H1 4419   2.540   2.401   1.044  0.8401  0.5171 -0.9255
 1485TIP3    H2 4420   2.489   2.461   1.173 -0.1662 -1.8365 -0.1923
 1486TIP3   OH2 4421   5.913   1.642   4.924 -0.1400  0.2614 -0.5950
 1486TIP3    H1 4422   5.861   1.647   5.005  0.0508  3.2875 -0.5365
 1486TIP3    H2 4423   5.857   1.594   4.863 -1.8590  1.0362  0.2889
 1487TIP3   OH2 4424   4.451   4.189   4.598 -0.6431  0.0736  0.2654
 1487TIP3    H1 4425   4.361   4.190   4.632 -0.8414  3.4016  0.0405
 1487TIP3    H2 4426   4.442   4.157   4.508 -1.9871  2.0157 -0.3678
 1488TIP3   OH2 4427   6.774   1.463   3.092  0.0508 -0.5996 -0.0502
 1488TIP3    H1 4428   6.766   1.403   3.018  1.3309 -0.0744 -0.6415
 1488TIP3    H2 4429   6.810   1.543   3.054 -0.4937  0.1354  0.9299
 1489TIP3   OH2 4430   4.708   3.491   0.949  0.1306  0.0074 -0.1723
 1489TIP3    H1 4431   4.658   3.429   1.002 -0.7220 -0.2128 -1.1926
 1489TIP3    H2 4432   4.648   3.516   0.878  1.2571  0.2053 -1.0860
 1490TIP3   OH2 4433   4.000   4.002   2.853  0.5899  0.0134 -0.3222
 1490TIP3    H1 4434   4.011   4.050   2.935  0.7667  1.0612 -0.9411
 1490TIP3    H2 4435   4.089   3.991   2.820  0.5736 -0.9944 -0.0613
 1491TIP3   OH2 4436   1.260   6.730   0.063  0.0843  0.1965  0.0167
 1491TIP3    H1 4437   1.296   6.787  -0.004  1.5077 -0.2837  0.3331
 1491TIP3    H2 4438   1.307   6.754   0.143 -0.8705  0.0749  0.6301
 1492TIP3   OH2 4439   5.222   4.282   2.468  0.6969 -0.3940 -0.3675
 1492TIP3    H1 4440   5.264   4.359   2.508 -0.4204  1.0007 -1.7340
 1492TIP3    H2 4441   5.225   4.215   2.536 -0.2999  1.5386  1.7127
 1493TIP3   OH2 4442   1.527   3.743   2.279 -0.1756 -0.0760  0.2579
 1493TIP3    H1 4443   1.571   3.691   2.345 -0.4794 -0.3087  0.2792
 1493TIP3    H2 4444   1.508   3.681   2.208  0.1183  0.1630 -0.0354
 1494TIP3   OH2 4445   7.121   6.309   0.103  0.2005  0.6451  0.3282
 1494TIP3    H1 4446   7.177   6.328   0.027  2.0003 -0.4506  1.3098
 1494TIP3    H2 4447   7.087   6.222   0.086 -0.0399  0.7224  0.4143
 1495TIP3   OH2 4448   0.890   6.665   3.457 -0.4802 -0.0875 -0.3407
 1495TIP3    H1 4449   0.832   6.685   3.531 -1.4001  2.6746 -1.6810
 1495TIP3    H2 4450   0.969   6.630   3.498 -0.9008  1.4224  1.9915
 1496TIP3   OH2 4451   4.342   1.083   0.400 -0.3717  0.2423 -0.0757
 1496TIP3    H1 4452   4.276   1.018   0.425  0.6143 -0.5893  0.4446
 1496TIP3    H2 4453   4.400   1.035   0.341 -0.8617  1.2873 -1.4416
 1497TIP3   OH2 4454   6.585   3.543   2.068 -0.4865 -0.1436  0.0980
 1497TIP3    H1 4455   6.637   3.565   2.145  1.5167 -0.7208 -1.0196
 1497TIP3    H2 4456   6.505   3.594   2.077  0.2649  0.7774  1.9046
 1498TIP3   OH2 4457   5.788   4.569   0.569 -0.5190  0.3746  0.2821
 1498TIP3    H1 4458   5.735   4.535   0.641 -0.6004  0.3113  0.1918
 1498TIP3    H2 4459   5.856   4.502   0.557 -1.0441 -0.0619 -0.3092
 1499TIP3   OH2 4460   6.440   1.190   3.843  0.0975  0.1952  0.0143
 1499TIP3    H1 4461   6.419   1.263   3.900  1.4518  2.2104 -1.8887
 1499TIP3    H2 4462   6.361   1.137   3.840 -1.2557  2.0911  0.7411
 1500TIP3   OH2 4463   5.799   5.977   2.307  0.4754 -0.6097 -0.5257
 1500TIP3    H1 4464   5.829   5.885   2.305 -1.0775 -1.1417 -0.4678
 1500TIP3    H2 4465   5.795   5.998   2.400  0.6536 -0.5423 -0.5330
 1501TIP3   OH2 4466   3.486   1.456   3.448  0.3128  0.2643 -0.3551
 1501TIP3    H1 4467   3.537   1.423   3.522  2.1444  0.3385 -1.5184
 1501TIP3    H2 4468   3.452   1.540   3.478 -0.0350 -0.2685  0.8194
 1502TIP3   OH2 4469   2.152   5.613   4.561 -0.7346 -0.5555  0.7578
 1502TIP3    H1 4470   2.233   5.564   4.547 -1.1900 -0.6076 -2.3738
 1502TIP3    H2 4471   2.179   5.689   4.613  0.5711 -2.3684  2.8946
 1503TIP3   OH2 4472   3.263   2.582   4.484 -0.1637  0.0295 -0.5056
 1503TIP3    H1 4473   3.291   2.657   4.537  0.0904 -0.6138  0.2882
 1503TIP3    H2 4474   3.315   2.589   4.404  0.1937  0.4469 -0.2454
 1504TIP3   OH2 4475   5.109   3.562   1.593  0.0419  0.0588  0.1113
 1504TIP3    H1 4476   5.089   3.485   1.540 -2.5066  1.2903 -0.8973
 1504TIP3    H2 4477   5.166   3.530   1.663  0.7583 -2.2782 -1.4624
 1505TIP3   OH2 4478   0.878   6.219   1.347  0.5914 -0.4958 -0.1977
 1505TIP3    H1 4479   0.832   6.138   1.326  1.2936 -1.3126  1.2373
 1505TIP3    H2 4480   0.841   6.247   1.431  1.4584 -0.2205  0.1120
 1506TIP3   OH2 4481   6.976   4.008   3.635  0.0017  0.1563  0.2671
 1506TIP3    H1 4482   6.894   4.024   3.589 -0.3337 -0.7728  0.5378
 1506TIP3    H2 4483   6.978   4.075   3.704  0.3860  1.4013 -0.8926
 1507TIP3   OH2 4484   5.077   1.988   5.618 -0.4504 -0.1427  0.0190
 1507TIP3    H1 4485   5.096   1.900   5.649 -0.6952  0.2704  1.4663
 1507TIP3    H2 4486   5.097   1.987   5.525  0.7084 -1.3836  0.2616
 1508TIP3   OH2 4487   6.414   0.211   2.454 -0.2625  0.1624  0.2703
 1508TIP3    H1 4488   6.389   0.286   2.400 -0.7102 -0.3194 -0.2004
 1508TIP3    H2 4489   6.361   0.139   2.421  1.5249 -0.8313 -0.5194
 1509TIP3   OH2 4490   4.153   3.247   3.411 -0.7833  0.2704 -0.2046
 1509TIP3    H1 4491   4.150   3.219   3.502  0.7150  0.2077 -0.1349
 1509TIP3    H2 4492   4.182   3.339   3.415  0.5614 -0.1108 -0.6357
 1510TIP3   OH2 4493   6.353   1.454   0.327 -0.8163 -0.0861  0.1727
 1510TIP3    H1 4494   6.344   1.544   0.297 -0.4704  0.0357  0.4291
 1510TIP3    H2 4495   6.298   1.403   0.267 -3.1522  0.6104  1.5936
 1511TIP3   OH2 4496   3.925   1.798   4.702  0.1580  0.1494 -0.0881
 1511TIP3    H1 4497   3.931   1.703   4.689 -0.4791 -0.0149  0.6947
 1511TIP3    H2 4498   3.905   1.833   4.616 -2.7339 -0.7426  0.1195
 1512TIP3   OH2 4499   0.610   1.954   2.968 -0.6774 -0.0021  0.0738
 1512TIP3    H1 4500   0.597   1.945   3.063 -1.7913  1.8132  0.1295
 1512TIP3    H2 4501   0.697   1.992   2.959  0.1854 -1.8141  0.2360
 1513TIP3   OH2 4502   6.486   0.551   4.211  0.2005  0.2223  0.0538
 1513TIP3    H1 4503   6.444   0.476   4.253 -0.1879  1.1743  1.4193
 1513TIP3    H2 4504   6.550   0.581   4.275  2.5031 -0.7180 -1.6650
 1514TIP3   OH2 4505   2.046   0.386   4.736  0.2047 -0.4364 -0.0686
 1514TIP3    H1 4506   2.108   0.385   4.663  0.5330 -3.4547  0.1504
 1514TIP3    H2 4507   1.964   0.417   4.697  1.0089  0.5038 -1.0801
 1515TIP3   OH2 4508   3.815   1.792   2.863  0.4138 -0.0288  0.2428
 1515TIP3    H1 4509   3.792   1.851   2.935  0.4310 -0.5943  0.7299
 1515TIP3    H2 4510   3.838   1.710   2.907  0.6199 -0.3238 -0.4037
 1516TIP3   OH2 4511   2.193   2.023   4.080 -0.5661  0.5494  0.5123
 1516TIP3    H1 4512   2.247   2.035   4.002  0.8385 -0.9399  1.2085
 1516TIP3    H2 4513   2.217   2.097   4.136 -3.0077  2.7889 -1.1067
 1517TIP3   OH2 4514   5.055   6.733   3.081  0.9602 -0.4568  0.0282
 1517TIP3    H1 4515   5.099   6.817   3.069  1.5124 -0.6766  0.4660
 1517TIP3    H2 4516   5.078   6.706   3.170 -0.2248 -0.4812  0.3370
 1518TIP3   OH2 4517   0.615   5.621   1.883  0.3531  0.2058  0.1495
 1518TIP3    H1 4518   0.644   5.552   1.823  1.6164  0.7139  0.1356
 1518TIP3    H2 4519   0.606   5.698   1.827  0.7118  0.4804  0.4652
 1519TIP3   OH2 4520   6.513   5.958   4.266 -0.0210 -0.4542 -0.9465
 1519TIP3    H1 4521   6.479   6.014   4.335  1.8411 -0.0214 -0.3243
 1519TIP3    H2 4522   6.516   6.014   4.189 -1.6918 -0.8172 -1.3184
 1520TIP3   OH2 4523   3.827   4.347   4.645  0.1166 -0.0391  0.6013
 1520TIP3    H1 4524   3.869   4.365   4.561 -0.7652  2.3508  0.6123
 1520TIP3    H2 4525   3.757   4.412   4.652  0.4272  0.1201  3.3967
 1521TIP3   OH2 4526   3.125   2.737   5.515  0.4823  0.4909 -0.3113
 1521TIP3    H1 4527   3.219   2.732   5.496  0.5899  1.7225 -0.1338
 1521TIP3    H2 4528   3.110   2.666   5.577  0.7609 -1.5069 -2.3923
 1522TIP3   OH2 4529   4.267   5.633   4.923 -0.4933 -0.1375  0.0038
 1522TIP3    H1 4530   4.198   5.569   4.906  1.7212 -2.3302 -1.6043
 1522TIP3    H2 4531   4.235   5.714   4.885 -2.4130 -0.8840 -0.1039
 1523TIP3   OH2 4532   0.884   2.587   3.668  0.3903  0.2123 -0.3889
 1523TIP3    H1 4533   0.809   2.613   3.721  0.9951  1.6913 -0.1990
 1523TIP3    H2 4534   0.846   2.545   3.591 -0.5419 -1.0271  0.7119
 1524TIP3   OH2 4535   6.270   2.470   1.143  0.1456  0.1547 -0.0306
 1524TIP3    H1 4536   6.206   2.538   1.122  0.3307  0.1381 -0.6844
 1524TIP3    H2 4537   6.222   2.388   1.129  0.0814  0.1451  0.2387
 1525TIP3   OH2 4538   6.493   4.525   1.448  0.2635 -0.2253 -0.3184
 1525TIP3    H1 4539   6.449   4.475   1.517 -0.8758  0.6578 -0.3686
 1525TIP3    H2 4540   6.422   4.574   1.405  1.1667  0.4364 -1.0912
 1526TIP3   OH2 4541   2.366   6.465   3.309 -0.2922  0.3063  0.5866
 1526TIP3    H1 4542   2.378   6.556   3.282 -1.1990 -0.0512 -1.1762
 1526TIP3    H2 4543   2.423   6.415   3.251 -1.3110 -0.3936  0.1579
 1527TIP3   OH2 4544   0.023   3.320   0.447  0.6829 -0.4161  0.0263
 1527TIP3    H1 4545   0.046   3.386   0.513  0.9867  0.1378 -0.6189
 1527TIP3    H2 4546   0.104   3.272   0.433  0.2995 -1.3780  0.9732
 1528TIP3   OH2 4547   1.492   3.377   1.679  0.2311 -0.2854 -0.6675
 1528TIP3    H1 4548   1.563   3.401   1.619 -0.3314  0.2587 -1.1242
 1528TIP3    H2 4549   1.446   3.306   1.633  1.3523 -1.6883  0.2838
 1529TIP3   OH2 4550   5.054   5.475   3.542 -0.7753  0.0034 -0.5114
 1529TIP3    H1 4551   4.981   5.414   3.550 -0.2277 -0.4548  1.6036
 1529TIP3    H2 4552   5.102   5.446   3.465 -0.0540 -2.8519  0.8998
 1530TIP3   OH2 4553   3.733   6.619   5.332 -0.3255  0.8375 -0.7034
 1530TIP3    H1 4554   3.677   6.668   5.271 -0.4697  0.3904 -0.9337
 1530TIP3    H2 4555   3.785   6.687   5.376 -0.9520  1.2446 -0.5804
 1531TIP3   OH2 4556   3.046   1.337   1.607 -0.0019  0.0064  0.7138
 1531TIP3    H1 4557   2.953   1.323   1.591 -0.3359 -0.1513  2.5990
 1531TIP3    H2 4558   3.089   1.275   1.548 -1.0941 -0.1453  0.0444
 1532TIP3   OH2 4559   2.792   0.108   1.744  0.5055 -1.0304 -0.1724
 1532TIP3    H1 4560   2.733   0.089   1.817 -0.6934 -1.6979 -1.2672
 1532TIP3    H2 4561   2.877   0.125   1.785 -0.7955  1.8043  1.6048
 1533TIP3   OH2 4562   5.884   5.163   5.697  0.2169  0.7864  0.3178
 1533TIP3    H1 4563   5.847   5.224   5.761  1.0810  2.1842 -0.4466
 1533TIP3    H2 4564   5.817   5.159   5.628 -0.1830  0.2329  0.7287
 1534TIP3   OH2 4565   5.974   1.036   1.757 -0.3994  0.1557  0.0736
 1534TIP3    H1 4566   6.053   0.984   1.770 -0.7456 -0.5883 -0.6583
 1534TIP3    H2 4567   5.977   1.061   1.664 -1.1315 -0.0844 -0.0255
 1535TIP3   OH2 4568   7.161   2.738   2.076  0.1573 -0.5798 -0.2736
 1535TIP3    H1 4569   7.117   2.702   2.152 -0.3785  0.0120 -0.3036
 1535TIP3    H2 4570   7.246   2.692   2.074  0.3864 -0.2413  0.9595
 1536TIP3   OH2 4571   2.360   3.943   1.879  0.2424 -0.1908  0.0597
 1536TIP3    H1 4572   2.267   3.968   1.877 -0.2542 -1.6739  1.5571
 1536TIP3    H2 4573   2.359   3.848   1.890  1.9189 -0.1620  0.8411
 1537TIP3   OH2 4574   6.573   3.876   2.103 -0.1123 -0.1708  0.4121
 1537TIP3    H1 4575   6.627   3.921   2.168  0.3710 -0.3753  0.1544
 1537TIP3    H2 4576   6.630   3.865   2.028 -0.2591 -1.1172  0.4298
 1538TIP3   OH2 4577   3.217   4.717   4.202  0.0480  0.0167  0.6619
 1538TIP3    H1 4578   3.280   4.781   4.238  1.8160 -1.6411  0.6762
 1538TIP3    H2 4579   3.264   4.676   4.130 -0.2675 -2.6440  1.8815
 1539TIP3   OH2 4580   1.074   2.905   3.684  0.1326  0.1292  0.3528
 1539TIP3    H1 4581   1.129   2.983   3.674 -1.9743  1.7356  0.4074
 1539TIP3    H2 4582   1.012   2.929   3.753 -1.6635 -0.9098 -0.8314
 1540TIP3   OH2 4583   4.661   2.312   2.773  0.2051 -0.0952  0.0701
 1540TIP3    H1 4584   4.641   2.405   2.783 -0.1101 -0.1021 -0.4273
 1540TIP3    H2 4585   4.749   2.311   2.735 -0.6576  0.0927 -2.0922
 1541TIP3   OH2 4586   4.818   3.071   1.694  0.0779  0.2409  0.1674
 1541TIP3    H1 4587   4.726   3.097   1.699 -0.2379 -0.2856 -2.0876
 1541TIP3    H2 4588   4.841   3.049   1.785 -1.4299  2.2179  1.1110
 1542TIP3   OH2 4589   3.280   4.401   2.324 -0.6440 -0.3957 -0.5928
 1542TIP3    H1 4590   3.243   4.313   2.319  0.5747 -0.9355 -0.3579
 1542TIP3    H2 4591   3.362   4.396   2.276 -0.9227  0.8327 -1.2564
 1543TIP3   OH2 4592   6.705   0.955   3.847  0.0383 -0.1348 -0.6298
 1543TIP3    H1 4593   6.683   1.030   3.903  1.0512  0.2724 -0.7704
 1543TIP3    H2 4594   6.635   0.953   3.782 -0.6331 -0.0353  0.0668
 1544TIP3   OH2 4595   0.554   4.727   0.960 -1.0162  0.0940 -0.0159
 1544TIP3    H1 4596   0.605   4.776   1.025 -3.4168  1.6099  0.8433
 1544TIP3    H2 4597   0.527   4.794   0.896 -0.4306 -1.0111 -1.4807
 1545TIP3   OH2 4598   3.541   3.018   3.389 -0.1987  1.0761  0.0353
 1545TIP3    H1 4599   3.584   2.967   3.320 -2.5493 -1.5188  0.3010
 1545TIP3    H2 4600   3.586   2.992   3.470 -1.3400 -0.6277  0.1592
 1546TIP3   OH2 4601   1.794   2.258   5.454  0.8300  0.7145 -0.0007
 1546TIP3    H1 4602   1.784   2.310   5.533  2.0736 -0.0474  0.6821
 1546TIP3    H2 4603   1.888   2.239   5.449  0.3592 -2.0797  0.1934
 1547TIP3   OH2 4604   6.850   2.678   2.150  0.0164  0.0701 -0.2646
 1547TIP3    H1 4605   6.833   2.587   2.174 -0.0504 -0.0340 -0.7013
 1547TIP3    H2 4606   6.933   2.698   2.193  0.3414 -0.3903 -0.6726
 1548TIP3   OH2 4607   1.025   5.995   2.251  0.2087 -0.0138  0.2133
 1548TIP3    H1 4608   0.978   6.074   2.278 -2.2701 -1.3938  0.2161
 1548TIP3    H2 4609   0.983   5.967   2.170  2.0927 -0.5002 -0.6571
 1549TIP3   OH2 4610   6.240   2.331   0.323  0.0630  0.1485  0.1667
 1549TIP3    H1 4611   6.322   2.287   0.303 -1.3539 -1.1555 -3.8072
 1549TIP3    H2 4612   6.195   2.274   0.385 -0.1524 -2.3043 -2.0677
 1550TIP3   OH2 4613   5.100   1.724   5.728  0.3080  0.3258  0.2845
 1550TIP3    H1 4614   5.077   1.660   5.796  0.1307 -0.4857 -0.5155
 1550TIP3    H2 4615   5.025   1.723   5.668 -0.2241  2.1788  0.8809
 1551TIP3   OH2 4616   3.859   6.691   4.693 -0.1832  0.2462 -0.0487
 1551TIP3    H1 4617   3.932   6.715   4.749 -0.4637  1.0404 -0.0065
 1551TIP3    H2 4618   3.852   6.764   4.630 -0.4153 -0.2141 -0.5673
 1552TIP3   OH2 4619   5.439   1.096   4.405  0.0064  0.0664 -0.1334
 1552TIP3    H1 4620   5.413   1.185   4.428 -1.4567  0.0676 -1.5880
 1552TIP3    H2 4621   5.445   1.097   4.309  0.3836 -1.2887 -0.1417
 1553TIP3   OH2 4622   5.950   3.506   2.480  0.4842  0.2718 -0.2475
 1553TIP3    H1 4623   5.906   3.422   2.474  0.9683  0.0567 -0.9562
 1553TIP3    H2 4624   6.037   3.485   2.514  0.9931  0.3330 -1.4651
 1554TIP3   OH2 4625   0.489   5.441   2.814  0.1027  0.5914 -0.1047
 1554TIP3    H1 4626   0.399   5.460   2.839 -2.3273 -4.4305 -3.3822
 1554TIP3    H2 4627   0.522   5.384   2.883 -0.6713 -0.5166 -0.6282
 1555TIP3   OH2 4628   3.229   6.129   1.716  0.1750 -0.3884  0.1372
 1555TIP3    H1 4629   3.214   6.089   1.802  0.9279 -1.8673 -0.3794
 1555TIP3    H2 4630   3.145   6.169   1.693 -0.6157 -1.6554  0.7205
 1556TIP3   OH2 4631   3.117   6.628   1.302  0.3333 -0.0439 -0.1370
 1556TIP3    H1 4632   3.064   6.550   1.287  0.0461  0.3165 -1.0580
 1556TIP3    H2 4633   3.205   6.595   1.319  0.6784 -0.5126 -2.5634
 1557TIP3   OH2 4634   0.393   2.366   2.083 -0.0986 -0.2305 -0.2158
 1557TIP3    H1 4635   0.308   2.393   2.117 -0.2787  0.3422 -1.0942
 1557TIP3    H2 4636   0.380   2.360   1.988  1.4113  2.0488 -0.6409
 1558TIP3   OH2 4637   6.932   4.846   2.824 -0.6262  0.0089 -0.3082
 1558TIP3    H1 4638   6.882   4.767   2.804  0.1905 -0.6681  0.2792
 1558TIP3    H2 4639   6.986   4.822   2.899  1.5030  0.3075 -1.6775
 1559TIP3   OH2 4640   4.393   6.036   0.313 -0.5490  0.3954 -0.2158
 1559TIP3    H1 4641   4.337   6.051   0.238  0.4732 -0.7929 -1.2550
 1559TIP3    H2 4642   4.474   6.002   0.277  0.3579  0.7669  1.3499
 1560TIP3   OH2 4643   1.501   0.953   1.697 -0.1012  0.5177  0.0848
 1560TIP3    H1 4644   1.511   0.891   1.769 -0.6784 -0.0155 -0.2795
 1560TIP3    H2 4645   1.588   0.955   1.656  0.2476  0.8723  0.8221
 1561TIP3   OH2 4646   7.032   5.591   2.238  0.5220 -0.2163 -0.1560
 1561TIP3    H1 4647   7.056   5.679   2.208  0.8661 -0.8746 -1.9142
 1561TIP3    H2 4648   6.944   5.577   2.202 -0.4420  0.1553  1.8699
 1562TIP3   OH2 4649   6.752   1.135   1.077 -0.4230 -0.0386  0.3537
 1562TIP3    H1 4650   6.828   1.140   1.020  0.5188  0.1314  1.5655
 1562TIP3    H2 4651   6.688   1.082   1.029  0.3328  0.0865 -0.8174
 1563TIP3   OH2 4652   6.474   3.621   1.277 -0.1603 -0.1853  0.0146
 1563TIP3    H1 4653   6.465   3.714   1.254 -0.0312 -0.0534  0.4852
 1563TIP3    H2 4654   6.533   3.621   1.352 -0.4496 -0.6231  0.2450
 1564TIP3   OH2 4655   0.877   6.207   2.541  0.5418 -0.2843  0.1363
 1564TIP3    H1 4656   0.831   6.177   2.463 -1.1620  1.3862  0.4477
 1564TIP3    H2 4657   0.808   6.224   2.606  1.7171  0.6752  1.1988
 1565TIP3   OH2 4658   2.828   6.494   1.628  0.2030 -0.0512 -0.5867
 1565TIP3    H1 4659   2.800   6.517   1.539  0.2423  1.2985 -0.2831
 1565TIP3    H2 4660   2.905   6.439   1.616  0.1241  0.0021 -1.4005
 1566TIP3   OH2 4661   6.123   2.422   5.660  0.2817  0.1116 -0.2786
 1566TIP3    H1 4662   6.197   2.391   5.608  1.5549 -1.7557  2.4003
 1566TIP3    H2 4663   6.163   2.463   5.736 -1.4913  1.0596  0.1832
 1567TIP3   OH2 4664   1.870   3.069   3.191  0.2607 -0.3808  0.4449
 1567TIP3    H1 4665   1.932   3.080   3.263  0.6907  0.1207  0.0065
 1567TIP3    H2 4666   1.924   3.037   3.118 -0.1812 -0.9499  0.3609
 1568TIP3   OH2 4667   6.376   1.717   0.744  0.0662 -0.2679  0.0843
 1568TIP3    H1 4668   6.453   1.680   0.786 -0.2744 -0.6733  0.3609
 1568TIP3    H2 4669   6.406   1.746   0.658  0.9521  1.2280  0.8440
 1569TIP3   OH2 4670   5.916   6.735   5.313  0.1457 -0.7600 -0.1135
 1569TIP3    H1 4671   6.008   6.761   5.308  0.6537 -2.1348  1.3163
 1569TIP3    H2 4672   5.916   6.641   5.293 -0.9975 -0.7270 -0.3539
 1570TIP3   OH2 4673   4.292   5.293   4.980 -0.1980  0.2422 -0.1195
 1570TIP3    H1 4674   4.277   5.331   4.893 -0.4516  0.5290  0.0454
 1570TIP3    H2 4675   4.258   5.359   5.040 -1.4500 -0.6115  0.1487
 1571TIP3   OH2 4676   1.115   3.537   1.636  0.0775  0.3524  0.6584
 1571TIP3    H1 4677   1.117   3.526   1.731  0.2225 -1.2074  0.4973
 1571TIP3    H2 4678   1.028   3.572   1.618 -0.2870 -0.2053  1.2944
 1572TIP3   OH2 4679   2.895   6.173   1.088 -0.6009 -0.0487  0.0057
 1572TIP3    H1 4680   2.902   6.185   0.993 -1.0275  0.5505  0.0441
 1572TIP3    H2 4681   2.862   6.083   1.098 -0.2711 -0.2187 -0.3992
 1573TIP3   OH2 4682   4.234   5.366   0.762 -0.0355 -0.2261  0.2029
 1573TIP3    H1 4683   4.323   5.390   0.790 -0.3784 -0.4162  1.5340
 1573TIP3    H2 4684   4.204   5.303   0.828 -1.5972  0.7515  0.4902
 1574TIP3   OH2 4685   6.662   4.865   5.863  0.5676 -0.8979 -0.6517
 1574TIP3    H1 4686   6.696   4.775   5.869  0.3803 -0.8733  1.7631
 1574TIP3    H2 4687   6.737   4.920   5.888  0.3144 -0.4516 -0.8685
 1575TIP3   OH2 4688   7.076   5.077   2.670 -0.1074  0.5746  0.5412
 1575TIP3    H1 4689   7.079   5.001   2.728  0.8832 -0.0369 -0.2564
 1575TIP3    H2 4690   6.990   5.073   2.629 -0.3689  0.3500  1.1027
 1576TIP3   OH2 4691   1.955   4.117   1.526 -0.1714 -0.4382 -0.3360
 1576TIP3    H1 4692   1.992   4.175   1.593 -2.6017  1.4710 -0.4977
 1576TIP3    H2 4693   1.975   4.029   1.557  1.1837  0.4300  1.4405
 1577TIP3   OH2 4694   2.489   6.499   3.026  0.4953 -0.2940 -0.1521
 1577TIP3    H1 4695   2.580   6.468   3.023 -0.3524 -3.0318 -0.1797
 1577TIP3    H2 4696   2.436   6.419   3.026 -1.9358  1.2089  0.1930
 1578TIP3   OH2 4697   4.511   3.454   0.707  0.2608  0.2541 -0.0494
 1578TIP3    H1 4698   4.564   3.534   0.702  0.2997  0.2622  0.5067
 1578TIP3    H2 4699   4.442   3.467   0.642  1.3009 -0.0257 -1.2641
 1579TIP3   OH2 4700   2.001   4.163   0.612  0.0546 -0.0272  0.0533
 1579TIP3    H1 4701   1.907   4.171   0.627 -0.2227  0.2046 -1.5930
 1579TIP3    H2 4702   2.032   4.104   0.681 -1.3943 -0.5791  0.2607
 1580TIP3   OH2 4703   1.412   2.052   3.384 -0.2145  0.1531  0.0341
 1580TIP3    H1 4704   1.448   2.027   3.469  0.2438  0.1090 -0.1703
 1580TIP3    H2 4705   1.318   2.057   3.398 -0.0910  0.7144  0.6901
 1581TIP3   OH2 4706   6.463   5.035   3.292 -0.2259 -0.3370 -0.0104
 1581TIP3    H1 4707   6.379   5.000   3.262 -0.2056  0.6372 -1.2869
 1581TIP3    H2 4708   6.467   5.012   3.385 -0.4267 -3.2286 -0.6272
 1582TIP3   OH2 4709   7.134   1.963   4.642 -0.1376 -0.2833  0.2909
 1582TIP3    H1 4710   7.224   1.933   4.625 -0.3387 -0.3788 -0.6410
 1582TIP3    H2 4711   7.146   2.042   4.695  0.4095 -1.6185  2.2691
 1583TIP3   OH2 4712   5.900   0.005   2.630 -0.0924  0.2205 -0.5393
 1583TIP3    H1 4713   5.856   0.068   2.687 -1.4205 -0.1515 -1.1100
 1583TIP3    H2 4714   5.932  -0.063   2.690 -1.3908 -0.1223 -0.1954
 1584TIP3   OH2 4715   5.686   6.206   3.894 -0.0416 -0.2973 -0.3034
 1584TIP3    H1 4716   5.656   6.168   3.811 -0.2297  0.3864 -0.5575
 1584TIP3    H2 4717   5.638   6.289   3.901 -1.2156 -1.0606  1.2684
 1585TIP3   OH2 4718   4.012   5.434   4.295 -0.5797 -0.1773 -0.4531
 1585TIP3    H1 4719   4.106   5.452   4.301 -0.8872  2.3386 -1.9185
 1585TIP3    H2 4720   3.980   5.446   4.384  0.3404 -0.2998 -0.0887
 1586TIP3   OH2 4721   2.651   3.520   4.296  0.3812  0.3203  0.5297
 1586TIP3    H1 4722   2.641   3.439   4.347  2.0597  0.7900  1.6714
 1586TIP3    H2 4723   2.728   3.562   4.333  0.5641  1.6046 -1.2156
 1587TIP3   OH2 4724   0.778   0.962   4.628  0.5226  0.3099 -0.0971
 1587TIP3    H1 4725   0.820   1.048   4.627 -0.6543  0.9141 -1.2366
 1587TIP3    H2 4726   0.826   0.911   4.563 -0.5791  1.0794 -1.5853
 1588TIP3   OH2 4727   1.008   4.570   0.277 -0.0710  0.1869 -0.0582
 1588TIP3    H1 4728   0.982   4.662   0.264  0.7157  0.2498 -1.3904
 1588TIP3    H2 4729   0.994   4.554   0.370 -0.2299  1.6679  0.1985
 1589TIP3   OH2 4730   1.291   1.784   1.533  0.0206 -0.6572  0.0392
 1589TIP3    H1 4731   1.276   1.877   1.548 -1.8736 -0.8258 -0.5451
 1589TIP3    H2 4732   1.238   1.741   1.601  1.6447 -1.3298  0.9329
 1590TIP3   OH2 4733   4.399   0.519   1.763 -0.0152 -0.0305 -0.0760
 1590TIP3    H1 4734   4.449   0.566   1.831  0.5828  0.5924 -0.9253
 1590TIP3    H2 4735   4.427   0.428   1.773  3.0116  0.5530 -1.8671
 1591TIP3   OH2 4736   0.650   6.288   2.717 -0.0489 -0.4296  0.0077
 1591TIP3    H1 4737   0.623   6.362   2.664  0.5246 -0.5838 -0.5142
 1591TIP3    H2 4738   0.664   6.324   2.805  1.2467  0.3017 -0.4705
 1592TIP3   OH2 4739   4.530   1.603   3.450  0.1066 -0.9815  0.0518
 1592TIP3    H1 4740   4.593   1.595   3.521 -1.2987  2.7297  1.9914
 1592TIP3    H2 4741   4.582   1.630   3.374  1.1759 -0.8812  0.8004
 1593TIP3   OH2 4742   2.480   5.537   0.216  0.5277 -0.2684 -0.3933
 1593TIP3    H1 4743   2.513   5.579   0.137 -0.0611 -1.3577 -1.2511
 1593TIP3    H2 4744   2.553   5.539   0.278  0.5830  1.7854 -0.4620
 1594TIP3   OH2 4745   7.021   5.896   2.355  0.2393  0.2780  0.1621
 1594TIP3    H1 4746   6.952   5.834   2.378 -0.8386  0.8698 -1.3600
 1594TIP3    H2 4747   7.062   5.859   2.277  0.6922  0.6418  0.2229
 1595TIP3   OH2 4748   3.928   0.558   3.334  0.3261 -0.0499 -0.5767
 1595TIP3    H1 4749   3.853   0.500   3.322  0.4657 -0.6837  1.3973
 1595TIP3    H2 4750   3.997   0.501   3.369  0.8515  1.0632  0.2364
 1596TIP3   OH2 4751   0.493   6.278   5.356 -0.0241  0.1133 -0.3600
 1596TIP3    H1 4752   0.477   6.240   5.270 -2.3021 -0.2456  0.1467
 1596TIP3    H2 4753   0.586   6.302   5.356  0.9618 -3.1751 -1.6160
 1597TIP3   OH2 4754   1.377   4.349   4.974 -0.4511 -0.2191  0.3017
 1597TIP3    H1 4755   1.382   4.253   4.974  0.1804 -0.1917  0.6137
 1597TIP3    H2 4756   1.429   4.376   5.050 -3.6111  0.2393  2.4833
 1598TIP3   OH2 4757   5.032   3.679   2.135 -0.4469 -0.5065 -0.2243
 1598TIP3    H1 4758   5.114   3.702   2.177 -0.0617 -1.2488 -0.5526
 1598TIP3    H2 4759   5.013   3.591   2.167 -1.9071  0.2125  1.0433
 1599TIP3   OH2 4760   5.168   6.775   3.881  0.0385  0.3446 -0.2270
 1599TIP3    H1 4761   5.096   6.783   3.818 -0.1357 -2.1255 -0.4318
 1599TIP3    H2 4762   5.129   6.798   3.965 -0.7038  0.0899 -0.4929
 1600TIP3   OH2 4763   5.811   0.408   1.457  0.7309 -0.9120 -0.5810
 1600TIP3    H1 4764   5.781   0.353   1.530 -1.3673  0.0175 -0.6709
 1600TIP3    H2 4765   5.837   0.490   1.498 -1.0143 -0.1722 -0.8767
 1601TIP3   OH2 4766   6.627   0.428   5.321 -0.3930  0.0181 -0.4074
 1601TIP3    H1 4767   6.596   0.468   5.402 -1.0521  1.4535 -1.3285
 1601TIP3    H2 4768   6.555   0.439   5.259  0.0380 -1.1895 -1.1633
 1602TIP3   OH2 4769   2.803   1.074   4.017 -0.3533 -0.2043  0.7719
 1602TIP3    H1 4770   2.840   1.150   3.973  0.4494  0.6935  2.8809
 1602TIP3    H2 4771   2.713   1.068   3.984  0.3088  0.1982 -1.1900
 1603TIP3   OH2 4772   0.854   1.264   3.218  0.0834  0.1055  0.1556
 1603TIP3    H1 4773   0.781   1.207   3.194  1.1552 -1.3715  0.3523
 1603TIP3    H2 4774   0.825   1.307   3.299 -0.7004 -0.2110  0.0515
 1604TIP3   OH2 4775   3.097   1.966   0.365 -0.0063 -0.7742  0.3763
 1604TIP3    H1 4776   3.114   2.045   0.417  2.0010 -0.7816 -0.2033
 1604TIP3    H2 4777   3.029   1.920   0.414  1.7846 -0.7901  3.0750
 1605TIP3   OH2 4778   3.491   1.001   5.005 -0.0755  0.2219  0.0416
 1605TIP3    H1 4779   3.561   1.011   4.940 -0.5294  1.1379 -0.3160
 1605TIP3    H2 4780   3.410   1.007   4.955 -0.4312  0.9674  0.6953
 1606TIP3   OH2 4781   1.970   3.138   5.671  0.5785  0.1317 -0.0060
 1606TIP3    H1 4782   2.025   3.209   5.638  0.1648 -0.5238 -2.2845
 1606TIP3    H2 4783   1.882   3.175   5.675  0.2712 -0.3089 -1.6729
 1607TIP3   OH2 4784   3.026   5.077   2.473 -0.3377  0.1770  0.2239
 1607TIP3    H1 4785   2.986   5.028   2.401  0.9489  1.3370 -1.3545
 1607TIP3    H2 4786   2.968   5.151   2.488  0.3351  0.9685 -0.9516
 1608TIP3   OH2 4787   4.898   1.671   4.592  0.2891  0.2909  0.2138
 1608TIP3    H1 4788   4.823   1.621   4.559  0.3617  0.1144  0.3119
 1608TIP3    H2 4789   4.925   1.623   4.670  1.6464 -0.6957 -0.8157
 1609TIP3   OH2 4790   5.757   1.434   5.417  0.2325 -0.0113 -0.4575
 1609TIP3    H1 4791   5.836   1.402   5.460  0.1927 -0.6056 -0.8135
 1609TIP3    H2 4792   5.788   1.497   5.351  0.5910 -1.6378 -1.9095
 1610TIP3   OH2 4793   1.692   0.385   2.388  0.2380 -0.4887 -0.6913
 1610TIP3    H1 4794   1.785   0.370   2.406  0.1589 -0.6753 -0.4327
 1610TIP3    H2 4795   1.680   0.479   2.403  0.4046 -0.4460 -0.8182
 1611TIP3   OH2 4796   0.792   4.032   0.028  0.4292  0.1434  0.2361
 1611TIP3    H1 4797   0.788   4.058  -0.064 -0.2974  1.1895  0.5459
 1611TIP3    H2 4798   0.885   4.022   0.046  0.5477 -1.1615 -0.8911
 1612TIP3   OH2 4799   2.293   4.194   5.617 -0.0593 -0.3262 -0.0725
 1612TIP3    H1 4800   2.335   4.198   5.531 -0.9749  0.3892 -0.4984
 1612TIP3    H2 4801   2.285   4.100   5.636  0.6108 -0.4817 -0.5263
 1613TIP3   OH2 4802   5.383   2.273   3.562 -0.4760 -0.2115  0.2921
 1613TIP3    H1 4803   5.327   2.325   3.619  1.2932  2.6624 -0.3620
 1613TIP3    H2 4804   5.356   2.297   3.473  0.8489  0.1838 -0.0257
 1614TIP3   OH2 4805   3.202   6.619   2.000 -0.0776 -0.2982 -0.2849
 1614TIP3    H1 4806   3.177   6.710   2.017  2.1971 -0.0229  2.0929
 1614TIP3    H2 4807   3.236   6.621   1.910  0.2987  1.2925 -0.1385
 1615TIP3   OH2 4808   5.742   2.891   2.555 -0.5271  0.1017  0.4029
 1615TIP3    H1 4809   5.723   2.871   2.464 -1.5440  0.7301  0.4569
 1615TIP3    H2 4810   5.656   2.905   2.595 -0.1548 -1.1474  1.7028
 1616TIP3   OH2 4811   0.615   6.282   3.965 -0.3168  0.0946  0.0285
 1616TIP3    H1 4812   0.678   6.236   3.909  2.2318  1.4425  1.6010
 1616TIP3    H2 4813   0.631   6.247   4.053 -1.4351  0.8587  0.5631
 1617TIP3   OH2 4814   6.785   2.445   4.636  0.0635 -0.3628  0.1134
 1617TIP3    H1 4815   6.747   2.522   4.594 -0.0080 -1.1251 -1.2869
 1617TIP3    H2 4816   6.716   2.380   4.634  0.1885 -0.5389  1.1107
 1618TIP3   OH2 4817   3.098   0.976   2.807 -0.2116 -0.0326  0.1133
 1618TIP3    H1 4818   3.158   1.029   2.859 -1.2399  1.4585 -0.1852
 1618TIP3    H2 4819   3.095   1.018   2.721 -2.0680  0.2645  0.2715
 1619TIP3   OH2 4820   3.026   5.223   3.935  0.1057 -0.0015  0.0117
 1619TIP3    H1 4821   3.112   5.248   3.968 -0.2444  0.4916  0.5676
 1619TIP3    H2 4822   3.044   5.185   3.849  1.1690 -2.3758  1.1765
 1620TIP3   OH2 4823   3.078   6.417   1.512  0.4076  0.0929 -0.2671
 1620TIP3    H1 4824   3.021   6.350   1.550 -0.1156  0.2029 -0.8397
 1620TIP3    H2 4825   3.100   6.383   1.425  1.3138  0.0041 -0.0161
 1621TIP3   OH2 4826   0.731   5.996   2.688 -0.7802  0.6617  0.0720
 1621TIP3    H1 4827   0.804   6.058   2.682 -1.4096  1.5336  1.1521
 1621TIP3    H2 4828   0.768   5.913   2.658  0.8548  0.9256  1.2274
 1622TIP3   OH2 4829   0.199   3.592   3.032  0.0833  0.4872  0.1231
 1622TIP3    H1 4830   0.275   3.644   3.002 -1.6903  2.2469 -1.6658
 1622TIP3    H2 4831   0.127   3.655   3.033 -1.7931 -1.5592 -0.2977
 1623TIP3   OH2 4832   0.030   2.715   3.544 -0.5871 -0.6569 -0.3168
 1623TIP3    H1 4833   0.056   2.770   3.470  0.1118 -1.1854 -0.4789
 1623TIP3    H2 4834   0.012   2.777   3.615 -1.1082 -0.1556 -0.8741
 1624TIP3   OH2 4835   3.658   5.944   2.189 -0.6115  0.0426 -0.7186
 1624TIP3    H1 4836   3.672   5.928   2.282 -2.9897 -1.2451 -0.4853
 1624TIP3    H2 4837   3.698   5.869   2.145 -0.5620  0.0230 -0.6398
 1625TIP3   OH2 4838   3.314   2.908   5.249  0.2356  0.2356 -0.3183
 1625TIP3    H1 4839   3.357   2.987   5.281  0.3443  0.0824 -0.0865
 1625TIP3    H2 4840   3.326   2.843   5.319 -0.9655  0.3957  0.0490
 1626TIP3   OH2 4841   6.126   4.922   1.177 -0.4718  0.6059 -0.3958
 1626TIP3    H1 4842   6.051   4.863   1.170 -0.9345  1.1940 -0.4419
 1626TIP3    H2 4843   6.093   4.999   1.222  0.2448  0.6491  0.0815
 1627TIP3   OH2 4844   2.444   2.833   3.277  0.0349 -0.4279 -0.3264
 1627TIP3    H1 4845   2.383   2.765   3.248  0.5659 -1.4381  0.8556
 1627TIP3    H2 4846   2.423   2.846   3.369 -1.1974  2.2767 -0.9042
 1628TIP3   OH2 4847   3.188   1.646   0.332  0.0841  0.1725 -0.6575
 1628TIP3    H1 4848   3.116   1.595   0.296 -0.5016  0.7943 -0.3914
 1628TIP3    H2 4849   3.169   1.736   0.307 -0.8319  0.7734  1.9136
 1629TIP3   OH2 4850   1.498   2.237   5.615 -0.4845  0.4001 -0.0092
 1629TIP3    H1 4851   1.422   2.207   5.664 -0.5853 -0.0816 -0.4654
 1629TIP3    H2 4852   1.462   2.294   5.547 -0.3867  0.6376  0.1361
 1630TIP3   OH2 4853   1.550   2.793   2.741 -0.0743  0.7604  0.7140
 1630TIP3    H1 4854   1.554   2.873   2.794 -0.4339  0.5997  0.9850
 1630TIP3    H2 4855   1.465   2.754   2.762 -0.8868  1.4559 -1.0983
 1631TIP3   OH2 4856   2.520   6.168   5.410  0.3386  0.1525  0.2415
 1631TIP3    H1 4857   2.493   6.094   5.357  0.2649 -0.7752  1.5344
 1631TIP3    H2 4858   2.615   6.169   5.404  0.2557  1.4374 -1.6816
 1632TIP3   OH2 4859   7.192   4.124   2.455  0.5360  0.3483 -0.2238
 1632TIP3    H1 4860   7.133   4.062   2.413  1.2344  0.0696 -0.8151
 1632TIP3    H2 4861   7.253   4.149   2.386  4.2439 -3.1012  1.3839
 1633TIP3   OH2 4862   2.419   2.352   5.320  0.1739  0.2496  0.2559
 1633TIP3    H1 4863   2.388   2.442   5.324  1.6850  0.7713  0.9061
 1633TIP3    H2 4864   2.514   2.359   5.310  0.3031 -1.2704  0.0732
 1634TIP3   OH2 4865   0.242   0.563   0.836  0.2969 -0.7119  0.4095
 1634TIP3    H1 4866   0.247   0.522   0.923  0.0468  0.4221  0.9784
 1634TIP3    H2 4867   0.153   0.544   0.807  0.3708 -1.0715  0.4125
 1635TIP3   OH2 4868   3.542   6.160   1.852 -0.6119 -0.5526  0.7726
 1635TIP3    H1 4869   3.609   6.197   1.910 -1.2391 -0.6657  1.5693
 1635TIP3    H2 4870   3.581   6.079   1.819  1.3504  1.2901 -2.0221
 1636TIP3   OH2 4871   1.304   2.711   4.705 -0.7679  0.4680  0.3292
 1636TIP3    H1 4872   1.216   2.731   4.737 -1.3705 -0.8879 -0.4002
 1636TIP3    H2 4873   1.323   2.623   4.739 -0.2871  0.1637 -0.6889
 1637TIP3   OH2 4874   6.650   1.918   3.887 -0.2890 -0.5320  0.2346
 1637TIP3    H1 4875   6.744   1.932   3.899 -0.2365  2.2822 -2.1700
 1637TIP3    H2 4876   6.609   1.998   3.919 -1.8288 -1.4138  0.5718
 1638TIP3   OH2 4877   5.239   2.013   3.335 -0.7370  0.0791  0.0602
 1638TIP3    H1 4878   5.176   1.967   3.390 -0.5047 -0.0384  0.2302
 1638TIP3    H2 4879   5.323   2.002   3.380 -0.4733 -0.3709 -0.5284
 1639TIP3   OH2 4880   5.784   2.572   4.199 -0.2054 -0.1050  0.0640
 1639TIP3    H1 4881   5.833   2.559   4.118 -0.8009  1.0455 -0.5171
 1639TIP3    H2 4882   5.847   2.608   4.261  0.1076 -0.3793 -0.0986
 1640TIP3   OH2 4883   3.976   2.181   0.880 -0.4780  0.3132 -0.1879
 1640TIP3    H1 4884   4.030   2.170   0.801 -0.8771  0.1499 -0.4432
 1640TIP3    H2 4885   3.930   2.264   0.866 -0.7229  0.1710 -0.2356
 1641TIP3   OH2 4886   2.709   2.459   1.358  0.0285 -0.2877 -0.4466
 1641TIP3    H1 4887   2.736   2.399   1.427 -1.5497 -0.3928  0.1181
 1641TIP3    H2 4888   2.614   2.461   1.363 -0.0018  2.0039 -0.6741
 1642TIP3   OH2 4889   5.086   4.069  -0.016  0.0480 -0.2706  0.3016
 1642TIP3    H1 4890   5.107   4.130   0.055 -1.4029 -0.0337  0.5424
 1642TIP3    H2 4891   5.069   3.986   0.028  2.0830 -0.9192 -0.0296
 1643TIP3   OH2 4892   5.297   2.507   0.956 -0.1239 -0.0525  0.3998
 1643TIP3    H1 4893   5.391   2.493   0.945 -0.2859 -0.0250 -1.3023
 1643TIP3    H2 4894   5.286   2.602   0.947 -0.3088 -0.0420  0.7239
 1644TIP3   OH2 4895   2.928   5.677   2.731  0.0990 -0.0088  0.1956
 1644TIP3    H1 4896   2.908   5.771   2.734 -1.1750 -0.1606 -1.9648
 1644TIP3    H2 4897   2.846   5.634   2.751  0.7063 -0.7256  1.2835
 1645TIP3   OH2 4898   4.815   0.206   3.725 -0.7223 -0.0840  0.3245
 1645TIP3    H1 4899   4.727   0.179   3.753 -0.4458 -1.4663 -0.0465
 1645TIP3    H2 4900   4.873   0.171   3.792 -0.3059 -0.9469 -0.4487
 1646TIP3   OH2 4901   4.396   1.897   5.354  0.1468 -0.5636 -0.7272
 1646TIP3    H1 4902   4.462   1.906   5.285  0.1583  1.0778 -0.5416
 1646TIP3    H2 4903   4.332   1.967   5.336  1.1875  1.2615  2.0073
 1647TIP3   OH2 4904   2.360   0.282   0.502  0.2420  0.5615  0.3128
 1647TIP3    H1 4905   2.430   0.222   0.476  0.1555  0.2885  0.6980
 1647TIP3    H2 4906   2.343   0.260   0.594 -2.8172 -1.8895 -0.6978
 1648TIP3   OH2 4907   5.139   5.265   3.036  0.1109 -0.4514  0.6458
 1648TIP3    H1 4908   5.062   5.268   2.979  1.2298 -0.1757 -0.9233
 1648TIP3    H2 4909   5.149   5.355   3.069 -0.2121 -0.4826  0.8280
 1649TIP3   OH2 4910   3.273   6.283   5.396  0.5821 -0.1821  0.3246
 1649TIP3    H1 4911   3.179   6.300   5.391  0.5751 -0.4874 -2.0139
 1649TIP3    H2 4912   3.313   6.367   5.374  0.7066 -0.9184 -2.6824
 1650TIP3   OH2 4913   0.935   2.761   1.198 -0.0911  0.7282 -0.5166
 1650TIP3    H1 4914   0.853   2.752   1.245  0.4632  2.2104  0.7918
 1650TIP3    H2 4915   0.910   2.768   1.106 -1.2252 -1.5472 -0.4608
 1651TIP3   OH2 4916   0.816   0.826   2.068  0.2939 -0.1490  0.6535
 1651TIP3    H1 4917   0.764   0.873   2.002  1.0035  0.6575  0.6491
 1651TIP3    H2 4918   0.906   0.852   2.051  0.6522 -1.1407  0.9851
 1652TIP3   OH2 4919   0.600   1.104   4.440  0.2984 -0.0312 -0.4862
 1652TIP3    H1 4920   0.613   1.180   4.497 -1.6694 -0.4060  0.5287
 1652TIP3    H2 4921   0.618   1.029   4.497 -0.2914 -0.3774 -0.7506
 1653TIP3   OH2 4922   3.450   0.095   2.726 -0.0970  0.6066 -0.4217
 1653TIP3    H1 4923   3.360   0.072   2.707 -0.0404 -0.5725  0.6113
 1653TIP3    H2 4924   3.446   0.141   2.810  0.4750 -1.5791  0.8578
 1654TIP3   OH2 4925   3.918   4.674   2.639  0.7615 -0.0962  0.4924
 1654TIP3    H1 4926   3.830   4.706   2.655  0.1779 -0.9168 -0.8560
 1654TIP3    H2 4927   3.969   4.752   2.616  0.3164  0.3446  1.0047
 1655TIP3   OH2 4928   6.634   0.341   1.681  0.1970 -0.5211 -0.0824
 1655TIP3    H1 4929   6.540   0.323   1.670 -0.0102  0.4650 -0.0610
 1655TIP3    H2 4930   6.678   0.270   1.635 -0.5637 -0.9341 -0.1952
 1656TIP3   OH2 4931   6.648   0.943   3.431 -0.3612  0.3368  0.0469
 1656TIP3    H1 4932   6.600   0.998   3.493 -0.0915 -0.9929  1.4972
 1656TIP3    H2 4933   6.727   0.918   3.478  0.3087  0.0412 -1.1981
 1657TIP3   OH2 4934   3.368   3.080   2.060  0.3056 -0.7562  0.2404
 1657TIP3    H1 4935   3.362   3.173   2.084 -1.8096 -0.3332 -1.5335
 1657TIP3    H2 4936   3.392   3.036   2.141  2.0600  1.3735  0.9927
 1658TIP3   OH2 4937   4.011   4.671   3.794 -0.4895 -0.2350  0.2276
 1658TIP3    H1 4938   4.048   4.757   3.775  0.9125 -0.6669  0.8352
 1658TIP3    H2 4939   3.980   4.678   3.884 -0.3457 -0.3650  0.2884
 1659TIP3   OH2 4940   6.846   4.861   4.768 -0.2836  0.2838 -0.4593
 1659TIP3    H1 4941   6.776   4.865   4.833  0.9287  0.5945  0.8899
 1659TIP3    H2 4942   6.897   4.941   4.782  0.1260  0.2635 -1.6801
 1660TIP3   OH2 4943   1.314   0.631   1.640 -0.3608  0.4438  0.4846
 1660TIP3    H1 4944   1.293   0.557   1.697 -0.3950  0.5982  0.6736
 1660TIP3    H2 4945   1.404   0.653   1.660 -0.0501 -0.1356 -0.2355
 1661TIP3   OH2 4946   0.975   4.697   1.620  0.7079  0.0583  0.7363
 1661TIP3    H1 4947   0.991   4.654   1.704  5.1482  1.1282  0.7199
 1661TIP3    H2 4948   0.992   4.790   1.636 -0.4454  0.6077 -0.9311
 1662TIP3   OH2 4949   6.690   3.869   1.823  0.2566  0.3804 -0.3470
 1662TIP3    H1 4950   6.674   3.957   1.787 -1.0028  0.0754 -0.5829
 1662TIP3    H2 4951   6.619   3.816   1.788 -0.5917 -0.1218  1.9639
 1663TIP3   OH2 4952   5.874   3.784   0.882  0.4741 -0.5094  0.1558
 1663TIP3    H1 4953   5.798   3.809   0.934  1.8913  1.8404  1.3021
 1663TIP3    H2 4954   5.879   3.850   0.813  1.6802 -0.3498  0.3681
 1664TIP3   OH2 4955   0.846   3.662   0.856  0.3501 -0.4768 -0.5907
 1664TIP3    H1 4956   0.794   3.590   0.890  2.0431 -1.9389 -0.9686
 1664TIP3    H2 4957   0.875   3.633   0.769  1.2531  0.5387 -0.6568
 1665TIP3   OH2 4958   1.605   4.415   5.145 -0.2908 -0.1276 -0.6196
 1665TIP3    H1 4959   1.595   4.510   5.140  1.1214  0.0083 -1.1251
 1665TIP3    H2 4960   1.673   4.394   5.081  1.1667 -1.1968  1.1938
 1666TIP3   OH2 4961   3.216   4.521   4.843 -0.5864  0.7465  0.2207
 1666TIP3    H1 4962   3.189   4.562   4.761 -0.3490  0.6442  0.0897
 1666TIP3    H2 4963   3.311   4.534   4.847 -0.1835 -1.4294 -0.7727
 1667TIP3   OH2 4964  -0.038   6.181   5.648  0.4872  0.7819 -0.0090
 1667TIP3    H1 4965   0.018   6.147   5.579  1.3721  0.0723  1.0249
 1667TIP3    H2 4966   0.022   6.203   5.719 -0.2159  3.0248 -0.0290
 1668TIP3   OH2 4967   3.405   2.524   4.223  0.1231 -0.4130  0.5416
 1668TIP3    H1 4968   3.391   2.615   4.197 -0.0665 -0.7060 -0.4413
 1668TIP3    H2 4969   3.336   2.476   4.178 -0.8594 -0.8624  2.4045
 1669TIP3   OH2 4970   7.014   5.008   0.859 -0.2478 -0.3812  0.6234
 1669TIP3    H1 4971   7.067   4.984   0.935  1.6049 -1.2504 -0.8803
 1669TIP3    H2 4972   7.007   5.103   0.864  1.4753 -0.2405  0.8656
 1670TIP3   OH2 4973   0.140   2.354   5.584  0.0261  0.0212  0.3765
 1670TIP3    H1 4974   0.085   2.285   5.550  0.5561  0.5173 -1.5921
 1670TIP3    H2 4975   0.092   2.435   5.567  0.7376  0.3536 -0.0994
 1671TIP3   OH2 4976   0.790   1.742   0.087  1.0948 -0.2852  0.4433
 1671TIP3    H1 4977   0.746   1.723   0.170  1.3037  2.1406  1.2109
 1671TIP3    H2 4978   0.755   1.677   0.026 -1.8608  0.0624  1.5640
 1672TIP3   OH2 4979   3.581   3.394   3.853  0.3762  0.4676 -0.1953
 1672TIP3    H1 4980   3.549   3.472   3.809  2.9355  0.2450 -2.6708
 1672TIP3    H2 4981   3.644   3.426   3.917 -1.2036  0.5840  1.3795
 1673TIP3   OH2 4982   2.696   4.883   0.383  0.4092  0.1439 -0.3410
 1673TIP3    H1 4983   2.641   4.821   0.335 -0.6495  1.5359 -1.0327
 1673TIP3    H2 4984   2.675   4.968   0.344  1.2645  1.0359  1.0441
 1674TIP3   OH2 4985   5.133   4.573   0.574  0.0029  0.1709 -0.1671
 1674TIP3    H1 4986   5.115   4.600   0.484 -0.2901  0.5632  0.0073
 1674TIP3    H2 4987   5.228   4.576   0.581  0.0476 -0.1782 -0.5594
 1675TIP3   OH2 4988   3.488   3.040   4.864  0.1080 -0.3382 -0.4365
 1675TIP3    H1 4989   3.570   3.013   4.822  0.2021 -1.0458  0.1829
 1675TIP3    H2 4990   3.509   3.122   4.909  0.5833 -0.7181  0.0408
 1676TIP3   OH2 4991   3.243   4.281   5.485  0.1594  0.4014  0.4795
 1676TIP3    H1 4992   3.295   4.357   5.509 -0.6393  1.3968 -0.8008
 1676TIP3    H2 4993   3.206   4.303   5.399 -0.7452 -1.0908  0.4413
 1677TIP3   OH2 4994   1.870   5.111   1.741  0.5225  0.5384 -0.0592
 1677TIP3    H1 4995   1.934   5.098   1.811  0.0559  0.4450  0.3551
 1677TIP3    H2 4996   1.847   5.204   1.747  0.9683  0.6852 -0.5179
 1678TIP3   OH2 4997   3.430   0.421   0.389 -0.1847  0.1334 -0.5268
 1678TIP3    H1 4998   3.474   0.447   0.308 -0.2722  0.0478 -0.6024
 1678TIP3    H2 4999   3.429   0.500   0.442 -0.6127  0.3354 -0.8294
 1679TIP3   OH2 5000   1.777   3.497   0.442 -0.0775  0.1360  0.3443
 1679TIP3    H1 5001   1.835   3.530   0.374  0.7316  1.2531  1.5075
 1679TIP3    H2 5002   1.757   3.407   0.416 -0.5572  0.8069 -1.8132
 1680TIP3   OH2 5003   0.875   3.253   1.694 -0.1884  0.3380  0.7344
 1680TIP3    H1 5004   0.917   3.314   1.633  0.4241 -0.4859  0.2973
 1680TIP3    H2 5005   0.909   3.167   1.667 -2.1344 -0.3638  0.4095
 1681TIP3   OH2 5006   1.825   3.498   4.861 -0.1297 -0.2961  0.1584
 1681TIP3    H1 5007   1.817   3.455   4.946 -0.4196 -1.4130 -0.4157
 1681TIP3    H2 5008   1.816   3.427   4.797  0.4065  0.4722 -0.8022
 1682TIP3   OH2 5009   0.067   1.800   1.708 -0.0396  0.5941  0.1719
 1682TIP3    H1 5010   0.042   1.879   1.756  0.1668  0.5311  0.3906
 1682TIP3    H2 5011  -0.010   1.743   1.714  0.2271  0.2979  1.0632
 1683TIP3   OH2 5012   3.721   4.320   0.991 -0.0430 -0.6588 -0.2174
 1683TIP3    H1 5013   3.715   4.402   0.941  1.1037 -0.0181  0.6302
 1683TIP3    H2 5014   3.813   4.316   1.018 -0.6205 -0.9102  1.8848
 1684TIP3   OH2 5015   4.974   3.172   5.308 -0.3802  0.2090 -0.2087
 1684TIP3    H1 5016   4.956   3.221   5.228  1.3324  1.3356  0.0438
 1684TIP3    H2 5017   5.048   3.217   5.348 -0.2252 -1.2338  1.2496
 1685TIP3   OH2 5018   1.885   1.462   4.149 -0.3819  0.2070  0.3133
 1685TIP3    H1 5019   1.843   1.511   4.079  0.7211  2.3674  1.0624
 1685TIP3    H2 5020   1.853   1.372   4.139 -2.3701  1.0289 -1.2384
 1686TIP3   OH2 5021   4.141   4.885   1.288  0.4387 -0.3999  0.3100
 1686TIP3    H1 5022   4.228   4.924   1.280  0.8577 -1.4130 -0.1499
 1686TIP3    H2 5023   4.082   4.960   1.295  1.1687  0.3379 -1.0673
 1687TIP3   OH2 5024   6.400   5.498   5.795 -0.0017 -0.4830 -0.2281
 1687TIP3    H1 5025   6.470   5.546   5.750 -1.7277  1.3902 -1.0891
 1687TIP3    H2 5026   6.372   5.432   5.732 -0.7755  0.5295 -0.9668
 1688TIP3   OH2 5027   3.912   2.901   4.121  0.2463 -0.0349 -0.1937
 1688TIP3    H1 5028   3.959   2.927   4.201 -1.6583 -0.4918  1.1502
 1688TIP3    H2 5029   3.906   2.981   4.070  0.7936  0.4611  0.4892
 1689TIP3   OH2 5030   1.627   3.929   2.745 -0.6019  0.1549  0.1315
 1689TIP3    H1 5031   1.571   3.857   2.770 -1.3381  0.7019  0.0952
 1689TIP3    H2 5032   1.571   3.986   2.692 -0.1273  0.9063  0.4166
 1690TIP3   OH2 5033   3.339   6.754   3.237  0.0625 -0.0521  0.1821
 1690TIP3    H1 5034   3.312   6.821   3.174  0.8767  0.7536  0.6655
 1690TIP3    H2 5035   3.324   6.794   3.323 -2.7068 -1.7636  0.6342
 1691TIP3   OH2 5036   0.503   4.544   2.682  0.4878 -0.2547  0.0910
 1691TIP3    H1 5037   0.524   4.548   2.589 -3.7316  2.0171 -1.0180
 1691TIP3    H2 5038   0.449   4.465   2.691 -0.4773  0.3869  0.1633
 1692TIP3   OH2 5039   2.288   5.400   2.043 -0.3052 -0.6984 -0.0699
 1692TIP3    H1 5040   2.351   5.443   2.100 -0.0397  0.9008 -1.5192
 1692TIP3    H2 5041   2.331   5.317   2.018  0.8862 -0.0105 -0.3770
 1693TIP3   OH2 5042   4.056   1.248   5.220  0.1233  0.3863  0.3644
 1693TIP3    H1 5043   3.991   1.202   5.166 -0.2448  2.3924 -1.0347
 1693TIP3    H2 5044   4.060   1.336   5.182  1.1887  1.3548  2.5491
 1694TIP3   OH2 5045   5.496   5.987   3.654 -0.2430 -0.0475  0.2124
 1694TIP3    H1 5046   5.555   6.054   3.620 -1.0864 -0.2685 -1.8373
 1694TIP3    H2 5047   5.415   6.034   3.674 -0.4021 -0.2290  0.0085
 1695TIP3   OH2 5048   7.139   0.335   0.426 -0.2060  0.8817 -0.2565
 1695TIP3    H1 5049   7.169   0.414   0.382 -0.8596  2.3213  1.7606
 1695TIP3    H2 5050   7.161   0.348   0.518  0.0242 -1.4752  0.1036
 1696TIP3   OH2 5051   0.955   5.835   1.390 -0.1518  0.4176 -0.0602
 1696TIP3    H1 5052   1.047   5.836   1.364  0.2742  0.0554  1.3223
 1696TIP3    H2 5053   0.909   5.878   1.318  0.9091 -0.6424 -1.4370
 1697TIP3   OH2 5054   6.899   4.844   1.461  0.2876  0.7753  0.4466
 1697TIP3    H1 5055   6.918   4.925   1.414 -0.0428  0.8454  0.4300
 1697TIP3    H2 5056   6.897   4.776   1.394 -0.0685  0.8564  0.3723
 1698TIP3   OH2 5057   2.331   5.363   2.559 -0.5985 -0.0884  0.0020
 1698TIP3    H1 5058   2.243   5.394   2.581 -0.5907  0.1541 -0.3115
 1698TIP3    H2 5059   2.374   5.439   2.520  0.0874  0.0995  1.0784
 1699TIP3   OH2 5060   6.909   2.208   5.202  0.0099 -0.3146  0.1074
 1699TIP3    H1 5061   6.845   2.263   5.245  0.1177 -0.9480  1.1048
 1699TIP3    H2 5062   6.906   2.235   5.110  0.8318  2.0950  0.7063
 1700TIP3   OH2 5063   1.411   2.339   2.651 -0.0707  0.0686  0.3452
 1700TIP3    H1 5064   1.471   2.375   2.716 -0.2814  1.3611 -0.1549
 1700TIP3    H2 5065   1.357   2.413   2.624 -2.3477 -1.1495  1.2082
 1701TIP3   OH2 5066   3.882   6.471   1.757 -0.7100  0.4283 -0.0026
 1701TIP3    H1 5067   3.928   6.399   1.801 -1.1885 -0.6908 -1.2849
 1701TIP3    H2 5068   3.843   6.521   1.829 -1.1869 -1.1407  0.8799
 1702TIP3   OH2 5069   1.244   5.116   5.143 -0.2038 -0.0959  0.3174
 1702TIP3    H1 5070   1.183   5.068   5.087 -2.0390  2.4557 -0.0643
 1702TIP3    H2 5071   1.224   5.085   5.232 -1.6185  0.1877  0.1250
 1703TIP3   OH2 5072   3.985   3.731   4.949  0.2490 -0.1218 -0.1305
 1703TIP3    H1 5073   4.039   3.801   4.915  1.7107 -1.7723 -1.3604
 1703TIP3    H2 5074   3.934   3.772   5.020  2.3693  1.7241  0.4289
 1704TIP3   OH2 5075   6.413   2.783   3.860 -0.0297  0.4160  0.0466
 1704TIP3    H1 5076   6.477   2.736   3.808 -0.6551  0.6328 -0.9406
 1704TIP3    H2 5077   6.328   2.748   3.833 -0.3154 -0.7487  2.2040
 1705TIP3   OH2 5078   0.888   4.047   3.014  0.1189 -0.5414 -0.9163
 1705TIP3    H1 5079   0.897   3.969   2.960 -1.8336 -1.6285  0.2141
 1705TIP3    H2 5080   0.963   4.043   3.074  0.3034 -1.2820 -1.1846
 1706TIP3   OH2 5081   1.787   1.307   0.784  0.7474 -0.2540 -0.4892
 1706TIP3    H1 5082   1.790   1.265   0.871 -1.1554  1.1736  0.3345
 1706TIP3    H2 5083   1.866   1.277   0.741  2.0070 -0.6673  1.9150
 1707TIP3   OH2 5084   2.030   1.808   3.041  0.6412  0.4278 -0.1741
 1707TIP3    H1 5085   2.103   1.856   3.080  1.4026  0.1138 -1.1677
 1707TIP3    H2 5086   2.034   1.831   2.948 -0.5719  0.4583 -0.2299
 1708TIP3   OH2 5087   2.949   3.671   2.860  0.6169 -0.3824 -0.3608
 1708TIP3    H1 5088   2.919   3.729   2.930  0.7251 -0.6303 -0.1041
 1708TIP3    H2 5089   2.998   3.603   2.906  2.3097  0.4730 -0.8361
 1709TIP3   OH2 5090   0.439   6.301   4.345  0.2625  0.0753 -0.5248
 1709TIP3    H1 5091   0.510   6.288   4.282 -0.7972  1.7484 -2.1900
 1709TIP3    H2 5092   0.366   6.250   4.309 -0.3007  0.8881 -0.5464
 1710TIP3   OH2 5093   0.453   1.825   5.479 -0.0361  0.0086 -0.0437
 1710TIP3    H1 5094   0.517   1.761   5.507  0.4457  0.5912  0.1993
 1710TIP3    H2 5095   0.378   1.811   5.537  1.4759  2.1959  2.7125
 1711TIP3   OH2 5096   2.792   5.376   2.072  1.1535 -0.1578 -0.0342
 1711TIP3    H1 5097   2.759   5.452   2.022  0.7360 -1.1877 -1.3827
 1711TIP3    H2 5098   2.790   5.405   2.163  1.7815  1.7428 -0.5763
 1712TIP3   OH2 5099   6.774   1.530   4.248 -0.2444  0.1220 -0.1006
 1712TIP3    H1 5100   6.735   1.592   4.310 -2.5944 -2.0701  0.8269
 1712TIP3    H2 5101   6.701   1.504   4.191  1.2013 -0.0856 -1.9635
 1713TIP3   OH2 5102   6.554   4.459   3.487 -0.4901 -0.1156 -0.3372
 1713TIP3    H1 5103   6.617   4.463   3.559 -0.1897 -1.5816 -0.4855
 1713TIP3    H2 5104   6.586   4.524   3.424 -0.2223  0.5162  0.4396
 1714TIP3   OH2 5105   4.103   5.547  -0.003 -0.1588 -0.1166  0.0422
 1714TIP3    H1 5106   4.183   5.554  -0.057 -0.8039  1.6531 -0.7723
 1714TIP3    H2 5107   4.123   5.598   0.075 -0.6716  0.8074 -0.4195
 1715TIP3   OH2 5108   5.973   4.676   1.471  0.4852 -0.1482 -0.5282
 1715TIP3    H1 5109   6.000   4.624   1.395  1.4120  1.5240 -1.4229
 1715TIP3    H2 5110   6.048   4.733   1.489  0.5482 -0.9470  2.1080
 1716TIP3   OH2 5111   2.228   1.608   4.433 -0.4265 -0.2596 -0.5284
 1716TIP3    H1 5112   2.256   1.545   4.367  0.4842 -0.7763  0.3183
 1716TIP3    H2 5113   2.308   1.653   4.459 -0.2935 -1.7719  1.9654
 1717TIP3   OH2 5114   1.691   1.322   2.383  0.0188 -0.1746  0.3531
 1717TIP3    H1 5115   1.604   1.281   2.381 -0.6709  1.1937  0.9150
 1717TIP3    H2 5116   1.709   1.345   2.291  0.8661 -2.5521 -0.1362
 1718TIP3   OH2 5117   5.688   3.037   1.632  0.4119  0.3761  0.1509
 1718TIP3    H1 5118   5.725   3.001   1.713  0.5841  2.2138  0.9347
 1718TIP3    H2 5119   5.595   3.046   1.650  0.2299 -0.4026 -0.3425
 1719TIP3   OH2 5120   4.674   1.289   4.829 -0.2900 -0.0336  0.1163
 1719TIP3    H1 5121   4.748   1.277   4.889  0.9159 -0.9588 -1.4620
 1719TIP3    H2 5122   4.625   1.207   4.835 -1.1559  0.5317  1.0663
 1720TIP3   OH2 5123   0.856   0.255   1.180  0.7339  0.2864  0.1116
 1720TIP3    H1 5124   0.866   0.199   1.257  1.4981  1.1680  0.6793
 1720TIP3    H2 5125   0.790   0.319   1.205  3.1509  2.5114  1.2797
 1721TIP3   OH2 5126   0.142   5.173   3.431 -0.0098  0.1511 -0.1344
 1721TIP3    H1 5127   0.062   5.221   3.452  0.1415  0.4630 -0.2724
 1721TIP3    H2 5128   0.182   5.155   3.516  0.3391  0.9644 -0.1220
 1722TIP3   OH2 5129   4.235   0.513   2.524 -0.2405  0.3811  0.5207
 1722TIP3    H1 5130   4.291   0.441   2.551  0.4814  0.8769  0.3583
 1722TIP3    H2 5131   4.268   0.589   2.572  0.8574  1.2233 -1.4611
 1723TIP3   OH2 5132   4.049   5.003   3.415  0.0961 -0.4041 -0.1748
 1723TIP3    H1 5133   3.979   5.067   3.431  0.6840  0.4559 -0.9178
 1723TIP3    H2 5134   4.125   5.056   3.389 -0.0857 -1.4631 -3.4085
 1724TIP3   OH2 5135   2.969   5.492   3.906 -0.2743 -0.0547  0.0479
 1724TIP3    H1 5136   2.990   5.399   3.920  0.1896  0.0958  0.3552
 1724TIP3    H2 5137   2.901   5.491   3.839 -0.2127 -0.6158 -0.0106
 1725TIP3   OH2 5138   1.318   0.225   3.748 -0.1693  0.8259 -0.1999
 1725TIP3    H1 5139   1.354   0.270   3.672  1.0952  0.8222  0.3721
 1725TIP3    H2 5140   1.327   0.289   3.819  1.2959 -0.1741  0.5409
 1726TIP3   OH2 5141   6.457   0.434   2.874 -0.0500 -0.3769 -0.2007
 1726TIP3    H1 5142   6.426   0.344   2.868  1.0395 -0.7320 -0.7839
 1726TIP3    H2 5143   6.475   0.447   2.968 -1.0720 -0.4573  0.0117
 1727TIP3   OH2 5144   1.075   3.518   5.729 -0.3119 -0.5670  0.1491
 1727TIP3    H1 5145   1.165   3.531   5.760  0.0159 -1.6463 -0.2996
 1727TIP3    H2 5146   1.033   3.467   5.798 -0.0146 -1.6900 -0.4770
 1728TIP3   OH2 5147   3.064   1.888   1.187  0.0716 -0.1431  0.3648
 1728TIP3    H1 5148   2.999   1.876   1.118 -0.9894 -1.1661  1.4785
 1728TIP3    H2 5149   3.148   1.879   1.143 -0.5808 -2.7286 -0.5144
 1729TIP3   OH2 5150   0.719   6.434   3.646  0.1972  0.2408  0.5368
 1729TIP3    H1 5151   0.629   6.414   3.675  0.4696  1.8370  2.7459
 1729TIP3    H2 5152   0.769   6.442   3.727  1.5632  2.8576 -0.4339
 1730TIP3   OH2 5153   5.743   0.908   1.831  0.6432  0.4220 -0.1478
 1730TIP3    H1 5154   5.805   0.958   1.777 -0.9556  0.1743 -2.3543
 1730TIP3    H2 5155   5.713   0.838   1.773 -2.8168  1.4321  0.2183
 1731TIP3   OH2 5156   4.588   3.336   1.769 -0.1196  0.4324  0.2288
 1731TIP3    H1 5157   4.670   3.372   1.734 -0.2358  0.1742 -0.3221
 1731TIP3    H2 5158   4.521   3.366   1.708 -0.1734 -0.9838 -0.4332
 1732TIP3   OH2 5159   1.921   3.753   5.676  0.6957  0.3202 -0.3380
 1732TIP3    H1 5160   1.994   3.789   5.625  1.1925  1.3016  1.0187
 1732TIP3    H2 5161   1.845   3.806   5.651  1.0450  1.1435  0.2883
 1733TIP3   OH2 5162   6.462   6.120   0.796  0.2150 -0.2964  0.2549
 1733TIP3    H1 5163   6.462   6.101   0.702  1.1286 -0.3273  0.2543
 1733TIP3    H2 5164   6.402   6.055   0.833 -1.8623  1.0834 -0.5505
 1734TIP3   OH2 5165   6.915   4.234   4.518 -0.6674 -0.1880  0.0605
 1734TIP3    H1 5166   7.003   4.270   4.531 -0.2888 -1.3812  1.0840
 1734TIP3    H2 5167   6.883   4.276   4.439  2.4769 -2.7190 -2.8679
 1735TIP3   OH2 5168   2.322   5.680   4.261  0.0909  0.0508 -0.2304
 1735TIP3    H1 5169   2.279   5.735   4.326  0.6125  1.6743 -1.1844
 1735TIP3    H2 5170   2.265   5.684   4.184  0.0868 -0.8587 -0.2938
 1736TIP3   OH2 5171   6.233   1.173   4.957 -0.4276  0.4230 -0.4319
 1736TIP3    H1 5172   6.251   1.160   5.051 -2.5015 -0.2324 -0.0876
 1736TIP3    H2 5173   6.180   1.098   4.932 -0.9893  1.2638 -1.8290
 1737TIP3   OH2 5174   4.090   2.294   5.133  1.0520  0.2647  0.5736
 1737TIP3    H1 5175   4.124   2.381   5.156  2.4020 -0.2846  0.7371
 1737TIP3    H2 5176   4.123   2.278   5.045 -1.1052  0.8443 -0.4036
 1738TIP3   OH2 5177   4.722   2.880   0.060  0.2121 -0.1148 -0.1879
 1738TIP3    H1 5178   4.659   2.850  -0.005 -0.1045 -0.5095  0.2870
 1738TIP3    H2 5179   4.668   2.917   0.130  0.5461  0.3488 -0.1704
 1739TIP3   OH2 5180   1.163   4.810   4.505 -0.2262 -0.4224 -0.1271
 1739TIP3    H1 5181   1.077   4.840   4.536 -1.1784 -0.4383 -2.4961
 1739TIP3    H2 5182   1.204   4.889   4.470 -0.0680 -0.7249 -0.6400
 1740TIP3   OH2 5183   2.558   1.079   3.871 -0.0508 -0.0271  0.0369
 1740TIP3    H1 5184   2.489   1.131   3.829  1.7656  2.0276 -0.6596
 1740TIP3    H2 5185   2.591   1.022   3.801  0.6745  0.9139 -0.4190
 1741TIP3   OH2 5186   1.386   4.045   0.082 -0.3659  0.1266  0.5860
 1741TIP3    H1 5187   1.406   4.087   0.166 -1.0083  1.7772 -0.0406
 1741TIP3    H2 5188   1.291   4.053   0.073 -0.2498  0.4457 -0.5221
 1742TIP3   OH2 5189   6.938   2.473   2.463  0.5096  0.5143 -0.1459
 1742TIP3    H1 5190   6.869   2.503   2.524  0.7912  0.1842  0.3435
 1742TIP3    H2 5191   6.985   2.406   2.512  0.5983  0.0804 -0.8234
 1743TIP3   OH2 5192   6.193   0.627   2.787  0.0482 -0.0386 -0.4253
 1743TIP3    H1 5193   6.281   0.631   2.750  0.1432  2.4936 -0.1445
 1743TIP3    H2 5194   6.146   0.564   2.733  1.2870  0.5925 -2.3451
 1744TIP3   OH2 5195   3.490   3.556   4.129 -0.1047 -0.4419  0.2325
 1744TIP3    H1 5196   3.460   3.578   4.218 -0.7095 -0.6220  0.0810
 1744TIP3    H2 5197   3.422   3.498   4.095  0.8577 -1.5736  0.1773
 1745TIP3   OH2 5198   4.556   6.603   5.175 -0.5628 -0.1568  0.2487
 1745TIP3    H1 5199   4.606   6.644   5.104 -0.3452  0.0981  0.5461
 1745TIP3    H2 5200   4.611   6.529   5.203 -0.0330  0.5068  1.0101
 1746TIP3   OH2 5201   5.342   1.899   3.864  0.2058  0.4351 -0.2121
 1746TIP3    H1 5202   5.414   1.848   3.826  0.3459  1.9745 -2.1422
 1746TIP3    H2 5203   5.372   1.990   3.861 -1.0419  0.9129  0.8168
 1747TIP3   OH2 5204   3.740   1.341   1.526 -0.0273 -0.6866  0.2104
 1747TIP3    H1 5205   3.761   1.251   1.502 -2.7874 -1.4055  0.1826
 1747TIP3    H2 5206   3.710   1.381   1.444  1.3283  0.3428  0.1862
 1748TIP3   OH2 5207   0.058   0.040   1.624 -0.0341 -0.4382  0.1512
 1748TIP3    H1 5208   0.146   0.079   1.626  0.6214 -1.8880  1.1308
 1748TIP3    H2 5209   0.017   0.072   1.705  0.3861 -1.4535  0.7869
 1749TIP3   OH2 5210   5.571   1.422   2.156 -0.3222  0.4146  0.1547
 1749TIP3    H1 5211   5.613   1.454   2.236 -0.8480  0.0870  0.5652
 1749TIP3    H2 5212   5.642   1.417   2.092  0.4780 -1.0802  1.1083
 1750TIP3   OH2 5213   6.741   3.607   4.816 -0.0906  0.2766  0.2602
 1750TIP3    H1 5214   6.740   3.702   4.804  0.4968  0.1859 -0.6267
 1750TIP3    H2 5215   6.833   3.584   4.814 -0.2747 -0.4725 -1.0996
 1751TIP3   OH2 5216   0.960   3.786   0.140 -0.0967  0.3247 -0.4450
 1751TIP3    H1 5217   0.886   3.820   0.190 -0.9606 -0.0350 -1.4547
 1751TIP3    H2 5218   1.013   3.863   0.120 -0.7662  0.7483 -0.6321
 1752TIP3   OH2 5219   0.364   1.033   5.765  0.2641  1.0228 -0.0535
 1752TIP3    H1 5220   0.296   1.014   5.700 -1.1533  1.3974  1.2637
 1752TIP3    H2 5221   0.324   1.096   5.824  0.5813 -1.0375  2.5622
 1753TIP3   OH2 5222   6.373   2.605   2.395 -0.2351 -0.1012  0.2463
 1753TIP3    H1 5223   6.432   2.563   2.332  0.4566  1.3516 -0.1165
 1753TIP3    H2 5224   6.410   2.585   2.480  0.4323  0.2732  0.0474
 1754TIP3   OH2 5225   1.123   2.252   4.732 -0.3552 -0.3153  0.0156
 1754TIP3    H1 5226   1.099   2.209   4.814  1.6052 -1.9544 -0.1970
 1754TIP3    H2 5227   1.046   2.242   4.676 -1.2644 -0.2724  1.2046
 1755TIP3   OH2 5228   4.940   3.532   4.189 -0.0274 -0.4643 -0.6026
 1755TIP3    H1 5229   4.945   3.619   4.150 -2.3981 -0.8941 -2.0627
 1755TIP3    H2 5230   4.911   3.475   4.118 -3.7124 -1.4528  1.3974
 1756TIP3   OH2 5231   2.789   6.032   1.474 -0.1189  0.4963 -0.1840
 1756TIP3    H1 5232   2.878   5.997   1.472  0.2488  1.3396 -3.0991
 1756TIP3    H2 5233   2.733   5.955   1.476  0.6683 -0.0834 -0.0537
 1757TIP3   OH2 5234   0.271   3.037   5.771  0.4854 -0.5706  0.2871
 1757TIP3    H1 5235   0.200   3.050   5.834  1.1628  1.8226  0.6459
 1757TIP3    H2 5236   0.227   3.010   5.690 -0.8545  0.9013  0.4889
 1758TIP3   OH2 5237   2.924   0.266   2.948  1.4202  0.6093 -0.1637
 1758TIP3    H1 5238   2.851   0.207   2.929  1.7050  0.6897 -1.6212
 1758TIP3    H2 5239   2.892   0.352   2.921  1.6655  0.8243  0.2298
 1759TIP3   OH2 5240   5.826   3.936   3.718 -0.0446  0.0671  0.3507
 1759TIP3    H1 5241   5.841   3.972   3.631  2.5329  0.1878  0.7598
 1759TIP3    H2 5242   5.771   4.001   3.762  0.2676  0.9722 -0.5546
 1760TIP3   OH2 5243   4.423   0.898   3.668  0.2202 -0.7918 -0.2141
 1760TIP3    H1 5244   4.444   0.822   3.722 -0.8627 -2.1738 -1.6448
 1760TIP3    H2 5245   4.347   0.938   3.711  1.7639  0.5315  1.4598
 1761TIP3   OH2 5246   1.463   6.596   0.552  0.2427  0.3683 -0.2794
 1761TIP3    H1 5247   1.386   6.651   0.568 -0.7758 -1.5250  1.9216
 1761TIP3    H2 5248   1.526   6.625   0.618 -0.5220 -1.3510  1.3079
 1762TIP3   OH2 5249   0.616   1.190   1.267 -0.0447  0.7681 -0.1682
 1762TIP3    H1 5250   0.559   1.251   1.220  0.9278  1.1164 -0.9177
 1762TIP3    H2 5251   0.613   1.219   1.358 -1.8067  0.1981 -0.0027
 1763TIP3   OH2 5252   2.935   6.429   5.518  0.1334  0.4525 -0.1620
 1763TIP3    H1 5253   2.928   6.486   5.442 -0.1310 -1.2654 -1.4864
 1763TIP3    H2 5254   2.946   6.489   5.592  3.2731  2.1799 -1.8059
 1764TIP3   OH2 5255   6.930   3.408   5.010 -0.1910  0.9567 -0.3749
 1764TIP3    H1 5256   6.862   3.343   5.032  0.8266  0.0147  0.1076
 1764TIP3    H2 5257   6.885   3.492   5.013 -0.8320  0.6244  2.4972
 1765TIP3   OH2 5258   2.464   4.669   4.481  0.1655 -0.1172 -0.6941
 1765TIP3    H1 5259   2.405   4.743   4.495 -0.7959 -1.0207  0.2477
 1765TIP3    H2 5260   2.514   4.692   4.403 -0.1404  1.4948 -0.4454
 1766TIP3   OH2 5261   4.514   0.165   5.389 -0.2173  0.6520 -0.0417
 1766TIP3    H1 5262   4.526   0.071   5.377 -1.5333  0.5750 -0.9494
 1766TIP3    H2 5263   4.499   0.199   5.301  2.2741  2.0645 -0.0087
 1767TIP3   OH2 5264   0.158   4.403   1.992  0.0546  0.4757 -0.2428
 1767TIP3    H1 5265   0.198   4.374   1.910 -0.8272 -1.0262 -0.1887
 1767TIP3    H2 5266   0.158   4.498   1.986  2.8893  0.5440 -0.5575
 1768TIP3   OH2 5267   1.808   0.117   3.405  0.1062 -0.2266  0.4845
 1768TIP3    H1 5268   1.794   0.075   3.490 -0.7625 -0.4765  0.2329
 1768TIP3    H2 5269   1.750   0.193   3.407  0.6813  0.2117  0.4252
 1769TIP3   OH2 5270   0.321   5.359   0.106  0.0744 -0.2055  0.7434
 1769TIP3    H1 5271   0.230   5.337   0.088 -0.0557 -0.6507  1.8405
 1769TIP3    H2 5272   0.371   5.314   0.038 -0.5766  0.9946 -0.5895
 1770TIP3   OH2 5273   3.747   5.435   4.739 -0.0250 -0.1863  0.2039
 1770TIP3    H1 5274   3.667   5.486   4.741  0.2537  0.2446  1.6262
 1770TIP3    H2 5275   3.722   5.349   4.774  0.2949  0.2483  1.5729
 1771TIP3   OH2 5276   6.551   4.345   5.658  0.2298 -0.4733  0.0947
 1771TIP3    H1 5277   6.644   4.339   5.679  0.6644 -1.1199 -1.8249
 1771TIP3    H2 5278   6.533   4.439   5.659  0.5319 -0.4056  1.8575
 1772TIP3   OH2 5279   1.315   5.408   3.489 -0.2624  0.5347  0.5231
 1772TIP3    H1 5280   1.403   5.435   3.462  0.1735  0.8497  2.1100
 1772TIP3    H2 5281   1.321   5.401   3.585 -1.1038 -2.5676  0.4588
 1773TIP3   OH2 5282   0.210   2.452   0.890  0.7125 -0.3690  0.1310
 1773TIP3    H1 5283   0.227   2.546   0.891  0.3270 -0.2990  0.4736
 1773TIP3    H2 5284   0.143   2.439   0.957 -0.8430 -0.5702 -1.3733
 1774TIP3   OH2 5285   1.502   1.217   1.138  0.6836 -0.4598  0.6162
 1774TIP3    H1 5286   1.489   1.306   1.171 -3.2764 -0.4324 -0.5027
 1774TIP3    H2 5287   1.476   1.221   1.046  1.3935 -2.5667  0.2710
 1775TIP3   OH2 5288   6.387   2.667   2.021 -0.1380 -0.0090 -0.6785
 1775TIP3    H1 5289   6.455   2.663   2.088 -0.7890  1.6064  0.1196
 1775TIP3    H2 5290   6.365   2.576   2.003  1.2325 -0.5103  0.0686
 1776TIP3   OH2 5291   5.842   6.284   5.074 -0.2596  0.7404 -0.7331
 1776TIP3    H1 5292   5.901   6.219   5.036 -0.8393  0.9863 -2.1183
 1776TIP3    H2 5293   5.759   6.269   5.029 -0.2543  2.8007 -1.5290
 1777TIP3   OH2 5294   0.263   0.165   5.138  0.0179  0.7839  0.5200
 1777TIP3    H1 5295   0.338   0.112   5.111 -0.3608  0.3401  0.3419
 1777TIP3    H2 5296   0.189   0.131   5.088 -0.1931  1.6148  0.2380
 1778TIP3   OH2 5297   1.139   3.725   4.619  0.1068  0.7356  0.0769
 1778TIP3    H1 5298   1.171   3.658   4.559  2.5290  0.9796  0.9895
 1778TIP3    H2 5299   1.138   3.805   4.566 -0.0023  0.5235 -0.2470
 1779TIP3   OH2 5300   3.464   2.269   0.687  0.5146 -0.0395 -0.1215
 1779TIP3    H1 5301   3.499   2.228   0.766  0.1313 -0.7327 -0.3052
 1779TIP3    H2 5302   3.538   2.268   0.625 -0.2673 -3.3428 -1.2201
 1780TIP3   OH2 5303   3.752   3.160   2.631  0.5246 -0.0425 -0.4303
 1780TIP3    H1 5304   3.695   3.184   2.558 -0.3839  0.1832  0.3230
 1780TIP3    H2 5305   3.692   3.126   2.697  1.2865  0.0779  0.3401
 1781TIP3   OH2 5306   5.218   0.797   4.734 -0.2343  0.6045 -0.5946
 1781TIP3    H1 5307   5.258   0.757   4.811 -1.8761 -0.3380 -0.1685
 1781TIP3    H2 5308   5.197   0.886   4.760  0.2990  0.6664 -0.3652
 1782TIP3   OH2 5309   6.267   5.362   1.007 -0.7127  0.1828 -0.1773
 1782TIP3    H1 5310   6.321   5.366   1.086 -0.9980  1.4160 -0.0268
 1782TIP3    H2 5311   6.178   5.356   1.040 -0.7407 -0.9595 -0.4255
 1783TIP3   OH2 5312   7.019   0.705   2.747  0.2354 -0.6413 -0.1696
 1783TIP3    H1 5313   7.023   0.621   2.701 -0.7930 -0.1229 -1.2600
 1783TIP3    H2 5314   6.930   0.710   2.780  0.0313  0.3935 -0.8525
 1784TIP3   OH2 5315   2.010   3.498   2.754  0.1757 -0.3836 -0.3927
 1784TIP3    H1 5316   1.932   3.544   2.723  0.4902 -0.8128 -1.8659
 1784TIP3    H2 5317   2.072   3.502   2.682  1.3201 -0.5566  0.5466
 1785TIP3   OH2 5318   3.256   1.652   3.585 -0.1631  0.2475  0.1485
 1785TIP3    H1 5319   3.293   1.643   3.673 -0.7576 -3.4082  0.1502
 1785TIP3    H2 5320   3.288   1.738   3.555  0.2164  1.5614  3.7789
 1786TIP3   OH2 5321   6.887   6.744   2.479  0.3594  0.2977  0.6643
 1786TIP3    H1 5322   6.926   6.680   2.538 -0.6619 -0.7523  0.2499
 1786TIP3    H2 5323   6.799   6.710   2.461  1.2034 -0.3867 -2.8143
 1787TIP3   OH2 5324   2.882   2.003   0.054  0.2896  0.3717  0.0469
 1787TIP3    H1 5325   2.962   1.968   0.015 -0.5729 -0.8755 -0.6800
 1787TIP3    H2 5326   2.812   1.980  -0.008 -0.6822  1.1016  0.8347
 1788TIP3   OH2 5327   0.822   6.670   1.399  0.1717  0.7704 -0.2317
 1788TIP3    H1 5328   0.807   6.657   1.305 -1.4175  0.4767  0.0269
 1788TIP3    H2 5329   0.849   6.761   1.406 -1.4742  1.3512 -0.8325
 1789TIP3   OH2 5330   4.131   0.987   2.747  0.2547  0.3607  0.4585
 1789TIP3    H1 5331   4.080   1.027   2.677  1.0388  0.2035 -0.2149
 1789TIP3    H2 5332   4.110   1.039   2.825 -2.0430 -0.5570  0.5624
 1790TIP3   OH2 5333   0.958   6.132   0.487 -0.1417  0.4142 -0.1495
 1790TIP3    H1 5334   1.053   6.123   0.497  0.0390  1.3145 -0.9131
 1790TIP3    H2 5335   0.947   6.212   0.435 -1.3532  0.8337  0.7001
 1791TIP3   OH2 5336   2.001   6.022   3.130 -0.0279 -0.0952  0.1026
 1791TIP3    H1 5337   2.095   6.026   3.113 -0.3311  1.2333 -1.5263
 1791TIP3    H2 5338   1.977   6.113   3.150 -0.9994 -0.3932  0.3292
 1792TIP3   OH2 5339   1.478   6.712   0.308  0.0964 -0.1720  0.8534
 1792TIP3    H1 5340   1.439   6.795   0.333  2.2902  0.6642  1.7116
 1792TIP3    H2 5341   1.491   6.666   0.391  0.3285 -0.7031  0.5275
 1793TIP3   OH2 5342   4.337   3.144   4.828 -0.0252 -0.2994  0.1829
 1793TIP3    H1 5343   4.379   3.082   4.887  2.0773 -0.2098 -1.1247
 1793TIP3    H2 5344   4.358   3.230   4.864 -0.9923 -0.2597  0.7109
 1794TIP3   OH2 5345   2.485   6.696   1.414  0.2066 -0.2012 -0.2260
 1794TIP3    H1 5346   2.535   6.774   1.437 -2.0823  1.9490 -1.9980
 1794TIP3    H2 5347   2.432   6.679   1.492 -0.3800  1.0134 -0.3302
 1795TIP3   OH2 5348   3.024   3.680   1.821 -0.3267 -0.8233 -0.2588
 1795TIP3    H1 5349   2.968   3.634   1.884  0.1715 -0.5467  0.3990
 1795TIP3    H2 5350   3.060   3.753   1.871  0.1513 -0.6580 -0.8434
 1796TIP3   OH2 5351   5.835   2.033   0.032 -0.7691  0.4734  0.0920
 1796TIP3    H1 5352   5.850   2.008  -0.059 -0.4300  1.0485 -0.0115
 1796TIP3    H2 5353   5.786   2.115   0.027  0.6146  1.3474  0.4108
 1797TIP3   OH2 5354   1.643   2.655   2.273  0.1007 -0.4292  0.0525
 1797TIP3    H1 5355   1.707   2.590   2.301  0.3465 -0.3789 -0.3812
 1797TIP3    H2 5356   1.686   2.739   2.288  0.4438 -0.4111 -0.9415
 1798TIP3   OH2 5357   2.597   4.747   4.244  1.1367  0.0087  0.1264
 1798TIP3    H1 5358   2.623   4.833   4.275  0.5561  0.7669 -1.3617
 1798TIP3    H2 5359   2.591   4.757   4.149 -2.8176 -0.5405  0.1559
 1799TIP3   OH2 5360   6.466   2.306   5.174  0.4702 -0.1501  0.3217
 1799TIP3    H1 5361   6.494   2.323   5.084  1.1483 -0.8807  0.3846
 1799TIP3    H2 5362   6.449   2.211   5.176 -1.8067  0.1952  0.3541
 1800TIP3   OH2 5363   1.528   2.739   0.713 -0.5691  0.0228 -0.1296
 1800TIP3    H1 5364   1.617   2.723   0.681 -0.5696  0.3217 -0.2841
 1800TIP3    H2 5365   1.492   2.651   0.727 -0.4032 -0.1079 -0.4893
 1801TIP3   OH2 5366   3.443   6.549   3.080  0.2577 -0.4251 -0.4427
 1801TIP3    H1 5367   3.493   6.517   3.155 -0.8764 -3.0262 -0.6723
 1801TIP3    H2 5368   3.394   6.623   3.114  0.9597 -0.5507  0.9519
 1802TIP3   OH2 5369   2.048   5.074   4.960 -0.2011  0.0433 -0.1859
 1802TIP3    H1 5370   2.048   5.078   4.864  3.3082  1.5339 -0.2562
 1802TIP3    H2 5371   2.127   5.120   4.987 -1.0277 -0.3297  3.4893
 1803TIP3   OH2 5372   5.833   5.117   3.806 -0.6075  0.0531  0.3158
 1803TIP3    H1 5373   5.758   5.064   3.834 -0.4294 -0.2182  0.2898
 1803TIP3    H2 5374   5.906   5.086   3.859 -0.8821  1.5781  1.6389
 1804TIP3   OH2 5375   0.055   0.013   5.353  0.3542  0.1215 -0.0405
 1804TIP3    H1 5376   0.098  -0.062   5.312 -1.7475 -0.6743 -0.9399
 1804TIP3    H2 5377   0.108   0.088   5.327  0.8420 -0.7200 -1.6496
 1805TIP3   OH2 5378   3.955   6.787   3.794 -0.4809  0.3954  0.0174
 1805TIP3    H1 5379   3.949   6.768   3.888 -0.9653 -0.2532 -0.1360
 1805TIP3    H2 5380   4.047   6.769   3.772 -0.3431  0.6344  0.3753
 1806TIP3   OH2 5381   0.031   0.241   4.185 -0.3504  0.2951 -0.2444
 1806TIP3    H1 5382   0.086   0.293   4.127 -0.0570  0.5553  0.2534
 1806TIP3    H2 5383   0.016   0.298   4.261 -0.3206 -0.2084  0.1461
 1807TIP3   OH2 5384   4.375   1.127   0.759  0.6746  0.1010 -0.0522
 1807TIP3    H1 5385   4.403   1.173   0.680  0.6978 -1.3375 -0.9356
 1807TIP3    H2 5386   4.426   1.046   0.758  0.3701 -0.1230  1.2276
 1808TIP3   OH2 5387   5.183   0.330   5.271  0.0670  0.4944  0.3069
 1808TIP3    H1 5388   5.211   0.275   5.198  2.3789  1.4663  0.3736
 1808TIP3    H2 5389   5.130   0.273   5.326  1.2128 -1.2659 -0.3475
 1809TIP3   OH2 5390   1.313   3.939   3.405  0.2107  0.1846 -0.5737
 1809TIP3    H1 5391   1.339   3.994   3.332  0.6695  0.9260  0.1313
 1809TIP3    H2 5392   1.347   3.984   3.483 -0.8766 -0.2097  0.1581
 1810TIP3   OH2 5393   4.640   4.342   5.113 -0.1681  0.2642 -0.2691
 1810TIP3    H1 5394   4.640   4.247   5.127  0.2068 -0.0119 -1.9864
 1810TIP3    H2 5395   4.552   4.363   5.083  0.4001  0.0505 -2.2130
 1811TIP3   OH2 5396   4.333   4.404   5.393  0.0504 -0.3869 -0.0926
 1811TIP3    H1 5397   4.415   4.361   5.418 -0.7152 -1.5933  0.3650
 1811TIP3    H2 5398   4.269   4.334   5.385 -0.5907  0.3352 -2.0450
 1812TIP3   OH2 5399   2.960   0.103   0.946 -0.3847 -0.0665  0.2569
 1812TIP3    H1 5400   3.009   0.063   0.874 -2.1212  1.7682 -2.1079
 1812TIP3    H2 5401   2.905   0.032   0.980 -0.9886 -0.5259 -1.5935
 1813TIP3   OH2 5402   5.673   3.544   1.468  0.2241  0.5327 -0.3051
 1813TIP3    H1 5403   5.697   3.623   1.516 -4.8491  0.6924  2.7069
 1813TIP3    H2 5404   5.705   3.472   1.522  0.9430  0.5610 -0.6810
 1814TIP3   OH2 5405   6.901   2.983   0.584 -0.1064  0.1824  0.2649
 1814TIP3    H1 5406   6.957   3.014   0.512  1.2800  1.4486  1.8115
 1814TIP3    H2 5407   6.927   2.892   0.597  1.1967  0.5725  0.5348
 1815TIP3   OH2 5408   6.940   0.700   0.365  0.5497 -0.0266  0.2880
 1815TIP3    H1 5409   6.938   0.642   0.288  0.9871 -0.5631  0.6670
 1815TIP3    H2 5410   6.982   0.780   0.333 -0.1588  0.1290 -0.2712
 1816TIP3   OH2 5411   3.364   2.213   4.724 -0.1986 -0.4080 -0.3729
 1816TIP3    H1 5412   3.317   2.294   4.745 -2.0849 -1.3138 -0.7949
 1816TIP3    H2 5413   3.353   2.204   4.629  2.2514  0.1317 -0.7648
 1817TIP3   OH2 5414   5.920   5.663   2.803 -0.5778  0.5114  0.0528
 1817TIP3    H1 5415   5.985   5.604   2.763 -0.2110  0.0635  1.2752
 1817TIP3    H2 5416   5.932   5.652   2.897 -1.2891  1.6975  0.3032
 1818TIP3   OH2 5417   5.780   3.315   5.904 -0.0600  0.2529  0.4987
 1818TIP3    H1 5418   5.773   3.329   5.810 -0.0717  1.5362  0.6754
 1818TIP3    H2 5419   5.873   3.328   5.924  0.4708 -2.6465  0.2992
 1819TIP3   OH2 5420   3.800   3.345   2.955 -0.4192  0.6211 -0.1355
 1819TIP3    H1 5421   3.862   3.319   3.023 -1.1500  2.7454  1.4059
 1819TIP3    H2 5422   3.743   3.268   2.944  1.4848 -0.8138 -0.5141
 1820TIP3   OH2 5423   4.592   6.177   1.857  0.4733 -0.4132 -0.7620
 1820TIP3    H1 5424   4.666   6.225   1.819  1.1696 -0.8361  0.0296
 1820TIP3    H2 5425   4.579   6.217   1.943  0.7641 -1.3305 -0.2778
 1821TIP3   OH2 5426   2.043   3.124   4.960  0.1850 -0.4273  0.2461
 1821TIP3    H1 5427   2.079   3.074   5.034  0.4817  0.7254  0.9051
 1821TIP3    H2 5428   2.054   3.066   4.885  2.1963 -0.6626  0.6663
 1822TIP3   OH2 5429   1.163   5.693   3.769  0.3789 -0.0663 -0.0695
 1822TIP3    H1 5430   1.122   5.774   3.798  0.3193 -0.5983  1.4563
 1822TIP3    H2 5431   1.118   5.669   3.689 -1.5967 -0.0887  0.9976
 1823TIP3   OH2 5432   3.043   2.722   0.851 -0.3612 -0.6816  0.4224
 1823TIP3    H1 5433   3.133   2.711   0.883  1.2025 -2.5862 -3.7862
 1823TIP3    H2 5434   3.005   2.635   0.857 -1.3428 -0.2477  0.5932
 1824TIP3   OH2 5435   5.747   3.998   1.788  0.1648 -0.2674  0.3542
 1824TIP3    H1 5436   5.725   3.922   1.735 -0.7291 -0.9339  1.6118
 1824TIP3    H2 5437   5.840   4.013   1.772  0.1375 -1.0336 -0.6288
 1825TIP3   OH2 5438   6.434   0.867   3.710 -0.3372  0.5942 -0.0526
 1825TIP3    H1 5439   6.360   0.925   3.725 -1.4711 -0.3333 -1.7611
 1825TIP3    H2 5440   6.419   0.829   3.624  2.0409  0.2131 -0.3911
 1826TIP3   OH2 5441   2.636   0.225   5.808  0.6449  0.7758  0.6158
 1826TIP3    H1 5442   2.557   0.172   5.803  0.2105  1.4149  0.4630
 1826TIP3    H2 5443   2.700   0.179   5.755 -0.0544  0.9605 -0.4118
 1827TIP3   OH2 5444   0.633   2.184   0.366 -0.0107  0.3972 -0.0911
 1827TIP3    H1 5445   0.696   2.154   0.432 -0.7503  0.0232  0.4565
 1827TIP3    H2 5446   0.561   2.220   0.418 -1.1856 -1.0591 -0.6651
 1828TIP3   OH2 5447   4.684   1.364   0.685  0.2603 -0.0625  0.0810
 1828TIP3    H1 5448   4.688   1.298   0.616  0.4823  0.9907 -0.9559
 1828TIP3    H2 5449   4.673   1.314   0.766 -0.0975 -1.3277 -0.7201
 1829TIP3   OH2 5450   7.100   2.157   3.509 -0.6462 -0.2994 -0.3194
 1829TIP3    H1 5451   7.082   2.144   3.416 -1.1404  0.3706 -0.3156
 1829TIP3    H2 5452   7.061   2.241   3.530 -0.2792 -0.3114  0.4305
 1830TIP3   OH2 5453   2.344   2.450   2.776  0.0287  0.1651  0.3009
 1830TIP3    H1 5454   2.310   2.363   2.757  0.3746  0.1339 -0.2114
 1830TIP3    H2 5455   2.383   2.479   2.693 -2.3449  1.8658 -0.3196
 1831TIP3   OH2 5456   3.289   4.830   5.156 -0.0200 -0.4558  0.3755
 1831TIP3    H1 5457   3.304   4.738   5.179 -0.4800 -0.3537  1.1533
 1831TIP3    H2 5458   3.362   4.877   5.196  2.4527 -0.8291 -3.3083
 1832TIP3   OH2 5459   4.050   3.452   1.247  0.2097  0.1558 -0.1327
 1832TIP3    H1 5460   4.140   3.419   1.244  0.7508  1.5491  0.0966
 1832TIP3    H2 5461   4.021   3.453   1.156 -0.7348 -3.2037 -0.0119
 1833TIP3   OH2 5462   5.334   1.395   0.181 -0.1170 -0.3873  0.0266
 1833TIP3    H1 5463   5.339   1.465   0.247 -1.6727 -0.6781  0.5046
 1833TIP3    H2 5464   5.382   1.322   0.220  2.2668  0.6180 -0.8377
 1834TIP3   OH2 5465   4.794   2.999   2.537 -0.4780  0.1384 -0.3420
 1834TIP3    H1 5466   4.801   3.002   2.632  0.3759  1.8884 -0.4144
 1834TIP3    H2 5467   4.722   3.059   2.517 -0.3299  0.1627 -0.8172
 1835TIP3   OH2 5468   3.413   6.334   0.229 -0.0320  0.1228 -0.0957
 1835TIP3    H1 5469   3.496   6.325   0.183  1.2275  0.7353  1.9052
 1835TIP3    H2 5470   3.365   6.400   0.180  0.8385  0.0801 -1.0381
 1836TIP3   OH2 5471   4.030   5.170   5.842  0.0376  0.0968  0.4312
 1836TIP3    H1 5472   4.032   5.238   5.775 -1.1742  2.5402  2.6927
 1836TIP3    H2 5473   3.938   5.141   5.843  0.5604 -1.8108 -0.5987
 1837TIP3   OH2 5474   1.190   0.968   3.446  0.5775 -0.2640 -0.3690
 1837TIP3    H1 5475   1.204   0.878   3.476  0.9528  0.1045  0.6361
 1837TIP3    H2 5476   1.187   1.019   3.527 -0.8419  0.4769 -0.8644
 1838TIP3   OH2 5477   1.703   6.689   2.871  0.2882  0.8336 -0.4751
 1838TIP3    H1 5478   1.609   6.698   2.879  0.3172  0.5301  0.3155
 1838TIP3    H2 5479   1.734   6.775   2.843 -0.0427  1.4792  1.0388
 1839TIP3   OH2 5480   3.010   6.000   5.285  0.4768 -0.6974  0.4101
 1839TIP3    H1 5481   3.021   6.076   5.228  0.7257 -1.0974 -0.0875
 1839TIP3    H2 5482   2.946   5.945   5.239 -0.5930 -0.2621  1.3279
 1840TIP3   OH2 5483   3.946   6.036   0.842  0.1030 -0.0580 -0.2986
 1840TIP3    H1 5484   3.853   6.015   0.840  0.4967 -1.8578 -0.8954
 1840TIP3    H2 5485   3.960   6.074   0.929 -1.2571  0.6692 -0.3755
 1841TIP3   OH2 5486   6.445   1.543   1.890  0.0520 -0.3320 -0.8183
 1841TIP3    H1 5487   6.430   1.570   1.980  0.7103 -1.9784 -0.1801
 1841TIP3    H2 5488   6.366   1.496   1.865 -0.1251  0.1127 -1.0973
 1842TIP3   OH2 5489   4.779   3.981   5.787 -0.4839 -0.4216 -0.2732
 1842TIP3    H1 5490   4.778   3.952   5.695  0.7872 -1.1953 -0.0680
 1842TIP3    H2 5491   4.739   3.908   5.835 -0.9236 -0.1202 -0.1714
 1843TIP3   OH2 5492   1.978   1.877   2.757  0.6049 -0.3027  0.3870
 1843TIP3    H1 5493   1.983   1.876   2.662  0.1633  0.4802  0.3467
 1843TIP3    H2 5494   1.922   1.951   2.778  0.6783 -0.4732  1.2601
 1844TIP3   OH2 5495   3.298   6.508   0.036  0.3448 -0.4764 -0.3273
 1844TIP3    H1 5496   3.342   6.591   0.021  0.1141 -0.3161 -0.1196
 1844TIP3    H2 5497   3.302   6.463  -0.049  0.8927 -0.4624 -0.3158
 1845TIP3   OH2 5498   4.388   4.812   5.870 -0.1227 -0.0027 -0.2203
 1845TIP3    H1 5499   4.327   4.884   5.885  0.0895  0.1326 -0.0001
 1845TIP3    H2 5500   4.334   4.743   5.831 -0.0967  0.6928 -1.5474
 1846TIP3   OH2 5501   4.434   5.165   2.641  0.8561 -0.1831 -0.2350
 1846TIP3    H1 5502   4.432   5.260   2.651  1.0438 -0.2661  0.6609
 1846TIP3    H2 5503   4.515   5.148   2.592  0.8997  0.0982 -0.2633
 1847TIP3   OH2 5504   5.770   4.303   3.175  0.1544 -0.0012 -0.5579
 1847TIP3    H1 5505   5.860   4.271   3.179  0.7884  1.7076 -0.5254
 1847TIP3    H2 5506   5.753   4.314   3.082  0.1457  0.1095 -0.5435
 1848TIP3   OH2 5507   6.603   3.420   4.176  0.4213  0.0107 -0.0030
 1848TIP3    H1 5508   6.516   3.433   4.141  0.6827 -1.8397 -1.5059
 1848TIP3    H2 5509   6.662   3.442   4.104  1.0927 -0.6902  0.3089
 1849TIP3   OH2 5510   4.163   4.836   0.650  0.5989  0.7621  0.0020
 1849TIP3    H1 5511   4.221   4.878   0.587  2.2355 -2.1385 -0.6226
 1849TIP3    H2 5512   4.221   4.778   0.701 -1.3389 -0.2154  1.2179
 1850TIP3   OH2 5513   7.131   5.530   1.627 -0.2236 -0.8623 -0.3081
 1850TIP3    H1 5514   7.051   5.482   1.643  0.2998 -2.0537 -1.1197
 1850TIP3    H2 5515   7.172   5.539   1.713 -1.1994 -0.2568  0.1085
 1851TIP3   OH2 5516   0.681   6.324   1.965  0.1191 -0.0494  0.3379
 1851TIP3    H1 5517   0.667   6.230   1.957 -1.6299  0.2372 -0.5873
 1851TIP3    H2 5518   0.687   6.340   2.059 -0.9701 -0.9271  0.5733
 1852TIP3   OH2 5519   5.883   3.481   5.031 -0.6092  0.9462  0.1014
 1852TIP3    H1 5520   5.930   3.502   4.950 -1.8712  0.5745 -0.7511
 1852TIP3    H2 5521   5.933   3.526   5.100  1.1514  0.3364 -0.7105
 1853TIP3   OH2 5522   5.493   3.425   4.118 -0.0192  0.3008  0.2115
 1853TIP3    H1 5523   5.478   3.518   4.100  1.8034  0.4492 -0.6892
 1853TIP3    H2 5524   5.567   3.401   4.063 -0.9767 -1.9226 -0.2292
 1854TIP3   OH2 5525   6.919   1.990   0.591  0.1883  0.3746 -0.8834
 1854TIP3    H1 5526   6.826   2.015   0.596 -0.4195 -1.7644 -0.1385
 1854TIP3    H2 5527   6.945   2.012   0.502 -1.5054 -0.3431 -1.6150
 1855TIP3   OH2 5528   0.149   6.543   3.051  0.8119  0.1032  0.3376
 1855TIP3    H1 5529   0.212   6.525   2.981 -2.2239 -0.6811 -2.4679
 1855TIP3    H2 5530   0.121   6.456   3.080  2.2535  0.4122  2.8947
 1856TIP3   OH2 5531   3.257   4.041   5.818  0.5253  0.0127 -0.1489
 1856TIP3    H1 5532   3.177   4.038   5.766  0.2313 -1.4176  0.3391
 1856TIP3    H2 5533   3.265   3.953   5.855  2.6946 -0.0871 -0.7477
 1857TIP3   OH2 5534   0.767   5.250   4.463  0.1630  0.3379  0.0229
 1857TIP3    H1 5535   0.851   5.205   4.462  1.0480  1.6721  2.8954
 1857TIP3    H2 5536   0.733   5.234   4.551 -1.1434  2.2782 -0.0737
 1858TIP3   OH2 5537   6.222   1.727   4.295  0.1563 -0.6405 -0.6814
 1858TIP3    H1 5538   6.284   1.800   4.297 -0.0186 -0.4946  1.1028
 1858TIP3    H2 5539   6.136   1.768   4.303  0.0828 -1.0289  0.8836
 1859TIP3   OH2 5540   2.348   1.717   1.223 -0.1319  0.5184  0.2228
 1859TIP3    H1 5541   2.332   1.652   1.292 -0.4572 -0.1942 -0.5072
 1859TIP3    H2 5542   2.443   1.726   1.221  0.0878 -1.4791 -1.0255
 1860TIP3   OH2 5543   5.603   0.465   0.966  0.3490  0.2135 -0.1159
 1860TIP3    H1 5544   5.537   0.396   0.967 -2.4506  2.6767  1.0500
 1860TIP3    H2 5545   5.682   0.424   1.003 -0.4986 -2.7822 -1.3221
 1861TIP3   OH2 5546   5.422   6.572   1.664  0.8540 -0.3835  0.0674
 1861TIP3    H1 5547   5.488   6.510   1.692 -0.5113 -1.3413  1.3296
 1861TIP3    H2 5548   5.344   6.519   1.646 -0.0297  0.8377  0.1071
 1862TIP3   OH2 5549   1.679   5.998   0.065 -0.4036  0.2619 -0.2410
 1862TIP3    H1 5550   1.692   5.948   0.145 -0.1008 -0.1576 -0.5498
 1862TIP3    H2 5551   1.722   6.082   0.081 -1.8769  0.8736  0.7034
 1863TIP3   OH2 5552   3.797   5.011   5.872 -1.1942  0.1036  0.5923
 1863TIP3    H1 5553   3.783   4.950   5.944 -0.7196  0.2942  0.8476
 1863TIP3    H2 5554   3.732   4.986   5.807 -1.0761 -0.6115  0.7390
 1864TIP3   OH2 5555   5.391   0.721   0.876 -0.0237  0.0353 -0.1947
 1864TIP3    H1 5556   5.484   0.697   0.872  0.0754  0.5008 -0.8206
 1864TIP3    H2 5557   5.361   0.717   0.786 -1.1853 -2.1903  0.2290
 1865TIP3   OH2 5558   4.721   5.839   2.816 -0.0090 -0.4004  0.2397
 1865TIP3    H1 5559   4.676   5.891   2.750 -0.6191 -0.4580  0.6080
 1865TIP3    H2 5560   4.664   5.841   2.893  0.9777  0.2049  0.9960
 1866TIP3   OH2 5561   5.634   2.031   1.157 -0.0160  0.3363  0.1562
 1866TIP3    H1 5562   5.578   1.972   1.209 -0.2058 -0.2061 -0.6360
 1866TIP3    H2 5563   5.580   2.109   1.144 -0.8598 -0.4003 -1.0786
 1867TIP3   OH2 5564   5.383   4.125   3.874  0.3406 -0.6868 -0.1228
 1867TIP3    H1 5565   5.340   4.089   3.951 -0.5891  0.2209 -0.1945
 1867TIP3    H2 5566   5.393   4.050   3.815  2.3722 -1.7106  1.3995
 1868TIP3   OH2 5567   1.263   6.676   5.768  0.3318  0.1611  0.3573
 1868TIP3    H1 5568   1.312   6.758   5.757  3.5060 -1.8344 -2.0970
 1868TIP3    H2 5569   1.318   6.624   5.827 -0.5073 -0.9873  0.1427
 1869TIP3   OH2 5570   3.748   1.941   3.495 -0.0461  0.3535  0.2747
 1869TIP3    H1 5571   3.743   1.913   3.404  0.1241  0.5627  0.2000
 1869TIP3    H2 5572   3.667   1.991   3.509  0.5131  1.4159 -0.1401
 1870TIP3   OH2 5573   3.673   4.685   0.174  0.2598 -0.3900  0.4155
 1870TIP3    H1 5574   3.654   4.715   0.263 -1.5120 -1.4789  0.4524
 1870TIP3    H2 5575   3.752   4.632   0.182 -1.0419 -2.2372  1.7734
 1871TIP3   OH2 5576   1.654   4.244   0.454  0.8650 -0.4151  0.1951
 1871TIP3    H1 5577   1.679   4.187   0.527  1.3559 -2.2051 -1.2853
 1871TIP3    H2 5578   1.563   4.222   0.437  0.6642  0.2142  0.4434
 1872TIP3   OH2 5579   3.608   4.688   1.271  0.4286  0.0990 -0.0591
 1872TIP3    H1 5580   3.663   4.765   1.287  0.0255  0.3292  0.2358
 1872TIP3    H2 5581   3.533   4.699   1.330 -0.4524  0.3274 -1.1853
 1873TIP3   OH2 5582   5.688   1.119   3.440  0.0954  0.0760 -0.2426
 1873TIP3    H1 5583   5.727   1.047   3.489  1.0953  0.2537 -0.7554
 1873TIP3    H2 5584   5.762   1.173   3.413 -0.6199  1.2055 -0.0262
 1874TIP3   OH2 5585   7.167   1.544   5.546 -0.0928  0.3168  0.1242
 1874TIP3    H1 5586   7.180   1.485   5.620  0.8706  0.1701 -0.1431
 1874TIP3    H2 5587   7.073   1.541   5.528 -0.1959 -0.3529  0.7561
 1875TIP3   OH2 5588   6.429   6.302   4.362  0.2565  0.4911  0.1454
 1875TIP3    H1 5589   6.420   6.397   4.368  0.6321  0.5212  0.2421
 1875TIP3    H2 5590   6.422   6.271   4.452  0.3085  0.4400  0.1319
 1876TIP3   OH2 5591   4.311   3.462   3.507 -0.1480 -0.5076 -0.6001
 1876TIP3    H1 5592   4.377   3.519   3.467  1.6151 -0.7797  1.7125
 1876TIP3    H2 5593   4.272   3.515   3.576  0.2581 -1.4743  0.4052
 1877TIP3   OH2 5594   7.010   5.810   2.778  0.2475 -0.0806  0.0307
 1877TIP3    H1 5595   7.037   5.799   2.869  0.5326 -0.2389 -0.0711
 1877TIP3    H2 5596   7.026   5.725   2.738 -1.6891 -0.6212  0.2872
 1878TIP3   OH2 5597   4.845   5.219   3.039  0.1592  0.6054  0.4984
 1878TIP3    H1 5598   4.859   5.210   3.133 -1.4874  1.8583  0.8903
 1878TIP3    H2 5599   4.772   5.280   3.030  0.1744  0.4046 -1.5970
 1879TIP3   OH2 5600   4.087   3.533   2.848 -0.4717 -0.3568 -0.4013
 1879TIP3    H1 5601   4.170   3.487   2.865 -1.2206 -1.9006 -0.7102
 1879TIP3    H2 5602   4.048   3.542   2.935  0.3688  1.1180 -0.1544
 1880TIP3   OH2 5603   4.767   1.030   2.741 -0.2816 -0.1431 -0.4680
 1880TIP3    H1 5604   4.798   1.109   2.696 -1.6995 -0.1720 -1.5718
 1880TIP3    H2 5605   4.712   1.063   2.811  2.8313 -0.0534  2.1483
 1881TIP3   OH2 5606   3.903   1.259   2.261 -0.6991  0.0904  0.4734
 1881TIP3    H1 5607   3.973   1.251   2.196 -1.3539 -1.9201 -0.0546
 1881TIP3    H2 5608   3.844   1.325   2.225  0.3768  1.0820  0.4465
 1882TIP3   OH2 5609   3.707   2.213   0.571 -0.5797  0.7108  0.2443
 1882TIP3    H1 5610   3.729   2.133   0.618  1.2988  1.7487  1.2060
 1882TIP3    H2 5611   3.726   2.192   0.479  0.3335  0.1993  0.5386
 1883TIP3   OH2 5612   0.660   5.384   4.218  0.8745 -0.4997 -0.0133
 1883TIP3    H1 5613   0.689   5.299   4.184  0.4609 -0.8761  0.5643
 1883TIP3    H2 5614   0.617   5.363   4.300  1.9265  0.4050  0.8019
 1884TIP3   OH2 5615   1.751   0.510   0.242  0.1246 -0.4284 -0.1996
 1884TIP3    H1 5616   1.798   0.447   0.296 -0.2165 -0.4386  0.0902
 1884TIP3    H2 5617   1.687   0.458   0.193  1.0260 -0.5439 -1.2983
 1885TIP3   OH2 5618   3.698   6.620   1.922  0.0089  0.2272  0.6378
 1885TIP3    H1 5619   3.638   6.545   1.923  0.0202  0.1898 -0.3064
 1885TIP3    H2 5620   3.654   6.686   1.976 -1.9912  1.0081 -1.7422
 1886TIP3   OH2 5621   1.864   4.117   3.874  0.0010  0.1188  0.0318
 1886TIP3    H1 5622   1.856   4.041   3.932 -0.9611  0.9802  1.0719
 1886TIP3    H2 5623   1.823   4.089   3.792 -1.3805 -0.1300  0.7796
 1887TIP3   OH2 5624   3.805   0.172   4.974 -0.0832 -0.1237  0.1590
 1887TIP3    H1 5625   3.823   0.223   5.053  1.5039 -0.3806 -0.0079
 1887TIP3    H2 5626   3.809   0.081   5.003  2.3443 -0.3015 -0.4953
 1888TIP3   OH2 5627   5.723   4.749   1.571 -0.4747 -1.0113  0.3901
 1888TIP3    H1 5628   5.733   4.723   1.662  1.8463 -1.5893  0.0331
 1888TIP3    H2 5629   5.801   4.716   1.527 -0.8250  0.5009 -1.5360
 1889TIP3   OH2 5630   5.461   0.576   0.574 -0.4451 -0.4598  0.4489
 1889TIP3    H1 5631   5.414   0.496   0.599 -1.1676 -0.1193  0.2211
 1889TIP3    H2 5632   5.391   0.641   0.561  0.1004  0.0717  0.1450
 1890TIP3   OH2 5633   1.022   5.131   2.332 -0.0926 -0.0749 -0.0252
 1890TIP3    H1 5634   1.079   5.055   2.342 -0.9363 -0.7889 -0.5110
 1890TIP3    H2 5635   0.950   5.116   2.393 -1.1504 -0.5382 -1.3336
 1891TIP3   OH2 5636   4.772   5.584   1.943 -0.1196  0.2265  0.3793
 1891TIP3    H1 5637   4.680   5.611   1.938 -0.6143 -1.4675 -0.5210
 1891TIP3    H2 5638   4.814   5.626   1.868 -0.5279 -0.2302 -0.1135
 1892TIP3   OH2 5639   0.352   6.615   0.667  0.4212 -0.5492  0.5218
 1892TIP3    H1 5640   0.351   6.644   0.576 -0.9701  0.6928  0.8983
 1892TIP3    H2 5641   0.322   6.524   0.664 -0.8485 -0.1283 -0.1627
 1893TIP3   OH2 5642   4.331   3.940   2.152  0.6347 -0.4319 -0.0744
 1893TIP3    H1 5643   4.327   3.945   2.248 -0.5628  0.6377 -0.1542
 1893TIP3    H2 5644   4.326   4.031   2.123 -1.9022 -0.8567 -1.2169
 1894TIP3   OH2 5645   1.761   5.556   2.316 -0.0745  0.7732 -0.0936
 1894TIP3    H1 5646   1.677   5.512   2.331 -0.0393  0.3473 -1.0348
 1894TIP3    H2 5647   1.747   5.646   2.348 -0.8313  0.6526 -0.0612
 1895TIP3   OH2 5648   5.789   2.791   3.952 -0.4652  0.0942 -0.2990
 1895TIP3    H1 5649   5.786   2.843   3.872  0.9761 -0.3913 -0.7014
 1895TIP3    H2 5650   5.783   2.855   4.022 -0.9794  0.5929 -0.7816
 1896TIP3   OH2 5651   5.379   5.549   3.566 -0.3394  0.2881 -0.3358
 1896TIP3    H1 5652   5.410   5.460   3.583  0.5824  0.4849 -0.9062
 1896TIP3    H2 5653   5.382   5.592   3.652  1.2126  0.3574 -0.3995
 1897TIP3   OH2 5654   5.482   2.950   2.735  0.0139 -0.0421  0.3760
 1897TIP3    H1 5655   5.463   3.031   2.689  1.9473  0.3285  0.1303
 1897TIP3    H2 5656   5.553   2.973   2.796  1.5944 -1.7952 -0.6918
 1898TIP3   OH2 5657   2.511   5.271   4.887  0.5707 -0.5322  0.5565
 1898TIP3    H1 5658   2.416   5.269   4.886  0.5611 -0.6724  1.3292
 1898TIP3    H2 5659   2.534   5.320   4.966  1.1370  0.3933 -0.1622
 1899TIP3   OH2 5660   6.592   3.871   5.614 -0.5793  0.9282  0.2735
 1899TIP3    H1 5661   6.593   3.778   5.594 -0.0487  0.5815  1.7583
 1899TIP3    H2 5662   6.499   3.895   5.614 -0.7731  0.2051  0.6495
 1900TIP3   OH2 5663   6.343   2.899   2.979  0.3455  0.3795  0.3857
 1900TIP3    H1 5664   6.304   2.983   2.955  1.9549  1.4572  1.3297
 1900TIP3    H2 5665   6.437   2.910   2.960  0.5234 -1.3889  0.0667
 1901TIP3   OH2 5666   3.712   4.010   0.615  0.0892  0.3511 -0.1422
 1901TIP3    H1 5667   3.773   3.938   0.629 -2.2051 -2.3132 -2.4608
 1901TIP3    H2 5668   3.767   4.088   0.609  2.8163 -1.2850  1.5689
 1902TIP3   OH2 5669   2.588   5.256   1.763 -0.1950 -0.3943  0.1444
 1902TIP3    H1 5670   2.623   5.343   1.782 -1.7630  0.4570 -0.6363
 1902TIP3    H2 5671   2.661   5.209   1.723 -0.1493  1.6629 -2.4522
 1903TIP3   OH2 5672   1.118   0.591   4.034  0.1815 -0.3630  0.1582
 1903TIP3    H1 5673   1.189   0.563   4.092  0.0599 -1.3709 -0.1704
 1903TIP3    H2 5674   1.049   0.526   4.048 -0.7719  0.7222  0.6364
 1904TIP3   OH2 5675   6.563   1.482   2.423  0.5783  0.5126 -0.4095
 1904TIP3    H1 5676   6.637   1.526   2.381  2.5983 -0.9956  1.3063
 1904TIP3    H2 5677   6.604   1.421   2.484 -2.0712 -1.8450 -0.7783
 1905TIP3   OH2 5678   1.642   6.417   1.648  0.2351  0.0218  0.2847
 1905TIP3    H1 5679   1.566   6.360   1.661 -0.0030 -0.5509 -2.7573
 1905TIP3    H2 5680   1.717   6.357   1.648  0.3979  0.2232  0.6774
 1906TIP3   OH2 5681   1.565   2.602   2.542 -0.0347 -0.2239 -0.5512
 1906TIP3    H1 5682   1.575   2.676   2.601 -0.5105  0.8470 -1.7689
 1906TIP3    H2 5683   1.560   2.641   2.455  1.6822 -1.7860 -1.4420
 1907TIP3   OH2 5684   6.184   5.396   3.014  0.1849 -0.3018  0.2169
 1907TIP3    H1 5685   6.147   5.478   3.044 -0.4466 -0.1028 -1.0384
 1907TIP3    H2 5686   6.196   5.344   3.093 -2.3067 -0.1726  0.7598
 1908TIP3   OH2 5687   7.037   2.177   4.114 -0.7342 -0.2598 -0.8284
 1908TIP3    H1 5688   7.048   2.253   4.057  0.2771 -0.8846 -1.4782
 1908TIP3    H2 5689   7.026   2.215   4.201  0.8673  0.6375 -0.9706
 1909TIP3   OH2 5690   0.525   0.715   3.621 -0.1299  0.1902  0.0569
 1909TIP3    H1 5691   0.436   0.682   3.638  0.1530 -0.3349  0.5565
 1909TIP3    H2 5692   0.582   0.650   3.661  0.4752  0.7579  0.1210
 1910TIP3   OH2 5693   1.873   6.208   5.614  0.0431 -0.3603  0.3556
 1910TIP3    H1 5694   1.921   6.126   5.628  0.0231 -0.3403  0.5437
 1910TIP3    H2 5695   1.781   6.186   5.628 -0.0985 -0.5930 -0.8465
 1911TIP3   OH2 5696   0.911   5.791   3.339  0.5308 -0.3037 -0.1391
 1911TIP3    H1 5697   0.968   5.755   3.271  1.3061  1.0445 -0.2517
 1911TIP3    H2 5698   0.825   5.799   3.297  0.7410 -0.4871 -0.6102
 1912TIP3   OH2 5699   7.087   5.936   3.261 -0.3322 -0.1902  0.3427
 1912TIP3    H1 5700   7.123   5.952   3.348  0.3044  3.7223 -0.4504
 1912TIP3    H2 5701   7.039   6.016   3.240  0.2320 -0.6203 -3.1821
 1913TIP3   OH2 5702   5.413   5.184   3.039  0.6127 -0.8546 -0.1612
 1913TIP3    H1 5703   5.434   5.101   3.082 -2.3765 -1.5661  0.1014
 1913TIP3    H2 5704   5.318   5.188   3.040  0.5613  1.0828 -3.0480
 1914TIP3   OH2 5705   2.539   5.889   1.194  0.3088  0.2817  0.4378
 1914TIP3    H1 5706   2.564   5.972   1.153 -0.7733  0.3209 -0.1965
 1914TIP3    H2 5707   2.487   5.915   1.271 -1.4180  0.2404 -0.6520
 1915TIP3   OH2 5708   4.214   3.339   4.596 -0.2684 -0.3273  0.8902
 1915TIP3    H1 5709   4.177   3.426   4.613  0.9052  0.1213  1.2534
 1915TIP3    H2 5710   4.240   3.306   4.682  1.8165  0.1641  0.5105
 1916TIP3   OH2 5711   6.349   0.462   0.817  0.2896  0.4503  0.6190
 1916TIP3    H1 5712   6.255   0.469   0.802  0.6063  0.9362 -1.2953
 1916TIP3    H2 5713   6.368   0.368   0.811  0.0841  0.4505 -0.1040
 1917TIP3   OH2 5714   0.270   3.607   0.206 -0.1225 -0.5317  0.6178
 1917TIP3    H1 5715   0.283   3.570   0.293  2.2969  1.4119  1.2053
 1917TIP3    H2 5716   0.185   3.573   0.177 -0.3567 -2.3339  3.1224
 1918TIP3   OH2 5717   2.003   2.890   5.130 -0.6715 -0.1099  0.0072
 1918TIP3    H1 5718   1.911   2.901   5.104 -1.5857 -1.0946  2.4762
 1918TIP3    H2 5719   2.015   2.950   5.203  0.8974  0.4552 -0.6632
 1919TIP3   OH2 5720   6.337   3.735   0.390 -0.1175  0.3219 -0.2601
 1919TIP3    H1 5721   6.259   3.688   0.361  0.2752 -0.4998  0.0141
 1919TIP3    H2 5722   6.339   3.723   0.485 -0.0828  0.9952 -0.1709
 1920TIP3   OH2 5723   5.039   2.494   5.810 -0.3392  0.2279 -0.2102
 1920TIP3    H1 5724   4.984   2.462   5.738 -1.8817  1.7979  0.2067
 1920TIP3    H2 5725   5.074   2.414   5.850 -1.9331 -0.8327 -0.8155
 1921TIP3   OH2 5726   1.875   0.482   2.933  0.2989  0.0020  0.0989
 1921TIP3    H1 5727   1.943   0.475   3.000  0.7933 -0.9753 -0.4819
 1921TIP3    H2 5728   1.920   0.464   2.851 -0.9570 -2.5593 -0.1361
 1922TIP3   OH2 5729   3.388   5.855   2.491 -0.3537 -0.2015  0.2799
 1922TIP3    H1 5730   3.304   5.870   2.535 -0.6864  0.0640 -0.4122
 1922TIP3    H2 5731   3.384   5.912   2.414  0.9058  0.6057  0.7781
 1923TIP3   OH2 5732   6.627   5.661   1.889 -0.0613  0.3913 -0.3382
 1923TIP3    H1 5733   6.555   5.605   1.919  0.9404 -0.7251  0.0799
 1923TIP3    H2 5734   6.693   5.653   1.958  0.1177  2.1115 -0.2763
 1924TIP3   OH2 5735   0.311   5.443   5.202  0.2745 -0.2971  0.1157
 1924TIP3    H1 5736   0.331   5.364   5.152 -0.9720 -0.3604 -0.3065
 1924TIP3    H2 5737   0.227   5.425   5.243 -0.5002  1.1446 -0.7426
 1925TIP3   OH2 5738   5.821   4.355   5.073  0.1618  0.3626 -0.1719
 1925TIP3    H1 5739   5.773   4.352   4.990  0.4252 -0.0801 -0.3117
 1925TIP3    H2 5740   5.761   4.397   5.134 -1.2207 -1.9644  0.1859
 1926TIP3   OH2 5741   6.197   0.901   1.241  0.0955  0.9428  0.3086
 1926TIP3    H1 5742   6.273   0.957   1.259  0.7518 -0.5587  2.8215
 1926TIP3    H2 5743   6.195   0.841   1.316 -2.1207 -0.6654 -0.9550
 1927TIP3   OH2 5744   1.208   6.053   5.009  0.2862  0.1622 -0.1630
 1927TIP3    H1 5745   1.127   6.009   5.034  0.8284  0.0368  1.5103
 1927TIP3    H2 5746   1.274   5.984   5.011  0.5838  0.4271 -0.6941
 1928TIP3   OH2 5747   0.070   3.120   4.433 -0.1665  0.6087 -0.2831
 1928TIP3    H1 5748   0.077   3.034   4.475  1.9920  1.0070  0.3179
 1928TIP3    H2 5749  -0.001   3.163   4.480  0.1387 -0.1017  0.8885
 1929TIP3   OH2 5750   1.977   2.390   1.907 -0.3164 -0.1579 -0.8963
 1929TIP3    H1 5751   1.947   2.302   1.884  3.8310 -1.6011 -1.6752
 1929TIP3    H2 5752   2.029   2.377   1.986  0.2737  1.6601 -0.9484
 1930TIP3   OH2 5753   6.426   3.564   4.696  0.6538  0.4777 -0.2573
 1930TIP3    H1 5754   6.473   3.639   4.661  1.4608 -0.5988 -1.5536
 1930TIP3    H2 5755   6.384   3.524   4.620  0.8710 -0.8273  0.2814
 1931TIP3   OH2 5756   7.022   0.922   4.780  0.1765 -0.2149 -0.0226
 1931TIP3    H1 5757   6.972   0.926   4.862 -0.9504 -1.0030 -0.6506
 1931TIP3    H2 5758   7.029   1.014   4.753 -0.6643 -0.0543  0.2514
 1932TIP3   OH2 5759   7.180   3.430   1.018 -0.1073 -0.2755  0.0302
 1932TIP3    H1 5760   7.089   3.453   0.999 -0.7432 -1.6374  1.2154
 1932TIP3    H2 5761   7.194   3.347   0.972 -0.2709 -1.3125  1.7638
 1933TIP3   OH2 5762   6.083   5.627   4.327  0.1799 -0.7809  0.1513
 1933TIP3    H1 5763   6.151   5.566   4.297  0.6653 -0.6183  0.8715
 1933TIP3    H2 5764   6.125   5.676   4.397 -0.8865 -1.1385  1.0790
 1934TIP3   OH2 5765   2.487   3.879   3.865 -0.0554  0.3859  0.7702
 1934TIP3    H1 5766   2.496   3.957   3.810  0.1052  0.2219  0.5651
 1934TIP3    H2 5767   2.417   3.829   3.824  0.0056  0.3052  0.7660
 1935TIP3   OH2 5768   0.537   4.640   5.830 -0.6487 -0.6876 -0.1223
 1935TIP3    H1 5769   0.532   4.684   5.914 -1.5780  0.4493 -0.7450
 1935TIP3    H2 5770   0.631   4.632   5.812 -0.4334 -1.1904  1.1170
 1936TIP3   OH2 5771   1.120   1.198   1.426  0.0547 -0.2899 -0.4237
 1936TIP3    H1 5772   1.202   1.200   1.475  0.0441  0.1295 -0.4216
 1936TIP3    H2 5773   1.137   1.252   1.349 -1.0102  1.9576  0.8163
 1937TIP3   OH2 5774   6.198   2.755   3.191 -0.4163 -0.8340 -0.5189
 1937TIP3    H1 5775   6.103   2.759   3.183 -0.4354 -0.7163 -0.2186
 1937TIP3    H2 5776   6.229   2.824   3.131 -0.6017  0.7572  1.1217
 1938TIP3   OH2 5777   6.750   6.620   1.466 -0.0816  0.1184 -0.0700
 1938TIP3    H1 5778   6.700   6.627   1.384  0.0210  0.8184 -0.0753
 1938TIP3    H2 5779   6.841   6.614   1.438 -0.0072  0.8457  0.0053
 1939TIP3   OH2 5780   0.497   6.498   3.098  0.1041 -0.0306  0.5842
 1939TIP3    H1 5781   0.463   6.575   3.053  0.9408  0.3637  0.5988
 1939TIP3    H2 5782   0.548   6.535   3.171  0.6870 -0.5963  0.4633
 1940TIP3   OH2 5783   6.783   3.582   4.308 -0.1375 -0.0700  0.1936
 1940TIP3    H1 5784   6.723   3.535   4.251  0.2094 -0.6178  0.2742
 1940TIP3    H2 5785   6.749   3.569   4.396 -1.0812  1.3710  0.0767
 1941TIP3   OH2 5786   5.100   4.485   5.281 -0.4872  0.1614  0.5349
 1941TIP3    H1 5787   5.048   4.565   5.294 -0.7527 -0.0029  0.4911
 1941TIP3    H2 5788   5.078   4.457   5.192 -0.0193  0.3098  0.3700
 1942TIP3   OH2 5789   5.388   1.572   5.194  0.3591 -0.0529  0.0329
 1942TIP3    H1 5790   5.311   1.538   5.146  1.9607  0.7335 -3.4160
 1942TIP3    H2 5791   5.371   1.666   5.203 -0.3433 -0.3258  2.0162
 1943TIP3   OH2 5792   6.196   5.237   5.918  0.2222  0.1348  0.4401
 1943TIP3    H1 5793   6.154   5.266   5.837 -0.9568  0.3853  1.1315
 1943TIP3    H2 5794   6.272   5.186   5.888 -1.3753 -1.6108 -0.8862
 1944TIP3   OH2 5795   1.861   4.614   2.075 -0.0248 -0.4907 -0.5561
 1944TIP3    H1 5796   1.815   4.697   2.071 -1.5603 -1.2782  0.0514
 1944TIP3    H2 5797   1.946   4.636   2.114 -0.2230  0.8380 -0.8160
 1945TIP3   OH2 5798   5.453   0.932   0.609 -0.0017 -0.0833  0.5404
 1945TIP3    H1 5799   5.362   0.917   0.635 -0.0798  0.7040  0.7427
 1945TIP3    H2 5800   5.453   0.918   0.514 -0.1192 -1.0526  0.6754
 1946TIP3   OH2 5801   5.203   5.528   4.132 -0.1370  0.4169 -0.3254
 1946TIP3    H1 5802   5.254   5.609   4.128 -1.0330  0.9860 -0.5962
 1946TIP3    H2 5803   5.209   5.500   4.224  0.3296  0.6900 -0.2698
 1947TIP3   OH2 5804   6.861   5.902   3.521 -0.0073  0.5101  0.4024
 1947TIP3    H1 5805   6.896   5.941   3.440  1.3409 -1.7888 -0.2097
 1947TIP3    H2 5806   6.766   5.902   3.508  0.0677  1.7291 -0.3936
 1948TIP3   OH2 5807   2.408   4.023   3.606  0.1228 -0.4219  0.0247
 1948TIP3    H1 5808   2.343   4.091   3.588  0.6354 -0.1626 -0.9150
 1948TIP3    H2 5809   2.417   3.976   3.523  2.8667  1.0628 -0.6254
 1949TIP3   OH2 5810   5.311   2.695   4.565  0.4512 -0.1931  0.3881
 1949TIP3    H1 5811   5.405   2.674   4.565  0.2048 -1.4785 -0.7560
 1949TIP3    H2 5812   5.269   2.617   4.529 -1.0990  0.2522  1.1368
 1950TIP3   OH2 5813   2.092   1.258   2.342  0.0941 -0.4146 -0.4320
 1950TIP3    H1 5814   2.016   1.292   2.388  1.2523  0.9318  0.5878
 1950TIP3    H2 5815   2.096   1.309   2.261 -0.2073 -0.6499 -0.5977
 1951TIP3   OH2 5816   0.072   5.451   5.763 -0.3780 -0.6390 -0.2816
 1951TIP3    H1 5817   0.115   5.516   5.708  0.4795  2.3386  3.4629
 1951TIP3    H2 5818   0.141   5.390   5.788  0.7965  1.4674  2.0299
 1952TIP3   OH2 5819   2.290   4.648   1.275 -0.3509  0.4413  0.0805
 1952TIP3    H1 5820   2.369   4.633   1.328  0.4924  0.2810 -1.1748
 1952TIP3    H2 5821   2.249   4.561   1.270 -0.2789  0.3975  0.2241
 1953TIP3   OH2 5822   3.762   0.208   5.450 -0.0716 -0.7221 -0.1109
 1953TIP3    H1 5823   3.852   0.238   5.437 -0.5153  1.1728  0.8074
 1953TIP3    H2 5824   3.735   0.174   5.365  2.4770 -4.3843  0.2902
 1954TIP3   OH2 5825   1.311   3.526   1.901  0.4337  0.0616  0.0429
 1954TIP3    H1 5826   1.239   3.467   1.922  1.4869 -1.3157 -0.0387
 1954TIP3    H2 5827   1.335   3.502   1.811  0.9272  0.5699  0.0355
 1955TIP3   OH2 5828   0.607   1.288   1.526  0.7356 -0.0359 -0.0208
 1955TIP3    H1 5829   0.681   1.255   1.576  0.1345  0.3202  1.1238
 1955TIP3    H2 5830   0.606   1.382   1.542 -0.0586 -0.0580  0.1125
 1956TIP3   OH2 5831   6.260   0.086   5.112  0.2985 -0.3196  0.2746
 1956TIP3    H1 5832   6.346   0.047   5.129  0.0708 -0.3941  1.3020
 1956TIP3    H2 5833   6.216   0.022   5.056  1.2387  0.1539 -1.0721
 1957TIP3   OH2 5834   3.545   1.322   2.762  0.8536 -0.1919  0.1722
 1957TIP3    H1 5835   3.469   1.366   2.801  1.1656  1.9692 -1.4505
 1957TIP3    H2 5836   3.510   1.240   2.728 -0.5752  0.3512  0.2545
 1958TIP3   OH2 5837   5.481   4.635   5.012  0.2403 -0.0012  0.0101
 1958TIP3    H1 5838   5.554   4.590   4.970 -1.0188  0.0914 -2.4809
 1958TIP3    H2 5839   5.516   4.723   5.032  1.3985 -0.6236  0.8627
 1959TIP3   OH2 5840   2.607   3.953   1.382  0.6429 -0.5786 -0.7093
 1959TIP3    H1 5841   2.512   3.964   1.391  0.4880 -2.0802 -0.1880
 1959TIP3    H2 5842   2.633   4.020   1.320 -0.5323  0.8373  0.2537
 1960TIP3   OH2 5843   2.314   5.240   5.480  0.0755  0.0291  0.1566
 1960TIP3    H1 5844   2.322   5.317   5.424  2.4155  0.5797  1.1239
 1960TIP3    H2 5845   2.247   5.264   5.544 -0.1753  0.7192 -0.3446
 1961TIP3   OH2 5846   3.194   2.341   1.571  0.0012  0.7063  0.1529
 1961TIP3    H1 5847   3.166   2.431   1.556 -0.3686  0.6961  0.7453
 1961TIP3    H2 5848   3.114   2.294   1.596  0.0338  0.0113 -0.9618
 1962TIP3   OH2 5849   7.148   6.790   1.976  0.3226  1.0409  0.0919
 1962TIP3    H1 5850   7.109   6.785   2.063  1.0766  1.7317  0.4825
 1962TIP3    H2 5851   7.140   6.701   1.941  1.1352  0.4432  1.3698
 1963TIP3   OH2 5852   6.584   1.676   3.977  0.6672  0.0412  0.2082
 1963TIP3    H1 5853   6.612   1.768   3.973 -0.9859  0.5480 -2.1209
 1963TIP3    H2 5854   6.488   1.680   3.975  0.5584 -1.7444  0.2520
 1964TIP3   OH2 5855   1.939   2.538   5.697  0.1260 -0.0814  0.0991
 1964TIP3    H1 5856   1.949   2.597   5.622 -1.4020  0.7778  0.5295
 1964TIP3    H2 5857   1.852   2.498   5.684  0.1261 -0.4173  1.0750
 1965TIP3   OH2 5858   0.757   2.537   2.936 -0.4969 -0.2744  0.4952
 1965TIP3    H1 5859   0.765   2.629   2.961 -0.3163  0.2347 -1.2653
 1965TIP3    H2 5860   0.675   2.508   2.975  0.1577  0.1747  2.3178
 1966TIP3   OH2 5861   4.126   4.569   4.653  0.9788  0.3285 -0.2358
 1966TIP3    H1 5862   4.128   4.663   4.636  0.0243  0.2577 -0.7598
 1966TIP3    H2 5863   4.217   4.547   4.674  1.1212  1.4548  0.3953
 1967TIP3   OH2 5864   2.411   3.797   5.547  0.0896 -0.2146 -0.5892
 1967TIP3    H1 5865   2.438   3.862   5.612 -0.7682 -0.2013 -0.2323
 1967TIP3    H2 5866   2.489   3.784   5.492  0.3040  1.0479 -0.6144
 1968TIP3   OH2 5867   5.947   5.407   2.584 -0.3332 -0.2428  0.5808
 1968TIP3    H1 5868   6.006   5.335   2.563  1.7273  1.0725  1.5021
 1968TIP3    H2 5869   5.914   5.386   2.671  0.8934  0.2395  1.1945
 1969TIP3   OH2 5870   3.747   0.498   3.036 -0.2534  0.5559 -0.5231
 1969TIP3    H1 5871   3.753   0.402   3.036  0.2003  0.4050  3.7936
 1969TIP3    H2 5872   3.838   0.528   3.039 -0.4187  1.0843 -0.6687
 1970TIP3   OH2 5873   3.035   5.283   4.283  0.1160 -0.1722  0.1358
 1970TIP3    H1 5874   2.962   5.229   4.255  0.1901 -0.1588 -0.0827
 1970TIP3    H2 5875   3.071   5.319   4.202 -1.4114  2.1319  0.3860
 1971TIP3   OH2 5876   3.663   1.715   3.302 -0.3820  0.5237 -0.4761
 1971TIP3    H1 5877   3.703   1.661   3.370 -1.5783  0.1329 -0.0558
 1971TIP3    H2 5878   3.702   1.682   3.221  2.3759  2.1572  0.0620
 1972TIP3   OH2 5879   3.162   3.504   4.357 -0.6652  0.3114 -0.2463
 1972TIP3    H1 5880   3.186   3.532   4.268 -0.3367  1.5698  0.2111
 1972TIP3    H2 5881   3.229   3.543   4.413 -0.9249 -0.3863  0.5687
 1973TIP3   OH2 5882   2.213   1.200   1.695  0.2923 -0.3662 -0.2540
 1973TIP3    H1 5883   2.149   1.269   1.678  0.1251 -0.5485 -0.3804
 1973TIP3    H2 5884   2.297   1.236   1.667  0.4415  0.3223  1.0404
 1974TIP3   OH2 5885   5.818   2.298   0.817  0.4301  0.5553  0.3148
 1974TIP3    H1 5886   5.886   2.278   0.752 -0.7661  2.4572 -1.6548
 1974TIP3    H2 5887   5.743   2.246   0.790 -0.1163  1.4568  0.0280
 1975TIP3   OH2 5888   6.140   0.122   0.435  0.6252 -0.1244 -0.0423
 1975TIP3    H1 5889   6.219   0.080   0.402 -0.0740 -0.6289 -1.1265
 1975TIP3    H2 5890   6.172   0.194   0.489  1.8388 -1.1627  0.6914
 1976TIP3   OH2 5891   1.379   1.862   0.347 -0.1234 -0.3910  0.3878
 1976TIP3    H1 5892   1.330   1.840   0.426  1.6121 -0.7827  1.4152
 1976TIP3    H2 5893   1.336   1.811   0.277 -1.4810 -0.2869  1.1126
 1977TIP3   OH2 5894   4.702   3.780   1.580 -0.1001 -0.1939  0.7771
 1977TIP3    H1 5895   4.656   3.863   1.589 -0.2732 -0.1619 -0.2572
 1977TIP3    H2 5896   4.657   3.721   1.641 -2.4204 -0.5111 -1.0589
 1978TIP3   OH2 5897   7.008   1.509   0.864  0.4747  0.4543 -0.1288
 1978TIP3    H1 5898   7.044   1.557   0.939  0.4600 -0.8797  0.7578
 1978TIP3    H2 5899   7.002   1.418   0.893 -0.1771  0.0129 -1.5214
 1979TIP3   OH2 5900   5.816   1.231   0.645  0.2190  0.1799 -0.6529
 1979TIP3    H1 5901   5.809   1.321   0.613  0.1408  0.4095  0.0038
 1979TIP3    H2 5902   5.727   1.209   0.674  0.4092  0.1704 -0.0754
 1980TIP3   OH2 5903   5.757   3.456   0.147 -0.0985 -0.3425  0.0927
 1980TIP3    H1 5904   5.826   3.449   0.081  0.5579 -0.3794  0.7766
 1980TIP3    H2 5905   5.679   3.421   0.104 -0.4067  2.2650 -1.6894
 1981TIP3   OH2 5906   1.337   6.812   3.465 -0.3895 -0.4388 -0.3291
 1981TIP3    H1 5907   1.299   6.797   3.378 -0.2620  0.0977 -0.4817
 1981TIP3    H2 5908   1.276   6.770   3.526  1.1763 -3.8741 -0.8629
 1982TIP3   OH2 5909   0.740   3.177   0.777  0.4768  0.4801  0.6147
 1982TIP3    H1 5910   0.741   3.236   0.703 -1.1468  0.1603  0.2971
 1982TIP3    H2 5911   0.707   3.230   0.850  1.1730  0.5468  0.8885
 1983TIP3   OH2 5912   5.095   0.111   5.443 -0.1322 -0.5476 -0.0647
 1983TIP3    H1 5913   5.115   0.141   5.532  0.6037 -1.2688  0.0205
 1983TIP3    H2 5914   5.093   0.016   5.449 -0.3165 -0.5951 -0.7768
 1984TIP3   OH2 5915   5.969   3.544   3.347  0.2743 -0.1400  0.2065
 1984TIP3    H1 5916   5.970   3.598   3.426  1.6939  0.5910 -0.2780
 1984TIP3    H2 5917   5.916   3.593   3.285  0.5262  0.0929  0.1734
 1985TIP3   OH2 5918   4.602   0.973   3.470  0.0347  0.0652 -0.0180
 1985TIP3    H1 5919   4.551   0.932   3.400 -0.3191  2.6254 -1.3603
 1985TIP3    H2 5920   4.547   0.966   3.548 -0.5565 -0.8109 -0.5040
 1986TIP3   OH2 5921   7.177   6.396   0.368  0.0816  0.5621 -0.2229
 1986TIP3    H1 5922   7.267   6.427   0.356  0.6194 -1.2318 -1.1973
 1986TIP3    H2 5923   7.149   6.370   0.280 -1.8155  2.0837 -0.1257
 1987TIP3   OH2 5924   2.080   1.502   3.736 -0.0657 -0.0560  0.4209
 1987TIP3    H1 5925   2.083   1.468   3.825  1.1543 -0.3509  0.2764
 1987TIP3    H2 5926   2.169   1.492   3.703  0.0114  1.9828 -0.1151
 1988TIP3   OH2 5927   3.008   2.179   5.477  0.0710  0.3819  0.4083
 1988TIP3    H1 5928   3.023   2.085   5.465 -0.6564  0.1739  1.0617
 1988TIP3    H2 5929   3.071   2.205   5.545 -0.7475  0.0402  1.3176
 1989TIP3   OH2 5930   4.778   5.364   3.908  0.4685 -0.1443  0.7677
 1989TIP3    H1 5931   4.862   5.384   3.950 -0.0456  0.2868  1.6279
 1989TIP3    H2 5932   4.775   5.421   3.831  1.3598 -0.8293  0.2111
 1990TIP3   OH2 5933   6.805   0.623   5.667  0.4292 -0.2498 -0.5213
 1990TIP3    H1 5934   6.732   0.598   5.723  0.8131 -2.8485 -1.0209
 1990TIP3    H2 5935   6.765   0.675   5.597 -0.8328 -0.8742 -0.3051
 1991TIP3   OH2 5936   5.329   5.776   2.716 -0.6489 -0.3277 -0.1288
 1991TIP3    H1 5937   5.378   5.695   2.701 -1.7375 -1.0620  0.1402
 1991TIP3    H2 5938   5.251   5.766   2.661 -0.6198  0.7138 -0.3700
 1992TIP3   OH2 5939   3.243   2.874   0.573 -0.2988  0.1764 -0.4496
 1992TIP3    H1 5940   3.336   2.898   0.566 -0.4437  0.5613 -1.0672
 1992TIP3    H2 5941   3.204   2.905   0.492 -0.4213 -2.5529 -1.5352
 1993TIP3   OH2 5942   3.357   3.151   5.093 -0.4551  0.2111 -0.6694
 1993TIP3    H1 5943   3.348   3.235   5.047 -4.1781  1.2329  1.5081
 1993TIP3    H2 5944   3.379   3.175   5.183 -2.1644 -1.0255  0.1289
 1994TIP3   OH2 5945   2.195   3.572   0.939  0.1729 -0.2896 -0.2264
 1994TIP3    H1 5946   2.124   3.634   0.921  0.0028 -0.5210 -0.3512
 1994TIP3    H2 5947   2.243   3.611   1.012 -0.4379 -0.4294  0.2506
 1995TIP3   OH2 5948   2.993   3.739   4.858 -0.8469  0.0179  0.4203
 1995TIP3    H1 5949   3.006   3.834   4.854 -0.0610 -0.1041 -0.1897
 1995TIP3    H2 5950   3.055   3.703   4.794 -1.6174 -0.8664  0.1440
 1996TIP3   OH2 5951   4.712   0.751   3.283  0.2792  0.4379  0.1747
 1996TIP3    H1 5952   4.761   0.689   3.229  0.0417  0.2802  0.1391
 1996TIP3    H2 5953   4.732   0.726   3.373  0.5696  0.6167  0.1608
 1997TIP3   OH2 5954   1.817   3.536   4.522  0.0906  0.0621 -0.3672
 1997TIP3    H1 5955   1.763   3.525   4.444  0.2080  0.9243 -0.5730
 1997TIP3    H2 5956   1.820   3.448   4.562 -0.7214 -0.1788 -0.8282
 1998TIP3   OH2 5957   6.977   5.084   2.069 -0.5126  0.3205  0.0886
 1998TIP3    H1 5958   7.058   5.113   2.112 -1.1741  0.6761  1.1490
 1998TIP3    H2 5959   7.004   5.058   1.981  1.0414 -1.1276  0.9336
 1999TIP3   OH2 5960   1.367   2.197   0.090  0.1243  0.6275  0.6805
 1999TIP3    H1 5961   1.277   2.166   0.097  0.7129 -1.4798 -0.2890
 1999TIP3    H2 5962   1.384   2.200  -0.005  1.6128 -0.8566  0.8517
 2000TIP3   OH2 5963   0.036   1.908   3.540  0.5132 -0.2395  0.5312
 2000TIP3    H1 5964  -0.011   1.893   3.458 -1.5409 -0.7748  1.7507
 2000TIP3    H2 5965   0.020   2.000   3.560 -0.9902 -0.6942  1.5041
 2001TIP3   OH2 5966   5.397   2.725   3.399 -0.9810  0.5391  0.2091
 2001TIP3    H1 5967   5.486   2.696   3.382 -0.6978  1.1723  0.5894
 2001TIP3    H2 5968   5.342   2.661   3.353 -0.3993 -0.8267  1.3301
 2002TIP3   OH2 5969   3.101   3.027   1.865 -0.5382  0.0747 -0.2873
 2002TIP3    H1 5970   3.173   3.087   1.885 -0.2654 -0.2395 -0.3008
 2002TIP3    H2 5971   3.133   2.941   1.895 -0.7047 -0.1528 -0.7416
 2003TIP3   OH2 5972   2.548   0.949   1.956  0.4207  0.1846  0.4515
 2003TIP3    H1 5973   2.529   1.040   1.979  0.3686  0.4914 -0.7384
 2003TIP3    H2 5974   2.635   0.952   1.916  0.3364 -0.2607  0.2311
 2004TIP3   OH2 5975   1.753   4.906   3.772  0.8285 -0.4443 -0.2842
 2004TIP3    H1 5976   1.839   4.929   3.736 -0.1623  1.5405 -1.5554
 2004TIP3    H2 5977   1.700   4.883   3.696  0.5691 -3.1104  0.6114
 2005TIP3   OH2 5978   6.754   1.261   0.101 -0.4393 -0.0458 -0.7710
 2005TIP3    H1 5979   6.717   1.334   0.152 -0.5000 -0.3648 -0.3545
 2005TIP3    H2 5980   6.811   1.215   0.163 -2.1388 -1.7028 -0.3427
 2006TIP3   OH2 5981   3.712   1.524   0.793 -0.4144  0.1472 -0.4837
 2006TIP3    H1 5982   3.782   1.482   0.843 -0.8574 -2.8093 -2.0909
 2006TIP3    H2 5983   3.738   1.514   0.701 -3.0647 -1.6063 -1.1950
 2007TIP3   OH2 5984   4.164   2.927   5.042  0.0003 -0.2785  0.7014
 2007TIP3    H1 5985   4.246   2.893   5.007 -0.0500  0.4440 -0.1400
 2007TIP3    H2 5986   4.189   3.005   5.092 -0.2430  0.4474 -0.2730
 2008TIP3   OH2 5987   3.802   2.940   3.854 -0.1751 -0.6268  0.3245
 2008TIP3    H1 5988   3.878   2.916   3.800  1.4341  0.0269  2.1485
 2008TIP3    H2 5989   3.796   2.870   3.919  0.3375  0.4337  1.5710
 2009TIP3   OH2 5990   4.516   3.812   3.165 -0.2979 -0.7121  0.0538
 2009TIP3    H1 5991   4.424   3.827   3.143 -0.4478  1.7768  1.9350
 2009TIP3    H2 5992   4.560   3.892   3.138  0.9086 -0.9830  1.1326
 2010TIP3   OH2 5993   5.213   2.030   1.217  0.0736  0.7063  0.3716
 2010TIP3    H1 5994   5.253   1.968   1.277 -1.8277  1.3990  2.5031
 2010TIP3    H2 5995   5.143   2.071   1.268 -0.2299  2.9481 -1.6566
 2011TIP3   OH2 5996   2.429   0.831   2.456 -0.0756  0.1673 -0.0295
 2011TIP3    H1 5997   2.405   0.904   2.398  2.8878 -0.0054 -1.7211
 2011TIP3    H2 5998   2.424   0.754   2.400  1.4276 -0.2206  0.3289
 2012TIP3   OH2 5999   1.157   5.533   2.635 -0.4159  0.1554 -0.6462
 2012TIP3    H1 6000   1.094   5.585   2.583 -1.2157 -0.2074 -0.0646
 2012TIP3    H2 6001   1.236   5.586   2.636 -0.4887  0.3278 -1.9594
 2013TIP3   OH2 6002   5.922   5.327   4.246 -0.1092  0.0294 -0.0669
 2013TIP3    H1 6003   5.832   5.299   4.233 -0.0561  0.7393 -2.6935
 2013TIP3    H2 6004   5.934   5.400   4.185  1.9495  0.6485  0.9635
 2014TIP3   OH2 6005   5.596   4.608   4.476 -0.2342  0.2629  0.4005
 2014TIP3    H1 6006   5.670   4.658   4.441 -0.8398 -1.0133 -3.1559
 2014TIP3    H2 6007   5.553   4.667   4.538  0.6488  3.0904 -1.4986
 2015TIP3   OH2 6008   4.652   5.505   1.475 -0.2687  0.3051 -0.5605
 2015TIP3    H1 6009   4.620   5.578   1.528 -0.8195 -0.8608  0.7648
 2015TIP3    H2 6010   4.590   5.434   1.491  1.2670 -1.0511 -0.3491
 2016TIP3   OH2 6011   6.954   3.020   3.001  0.2127  0.0922 -0.5874
 2016TIP3    H1 6012   6.941   3.110   3.032  1.4545  0.7715 -1.8755
 2016TIP3    H2 6013   7.015   3.030   2.927 -0.9143 -1.6472 -1.8059
 2017TIP3   OH2 6014   5.685   1.209   2.708  0.0421  0.4068  0.0119
 2017TIP3    H1 6015   5.760   1.253   2.748  0.4326  0.7769 -1.0643
 2017TIP3    H2 6016   5.679   1.248   2.620 -1.5410  0.5301  0.1441
 2018TIP3   OH2 6017   3.314   4.712   3.184 -0.2043  0.2112  0.1444
 2018TIP3    H1 6018   3.361   4.723   3.101 -1.7950 -1.2008 -1.0069
 2018TIP3    H2 6019   3.353   4.634   3.224 -1.2242 -0.7192 -0.6166
 2019TIP3   OH2 6020   5.765   6.528   3.700  0.0562 -0.7780 -0.6035
 2019TIP3    H1 6021   5.835   6.587   3.674 -0.8755  0.5340 -0.2377
 2019TIP3    H2 6022   5.741   6.482   3.620  2.1139 -2.1563 -0.5082
 2020TIP3   OH2 6023   3.183   6.196   4.356  0.4532  0.6486 -0.5842
 2020TIP3    H1 6024   3.216   6.279   4.323  1.0645  1.1052  1.1274
 2020TIP3    H2 6025   3.170   6.209   4.450  1.3754 -1.4393 -0.1037
 2021TIP3   OH2 6026   3.261   2.483   4.739 -0.3920 -0.3046 -0.6024
 2021TIP3    H1 6027   3.227   2.506   4.653 -0.6154  0.4148 -0.3301
 2021TIP3    H2 6028   3.187   2.445   4.785 -0.0098 -1.6514 -1.0689
 2022TIP3   OH2 6029   2.771   1.120   2.704 -0.0157 -0.1127  0.3804
 2022TIP3    H1 6030   2.741   1.049   2.760 -0.3061  0.5386  1.0705
 2022TIP3    H2 6031   2.798   1.189   2.765 -0.9223  0.8498 -0.2699
 2023TIP3   OH2 6032   0.111   0.643   3.851  0.1075 -0.1784  0.0149
 2023TIP3    H1 6033   0.167   0.721   3.844 -0.9895  0.5766 -0.5701
 2023TIP3    H2 6034   0.056   0.660   3.928 -2.6163  1.3444 -2.0805
 2024TIP3   OH2 6035   1.403   5.899   4.336 -0.2044 -0.2673 -0.0140
 2024TIP3    H1 6036   1.330   5.886   4.397 -0.6877 -1.5197 -0.8202
 2024TIP3    H2 6037   1.482   5.884   4.388 -0.5890 -0.7875  0.4292
 2025TIP3   OH2 6038   5.220   4.025   4.060 -0.3268  0.2942 -0.0058
 2025TIP3    H1 6039   5.274   4.007   4.137  0.8965 -0.9725 -1.1041
 2025TIP3    H2 6040   5.174   4.107   4.081  2.3928  1.7280  0.8021
 2026TIP3   OH2 6041   0.657   4.072   4.547  0.2781  0.2771 -0.3068
 2026TIP3    H1 6042   0.609   4.019   4.611  0.0251  0.3307 -0.4477
 2026TIP3    H2 6043   0.589   4.104   4.488  0.5487 -0.0978 -0.8332
 2027TIP3   OH2 6044   0.269   4.319   4.165  0.6972  0.0202  0.3978
 2027TIP3    H1 6045   0.363   4.304   4.165  0.4766 -1.7279 -1.0989
 2027TIP3    H2 6046   0.250   4.350   4.077 -0.2049 -0.3326  0.4546
 2028TIP3   OH2 6047   6.929   0.778   3.405 -0.0644 -0.5176  0.1120
 2028TIP3    H1 6048   6.983   0.738   3.335  0.4266 -0.4932  0.4699
 2028TIP3    H2 6049   6.975   0.755   3.486 -1.0241 -1.1638  0.4849
 2029TIP3   OH2 6050   5.576   6.089   4.379  0.1487  0.7168  0.7615
 2029TIP3    H1 6051   5.637   6.128   4.317 -0.9852  1.1316 -0.1045
 2029TIP3    H2 6052   5.522   6.031   4.326 -1.0323  1.3048  1.2986
 2030TIP3   OH2 6053   0.998   1.416   1.244 -0.4456 -0.6208  0.4063
 2030TIP3    H1 6054   1.033   1.455   1.323 -0.2648 -1.4389  0.7431
 2030TIP3    H2 6055   0.935   1.480   1.210  0.0764  0.0810  0.7630
 2031TIP3   OH2 6056   5.214   0.576   5.712 -0.0521 -0.0148 -0.5981
 2031TIP3    H1 6057   5.290   0.573   5.655 -0.7191  1.7608 -1.6600
 2031TIP3    H2 6058   5.140   0.588   5.653 -0.8702  0.9150  0.5522
 2032TIP3   OH2 6059   1.128   0.199   2.969 -0.3117 -0.0526  0.1184
 2032TIP3    H1 6060   1.161   0.260   2.903 -2.8896 -0.0143 -1.2855
 2032TIP3    H2 6061   1.206   0.156   3.003  1.3986  2.2865 -0.5667
 2033TIP3   OH2 6062   4.495   0.508   5.749  0.5860  0.2778 -0.1872
 2033TIP3    H1 6063   4.415   0.559   5.738 -0.1748 -1.1096 -1.3346
 2033TIP3    H2 6064   4.551   0.563   5.805 -0.8800  1.5637  0.0701
 2034TIP3   OH2 6065   3.975   4.951   3.732  0.2337 -0.1275  0.4209
 2034TIP3    H1 6066   3.988   5.045   3.739 -2.9127  0.4697 -0.2356
 2034TIP3    H2 6067   3.959   4.936   3.639 -1.0748 -0.9971  0.7586
 2035TIP3   OH2 6068   3.834   6.273   4.210  0.5574  0.2685 -0.2663
 2035TIP3    H1 6069   3.800   6.217   4.279 -0.3387 -1.8648 -2.3003
 2035TIP3    H2 6070   3.929   6.260   4.214  0.5750  0.6240  0.8821
 2036TIP3   OH2 6071   0.451   0.771   4.154  0.6117 -0.1388  0.4012
 2036TIP3    H1 6072   0.399   0.690   4.152 -0.3129  0.3852  1.5103
 2036TIP3    H2 6073   0.515   0.757   4.224  2.5720 -1.0951 -1.4993
 2037TIP3   OH2 6074   3.059   2.321   4.888 -0.5546 -0.6480 -0.2171
 2037TIP3    H1 6075   3.018   2.293   4.806 -1.9765 -0.6987  0.4834
 2037TIP3    H2 6076   3.037   2.252   4.951  0.0516 -0.3395  0.3500
 2038TIP3   OH2 6077   1.415   5.247   1.344  0.3458 -0.1387  0.6143
 2038TIP3    H1 6078   1.358   5.241   1.421 -0.0413 -0.9351  0.2740
 2038TIP3    H2 6079   1.435   5.341   1.337 -1.1254  0.1978  0.6006
 2039TIP3   OH2 6080   1.510   4.927   1.417  0.4246  0.0469  0.0063
 2039TIP3    H1 6081   1.516   4.832   1.406  0.9772 -0.0302  0.9622
 2039TIP3    H2 6082   1.567   4.947   1.491 -0.9888  0.9159  0.9058
 2040TIP3   OH2 6083   5.853   6.696   2.370 -0.5879  0.3942  0.4888
 2040TIP3    H1 6084   5.883   6.784   2.348  2.0310 -0.4112  0.5253
 2040TIP3    H2 6085   5.897   6.675   2.452  0.2480 -1.5806 -0.4010
 2041TIP3   OH2 6086   3.896   0.881   1.853 -0.3978 -0.0122  0.1412
 2041TIP3    H1 6087   3.845   0.800   1.844  1.1936 -0.9349 -1.2989
 2041TIP3    H2 6088   3.832   0.948   1.873 -2.4946 -0.8014 -3.0739
 2042TIP3   OH2 6089   3.800   3.709   2.209 -0.0455  0.0256  0.0919
 2042TIP3    H1 6090   3.751   3.780   2.166  0.5770  1.5795  1.8475
 2042TIP3    H2 6091   3.754   3.695   2.292  0.8543 -0.4299  0.5218
 2043TIP3   OH2 6092   3.169   2.914   0.301  0.0390  0.7917  0.0793
 2043TIP3    H1 6093   3.189   2.986   0.242  2.7779  0.1316  0.1022
 2043TIP3    H2 6094   3.160   2.838   0.245 -2.3059  0.9585  0.1139
 2044TIP3   OH2 6095   3.779   3.833   2.816  0.2441 -0.3592 -0.0692
 2044TIP3    H1 6096   3.862   3.880   2.810  0.3922 -0.4187  1.2783
 2044TIP3    H2 6097   3.768   3.816   2.909 -0.8369 -1.1641 -0.3308
 2045TIP3   OH2 6098   3.790   4.308   0.053  0.2228  0.7034  0.2109
 2045TIP3    H1 6099   3.875   4.352   0.053  0.3596  0.4457  0.8204
 2045TIP3    H2 6100   3.810   4.217   0.031  0.0565  0.7224 -0.0260
 2046TIP3   OH2 6101   4.510   6.486   2.342 -0.4516  0.2199 -0.3257
 2046TIP3    H1 6102   4.534   6.536   2.264 -0.4400  0.3070 -0.2657
 2046TIP3    H2 6103   4.513   6.549   2.414 -0.3031  0.1034 -0.2292
 2047TIP3   OH2 6104   0.724   5.217   4.043 -0.1035  0.5304  0.2570
 2047TIP3    H1 6105   0.796   5.177   4.092 -0.2490  2.1038  1.8514
 2047TIP3    H2 6106   0.764   5.294   4.002 -0.7020  0.9896  0.5255
 2048TIP3   OH2 6107   4.159   6.106   1.899 -0.4994 -0.0274  0.3354
 2048TIP3    H1 6108   4.244   6.072   1.870 -0.8628  0.0891 -0.9258
 2048TIP3    H2 6109   4.181   6.170   1.967  0.2945 -1.3771  1.4026
 2049TIP3   OH2 6110   5.603   3.207   2.977  0.2866 -0.5425  0.0838
 2049TIP3    H1 6111   5.511   3.200   2.951  0.3155  0.4550 -0.3613
 2049TIP3    H2 6112   5.639   3.120   2.961 -0.2540 -0.5765 -1.0707
 2050TIP3   OH2 6113   7.054   5.796   3.816  0.0476 -0.3709 -0.1404
 2050TIP3    H1 6114   7.111   5.857   3.862  0.8235  1.1813 -2.9105
 2050TIP3    H2 6115   7.089   5.710   3.836  0.1769  0.1631  2.2409
 2051TIP3   OH2 6116   2.022   2.206   4.292  0.1211 -0.1086 -0.4605
 2051TIP3    H1 6117   2.080   2.136   4.260  0.0997 -0.7882  0.9081
 2051TIP3    H2 6118   1.934   2.170   4.281 -0.0382  0.6622 -1.9249
 2052TIP3   OH2 6119   3.532   4.208   2.506  0.1169 -0.5036  0.4757
 2052TIP3    H1 6120   3.513   4.265   2.581  1.1640 -0.3584  0.6447
 2052TIP3    H2 6121   3.535   4.120   2.542 -0.9055 -0.6199  0.3181
 2053TIP3   OH2 6122   0.352   6.734   3.987  0.4080  0.2122 -0.6064
 2053TIP3    H1 6123   0.421   6.685   3.943 -0.7582 -0.6514 -1.5184
 2053TIP3    H2 6124   0.352   6.820   3.945  1.2340  0.3877 -0.2632
 2054TIP3   OH2 6125   2.018   0.488   2.699 -0.2349  0.3189 -0.5208
 2054TIP3    H1 6126   2.056   0.408   2.662 -2.4274 -0.8007 -0.4872
 2054TIP3    H2 6127   2.017   0.550   2.626  2.8564  0.9299 -0.1860
 2055TIP3   OH2 6128   5.914   2.823   5.626  0.6046 -0.0969 -0.5391
 2055TIP3    H1 6129   5.968   2.842   5.550  0.1958 -1.4511 -1.2021
 2055TIP3    H2 6130   5.856   2.752   5.597 -0.3532  0.1570  0.6734
 2056TIP3   OH2 6131   6.873   6.046   2.657  0.2309 -0.2411 -0.4308
 2056TIP3    H1 6132   6.894   5.965   2.704 -0.7061 -1.6850 -2.3570
 2056TIP3    H2 6133   6.950   6.063   2.602  0.5305  0.3438  0.1550
 2057TIP3   OH2 6134   4.563   1.130   4.339  0.4647  0.1824 -0.2990
 2057TIP3    H1 6135   4.473   1.157   4.357 -0.2146 -1.8164 -0.4054
 2057TIP3    H2 6136   4.597   1.196   4.278 -0.5588  1.5341  0.5468
 2058TIP3   OH2 6137   0.346   3.299   3.202  0.4522  0.1808 -0.2378
 2058TIP3    H1 6138   0.423   3.309   3.146  0.1477  1.0438 -0.5203
 2058TIP3    H2 6139   0.272   3.323   3.147 -0.0394 -0.7200  0.0088
 2059TIP3   OH2 6140   4.945   1.468   1.907  0.3080 -0.1746  0.3456
 2059TIP3    H1 6141   4.912   1.543   1.858  0.4844 -0.4256 -0.1708
 2059TIP3    H2 6142   4.909   1.392   1.861  0.5400 -0.4183  0.5612
 2060TIP3   OH2 6143   2.438   6.722   0.220 -0.6855 -0.1514 -0.6488
 2060TIP3    H1 6144   2.502   6.669   0.267 -0.9295  0.7942  0.8478
 2060TIP3    H2 6145   2.355   6.704   0.264 -0.6920  1.7676  0.2206
 2061TIP3   OH2 6146   7.030   5.540   5.413 -0.1394  0.1399  0.1712
 2061TIP3    H1 6147   7.114   5.501   5.389 -0.6338 -1.2437  0.5787
 2061TIP3    H2 6148   6.965   5.485   5.369 -0.9025 -0.1442  1.6114
 2062TIP3   OH2 6149   3.459   4.042   4.915 -0.5102  0.2541  0.5520
 2062TIP3    H1 6150   3.553   4.033   4.931 -0.7498 -0.5767  1.6516
 2062TIP3    H2 6151   3.430   3.953   4.895 -0.7095  0.8265 -2.0441
 2063TIP3   OH2 6152   1.045   4.249   0.349  0.0786 -0.6157  0.3984
 2063TIP3    H1 6153   1.109   4.192   0.305 -1.2550 -2.2559  0.4928
 2063TIP3    H2 6154   1.048   4.223   0.440  0.2573  0.2955  0.6684
 2064TIP3   OH2 6155   2.735   1.014   2.431  0.0633  0.1892  0.4234
 2064TIP3    H1 6156   2.752   1.037   2.522 -2.1723 -0.3227  1.0306
 2064TIP3    H2 6157   2.733   0.919   2.430  0.5496  0.1771 -0.2819
 2065TIP3   OH2 6158   0.142   5.262   4.660 -0.0988 -0.7579 -0.1890
 2065TIP3    H1 6159   0.196   5.327   4.615 -0.4843 -0.7793 -0.6870
 2065TIP3    H2 6160   0.105   5.208   4.591 -2.6651  0.7126 -0.0982
 2066TIP3   OH2 6161   1.201   0.614   5.037  0.3902  0.2763  0.2075
 2066TIP3    H1 6162   1.232   0.680   4.974  0.6326  2.5220  2.5260
 2066TIP3    H2 6163   1.125   0.654   5.078  0.1918 -1.1468  1.3108
 2067TIP3   OH2 6164   4.243   2.799   3.092  0.4176  0.1002 -0.0116
 2067TIP3    H1 6165   4.221   2.867   3.028 -0.6261 -0.4352 -0.2418
 2067TIP3    H2 6166   4.205   2.831   3.174 -0.7445 -0.5343 -0.2789
 2068TIP3   OH2 6167   3.069   0.770   0.942  0.2420  0.0940  0.0617
 2068TIP3    H1 6168   3.111   0.767   1.028  0.3648  1.1220  0.0432
 2068TIP3    H2 6169   3.019   0.688   0.937  0.3547 -0.0422  1.0464
 2069TIP3   OH2 6170   0.710   6.327   3.005  0.0689  0.0329 -0.2030
 2069TIP3    H1 6171   0.669   6.386   3.068 -2.1122 -0.9455 -0.6264
 2069TIP3    H2 6172   0.803   6.326   3.030  0.2457  3.6368 -0.2274
 2070TIP3   OH2 6173   4.447   0.829   3.315  0.0824 -1.1117  0.0823
 2070TIP3    H1 6174   4.528   0.793   3.279 -0.3561 -1.7027 -0.3480
 2070TIP3    H2 6175   4.408   0.755   3.362 -0.2355 -0.8440  0.2427
 2071TIP3   OH2 6176   5.108   5.471   4.387 -0.1790 -0.1638 -0.3449
 2071TIP3    H1 6177   5.019   5.463   4.420 -0.4754 -1.2946 -1.3464
 2071TIP3    H2 6178   5.136   5.559   4.415 -2.1628  0.8683 -1.3432
 2072TIP3   OH2 6179   2.219   3.944   5.773 -0.0614 -0.0775  0.3201
 2072TIP3    H1 6180   2.308   3.957   5.805 -0.5623  1.1864  1.2874
 2072TIP3    H2 6181   2.170   3.913   5.849 -0.7159  0.4401  0.1179
 2073TIP3   OH2 6182   4.019   6.460   1.506 -0.0240 -0.7383  0.4961
 2073TIP3    H1 6183   3.941   6.472   1.451  0.5382  0.6009 -0.0548
 2073TIP3    H2 6184   3.989   6.476   1.595 -0.3257  0.1080  0.2506
 2074TIP3   OH2 6185   0.767   1.920   4.146  0.6326 -0.3018 -0.6766
 2074TIP3    H1 6186   0.756   1.991   4.210  2.2018  0.5499 -1.2951
 2074TIP3    H2 6187   0.678   1.890   4.128 -0.1214  1.7080 -0.5951
 2075TIP3   OH2 6188   6.795   0.208   5.064 -1.1420  0.0094  0.1822
 2075TIP3    H1 6189   6.845   0.289   5.071  0.0316 -0.7838  1.2415
 2075TIP3    H2 6190   6.851   0.149   5.013 -1.8619 -0.2428 -0.3355
 2076TIP3   OH2 6191   4.300   6.513   0.952  0.0800 -0.2347 -0.0996
 2076TIP3    H1 6192   4.351   6.594   0.945  0.5302 -0.4492  0.5844
 2076TIP3    H2 6193   4.257   6.519   1.037 -0.1988 -0.5372 -0.2159
 2077TIP3   OH2 6194   6.974   3.638   3.263  0.0330 -0.2587  0.0764
 2077TIP3    H1 6195   6.991   3.566   3.325  1.0001  0.4847  0.7013
 2077TIP3    H2 6196   7.016   3.714   3.303  0.1031  0.3874 -1.1966
 2078TIP3   OH2 6197   2.610   3.706   3.530 -0.4769 -0.0368 -0.2727
 2078TIP3    H1 6198   2.554   3.765   3.478 -1.7751 -0.0660  1.0103
 2078TIP3    H2 6199   2.553   3.678   3.602  1.4397  0.5182  1.5292
 2079TIP3   OH2 6200   0.692   0.913  -0.017  0.5826 -0.2031 -0.1557
 2079TIP3    H1 6201   0.627   0.888   0.049 -1.3066  1.2395 -1.3690
 2079TIP3    H2 6202   0.768   0.941   0.034  0.5817 -2.5822  1.2939
 2080TIP3   OH2 6203   4.550   1.144   2.050  0.2087 -0.2347  0.0369
 2080TIP3    H1 6204   4.613   1.216   2.050  0.4885 -0.3821 -2.2590
 2080TIP3    H2 6205   4.487   1.166   2.118  2.5931  0.0002  2.3162
 2081TIP3   OH2 6206   6.187   5.564   2.779  0.3169 -0.0502 -0.3218
 2081TIP3    H1 6207   6.233   5.556   2.695  0.6216  1.5153 -0.3204
 2081TIP3    H2 6208   6.226   5.495   2.833  0.8556 -0.4024 -1.1329
 2082TIP3   OH2 6209   0.186   5.166   1.321  0.0096 -0.1431 -0.1988
 2082TIP3    H1 6210   0.243   5.242   1.308  0.5125 -0.6010 -0.7548
 2082TIP3    H2 6211   0.125   5.170   1.247 -2.3893  1.7661  1.6959
 2083TIP3   OH2 6212   0.241   4.579   0.906  0.0977 -0.2405 -0.8309
 2083TIP3    H1 6213   0.197   4.634   0.841  1.9205  0.9358 -1.1264
 2083TIP3    H2 6214   0.268   4.639   0.975  0.6568 -1.0392 -0.3372
 2084TIP3   OH2 6215   6.023   3.570   5.249  0.0442 -0.6347  0.5665
 2084TIP3    H1 6216   6.100   3.597   5.199 -0.2415  0.0850  0.5132
 2084TIP3    H2 6217   5.999   3.647   5.300 -1.9067 -0.1206 -0.9907
 2085TIP3   OH2 6218   2.813   0.335   0.591 -0.2635  0.2223  0.0582
 2085TIP3    H1 6219   2.791   0.424   0.562 -0.8997  0.1703  0.3577
 2085TIP3    H2 6220   2.744   0.280   0.555 -0.3017 -0.0383  0.5199
 2086TIP3   OH2 6221   2.470   3.276   0.197 -0.2348 -0.6854  0.1862
 2086TIP3    H1 6222   2.471   3.193   0.246 -0.4581  0.4871  2.3019
 2086TIP3    H2 6223   2.435   3.340   0.259  0.3387  1.0889 -1.2357
 2087TIP3   OH2 6224   4.709   5.942   5.438 -0.1539 -0.1522 -0.4592
 2087TIP3    H1 6225   4.794   5.955   5.481 -0.3604  0.2927 -0.1798
 2087TIP3    H2 6226   4.647   5.933   5.510 -0.4696  0.3776 -0.6568
 2088TIP3   OH2 6227   0.766   3.499   3.544  0.5415  0.4841 -0.1880
 2088TIP3    H1 6228   0.754   3.503   3.639  1.3979 -0.5693 -0.0094
 2088TIP3    H2 6229   0.705   3.563   3.509  0.2687  0.9472  1.0827
 2089TIP3   OH2 6230   7.077   3.315   1.681  0.3690 -0.3314 -0.1446
 2089TIP3    H1 6231   7.057   3.302   1.588 -0.2898 -0.3446 -0.0074
 2089TIP3    H2 6232   7.164   3.278   1.692  1.1163  1.0691 -1.0843
 2090TIP3   OH2 6233   1.992   1.415   2.877  0.1382 -0.1821  0.3620
 2090TIP3    H1 6234   1.900   1.415   2.848  0.2879 -0.2742 -0.1235
 2090TIP3    H2 6235   1.991   1.461   2.961 -0.5898 -1.4827  1.1143
 2091TIP3   OH2 6236   0.673   4.853   4.677  0.3705 -0.4263  0.5509
 2091TIP3    H1 6237   0.605   4.794   4.644  1.2812 -0.8770 -0.6032
 2091TIP3    H2 6238   0.678   4.834   4.771 -1.1293 -0.3255  0.6673
 2092TIP3   OH2 6239   0.113   3.253   2.185  0.0498  0.2134 -0.3656
 2092TIP3    H1 6240   0.085   3.163   2.165 -1.8682  0.6679  0.0490
 2092TIP3    H2 6241   0.171   3.243   2.260 -0.4270 -0.6658 -0.0887
 2093TIP3   OH2 6242   4.604   4.886   0.642 -0.4425  0.2125 -0.1092
 2093TIP3    H1 6243   4.667   4.909   0.574  0.2532  0.6966  0.6945
 2093TIP3    H2 6244   4.520   4.884   0.596  0.2861 -1.7259 -1.4811
 2094TIP3   OH2 6245   1.162   0.275   3.349  0.1288  0.2340  0.0679
 2094TIP3    H1 6246   1.163   0.210   3.279 -1.6813  1.7615 -1.4824
 2094TIP3    H2 6247   1.147   0.224   3.429 -1.4198 -1.2528 -1.1134
 2095TIP3   OH2 6248   5.910   0.605   1.954  0.7496  0.2486 -0.6548
 2095TIP3    H1 6249   5.870   0.613   1.868 -1.2215  1.4038  0.2954
 2095TIP3    H2 6250   5.954   0.689   1.968 -0.7008  0.8939  0.2539
 2096TIP3   OH2 6251   1.469   0.827   3.214  0.3847  0.7072 -0.2930
 2096TIP3    H1 6252   1.429   0.744   3.241 -0.9841  1.9757  1.8490
 2096TIP3    H2 6253   1.554   0.828   3.258  1.5155 -0.5314 -2.2515
 2097TIP3   OH2 6254   3.930   5.014   4.541  0.3093 -0.1115 -0.3922
 2097TIP3    H1 6255   3.851   5.062   4.566  0.6448  0.1844  0.0917
 2097TIP3    H2 6256   3.906   4.971   4.458 -0.8733 -1.2504  0.4987
 2098TIP3   OH2 6257   0.759   5.949   5.831 -0.0930  0.4281 -0.1970
 2098TIP3    H1 6258   0.813   5.927   5.907 -0.9694 -0.7365  0.1100
 2098TIP3    H2 6259   0.783   6.039   5.810  0.2840  0.7147  1.3604
 2099TIP3   OH2 6260   2.561   6.216   0.588 -0.3132 -0.3716 -0.1333
 2099TIP3    H1 6261   2.585   6.252   0.503 -0.1513  0.9106  0.4350
 2099TIP3    H2 6262   2.516   6.134   0.568 -0.0411 -0.2182 -1.4311
 2100TIP3   OH2 6263   2.108   0.111   1.380  0.3109  0.0040 -0.1504
 2100TIP3    H1 6264   2.092   0.176   1.312  1.1885  0.6828  0.2652
 2100TIP3    H2 6265   2.178   0.149   1.433 -1.1826  0.0858  1.8925
 2101TIP3   OH2 6266   7.109   0.963   2.678 -0.1502 -0.3312 -0.4696
 2101TIP3    H1 6267   7.095   0.877   2.718  1.4893 -0.0170  0.8836
 2101TIP3    H2 6268   7.168   1.008   2.738 -0.0575  1.3229 -1.7408
 2102TIP3   OH2 6269   6.232   5.757   2.967 -0.4653  0.4984  0.2592
 2102TIP3    H1 6270   6.160   5.764   3.030 -0.7594 -2.0208  0.3339
 2102TIP3    H2 6271   6.202   5.691   2.904  1.7332 -0.5984  0.2645
 2103TIP3   OH2 6272   0.453   6.556   2.080  0.1604  0.5474 -0.1662
 2103TIP3    H1 6273   0.358   6.544   2.081  0.2450 -0.1988 -0.5273
 2103TIP3    H2 6274   0.488   6.468   2.091  0.8226  1.0268  1.9525
 2104TIP3   OH2 6275   2.533   2.752   4.241  0.1341 -0.3434 -0.3322
 2104TIP3    H1 6276   2.623   2.745   4.272  1.0703 -0.2525 -2.7759
 2104TIP3    H2 6277   2.529   2.692   4.166 -2.2857 -1.4342  0.5798
 2105TIP3   OH2 6278   3.617   4.389   2.902 -0.1693 -0.2908  0.3738
 2105TIP3    H1 6279   3.686   4.442   2.942  1.0929  2.0985 -4.2193
 2105TIP3    H2 6280   3.660   4.306   2.880  0.3504  0.0125  0.2290
 2106TIP3   OH2 6281   2.505   3.841   4.420 -0.1717  0.1412 -0.1874
 2106TIP3    H1 6282   2.444   3.817   4.350  0.5216  1.0063 -1.1222
 2106TIP3    H2 6283   2.572   3.773   4.417 -1.8056 -1.7369  1.8959
 2107TIP3   OH2 6284   6.279   1.818   5.090 -0.1226  0.8211 -0.3727
 2107TIP3    H1 6285   6.283   1.903   5.133 -0.8795  1.0932 -0.8155
 2107TIP3    H2 6286   6.191   1.814   5.053  0.2041  0.2089 -1.1108
 2108TIP3   OH2 6287   3.762   0.702   5.227  0.3872  0.0832 -0.0728
 2108TIP3    H1 6288   3.841   0.677   5.178  0.5769 -1.1562  0.8457
 2108TIP3    H2 6289   3.690   0.678   5.169  0.5599 -2.4860  0.6498
 2109TIP3   OH2 6290   1.939   3.762  -0.020 -0.1075  0.0395  0.2292
 2109TIP3    H1 6291   1.933   3.682   0.032 -0.9152  1.5098  2.5492
 2109TIP3    H2 6292   2.022   3.802   0.008 -0.5395  0.8321  0.4055
 2110TIP3   OH2 6293   4.387   2.415   1.830 -0.3009  0.2983  0.2368
 2110TIP3    H1 6294   4.369   2.368   1.748  0.3319  0.5363 -0.0483
 2110TIP3    H2 6295   4.350   2.359   1.898 -3.4279  1.4274 -0.3501
 2111TIP3   OH2 6296   0.577   3.722   5.352  0.2323  0.0783 -0.5030
 2111TIP3    H1 6297   0.592   3.633   5.321  2.4297  0.2052  0.0133
 2111TIP3    H2 6298   0.593   3.718   5.446 -0.1298  0.9102 -0.3946
 2112TIP3   OH2 6299   2.021   3.017   2.950 -0.2355  0.0205 -0.1181
 2112TIP3    H1 6300   1.949   2.979   2.900  1.5831  0.0761 -2.9683
 2112TIP3    H2 6301   2.019   3.110   2.929  0.5226  0.0659 -0.0021
 2113TIP3   OH2 6302   5.402   1.623   1.349  0.3195 -0.2500  0.2245
 2113TIP3    H1 6303   5.417   1.534   1.381 -0.0353 -0.9645 -1.5103
 2113TIP3    H2 6304   5.482   1.646   1.303  0.8766  0.8248  1.6622
 2114TIP3   OH2 6305   2.251   0.688   3.847  0.1474 -0.1690  0.3964
 2114TIP3    H1 6306   2.183   0.754   3.859  0.2168 -0.0093 -0.0513
 2114TIP3    H2 6307   2.278   0.664   3.935  1.2781  1.5924  0.5877
 2115TIP3   OH2 6308   3.732   4.337   3.548  0.2842 -0.4353  0.2481
 2115TIP3    H1 6309   3.679   4.272   3.594  0.2627  0.0781  0.9653
 2115TIP3    H2 6310   3.741   4.409   3.610  0.3589  0.2250 -0.5117
 2116TIP3   OH2 6311   2.079   6.681   0.131 -0.8610 -0.2866 -0.1468
 2116TIP3    H1 6312   1.999   6.732   0.150 -0.4973 -0.1219  1.0543
 2116TIP3    H2 6313   2.120   6.669   0.217  0.6964  0.1058 -0.8015
 2117TIP3   OH2 6314   6.912   3.130   0.962  0.9532  0.0776  0.3875
 2117TIP3    H1 6315   6.887   3.041   0.939 -0.0007  0.4393 -0.0390
 2117TIP3    H2 6316   6.962   3.161   0.887  0.1665  0.3332 -0.0428
 2118TIP3   OH2 6317   2.641   0.906   2.883 -0.1972  0.0391 -0.5004
 2118TIP3    H1 6318   2.580   0.946   2.821  0.1066  2.0251  0.3914
 2118TIP3    H2 6319   2.587   0.887   2.960 -0.1707 -0.5532 -0.6225
 2119TIP3   OH2 6320   4.981   3.290   3.200  0.2192 -0.4071  0.1513
 2119TIP3    H1 6321   5.072   3.322   3.202  0.4845 -1.0921 -0.5660
 2119TIP3    H2 6322   4.939   3.340   3.131  0.3737 -0.9183 -0.3174
 2120TIP3   OH2 6323   6.425   1.452   5.598  0.3144 -0.0609 -0.1699
 2120TIP3    H1 6324   6.443   1.423   5.687 -0.0666 -0.0232 -0.0791
 2120TIP3    H2 6325   6.508   1.487   5.568 -0.4131  3.8335  1.6698
 2121TIP3   OH2 6326   6.302   2.032   0.303 -0.0809  0.4563  0.1665
 2121TIP3    H1 6327   6.265   2.003   0.387  1.0411 -0.8577  0.2537
 2121TIP3    H2 6328   6.386   1.987   0.298  0.4758  1.5785 -1.0580
 2122TIP3   OH2 6329   1.276   6.595   4.492 -0.6291 -0.4413  0.5268
 2122TIP3    H1 6330   1.275   6.665   4.426 -0.0976 -0.0815  0.8885
 2122TIP3    H2 6331   1.283   6.642   4.575  1.2744 -0.9519  0.7022
 2123TIP3   OH2 6332   5.969   1.848   5.258 -0.0682 -0.8389  0.6637
 2123TIP3    H1 6333   6.027   1.784   5.300  0.6699 -2.2255 -2.2027
 2123TIP3    H2 6334   5.912   1.795   5.202  0.3806  0.9351 -1.6067
 2124TIP3   OH2 6335   2.158   3.184   4.330  0.1614 -0.0055 -0.4403
 2124TIP3    H1 6336   2.140   3.099   4.291 -0.3477 -0.4887  0.8021
 2124TIP3    H2 6337   2.219   3.166   4.401 -1.0292  0.4278  0.7394
 2125TIP3   OH2 6338   4.780   2.764   4.205  0.0821  0.0620 -0.0108
 2125TIP3    H1 6339   4.793   2.674   4.235  2.8419 -0.4027 -2.1738
 2125TIP3    H2 6340   4.856   2.782   4.149 -1.2672  3.1366 -1.0770
 2126TIP3   OH2 6341   6.574   6.274   2.631 -0.5482 -0.0023 -0.0838
 2126TIP3    H1 6342   6.571   6.191   2.583 -0.8282 -0.9163  1.4446
 2126TIP3    H2 6343   6.514   6.331   2.583  0.8491 -0.0888 -2.1133
 2127TIP3   OH2 6344   6.443   3.058   0.215 -0.7239 -0.0604 -0.4768
 2127TIP3    H1 6345   6.449   2.986   0.152 -1.2897 -0.0498 -0.5457
 2127TIP3    H2 6346   6.501   3.031   0.287 -0.4380 -0.2889 -0.7844
 2128TIP3   OH2 6347   6.885   3.075   1.465 -0.3835 -0.5217 -0.0380
 2128TIP3    H1 6348   6.906   3.058   1.557 -0.7017 -0.6252  0.0172
 2128TIP3    H2 6349   6.855   3.166   1.464 -2.7517 -1.2138  0.3985
 2129TIP3   OH2 6350   3.590   4.565   0.453 -0.5982  0.0571 -0.2349
 2129TIP3    H1 6351   3.584   4.487   0.399  0.2219  0.1489 -0.4765
 2129TIP3    H2 6352   3.517   4.620   0.425 -1.7378 -1.0014  0.5844
 2130TIP3   OH2 6353   3.360   0.431   2.651  0.1761 -0.4982 -0.1854
 2130TIP3    H1 6354   3.295   0.421   2.721  0.8596 -0.3488  0.4830
 2130TIP3    H2 6355   3.435   0.472   2.694  1.6191 -2.7417 -0.4032
 2131TIP3   OH2 6356   7.184   6.623   3.323 -0.3164 -0.0364 -0.1992
 2131TIP3    H1 6357   7.150   6.688   3.263  1.7193 -0.2217 -1.6370
 2131TIP3    H2 6358   7.214   6.551   3.267  0.6406 -0.7018  1.1052
 2132TIP3   OH2 6359   2.951   3.703   1.568  1.0437 -0.1882 -0.0342
 2132TIP3    H1 6360   2.964   3.695   1.662 -2.1802 -0.4648  0.4862
 2132TIP3    H2 6361   2.965   3.796   1.550  1.9464 -0.1831  0.6505
 2133TIP3   OH2 6362   0.895   4.210   4.623 -0.2470 -0.4531  0.2484
 2133TIP3    H1 6363   0.942   4.197   4.541 -0.0069 -1.2945  0.5149
 2133TIP3    H2 6364   0.806   4.181   4.606  0.1277 -1.9375  0.6527
 2134TIP3   OH2 6365   2.662   5.999   1.833 -0.1595 -0.6381 -0.1914
 2134TIP3    H1 6366   2.638   5.906   1.838 -1.6039 -0.2974 -0.3342
 2134TIP3    H2 6367   2.751   6.002   1.868 -0.4563 -1.9274  0.7923
 2135TIP3   OH2 6368   0.279   4.852   2.733  0.1775 -0.7477  0.1891
 2135TIP3    H1 6369   0.353   4.880   2.787 -0.2100 -1.2932  1.0459
 2135TIP3    H2 6370   0.317   4.826   2.650  1.1464 -2.1721  1.0227
 2136TIP3   OH2 6371   2.590   0.433   3.776 -0.3848  0.3158 -0.0935
 2136TIP3    H1 6372   2.636   0.506   3.817 -0.3786 -0.3330  1.0912
 2136TIP3    H2 6373   2.567   0.465   3.688 -1.1542  2.0558  0.7049
 2137TIP3   OH2 6374   7.020   5.768   4.935 -0.3027  0.5093 -0.2512
 2137TIP3    H1 6375   7.065   5.777   4.851 -1.1688 -1.8624 -1.0803
 2137TIP3    H2 6376   6.929   5.790   4.915 -0.6279 -0.6435 -0.1379
 2138TIP3   OH2 6377   0.114   4.374   5.532  0.1654  0.2973 -0.3865
 2138TIP3    H1 6378   0.152   4.422   5.606  0.6836 -0.6271 -0.0466
 2138TIP3    H2 6379   0.092   4.288   5.568  0.8486 -0.3204 -1.4083
 2139TIP3   OH2 6380   4.234   3.713   3.157  0.0415  0.3003  0.1538
 2139TIP3    H1 6381   4.156   3.660   3.140  0.4627 -0.3781  0.2847
 2139TIP3    H2 6382   4.295   3.653   3.200  1.0484  0.4998 -0.9119
 2140TIP3   OH2 6383   4.673   4.335   3.090  0.1441 -0.4520 -0.5518
 2140TIP3    H1 6384   4.626   4.419   3.092  1.7153  0.4426  0.9745
 2140TIP3    H2 6385   4.721   4.338   3.007 -0.2562 -0.0999 -0.7785
 2141TIP3   OH2 6386   0.310   2.582   3.340  0.0872  0.1529 -0.1515
 2141TIP3    H1 6387   0.334   2.591   3.432 -0.0612  1.3631 -0.2132
 2141TIP3    H2 6388   0.286   2.671   3.313 -1.4722 -0.4696 -0.9180
 2142TIP3   OH2 6389   6.088   4.597   1.199 -0.6299  0.7456 -0.4213
 2142TIP3    H1 6390   6.066   4.504   1.192 -0.4591  0.7335 -0.7895
 2142TIP3    H2 6391   6.095   4.627   1.109  3.1149  0.2295 -0.4587
 2143TIP3   OH2 6392   4.873   1.895   2.764  0.4510  0.5624 -0.3796
 2143TIP3    H1 6393   4.942   1.962   2.768  0.6025  0.3851  0.0740
 2143TIP3    H2 6394   4.921   1.812   2.761  0.2987  0.3114  1.9629
 2144TIP3   OH2 6395   2.516   4.855   3.957  0.3700  0.1452  0.0858
 2144TIP3    H1 6396   2.524   4.812   3.872  0.9510  0.7356 -0.1657
 2144TIP3    H2 6397   2.465   4.934   3.939  0.4043  0.2182  0.3052
 2145TIP3   OH2 6398   2.480   6.668   1.691 -0.2028 -0.4600  0.1496
 2145TIP3    H1 6399   2.567   6.707   1.692 -0.2219 -0.2583 -1.9442
 2145TIP3    H2 6400   2.429   6.721   1.752  0.9087 -0.0122  0.7051
 2146TIP3   OH2 6401   3.477   0.042   4.987  0.0197 -0.3285  0.0703
 2146TIP3    H1 6402   3.530   0.073   4.913 -0.6531 -1.0379 -0.7182
 2146TIP3    H2 6403   3.477  -0.053   4.979 -0.9455 -0.3620  0.3614
 2147TIP3   OH2 6404   0.390   2.894   0.756 -0.0392  0.1079 -0.4288
 2147TIP3    H1 6405   0.389   2.979   0.712  0.5802 -1.0040 -2.8039
 2147TIP3    H2 6406   0.479   2.885   0.789  0.0790  0.1421 -0.7319
 2148TIP3   OH2 6407   0.485   1.855   1.825  0.1798  0.8577 -0.3821
 2148TIP3    H1 6408   0.440   1.785   1.777  2.0868 -1.9146  1.5615
 2148TIP3    H2 6409   0.563   1.874   1.772  0.2877  0.6475 -0.2965
 2149TIP3   OH2 6410   0.348   6.347   2.950 -0.8677 -0.2538  0.2961
 2149TIP3    H1 6411   0.361   6.397   2.870 -1.1090 -0.8218 -0.1052
 2149TIP3    H2 6412   0.416   6.378   3.009 -0.5313 -0.0128 -0.2156
 2150TIP3   OH2 6413   7.146   4.300   1.659 -0.5630  0.2877  0.4519
 2150TIP3    H1 6414   7.135   4.390   1.688  0.7644  0.2578  1.1262
 2150TIP3    H2 6415   7.139   4.304   1.564 -1.8511  0.8732  0.5435
 2151TIP3   OH2 6416   6.057   5.629   4.665  0.0651 -0.2728  0.0964
 2151TIP3    H1 6417   5.984   5.691   4.671  1.1718  0.9887  1.3198
 2151TIP3    H2 6418   6.024   5.558   4.610 -2.0111  0.3468  0.4453
 2152TIP3   OH2 6419   4.618   2.860   4.399  0.0998 -0.0065  0.0110
 2152TIP3    H1 6420   4.539   2.903   4.366  0.5389 -0.3802 -1.6402
 2152TIP3    H2 6421   4.682   2.872   4.330  0.7295 -1.8929  0.2023
 2153TIP3   OH2 6422   3.385   2.322   4.422 -0.5358 -0.2234 -0.4790
 2153TIP3    H1 6423   3.352   2.398   4.470  0.4589  0.8463 -1.4184
 2153TIP3    H2 6424   3.479   2.324   4.437  0.0806  1.0710 -3.5729
 2154TIP3   OH2 6425   1.147   2.660   2.754 -0.5931  0.0645 -0.1039
 2154TIP3    H1 6426   1.086   2.588   2.769  1.0420 -1.3427  0.1308
 2154TIP3    H2 6427   1.137   2.682   2.661 -1.1057 -0.4840 -0.1816
 2155TIP3   OH2 6428   3.572   2.970   4.467  0.6021 -0.6484 -0.3323
 2155TIP3    H1 6429   3.661   2.990   4.494  0.1197  1.6249 -0.1998
 2155TIP3    H2 6430   3.569   2.994   4.374  0.1888 -0.9143 -0.3921
 2156TIP3   OH2 6431   0.292   2.699   0.980 -0.0185 -0.8391  0.1415
 2156TIP3    H1 6432   0.343   2.761   0.929 -0.7703  0.1868  0.5787
 2156TIP3    H2 6433   0.323   2.711   1.070 -2.3217  1.3173  0.7792
 2157TIP3   OH2 6434   0.692   5.303   0.541 -0.0140 -0.1174  0.0580
 2157TIP3    H1 6435   0.700   5.388   0.584  0.8377 -0.0742 -0.1497
 2157TIP3    H2 6436   0.709   5.321   0.449 -0.3802 -0.4279 -0.0715
 2158TIP3   OH2 6437   2.237   4.071   4.331  0.0739 -0.1030  0.1706
 2158TIP3    H1 6438   2.296   4.100   4.261  1.8259 -0.7367  1.3313
 2158TIP3    H2 6439   2.162   4.033   4.285 -0.5611  2.7225 -1.3814
 2159TIP3   OH2 6440   2.321   1.610   0.974 -0.0563  0.4364  0.1607
 2159TIP3    H1 6441   2.349   1.640   1.060  1.5246  0.1426 -0.2174
 2159TIP3    H2 6442   2.385   1.647   0.913 -1.5356  1.2261 -1.0008
 2160TIP3   OH2 6443   4.385   6.316   0.769 -1.1491  0.3436 -0.2877
 2160TIP3    H1 6444   4.395   6.363   0.852  0.5337 -0.7170  0.1506
 2160TIP3    H2 6445   4.353   6.230   0.794  0.2387 -0.2932 -0.6152
 2161TIP3   OH2 6446   1.154   4.406   4.825  0.3656 -0.5269 -0.1564
 2161TIP3    H1 6447   1.185   4.471   4.762 -0.5576  0.6230  0.5301
 2161TIP3    H2 6448   1.233   4.375   4.868  0.8218  0.2008 -0.4525
 2162TIP3   OH2 6449   1.684   5.917   2.313 -0.4087  0.3538  0.2772
 2162TIP3    H1 6450   1.768   5.936   2.271 -1.6479  0.3084 -2.4907
 2162TIP3    H2 6451   1.706   5.891   2.402  2.6554 -1.3383 -0.8442
 2163TIP3   OH2 6452   0.517   1.011   1.018  0.3229 -0.4285 -0.2994
 2163TIP3    H1 6453   0.592   1.043   1.070  0.8098 -2.7556  0.5342
 2163TIP3    H2 6454   0.508   1.076   0.948  2.2316  0.6595  0.3742
 2164TIP3   OH2 6455   0.023   2.689   3.964 -0.1454  0.0134  0.1180
 2164TIP3    H1 6456   0.058   2.655   4.047 -1.0619 -1.0637  0.0887
 2164TIP3    H2 6457   0.096   2.735   3.924  0.0735  1.3842  1.9573
 2165TIP3   OH2 6458   6.293   4.410   1.590 -0.4220 -0.0094  0.1334
 2165TIP3    H1 6459   6.207   4.447   1.570 -0.2286 -0.0932 -0.9213
 2165TIP3    H2 6460   6.283   4.316   1.572  0.1293  0.1150 -0.9202
 2166TIP3   OH2 6461   1.655   0.181   5.740 -0.7933 -0.1515 -0.0162
 2166TIP3    H1 6462   1.728   0.191   5.800 -0.2077  1.6919 -0.9600
 2166TIP3    H2 6463   1.695   0.156   5.657 -1.3450 -0.2049 -0.2722
 2167TIP3   OH2 6464   2.279   1.220   5.335 -0.4295  0.0790 -0.2833
 2167TIP3    H1 6465   2.327   1.216   5.253  0.7777  1.1202  0.3486
 2167TIP3    H2 6466   2.228   1.139   5.336  1.5513 -1.2675 -0.8505
 2168TIP3   OH2 6467   5.022   0.439   2.252 -0.4407  0.4209 -0.3316
 2168TIP3    H1 6468   5.111   0.474   2.248  0.8454 -2.5147  0.2630
 2168TIP3    H2 6469   5.000   0.438   2.345 -0.6702  0.1369 -0.3862
 2169TIP3   OH2 6470   0.418   0.022   5.484 -0.0338  0.2182 -0.1647
 2169TIP3    H1 6471   0.355   0.077   5.531  1.3049  0.9164  0.9001
 2169TIP3    H2 6472   0.467  -0.022   5.553  2.2237  1.5256 -0.8339
 2170TIP3   OH2 6473   0.499   4.217   5.811 -0.5569  0.1459  0.3874
 2170TIP3    H1 6474   0.456   4.157   5.873 -2.0390  0.1248 -0.6260
 2170TIP3    H2 6475   0.491   4.174   5.726  0.8443  0.5043  0.0406
 2171TIP3   OH2 6476   4.834   0.324   5.404  0.3482 -0.0058 -0.2884
 2171TIP3    H1 6477   4.842   0.272   5.324 -0.5423  0.1238 -0.4730
 2171TIP3    H2 6478   4.746   0.362   5.399  1.3633  2.4858 -0.7588
 2172TIP3   OH2 6479   3.382   0.597   3.527  0.5762  0.1053 -0.6067
 2172TIP3    H1 6480   3.419   0.615   3.440  0.1438  1.3726 -0.5478
 2172TIP3    H2 6481   3.320   0.526   3.512 -1.7944  2.2723 -2.0120
 2173TIP3   OH2 6482   2.750   4.502   2.266  0.5836 -0.4893  0.3624
 2173TIP3    H1 6483   2.799   4.557   2.327  0.8412 -0.9725  0.5937
 2173TIP3    H2 6484   2.659   4.530   2.277  0.5189 -1.0806  1.5198
 2174TIP3   OH2 6485   6.332   1.227   0.187  0.6399  0.0310  0.1279
 2174TIP3    H1 6486   6.388   1.212   0.111  2.1788  0.7743  1.0671
 2174TIP3    H2 6487   6.393   1.244   0.259 -0.5763 -3.5264  2.2757
 2175TIP3   OH2 6488   2.343   3.330   4.977 -0.5573 -0.1954 -0.3424
 2175TIP3    H1 6489   2.333   3.338   5.072  1.0003  0.4641 -0.2033
 2175TIP3    H2 6490   2.258   3.354   4.942 -0.7985  0.7726  0.8490
 2176TIP3   OH2 6491   1.848   4.641   4.226  0.8605  0.4927 -0.7372
 2176TIP3    H1 6492   1.801   4.636   4.143 -0.5840 -0.2916  0.0916
 2176TIP3    H2 6493   1.800   4.706   4.277  0.5124 -0.4875  0.2098
 2177TIP3   OH2 6494   3.534   0.532   2.850 -0.1773  0.5058  0.3819
 2177TIP3    H1 6495   3.608   0.520   2.910 -0.7482 -0.0278  1.0006
 2177TIP3    H2 6496   3.458   0.538   2.907 -0.6186  1.0454 -0.2506
 2178TIP3   OH2 6497   1.632   2.254   4.794  0.5648  0.2893  0.2492
 2178TIP3    H1 6498   1.727   2.244   4.803  0.4885  0.3031  1.1201
 2178TIP3    H2 6499   1.612   2.336   4.838  0.1575  0.3357 -0.0178
 2179TIP3   OH2 6500   3.879   6.608   3.496 -0.0293 -0.0457 -0.0968
 2179TIP3    H1 6501   3.859   6.699   3.514  2.6636  0.7724 -0.8060
 2179TIP3    H2 6502   3.808   6.559   3.539 -0.8887  2.2924  1.3498
 2180TIP3   OH2 6503   1.912   0.667   3.371  0.5649  0.3923  0.1807
 2180TIP3    H1 6504   1.898   0.601   3.303 -1.0597 -0.4732  1.2806
 2180TIP3    H2 6505   1.986   0.634   3.422  0.6383  0.1256 -0.0941
 2181TIP3   OH2 6506   7.109   4.277   2.043  0.4527  0.1643 -0.1375
 2181TIP3    H1 6507   7.191   4.318   2.015 -0.0763  0.7271 -0.8983
 2181TIP3    H2 6508   7.041   4.329   2.001 -0.2926 -0.4102  0.3430
 2182TIP3   OH2 6509   3.577   5.306   0.342  0.1644  0.5346  0.5038
 2182TIP3    H1 6510   3.639   5.325   0.413  2.1186 -0.7704 -0.7347
 2182TIP3    H2 6511   3.633   5.297   0.265 -1.7330  0.2935 -0.8936
 2183TIP3   OH2 6512   4.959   0.571   1.050 -0.0482  1.1858 -0.3695
 2183TIP3    H1 6513   4.944   0.578   1.144 -0.9409  0.5679 -0.4563
 2183TIP3    H2 6514   5.050   0.543   1.042 -0.6365 -1.1311  0.4057
 2184TIP3   OH2 6515   1.169   2.857   3.411  0.6129  0.1002  0.0835
 2184TIP3    H1 6516   1.231   2.929   3.399  1.1951 -0.4451 -0.2610
 2184TIP3    H2 6517   1.144   2.863   3.503  0.3858  0.9477 -0.0237
 2185TIP3   OH2 6518   4.396   0.950   1.382  0.1892  0.2944  0.0536
 2185TIP3    H1 6519   4.419   0.890   1.452 -1.6988  0.1359  0.5867
 2185TIP3    H2 6520   4.476   1.002   1.367  0.9925 -0.4857  1.4604
 2186TIP3   OH2 6521   4.930   1.834   4.181  0.2564 -0.4275 -0.0178
 2186TIP3    H1 6522   4.872   1.851   4.107  0.6137 -0.2534 -0.2566
 2186TIP3    H2 6523   4.894   1.888   4.252  1.1929  1.1274 -0.6786
 2187TIP3   OH2 6524   6.919   4.318   2.256 -0.5434  0.0766 -0.9858
 2187TIP3    H1 6525   6.980   4.300   2.184  2.7066  0.4765  1.4345
 2187TIP3    H2 6526   6.935   4.248   2.319  1.6271  3.0538  2.1392
 2188TIP3   OH2 6527   3.529   2.491   2.790  0.2720  0.3069 -0.2534
 2188TIP3    H1 6528   3.530   2.587   2.793  0.3673  0.3835 -1.9394
 2188TIP3    H2 6529   3.621   2.466   2.780  0.3936 -0.0453  1.4947
 2189TIP3   OH2 6530   6.718   3.391   3.398 -0.0336 -0.0321  0.3491
 2189TIP3    H1 6531   6.782   3.375   3.329 -0.7365  1.9065 -0.8606
 2189TIP3    H2 6532   6.769   3.424   3.472  0.5342 -0.1986  0.0340
 2190TIP3   OH2 6533   2.189   6.037   0.150 -0.8403  0.4768  0.2183
 2190TIP3    H1 6534   2.203   6.080   0.065  5.5016 -1.7807 -0.4139
 2190TIP3    H2 6535   2.235   6.093   0.213  0.6469 -1.2547  0.7686
 2191TIP3   OH2 6536   5.191   4.832   5.608  0.6859  0.1778 -0.0188
 2191TIP3    H1 6537   5.101   4.802   5.622  1.0520 -0.6305  0.7178
 2191TIP3    H2 6538   5.215   4.798   5.522  0.0929  0.9062 -0.4797
 2192TIP3   OH2 6539   0.749   4.727   3.309  0.8259  0.1244 -0.1163
 2192TIP3    H1 6540   0.659   4.707   3.336  0.5355  1.7410  0.2451
 2192TIP3    H2 6541   0.752   4.705   3.216 -0.0721  0.4402 -0.2323
 2193TIP3   OH2 6542   4.422   5.859   2.781  0.0714 -0.4899 -0.1052
 2193TIP3    H1 6543   4.341   5.885   2.825  0.1637 -0.3926  0.0073
 2193TIP3    H2 6544   4.470   5.941   2.768  0.8440 -0.6951  1.1881
 2194TIP3   OH2 6545   4.975   5.799   4.565  0.9091 -0.1308 -0.3599
 2194TIP3    H1 6546   4.891   5.821   4.525  0.9329 -0.2043 -0.4482
 2194TIP3    H2 6547   4.972   5.704   4.578  1.1753 -0.1990 -0.8078
 2195TIP3   OH2 6548   5.251   5.589   4.929  0.2511 -0.0729  0.3815
 2195TIP3    H1 6549   5.170   5.538   4.931 -0.0427  0.3880  0.2205
 2195TIP3    H2 6550   5.237   5.660   4.991  0.2455  0.4359 -0.1914
 2196TIP3   OH2 6551   5.232   5.263   2.691  0.3970 -0.0024  0.4852
 2196TIP3    H1 6552   5.174   5.333   2.722  0.0082 -0.4756  0.8423
 2196TIP3    H2 6553   5.283   5.303   2.621 -0.1543  0.5097  0.3698
 2197TIP3   OH2 6554   6.000   4.963   4.896 -0.5161  0.1891  0.7956
 2197TIP3    H1 6555   5.920   4.942   4.945 -0.7191  0.6688  0.6751
 2197TIP3    H2 6556   6.065   4.903   4.931 -1.1076 -0.7125  0.3886
 2198TIP3   OH2 6557   0.290   4.505   4.492 -0.3490 -0.1162  0.3726
 2198TIP3    H1 6558   0.280   4.456   4.411  0.1994 -0.7099  0.6503
 2198TIP3    H2 6559   0.239   4.456   4.557 -0.5729  0.2085  0.4434
 2199TIP3   OH2 6560   5.932   5.202   3.550 -0.6716  0.4041 -0.2209
 2199TIP3    H1 6561   5.874   5.151   3.606 -1.0277  1.2947  0.2500
 2199TIP3    H2 6562   6.019   5.167   3.567 -0.9432 -0.2485 -0.1513
 2200TIP3   OH2 6563   2.086   4.845   1.241  0.3592 -0.0276  0.1273
 2200TIP3    H1 6564   2.140   4.924   1.242  1.2725 -0.5635 -1.8175
 2200TIP3    H2 6565   2.143   4.777   1.276 -0.3097  0.0712  1.4709
 2201TIP3   OH2 6566   6.853   4.317   4.863 -0.0259 -0.1055  0.0864
 2201TIP3    H1 6567   6.844   4.240   4.806  0.4395 -1.7601  2.1038
 2201TIP3    H2 6568   6.948   4.328   4.874 -0.0864  0.8585 -0.2965
 2202TIP3   OH2 6569   2.965   1.337   2.178 -0.0479 -0.1009  0.0984
 2202TIP3    H1 6570   2.916   1.354   2.259  0.1846 -0.4172  0.3090
 2202TIP3    H2 6571   2.933   1.251   2.149 -2.1373  1.1557 -1.6269
 2203TIP3   OH2 6572   2.913   1.251   3.841  0.2094 -0.2799  0.6359
 2203TIP3    H1 6573   2.917   1.324   3.904  0.6311  0.4869 -0.2520
 2203TIP3    H2 6574   2.988   1.265   3.784 -1.2792  0.2288 -1.3084
 2204TIP3   OH2 6575   3.072   0.258   3.190 -0.3718  0.1323  0.4924
 2204TIP3    H1 6576   3.053   0.265   3.096 -0.9404 -0.6493  0.5377
 2204TIP3    H2 6577   2.987   0.235   3.229  0.1361 -0.8629  1.0351
 2205TIP3   OH2 6578   5.026   0.855   4.101 -0.3679 -0.2606  0.1479
 2205TIP3    H1 6579   4.946   0.803   4.089 -0.9484  0.6914 -0.1707
 2205TIP3    H2 6580   5.021   0.887   4.191 -0.1352 -0.5180  0.2581
 2206TIP3   OH2 6581   2.012   2.479   4.381  0.2299 -0.4037  0.2583
 2206TIP3    H1 6582   2.032   2.391   4.350  0.0131  0.1558 -1.6312
 2206TIP3    H2 6583   2.094   2.528   4.367 -0.0133 -0.0204  0.1595
 2207TIP3   OH2 6584   3.068   0.200   1.809 -0.4764  0.5354  0.1022
 2207TIP3    H1 6585   3.103   0.119   1.846 -0.5724  0.6605  0.4684
 2207TIP3    H2 6586   3.070   0.185   1.715 -0.7502 -0.0011  0.1757
 2208TIP3   OH2 6587   4.204   0.783   3.495 -0.5197  0.1466 -0.0815
 2208TIP3    H1 6588   4.277   0.830   3.536  0.1759 -0.5626 -0.4820
 2208TIP3    H2 6589   4.170   0.727   3.565 -0.5409  0.3072  0.0395
 2209TIP3   OH2 6590   5.540   4.280   4.644  0.3262 -0.1739 -0.0269
 2209TIP3    H1 6591   5.607   4.221   4.609 -0.9702 -0.5891 -1.9409
 2209TIP3    H2 6592   5.504   4.234   4.720  1.2547 -0.5398  0.2052
 2210TIP3   OH2 6593   3.805   4.310   3.238 -0.4064 -0.1247 -0.2403
 2210TIP3    H1 6594   3.873   4.248   3.262 -0.3683 -0.2399 -0.6362
 2210TIP3    H2 6595   3.723   4.262   3.249 -0.4091 -0.0776 -0.0448
 2211TIP3   OH2 6596   3.496   0.148   0.516  0.5075 -0.2655  0.2763
 2211TIP3    H1 6597   3.408   0.118   0.539  0.9532 -2.9738 -1.1724
 2211TIP3    H2 6598   3.490   0.244   0.521 -1.9194 -0.4071  2.1815
 2212TIP3   OH2 6599   6.634   0.267   2.161 -0.2942  0.5294  0.2506
 2212TIP3    H1 6600   6.713   0.240   2.209 -1.5538 -0.8850  1.6795
 2212TIP3    H2 6601   6.627   0.361   2.177  1.0345  0.6686  0.1679
 2213TIP3   OH2 6602   1.774   3.822   3.607  0.0572 -0.6562  0.4927
 2213TIP3    H1 6603   1.683   3.848   3.619 -0.5939 -2.2400 -0.7499
 2213TIP3    H2 6604   1.798   3.857   3.521  0.6154 -0.3147  0.7792
 2214TIP3   OH2 6605   7.003   6.329   0.740 -0.1687  0.1304 -0.4583
 2214TIP3    H1 6606   7.087   6.283   0.739  0.1690  0.7328 -1.2498
 2214TIP3    H2 6607   7.021   6.412   0.697 -0.9052  0.7598  0.4164
 2215TIP3   OH2 6608   5.579   0.683   3.876 -0.1637 -0.3563  0.3288
 2215TIP3    H1 6609   5.607   0.719   3.792  0.0617  0.0596  0.5795
 2215TIP3    H2 6610   5.653   0.630   3.905  0.8269  1.5482  1.4720
 2216TIP3   OH2 6611   5.288   6.604   0.419  0.2286  0.0089 -0.4040
 2216TIP3    H1 6612   5.384   6.607   0.417  0.2473 -0.6856 -0.9864
 2216TIP3    H2 6613   5.266   6.519   0.380 -0.6123  0.0125  0.0369
 2217TIP3   OH2 6614   2.792   5.806   5.786  0.0831  0.5313  1.0037
 2217TIP3    H1 6615   2.703   5.827   5.759 -0.1017 -1.0980  0.1977
 2217TIP3    H2 6616   2.782   5.763   5.871 -0.0747 -0.8947  0.2956
 2218TIP3   OH2 6617   1.496   1.433   4.657 -0.0894  0.2484  0.5055
 2218TIP3    H1 6618   1.441   1.421   4.580 -0.3521 -0.2392  0.7622
 2218TIP3    H2 6619   1.559   1.500   4.632  0.0449 -0.1484 -0.2542
 2219TIP3   OH2 6620   0.562   2.620   1.152  0.0894  0.2889  0.5129
 2219TIP3    H1 6621   0.539   2.556   1.084 -0.1981 -0.3601  1.2148
 2219TIP3    H2 6622   0.627   2.677   1.110 -1.1463  0.7916 -0.7827
 2220TIP3   OH2 6623   0.987   2.928   2.434  0.4547 -0.0127  0.1786
 2220TIP3    H1 6624   1.059   2.988   2.414  2.2146 -0.8937  3.1840
 2220TIP3    H2 6625   1.008   2.848   2.386 -0.0620  0.6417 -1.1617
 2221TIP3   OH2 6626   1.111   1.893   0.188 -0.3661  0.3694 -0.2555
 2221TIP3    H1 6627   1.029   1.927   0.153 -0.2001  0.8630 -0.1682
 2221TIP3    H2 6628   1.133   1.952   0.260  0.8894  1.2195 -1.2868
 2222TIP3   OH2 6629   5.289   6.065   5.634 -0.4371  0.0766 -0.2514
 2222TIP3    H1 6630   5.287   6.156   5.665  0.6028  0.1592 -0.3955
 2222TIP3    H2 6631   5.331   6.070   5.548  1.4159 -0.7332  0.5447
 2223TIP3   OH2 6632   6.608   0.207   4.797  0.0610  0.6400  0.0850
 2223TIP3    H1 6633   6.612   0.303   4.801 -2.9754  1.0188 -2.2697
 2223TIP3    H2 6634   6.662   0.178   4.871  0.3602  4.1508  1.4594
 2224TIP3   OH2 6635   1.947   6.408   2.075 -0.0875  0.2560  0.1512
 2224TIP3    H1 6636   1.910   6.335   2.123 -2.0076  0.4322 -0.9562
 2224TIP3    H2 6637   1.950   6.480   2.139 -0.5726 -0.1024  0.5868
 2225TIP3   OH2 6638   4.031   3.317   0.723 -0.4321 -0.0372  0.5342
 2225TIP3    H1 6639   4.018   3.367   0.805 -1.2184  0.0809  0.3428
 2225TIP3    H2 6640   4.075   3.237   0.751 -2.8837 -1.1556  1.4561
 2226TIP3   OH2 6641   0.427   4.056   2.310  0.1566 -0.3583  0.0111
 2226TIP3    H1 6642   0.466   3.995   2.247 -1.1418 -1.4496  0.2184
 2226TIP3    H2 6643   0.338   4.023   2.322  0.0458  0.4753  1.5991
 2227TIP3   OH2 6644   1.264   6.595   5.181 -0.1799 -0.1884 -0.0410
 2227TIP3    H1 6645   1.297   6.506   5.167  0.4132 -0.2698  1.6612
 2227TIP3    H2 6646   1.324   6.634   5.245  0.5084  2.0226 -1.8786
 2228TIP3   OH2 6647   3.760   0.316   0.549  0.9687 -0.0569  0.6068
 2228TIP3    H1 6648   3.736   0.333   0.458  1.5334 -0.4651  0.3791
 2228TIP3    H2 6649   3.844   0.271   0.544  0.1960 -1.6782  1.2332
 2229TIP3   OH2 6650   1.735   0.044   3.652  0.1605 -0.3295 -0.0166
 2229TIP3    H1 6651   1.817   0.042   3.701  0.5008 -1.9353 -0.5615
 2229TIP3    H2 6652   1.667   0.027   3.717  0.5396 -1.7182  0.0495
 2230TIP3   OH2 6653   2.863   4.627   5.394 -0.2150 -0.0308  0.2607
 2230TIP3    H1 6654   2.797   4.637   5.325 -1.9295 -0.6217  1.7691
 2230TIP3    H2 6655   2.881   4.533   5.396 -0.5523 -0.0846  0.9427
 2231TIP3   OH2 6656   7.001   4.529   5.533  0.0607  0.3101 -0.1209
 2231TIP3    H1 6657   7.060   4.603   5.550  0.1265  0.7667 -2.1286
 2231TIP3    H2 6658   7.060   4.455   5.521  0.0602  0.1975  0.5054
 2232TIP3   OH2 6659   5.884   3.526   2.880  0.4322 -0.0677 -0.3986
 2232TIP3    H1 6660   5.914   3.594   2.819 -1.2701  1.5493  0.4606
 2232TIP3    H2 6661   5.959   3.511   2.937  0.6974  1.5140 -0.2670
 2233TIP3   OH2 6662   6.439   0.939   1.662  0.1765 -0.3599  0.2115
 2233TIP3    H1 6663   6.529   0.909   1.648 -0.5667 -1.1470 -3.9124
 2233TIP3    H2 6664   6.393   0.862   1.694  0.2982 -0.9271 -0.9480
 2234TIP3   OH2 6665   5.746   6.410   0.717  0.5470  0.2590 -0.5354
 2234TIP3    H1 6666   5.713   6.471   0.783  0.0238  0.0074 -0.5556
 2234TIP3    H2 6667   5.670   6.355   0.695  0.3661  1.1399 -2.2734
 2235TIP3   OH2 6668   2.265   0.386   1.064  0.0406 -0.1283 -0.2154
 2235TIP3    H1 6669   2.212   0.451   1.018 -1.1056 -2.1585 -1.9345
 2235TIP3    H2 6670   2.210   0.357   1.137 -0.6486 -1.1040 -1.0836
 2236TIP3   OH2 6671   3.307   4.936   2.938 -0.6330 -0.0001  0.0819
 2236TIP3    H1 6672   3.216   4.911   2.950 -0.4329 -0.1994  1.3810
 2236TIP3    H2 6673   3.350   4.856   2.906 -0.7143 -0.2325  0.5438
 2237TIP3   OH2 6674   6.763   0.155   5.362 -0.8795 -0.2257  0.3163
 2237TIP3    H1 6675   6.718   0.239   5.351 -0.0233  0.1861 -0.1747
 2237TIP3    H2 6676   6.842   0.163   5.308 -0.1863 -0.9051  1.1931
 2238TIP3   OH2 6677   1.820   4.461   0.167  0.5007 -0.0748  0.4123
 2238TIP3    H1 6678   1.857   4.532   0.219  0.5030  1.2703 -1.3246
 2238TIP3    H2 6679   1.887   4.392   0.169  1.1831  0.5940  0.8617
 2239TIP3   OH2 6680   5.691   2.537   4.924  0.1742 -0.0159 -0.5089
 2239TIP3    H1 6681   5.715   2.628   4.903  1.4551 -0.0119  0.8261
 2239TIP3    H2 6682   5.700   2.531   5.019  3.4949 -2.4171 -0.8187
 2240TIP3   OH2 6683   0.663   1.725   2.823  0.1973  0.2751 -0.1267
 2240TIP3    H1 6684   0.629   1.813   2.813  0.2388  0.5059  1.5346
 2240TIP3    H2 6685   0.661   1.709   2.917  0.1779 -1.5041 -0.3968
 2241TIP3   OH2 6686   4.280   2.198   3.681 -0.2651  0.1315  0.6435
 2241TIP3    H1 6687   4.305   2.269   3.740 -1.7345  1.0391  0.2448
 2241TIP3    H2 6688   4.190   2.219   3.656 -1.0416 -2.3051  1.1296
 2242TIP3   OH2 6689   3.369   0.125   0.933 -0.1040 -0.2314 -0.0749
 2242TIP3    H1 6690   3.328   0.211   0.942  0.5915  0.1388 -0.3402
 2242TIP3    H2 6691   3.332   0.089   0.853 -2.4339 -1.3522  1.3989
 2243TIP3   OH2 6692   4.535   5.272   1.732 -0.2083  0.0582  0.0178
 2243TIP3    H1 6693   4.561   5.202   1.671  0.1555  0.9704 -0.9103
 2243TIP3    H2 6694   4.608   5.279   1.793  0.8028  1.0881 -1.2305
 2244TIP3   OH2 6695   4.825   2.104   5.393  0.2514 -0.0091  0.1066
 2244TIP3    H1 6696   4.873   2.165   5.336  1.3806 -1.4183 -0.5302
 2244TIP3    H2 6697   4.891   2.038   5.417 -0.1719  0.5427  3.1326
 2245TIP3   OH2 6698   6.082   6.691   4.653 -0.3178 -0.8621  0.3982
 2245TIP3    H1 6699   6.100   6.708   4.560  0.7302 -0.3285  0.6838
 2245TIP3    H2 6700   6.136   6.615   4.674  0.1659 -0.4186  0.7905
 2246TIP3   OH2 6701   5.645   1.502   3.664 -0.1350 -0.1886  0.4823
 2246TIP3    H1 6702   5.690   1.510   3.580 -0.6146  0.1660  0.2534
 2246TIP3    H2 6703   5.634   1.407   3.677 -1.6775 -0.1967 -0.7366
 2247TIP3   OH2 6704   1.454   0.867   2.671  0.0106 -0.1745  0.0752
 2247TIP3    H1 6705   1.452   0.866   2.767  1.0818 -0.9559  0.1197
 2247TIP3    H2 6706   1.430   0.778   2.646 -1.2527  0.2889 -0.4401
 2248TIP3   OH2 6707   6.321   0.748   5.327  0.5204 -0.1403  0.6475
 2248TIP3    H1 6708   6.362   0.787   5.404  0.1192  0.0205  0.7811
 2248TIP3    H2 6709   6.359   0.660   5.321 -1.9542 -1.5512  3.0723
 2249TIP3   OH2 6710   6.941   3.107   2.263 -0.8114 -0.4072  0.6243
 2249TIP3    H1 6711   7.007   3.092   2.331  0.5758 -1.8168 -0.9391
 2249TIP3    H2 6712   6.959   3.195   2.231  0.9627 -1.0872 -0.3830
 2250TIP3   OH2 6713   0.491   4.002   0.472 -0.2163 -0.1794  0.3330
 2250TIP3    H1 6714   0.456   4.081   0.514  0.4683  0.3899 -0.1573
 2250TIP3    H2 6715   0.415   3.943   0.466 -0.9525  0.7886 -0.1253
 2251TIP3   OH2 6716   0.404   2.464   3.932 -0.7371  0.2371  0.2236
 2251TIP3    H1 6717   0.366   2.496   3.850 -0.6507  0.6479  0.3399
 2251TIP3    H2 6718   0.382   2.531   3.997 -1.3435 -0.3953  0.6753
 2252TIP3   OH2 6719   3.693   5.584   4.389  0.0719 -0.0018 -1.1350
 2252TIP3    H1 6720   3.694   5.489   4.377  2.0537 -0.6040  2.3019
 2252TIP3    H2 6721   3.610   5.601   4.432  0.6818 -0.6282  0.3692
 2253TIP3   OH2 6722   1.342   4.669   4.303 -0.1423 -0.0490 -0.1069
 2253TIP3    H1 6723   1.282   4.598   4.327 -0.9358 -0.1507 -2.1601
 2253TIP3    H2 6724   1.301   4.748   4.339 -0.2678 -0.3894  0.5145
 2254TIP3   OH2 6725   1.985   3.759   1.168  0.1572  0.1313  0.1499
 2254TIP3    H1 6726   1.955   3.734   1.080  1.8857 -0.4452 -0.3082
 2254TIP3    H2 6727   1.970   3.853   1.172 -0.1754  0.1252 -0.6593
 2255TIP3   OH2 6728   4.871   1.028   4.700 -0.6100 -0.8604 -0.1175
 2255TIP3    H1 6729   4.778   1.035   4.680 -0.4976  0.2858 -0.3623
 2255TIP3    H2 6730   4.875   1.011   4.794 -1.0619  1.4001  0.3709
 2256TIP3   OH2 6731   4.585   1.862   2.928 -0.4412  0.4373  0.6852
 2256TIP3    H1 6732   4.508   1.889   2.877  0.4860  0.8019 -0.5886
 2256TIP3    H2 6733   4.568   1.894   3.016 -2.5409 -1.0471  0.8909
 2257TIP3   OH2 6734   3.698   2.965   1.968  0.2172 -0.8721  0.2445
 2257TIP3    H1 6735   3.710   2.872   1.949 -0.2875 -0.7713 -0.5699
 2257TIP3    H2 6736   3.693   3.007   1.882  1.2565  0.0202  0.5987
 2258TIP3   OH2 6737   1.884   5.799   0.510  0.2882  0.6517 -0.5052
 2258TIP3    H1 6738   1.957   5.792   0.572  1.8494  2.4509 -2.0164
 2258TIP3    H2 6739   1.868   5.709   0.482 -0.7694 -0.2964  2.7167
 2259TIP3   OH2 6740   3.075   1.150   2.589 -0.0573  0.0934 -0.3917
 2259TIP3    H1 6741   3.159   1.191   2.572 -0.4346  1.1066  0.1090
 2259TIP3    H2 6742   3.068   1.082   2.522  1.0032  0.2146 -0.6449
 2260TIP3   OH2 6743   6.198   1.959   3.906 -0.0977 -0.1699  0.0101
 2260TIP3    H1 6744   6.109   1.980   3.935 -0.0109 -0.4069  0.4473
 2260TIP3    H2 6745   6.252   2.030   3.940 -0.2036  0.2957 -0.7650
 2261TIP3   OH2 6746   3.738   6.220   1.328 -0.1854 -0.4512  0.3871
 2261TIP3    H1 6747   3.685   6.141   1.340  0.3233 -0.6906  1.1177
 2261TIP3    H2 6748   3.820   6.202   1.374  0.0800  0.3674  0.2623
 2262TIP3   OH2 6749   0.578   2.228   1.808 -0.5697  0.6666  0.6834
 2262TIP3    H1 6750   0.653   2.181   1.771  0.0488  0.0804  2.5972
 2262TIP3    H2 6751   0.591   2.224   1.902 -1.4973  3.1069  0.9706
 2263TIP3   OH2 6752   6.761   4.176   4.221 -0.0370 -0.1721  0.5287
 2263TIP3    H1 6753   6.799   4.260   4.195 -0.4251  0.0859  0.7793
 2263TIP3    H2 6754   6.670   4.197   4.245 -0.5816 -0.8919 -0.7717
 2264TIP3   OH2 6755   7.037   5.631   4.352 -0.2622  0.0758  0.3697
 2264TIP3    H1 6756   7.005   5.619   4.442  0.6763 -0.8692  0.6131
 2264TIP3    H2 6757   7.030   5.725   4.336 -1.1101  0.1639  1.1732
 2265TIP3   OH2 6758   0.512   2.288   4.994 -0.5949 -0.2340  0.4485
 2265TIP3    H1 6759   0.427   2.244   4.991 -0.4433 -0.5633  0.9026
 2265TIP3    H2 6760   0.492   2.379   4.973 -0.8718 -0.5543 -0.7332
 2266TIP3   OH2 6761   1.374   2.425   2.309 -0.4177  0.1145  0.3831
 2266TIP3    H1 6762   1.336   2.487   2.371 -0.6783 -0.2880  0.6274
 2266TIP3    H2 6763   1.465   2.418   2.336  0.0909  1.7422 -0.7260
 2267TIP3   OH2 6764   4.461   6.722   3.508 -0.1962  0.2221  0.3494
 2267TIP3    H1 6765   4.484   6.792   3.448 -0.1118  0.3902  0.5770
 2267TIP3    H2 6766   4.476   6.758   3.595  1.0318 -0.4802  0.4454
 2268TIP3   OH2 6767   7.186   0.043   0.168  0.7375  1.0218  0.1878
 2268TIP3    H1 6768   7.109   0.006   0.125  0.8989  1.4780 -0.5249
 2268TIP3    H2 6769   7.260  -0.002   0.127  0.8275 -0.6978  2.1113
 2269TIP3   OH2 6770   5.836   2.403   3.384 -0.5886 -0.4962 -0.2998
 2269TIP3    H1 6771   5.763   2.465   3.378 -0.6973 -0.6425 -0.4725
 2269TIP3    H2 6772   5.866   2.393   3.294 -1.9521 -2.3627 -0.6065
 2270TIP3   OH2 6773   0.444   4.690   5.562 -0.1960 -0.3644  0.2199
 2270TIP3    H1 6774   0.375   4.635   5.598 -0.8542  0.8258  0.8429
 2270TIP3    H2 6775   0.523   4.666   5.611 -1.1028  1.3621  2.7546
 2271TIP3   OH2 6776   1.729   5.770   4.259  0.1598  0.2523  0.0371
 2271TIP3    H1 6777   1.686   5.825   4.325 -1.0485  0.8232 -1.1740
 2271TIP3    H2 6778   1.812   5.745   4.300 -0.6735  0.2993  1.9000
 2272TIP3   OH2 6779   3.603   3.640   5.101  0.1126  0.4165 -0.0510
 2272TIP3    H1 6780   3.610   3.629   5.006 -0.2216 -0.3620  0.0078
 2272TIP3    H2 6781   3.548   3.717   5.112 -1.1049 -0.3503 -0.5084
 2273TIP3   OH2 6782   6.120   3.080   4.666  0.2247 -0.2251  0.3505
 2273TIP3    H1 6783   6.111   3.161   4.616  1.0048 -0.7761 -0.7229
 2273TIP3    H2 6784   6.049   3.083   4.730 -0.4654  0.7729 -0.4325
 2274TIP3   OH2 6785   3.823   3.479   4.715 -0.1443  0.3401  0.0736
 2274TIP3    H1 6786   3.748   3.491   4.657 -1.3319 -0.1202  1.4529
 2274TIP3    H2 6787   3.835   3.384   4.719 -0.6097  0.3134  1.1952
 2275TIP3   OH2 6788   3.386   6.189   0.490 -0.0009  0.0232  0.3521
 2275TIP3    H1 6789   3.424   6.101   0.480 -1.0735 -0.6267  1.6109
 2275TIP3    H2 6790   3.386   6.226   0.402  0.7765 -1.1195 -0.1452
 2276TIP3   OH2 6791   2.117   5.543   5.775  0.4680  0.0178 -0.5981
 2276TIP3    H1 6792   2.059   5.568   5.703 -2.0128  0.3665  1.3881
 2276TIP3    H2 6793   2.170   5.621   5.791  1.1562 -0.1042 -2.0615
 2277TIP3   OH2 6794   6.032   0.646   2.460 -0.2507 -0.3171  0.0556
 2277TIP3    H1 6795   6.097   0.631   2.392 -1.3858 -0.5106 -1.0332
 2277TIP3    H2 6796   5.951   0.666   2.412 -1.2835 -1.2524  1.3140
 2278TIP3   OH2 6797   4.503   1.732   1.806  0.3057  0.0817  0.4763
 2278TIP3    H1 6798   4.489   1.758   1.716  2.4902  0.4307  0.1795
 2278TIP3    H2 6799   4.483   1.810   1.858 -0.9984 -0.1358  0.3365
 2279TIP3   OH2 6800   2.205   4.366   1.195  0.0474 -0.2799 -0.1629
 2279TIP3    H1 6801   2.240   4.284   1.228 -1.2817 -0.0891  1.8637
 2279TIP3    H2 6802   2.112   4.349   1.180 -0.1276  0.6809 -0.2675
 2280TIP3   OH2 6803   4.252   3.735   0.334 -0.2472 -0.2630 -0.2763
 2280TIP3    H1 6804   4.285   3.681   0.406  2.8380  0.6100 -0.8579
 2280TIP3    H2 6805   4.201   3.804   0.376 -0.2189 -0.9290  0.8726
 2281TIP3   OH2 6806   6.902   6.039   3.795 -0.0240 -0.0803  0.4060
 2281TIP3    H1 6807   6.932   5.948   3.802 -0.7174 -0.4595 -1.1659
 2281TIP3    H2 6808   6.949   6.074   3.719 -0.4038  0.6265  0.4914
 2282TIP3   OH2 6809   4.909   1.048   0.163 -0.3498 -0.2758 -0.1733
 2282TIP3    H1 6810   4.950   0.962   0.165  0.5050  0.0590  2.8016
 2282TIP3    H2 6811   4.972   1.104   0.119  0.2138 -0.7134  0.0594
 2283TIP3   OH2 6812   6.927   2.936   1.245  0.2654 -0.2638 -0.3937
 2283TIP3    H1 6813   6.929   2.972   1.334  0.1788 -1.2959  0.0345
 2283TIP3    H2 6814   6.975   3.000   1.193 -0.6636  0.9477  0.1700
 2284TIP3   OH2 6815   5.280   2.734   3.708  0.3857  0.0185  0.5301
 2284TIP3    H1 6816   5.339   2.770   3.642 -0.2472  0.8007  0.3784
 2284TIP3    H2 6817   5.254   2.649   3.673  2.0132 -0.6985  0.9626
 2285TIP3   OH2 6818   5.465   5.051   0.838 -0.5347 -0.1916  0.1316
 2285TIP3    H1 6819   5.506   4.979   0.885 -0.3981 -1.1453 -1.3714
 2285TIP3    H2 6820   5.416   5.099   0.905  2.2250  0.4687  1.8453
 2286TIP3   OH2 6821   2.124   4.567   1.892 -0.1054 -0.3886  0.5713
 2286TIP3    H1 6822   2.051   4.535   1.839 -0.9608  0.0555  1.4553
 2286TIP3    H2 6823   2.086   4.586   1.977  0.6907  1.4279  0.5702
 2287TIP3   OH2 6824   6.342   4.607   2.347  0.6083 -0.0740 -0.4991
 2287TIP3    H1 6825   6.287   4.581   2.420 -0.4873  1.4110 -0.7486
 2287TIP3    H2 6826   6.429   4.621   2.385  0.1785  0.1497  0.4044
 2288TIP3   OH2 6827   0.455   1.527   1.396 -0.0274 -0.0599 -0.4110
 2288TIP3    H1 6828   0.407   1.586   1.454  0.2040 -1.9019  1.7799
 2288TIP3    H2 6829   0.547   1.551   1.408 -0.0714  0.6319 -1.3264
 2289TIP3   OH2 6830   2.778   5.237   4.516  0.0274  0.5383  0.2744
 2289TIP3    H1 6831   2.863   5.210   4.482 -0.4401 -0.9045  0.1959
 2289TIP3    H2 6832   2.767   5.186   4.597 -1.9175 -1.4058 -1.1079
 2290TIP3   OH2 6833   4.182   4.858   4.580  0.0504 -0.2558  0.6000
 2290TIP3    H1 6834   4.125   4.933   4.562 -0.2086 -0.5406  0.2078
 2290TIP3    H2 6835   4.209   4.827   4.493  0.8271 -0.1077  0.7849
 2291TIP3   OH2 6836   0.089   6.393   1.526  0.2211 -0.2833  0.5004
 2291TIP3    H1 6837   0.161   6.418   1.469 -0.8228  2.7817  0.3317
 2291TIP3    H2 6838   0.128   6.388   1.613  0.5654  2.3582  0.5815
 2292TIP3   OH2 6839   3.337   3.815   1.457 -0.4211 -0.0082 -0.7298
 2292TIP3    H1 6840   3.282   3.818   1.535  0.3480  0.6280 -0.1964
 2292TIP3    H2 6841   3.369   3.725   1.455 -0.5779 -0.0746 -0.4000
 2293TIP3   OH2 6842   5.465   1.418   2.647  0.2499 -0.1531 -0.3082
 2293TIP3    H1 6843   5.526   1.391   2.579  0.4204 -0.1987 -0.1384
 2293TIP3    H2 6844   5.493   1.507   2.670  2.3390 -1.2837  2.0610
 2294TIP3   OH2 6845   4.637   2.870   1.257  0.1006  0.2699 -0.9534
 2294TIP3    H1 6846   4.683   2.939   1.210  1.4726  0.0172 -0.0261
 2294TIP3    H2 6847   4.697   2.843   1.326 -0.1029 -2.3257 -1.6949
 2295TIP3   OH2 6848   5.399   6.573   1.093  0.3410  0.5939  0.4529
 2295TIP3    H1 6849   5.412   6.502   1.156  1.8732  0.8658  0.4885
 2295TIP3    H2 6850   5.410   6.653   1.144 -1.6999  0.9158  0.4794
 2296TIP3   OH2 6851   2.448   1.491   5.355  0.9325  0.5164 -0.0932
 2296TIP3    H1 6852   2.437   1.426   5.286 -0.0462  0.4845  0.0871
 2296TIP3    H2 6853   2.403   1.454   5.431  0.7965  1.1810  0.1573
 2297TIP3   OH2 6854   4.972   1.358   5.684 -0.3678  0.2071 -0.3641
 2297TIP3    H1 6855   4.910   1.414   5.730  0.1311 -0.1490  0.7923
 2297TIP3    H2 6856   4.926   1.275   5.672  0.0195 -0.2276  0.9497
 2298TIP3   OH2 6857   5.308   3.628   5.475  0.7701 -0.2459 -0.1691
 2298TIP3    H1 6858   5.221   3.663   5.489  0.8657  0.0783 -0.3691
 2298TIP3    H2 6859   5.360   3.703   5.446  1.3614 -0.2151  0.9008
 2299TIP3   OH2 6860   6.655   3.620   2.368  0.3867  0.1873  0.2379
 2299TIP3    H1 6861   6.635   3.714   2.365  0.5615  0.2205  0.0651
 2299TIP3    H2 6862   6.738   3.616   2.416 -0.0089  0.0546  0.9303
 2300TIP3   OH2 6863   4.801   3.281   5.724 -0.1136 -0.3217  0.3747
 2300TIP3    H1 6864   4.834   3.192   5.720 -2.0525 -1.0866  0.3904
 2300TIP3    H2 6865   4.797   3.309   5.633 -1.8093 -1.2060  0.1271
 2301TIP3   OH2 6866   2.636   2.330   1.810 -0.0887 -0.2085 -0.3145
 2301TIP3    H1 6867   2.703   2.334   1.742 -0.2270  0.4015 -0.4215
 2301TIP3    H2 6868   2.556   2.361   1.767  0.0020  1.0006  0.3355
 2302TIP3   OH2 6869   4.537   6.382   5.714  0.2453  1.1278  0.2628
 2302TIP3    H1 6870   4.577   6.455   5.759  0.7833  1.4143 -0.6550
 2302TIP3    H2 6871   4.446   6.409   5.700 -0.0184  0.8994  1.4344
 2303TIP3   OH2 6872   5.229   0.715   2.438 -0.6450 -0.0813  0.2037
 2303TIP3    H1 6873   5.255   0.685   2.350  0.0262 -0.6021  0.5725
 2303TIP3    H2 6874   5.303   0.692   2.494 -1.1828  0.0038  0.9644
 2304TIP3   OH2 6875   6.203   5.229   2.777 -0.0094 -0.0101  0.1025
 2304TIP3    H1 6876   6.171   5.268   2.858  0.5916  1.2968 -0.2629
 2304TIP3    H2 6877   6.289   5.269   2.762 -0.0755 -0.2665 -1.1308
 2305TIP3   OH2 6878   4.801   1.051   3.308  0.0165 -0.1826  0.0371
 2305TIP3    H1 6879   4.855   1.014   3.378  1.0753 -0.2691 -0.8050
 2305TIP3    H2 6880   4.712   1.021   3.328  0.7503 -2.8682 -0.3841
 2306TIP3   OH2 6881   6.555   3.003   2.884 -0.5119 -0.0994  0.6672
 2306TIP3    H1 6882   6.610   2.969   2.814  0.5928  0.7432  1.0880
 2306TIP3    H2 6883   6.533   3.092   2.856 -1.3990 -0.3181  0.6557
 2307TIP3   OH2 6884   5.032   0.096   3.174 -0.1330 -0.0177  0.3283
 2307TIP3    H1 6885   5.121   0.065   3.189 -0.2974 -1.1275 -0.8070
 2307TIP3    H2 6886   5.033   0.187   3.202  1.5788  0.2170 -0.3863
 2308TIP3   OH2 6887   5.007   0.543   0.219  0.1844 -0.2965  0.6416
 2308TIP3    H1 6888   5.012   0.449   0.201  0.7037 -0.0749 -0.4139
 2308TIP3    H2 6889   4.981   0.548   0.311 -2.0121 -1.4661  0.1564
 2309TIP3   OH2 6890   6.953   5.534   0.036 -0.3615 -0.1600 -0.2043
 2309TIP3    H1 6891   6.978   5.601  -0.028 -0.3786 -0.9965 -1.1165
 2309TIP3    H2 6892   6.899   5.580   0.099 -0.9318  0.5526 -1.1834
 2310TIP3   OH2 6893   5.312   0.590   3.158  1.2838 -0.3544  0.6958
 2310TIP3    H1 6894   5.249   0.525   3.127  0.3404  0.7771  0.1400
 2310TIP3    H2 6895   5.294   0.598   3.252 -1.0157  1.5396  0.2036
 2311TIP3   OH2 6896   0.791   2.203   3.805  0.0315  0.0307 -0.0758
 2311TIP3    H1 6897   0.783   2.241   3.892 -3.3368  2.7976 -1.3503
 2311TIP3    H2 6898   0.844   2.266   3.756 -0.5323  0.0119 -0.7263
 2312TIP3   OH2 6899   5.239   4.286   5.706 -0.2584  0.3933 -0.3873
 2312TIP3    H1 6900   5.167   4.230   5.677 -0.8650  0.6424  0.5673
 2312TIP3    H2 6901   5.233   4.364   5.651  0.9274 -0.6726 -2.0994
 2313TIP3   OH2 6902   6.727   2.130   5.561 -0.0423 -0.3030 -0.1907
 2313TIP3    H1 6903   6.799   2.179   5.601 -3.0861  3.7696  1.0668
 2313TIP3    H2 6904   6.702   2.182   5.484 -1.2571 -1.9319 -0.9676
 2314TIP3   OH2 6905   7.214   5.600   4.010 -0.3905 -0.2770  0.4653
 2314TIP3    H1 6906   7.135   5.547   3.997  0.0118 -0.7202 -0.2614
 2314TIP3    H2 6907   7.197   5.650   4.090 -1.8503  0.4565 -0.2857
 2315TIP3   OH2 6908   6.787   5.042   2.561 -0.2657 -0.6910 -0.2106
 2315TIP3    H1 6909   6.784   5.104   2.488 -1.2601  0.5962  0.8754
 2315TIP3    H2 6910   6.704   4.994   2.555 -0.9903  0.3790  0.8421
 2316TIP3   OH2 6911   4.106   5.226   3.180  0.3339 -0.2603 -0.1344
 2316TIP3    H1 6912   4.164   5.214   3.255 -0.5233  0.2054  0.6278
 2316TIP3    H2 6913   4.093   5.139   3.144  0.8547 -0.4699  0.1884
 2317TIP3   OH2 6914   2.138   3.215   1.600  0.5523 -0.8512 -0.9168
 2317TIP3    H1 6915   2.084   3.238   1.676 -0.0768 -1.9480 -1.0029
 2317TIP3    H2 6916   2.090   3.250   1.526  0.5588 -0.7986 -0.8960
 2318TIP3   OH2 6917   0.186   4.703   5.698 -0.0747 -0.1391 -0.1726
 2318TIP3    H1 6918   0.120   4.686   5.765  0.6365 -0.7248  0.4026
 2318TIP3    H2 6919   0.252   4.757   5.743 -0.8625  1.7267 -1.1545
 2319TIP3   OH2 6920   3.594   3.072   4.193  0.6003  0.2212  0.2427
 2319TIP3    H1 6921   3.676   3.109   4.161 -0.2533  0.6323 -1.5744
 2319TIP3    H2 6922   3.534   3.078   4.119 -1.2179  0.3322  1.6543
 2320TIP3   OH2 6923   2.503   2.744   1.001  0.5213 -0.2448 -0.3032
 2320TIP3    H1 6924   2.512   2.660   1.046 -0.6657 -0.7999 -1.0602
 2320TIP3    H2 6925   2.416   2.776   1.027 -0.3817 -0.7802 -2.4731
 2321TIP3   OH2 6926   2.731   5.238   0.646  0.2795  0.3906 -0.0803
 2321TIP3    H1 6927   2.719   5.144   0.638 -0.6348  0.4823  0.1649
 2321TIP3    H2 6928   2.655   5.276   0.601 -0.2888  0.9845  1.3290
 2322TIP3   OH2 6929   6.996   3.818   0.397  0.2306 -0.1450  0.1818
 2322TIP3    H1 6930   7.033   3.731   0.411  0.1653 -0.0631  0.9014
 2322TIP3    H2 6931   6.913   3.802   0.352  1.0477 -0.3391 -1.2849
 2323TIP3   OH2 6932   6.323   6.118   1.611 -0.0177  0.1406  0.2272
 2323TIP3    H1 6933   6.408   6.122   1.568 -0.1355  0.6484  0.0295
 2323TIP3    H2 6934   6.339   6.070   1.692  0.0869 -1.3052 -0.6279
 2324TIP3   OH2 6935   1.449   2.910   0.327 -0.0596 -0.3894  0.1548
 2324TIP3    H1 6936   1.481   2.821   0.341 -1.0726 -0.8767 -0.4718
 2324TIP3    H2 6937   1.354   2.900   0.323 -0.3312  0.9627  1.7741
 2325TIP3   OH2 6938   6.861   1.700   0.174 -0.0347 -0.3632 -0.4262
 2325TIP3    H1 6939   6.861   1.718   0.268  0.8314  0.3442 -0.5488
 2325TIP3    H2 6940   6.906   1.616   0.166 -1.5246 -1.2336 -0.0951
 2326TIP3   OH2 6941   4.137   1.574   5.532 -0.4673  0.6119 -0.4699
 2326TIP3    H1 6942   4.165   1.662   5.558 -0.2677  0.3725  0.1409
 2326TIP3    H2 6943   4.190   1.555   5.454  0.3569  0.5714  0.0820
 2327TIP3   OH2 6944   0.322   5.258   5.416 -0.1012  0.2201  0.3875
 2327TIP3    H1 6945   0.416   5.245   5.405 -0.0799 -0.7295  1.4270
 2327TIP3    H2 6946   0.286   5.169   5.418 -0.9626  0.5584  0.4477
 2328TIP3   OH2 6947   4.352   1.201   2.285 -0.4736 -0.1649 -0.2406
 2328TIP3    H1 6948   4.317   1.223   2.372 -0.6412 -1.2372 -0.0229
 2328TIP3    H2 6949   4.284   1.229   2.224 -2.1310 -2.8030  0.2085
 2329TIP3   OH2 6950   2.428   4.483   4.687 -0.1499 -0.3974 -0.3493
 2329TIP3    H1 6951   2.419   4.532   4.606  0.7776  0.1489 -0.1389
 2329TIP3    H2 6952   2.517   4.503   4.718  1.3730 -4.2695 -1.6127
 2330TIP3   OH2 6953   3.639   5.990   0.828  0.1212  0.0403  0.1626
 2330TIP3    H1 6954   3.629   6.008   0.922  2.6144  0.7458  0.3726
 2330TIP3    H2 6955   3.613   6.072   0.786 -2.4217 -0.7430  0.0686
 2331TIP3   OH2 6956   1.121   2.552   1.181  0.1260  0.4229  0.3506
 2331TIP3    H1 6957   1.031   2.522   1.167 -0.0114  0.2963  1.3859
 2331TIP3    H2 6958   1.120   2.644   1.153 -0.2886  0.3790  0.2061
 2332TIP3   OH2 6959   5.126   6.431   1.823  0.3798  0.0155  0.1460
 2332TIP3    H1 6960   5.214   6.400   1.801  2.2045  2.8395  2.5697
 2332TIP3    H2 6961   5.122   6.424   1.918 -1.9751  0.2042  0.1133
 2333TIP3   OH2 6962   1.003   2.825   3.190  0.4182  0.1377  0.2328
 2333TIP3    H1 6963   1.048   2.755   3.143  1.1688  1.3792 -0.9888
 2333TIP3    H2 6964   1.053   2.837   3.270  1.4846  0.5760 -0.4759
 2334TIP3   OH2 6965   5.658   2.610   3.020 -0.3035 -0.1196 -0.0621
 2334TIP3    H1 6966   5.629   2.619   2.930 -0.6308 -1.2286 -0.0850
 2334TIP3    H2 6967   5.681   2.699   3.047 -1.3903  0.4121 -0.8287
 2335TIP3   OH2 6968   5.099   5.092   3.654 -0.9315  0.1232 -0.4971
 2335TIP3    H1 6969   5.185   5.050   3.668 -1.4239 -1.1990 -1.2919
 2335TIP3    H2 6970   5.099   5.116   3.562 -0.7227  1.8242 -0.0962
 2336TIP3   OH2 6971   4.947   3.036   3.059 -0.2629  0.3034 -0.1469
 2336TIP3    H1 6972   4.972   3.113   3.111  1.2432 -0.7523  0.7625
 2336TIP3    H2 6973   4.860   3.013   3.091 -0.1145  0.7742  0.6300
 2337TIP3   OH2 6974   3.978   3.356   5.634 -0.9336 -0.2115 -0.2121
 2337TIP3    H1 6975   3.900   3.412   5.626 -0.8585 -0.0092  0.4453
 2337TIP3    H2 6976   3.973   3.298   5.558 -0.7006  1.0680 -1.2466
 2338TIP3   OH2 6977   6.672   6.190   3.835  0.0730 -0.4036  0.2209
 2338TIP3    H1 6978   6.737   6.122   3.818  0.8155  0.1696  0.7296
 2338TIP3    H2 6979   6.651   6.181   3.928  0.1319  0.0244  0.2775
 2339TIP3   OH2 6980   1.265   2.433   0.900 -0.1623 -0.2673  0.6008
 2339TIP3    H1 6981   1.217   2.508   0.934  0.6238 -0.0443  1.2373
 2339TIP3    H2 6982   1.270   2.372   0.974  1.3692  0.1320  0.8715
 2340TIP3   OH2 6983   3.399   6.002   1.566  0.0739  0.1516 -0.0839
 2340TIP3    H1 6984   3.353   5.922   1.590  1.2356 -0.5364 -0.0909
 2340TIP3    H2 6985   3.352   6.071   1.613  0.1528 -0.7412  1.3634
 2341TIP3   OH2 6986   3.099   3.019   0.779 -0.1529 -0.3824  0.2363
 2341TIP3    H1 6987   3.008   3.014   0.750  0.2000 -0.1318 -0.9601
 2341TIP3    H2 6988   3.146   2.957   0.723  0.2732 -1.2647  1.5156
 2342TIP3   OH2 6989   4.564   0.098   3.778  0.0736  0.3396  0.5856
 2342TIP3    H1 6990   4.523   0.033   3.835  0.7496 -0.9573 -0.3508
 2342TIP3    H2 6991   4.500   0.169   3.773  0.4754  1.1171  3.9111
 2343TIP3   OH2 6992   5.632   4.999   3.922  0.5041 -0.0223  0.4884
 2343TIP3    H1 6993   5.669   4.929   3.975 -0.7544 -0.9850  0.1364
 2343TIP3    H2 6994   5.554   5.028   3.971  0.4959  0.5054  0.1743
 2344TIP3   OH2 6995   0.319   0.711   4.973  0.0162 -0.0637 -0.3562
 2344TIP3    H1 6996   0.252   0.698   5.040 -0.6279 -3.4945 -1.4303
 2344TIP3    H2 6997   0.401   0.689   5.018 -0.2788 -1.2548 -0.3644
 2345TIP3   OH2 6998   5.756   3.006   2.871  0.0324  0.0845 -0.2766
 2345TIP3    H1 6999   5.783   2.915   2.861  0.7711  0.2287  0.2733
 2345TIP3    H2 7000   5.831   3.048   2.913 -0.6780  0.7372  0.3567
 2346TIP3   OH2 7001   3.381   3.344   2.469  0.3051 -0.0542 -0.2249
 2346TIP3    H1 7002   3.361   3.280   2.538 -1.4835  0.7564  0.0817
 2346TIP3    H2 7003   3.476   3.350   2.469  0.5302 -2.5252 -0.1145
 2347TIP3   OH2 7004   0.359   6.132   1.543  0.1653 -0.7312  0.4736
 2347TIP3    H1 7005   0.443   6.121   1.499 -0.8387  0.6170 -1.9640
 2347TIP3    H2 7006   0.298   6.158   1.474 -1.6758  0.9458  2.5466
 2348TIP3   OH2 7007   6.903   4.069   2.415 -0.2201 -0.2614  0.6654
 2348TIP3    H1 7008   6.902   3.978   2.445 -3.0762 -0.6896 -0.3979
 2348TIP3    H2 7009   6.864   4.118   2.487 -1.5966 -0.4067  0.0549
 2349TIP3   OH2 7010   4.195   1.104   0.970 -0.5583 -0.4855 -0.2645
 2349TIP3    H1 7011   4.263   1.087   0.905 -0.1550  0.3092 -0.0630
 2349TIP3    H2 7012   4.236   1.081   1.054 -0.5647 -0.0765 -0.1495
 2350TIP3   OH2 7013   5.207   0.162   4.647  0.0040 -0.2162  0.0006
 2350TIP3    H1 7014   5.182   0.070   4.644  2.2285 -0.8809 -0.4501
 2350TIP3    H2 7015   5.301   0.160   4.668  0.0442  1.9663  0.2578
 2351TIP3   OH2 7016   2.983   0.848   0.410 -0.1186  0.4827 -0.0467
 2351TIP3    H1 7017   2.931   0.927   0.426 -0.1971  0.3507  0.3513
 2351TIP3    H2 7018   3.037   0.838   0.488  0.5048  0.6118 -0.4537
 2352TIP3   OH2 7019   3.075   2.940   3.777  0.8723  0.5179 -0.3980
 2352TIP3    H1 7020   3.121   2.858   3.794 -2.1301 -1.1131  0.5369
 2352TIP3    H2 7021   3.021   2.922   3.700 -2.0003  0.5277  1.4752
 2353TIP3   OH2 7022   0.375   6.646   0.955  0.5918 -0.4883 -0.1293
 2353TIP3    H1 7023   0.399   6.643   0.862 -1.4525 -0.2504 -0.7020
 2353TIP3    H2 7024   0.437   6.586   0.997  1.9439 -0.1528 -1.5338
 2354TIP3   OH2 7025   3.630   0.030   2.539  0.2824 -0.1191 -0.5328
 2354TIP3    H1 7026   3.704   0.047   2.597 -0.5388  0.8763  0.2657
 2354TIP3    H2 7027   3.553   0.055   2.590 -0.5846 -0.8054 -1.4641
 2355TIP3   OH2 7028   5.447   6.528   2.018 -0.7540  0.5622 -0.2459
 2355TIP3    H1 7029   5.354   6.549   2.023 -0.8309  0.1633  0.0324
 2355TIP3    H2 7030   5.454   6.440   2.054  0.1513  1.7642  2.8404
 2356TIP3   OH2 7031   3.035   6.085   2.260 -0.2372 -0.4521 -0.6693
 2356TIP3    H1 7032   2.979   6.124   2.327  0.4632 -0.3281 -0.1360
 2356TIP3    H2 7033   3.046   5.994   2.287  0.1466 -0.3707 -0.5477
 2357TIP3   OH2 7034   4.721   5.089   3.804 -0.3103  0.2134  0.2649
 2357TIP3    H1 7035   4.804   5.048   3.830  0.3697  2.0524  1.1911
 2357TIP3    H2 7036   4.724   5.176   3.844 -1.4801  1.3538 -1.9247
 2358TIP3   OH2 7037   4.117   5.280   2.904  0.8241 -0.0969 -0.3557
 2358TIP3    H1 7038   4.116   5.287   2.999  0.6308 -0.9916 -0.2887
 2358TIP3    H2 7039   4.100   5.369   2.873  0.4846  0.1212  0.4466
 2359TIP3   OH2 7040   5.693   1.692   3.086  0.2903  0.1562  0.1350
 2359TIP3    H1 7041   5.679   1.786   3.085 -1.3926 -0.0654 -0.6592
 2359TIP3    H2 7042   5.775   1.680   3.134  0.6139  2.0190  0.1038
 2360TIP3   OH2 7043   6.943   4.012   5.177 -0.2658  0.2806 -0.4293
 2360TIP3    H1 7044   7.020   4.037   5.127 -0.2018  1.0806  0.0470
 2360TIP3    H2 7045   6.943   4.070   5.253 -1.3169  0.2765 -0.4015
 2361TIP3   OH2 7046   4.218   1.198   3.445  0.3108  0.5838 -0.6760
 2361TIP3    H1 7047   4.265   1.159   3.371  0.4868 -0.3882 -0.0782
 2361TIP3    H2 7048   4.266   1.278   3.465 -0.0432  1.1277 -1.9322
 2362TIP3   OH2 7049   5.085   2.598   4.151  0.1071 -0.1109  0.1334
 2362TIP3    H1 7050   5.146   2.603   4.078  1.3154  1.5701  1.1816
 2362TIP3    H2 7051   5.075   2.689   4.181 -4.0602 -0.0128 -0.8507
 2363TIP3   OH2 7052   7.187   3.783   2.989 -0.2512 -0.2461  0.5015
 2363TIP3    H1 7053   7.255   3.850   2.991 -0.4413 -0.0630  1.0607
 2363TIP3    H2 7054   7.107   3.828   3.016 -0.9958 -0.0300 -1.8770
 2364TIP3   OH2 7055   2.432   0.184   4.477 -0.5858 -0.0986  0.2580
 2364TIP3    H1 7056   2.348   0.221   4.503 -0.6680  1.2656 -1.7425
 2364TIP3    H2 7057   2.487   0.260   4.459  0.6118 -0.9745  0.1230
 2365TIP3   OH2 7058   1.042   4.107   0.574 -0.0437 -0.0149  0.0812
 2365TIP3    H1 7059   1.060   4.177   0.638  1.5406  0.6806 -1.0646
 2365TIP3    H2 7060   1.038   4.027   0.626  0.0773  0.6839  1.1931
 2366TIP3   OH2 7061   5.329   3.307   1.700 -0.1849  0.4516 -0.6627
 2366TIP3    H1 7062   5.247   3.271   1.665  0.8828 -4.3107  0.8978
 2366TIP3    H2 7063   5.368   3.353   1.626 -2.1152 -1.2848 -2.9468
 2367TIP3   OH2 7064   3.887   0.671   1.647 -0.2157  0.1242 -0.3045
 2367TIP3    H1 7065   3.954   0.619   1.693  0.3331  1.1511  0.0817
 2367TIP3    H2 7066   3.805   0.623   1.662  0.1141 -0.0917  0.9276
 2368TIP3   OH2 7067   5.096   6.479   3.012  0.7807 -0.1453 -0.4163
 2368TIP3    H1 7068   5.075   6.571   3.031 -4.5968 -1.1773  0.1105
 2368TIP3    H2 7069   5.077   6.469   2.919  1.0903 -0.8062 -0.4099
 2369TIP3   OH2 7070   5.344   1.280   0.460 -0.6562 -0.1362  0.0695
 2369TIP3    H1 7071   5.295   1.198   0.453 -0.2525 -0.4816  1.2024
 2369TIP3    H2 7072   5.435   1.255   0.446 -0.5576  0.1638  0.1637
 2370TIP3   OH2 7073   4.769   2.682   0.874  0.1249  0.2627  0.1257
 2370TIP3    H1 7074   4.851   2.729   0.885 -0.6424  1.8143 -0.4497
 2370TIP3    H2 7075   4.790   2.611   0.812  0.6838  1.6558 -1.3468
 2371TIP3   OH2 7076   2.159   6.062   0.516  0.3549  0.3669 -0.6937
 2371TIP3    H1 7077   2.122   5.976   0.495 -0.6552  0.5782  0.1169
 2371TIP3    H2 7078   2.147   6.070   0.610  1.9804  0.7086 -0.4975
 2372TIP3   OH2 7079   0.383   1.602   2.676  0.3395  0.0563 -0.0674
 2372TIP3    H1 7080   0.409   1.694   2.684  1.1816 -0.2667  1.3239
 2372TIP3    H2 7081   0.454   1.554   2.719 -0.5999 -1.1702  0.1520
 2373TIP3   OH2 7082   0.533   1.493   3.100 -0.6532 -0.3059  0.0518
 2373TIP3    H1 7083   0.625   1.522   3.103  0.3593 -3.0358 -1.1366
 2373TIP3    H2 7084   0.525   1.435   3.176 -1.7875  0.7678  0.7872
 2374TIP3   OH2 7085   1.306   0.516   4.239 -0.4233  0.3455 -0.5243
 2374TIP3    H1 7086   1.309   0.448   4.307  1.7625 -1.3573 -2.1949
 2374TIP3    H2 7087   1.331   0.596   4.285  0.5585 -0.6760  0.8117
 2375TIP3   OH2 7088   0.182   6.070   3.709  0.3187 -0.4610  0.0182
 2375TIP3    H1 7089   0.187   6.119   3.628 -0.0562 -1.1776 -0.4503
 2375TIP3    H2 7090   0.258   6.099   3.760 -0.0989  0.8700 -0.0744
 2376TIP3   OH2 7091   0.227   6.156   1.309 -0.3046  0.1679 -0.4170
 2376TIP3    H1 7092   0.256   6.223   1.249 -1.2775  1.4689  0.5015
 2376TIP3    H2 7093   0.197   6.084   1.253  1.3291  0.2097 -1.3987
 2377TIP3   OH2 7094   4.241   0.052   5.817 -0.2596 -0.6164 -0.3977
 2377TIP3    H1 7095   4.305  -0.016   5.839 -0.5896 -1.2881 -1.4611
 2377TIP3    H2 7096   4.285   0.107   5.752 -0.5688 -0.7703 -0.7389
 2378TIP3   OH2 7097   6.057   5.987   4.582  0.5656 -0.4346  0.0725
 2378TIP3    H1 7098   6.010   5.982   4.499  1.3125 -0.6905 -0.3478
 2378TIP3    H2 7099   5.989   5.989   4.648 -0.0366 -0.9835 -0.5153
 2379TIP3   OH2 7100   3.461   3.834   4.605 -0.1855 -0.6534 -0.3317
 2379TIP3    H1 7101   3.414   3.916   4.592  0.1132 -0.0696  1.9749
 2379TIP3    H2 7102   3.430   3.801   4.689  2.8234 -0.7220  0.8554
 2380TIP3   OH2 7103   6.920   6.739   0.899 -0.2230 -0.6696  0.2469
 2380TIP3    H1 7104   6.907   6.813   0.840 -0.9745 -0.0001  1.2134
 2380TIP3    H2 7105   6.838   6.691   0.896  0.1023 -1.2110 -0.0322
 2381TIP3   OH2 7106   7.045   4.678   0.773 -0.3936  0.0555  0.3604
 2381TIP3    H1 7107   7.079   4.593   0.745  0.0298  0.3272  0.0629
 2381TIP3    H2 7108   7.113   4.741   0.751 -1.4082  0.7337 -1.0257
 2382TIP3   OH2 7109   4.900   0.504   4.793  0.7029  0.6510  0.1999
 2382TIP3    H1 7110   4.934   0.512   4.882  0.1423 -0.5040  0.5498
 2382TIP3    H2 7111   4.806   0.523   4.802  0.8565  1.7138 -0.3660
 2383TIP3   OH2 7112   0.914   1.529   5.380 -0.5303 -0.2601  0.3956
 2383TIP3    H1 7113   0.836   1.490   5.419 -0.5940 -0.3092  0.2218
 2383TIP3    H2 7114   0.982   1.520   5.446 -0.7702  0.1313  0.7032
 2384TIP3   OH2 7115   4.633   6.527   0.629 -0.1728  0.0243 -0.5283
 2384TIP3    H1 7116   4.563   6.468   0.602 -0.3624 -0.1985  0.4073
 2384TIP3    H2 7117   4.594   6.614   0.630 -0.3399 -0.0538 -0.3399
 2385TIP3   OH2 7118   6.177   4.822   3.496  0.2112 -1.1473  0.0448
 2385TIP3    H1 7119   6.249   4.768   3.531  2.2001  0.0119 -1.9589
 2385TIP3    H2 7120   6.200   4.833   3.404 -2.1118  0.0698 -0.4367
 2386TIP3   OH2 7121   1.699   2.385   3.479  0.4432 -0.1863  0.3568
 2386TIP3    H1 7122   1.688   2.442   3.403 -1.9475 -1.4960 -0.4056
 2386TIP3    H2 7123   1.702   2.297   3.441 -0.3031 -0.8241  1.7302
 2387TIP3   OH2 7124   4.034   4.103   1.157 -0.1553  0.1032  0.1122
 2387TIP3    H1 7125   4.061   4.093   1.066 -0.7855  0.4512 -0.1173
 2387TIP3    H2 7126   4.003   4.194   1.163  2.5275  1.0572  1.3789
 2388TIP3   OH2 7127   0.668   0.141   4.584 -0.4137  0.2474 -0.3519
 2388TIP3    H1 7128   0.635   0.068   4.531 -1.2288  0.7154 -0.5175
 2388TIP3    H2 7129   0.672   0.215   4.523 -0.4295  0.5511  0.0125
 2389TIP3   OH2 7130   0.568   0.434   0.906 -0.2586 -0.2320 -0.3622
 2389TIP3    H1 7131   0.645   0.490   0.894 -1.3044  1.5350  0.6629
 2389TIP3    H2 7132   0.543   0.448   0.998 -1.2244 -1.5627 -0.3977
 2390TIP3   OH2 7133   0.320   0.764   0.633  0.7121  0.7385  0.0656
 2390TIP3    H1 7134   0.412   0.785   0.651  0.4847  1.1206  0.7993
 2390TIP3    H2 7135   0.292   0.709   0.706  0.6112 -0.1620 -0.6296
 2391TIP3   OH2 7136   3.997   5.296   0.020  0.1085  0.6875  0.4810
 2391TIP3    H1 7137   4.038   5.382   0.015  0.1502  0.6089 -1.2663
 2391TIP3    H2 7138   4.045   5.251   0.090  0.9306  1.6498  0.5627
 2392TIP3   OH2 7139   3.587   5.305   1.082  0.2689 -0.3791  0.1710
 2392TIP3    H1 7140   3.664   5.287   1.028  1.0681 -0.4390  1.3056
 2392TIP3    H2 7141   3.570   5.399   1.069  0.1875 -0.4860 -0.5161
 2393TIP3   OH2 7142   6.860   2.883   5.229  0.5576 -0.2263 -0.6083
 2393TIP3    H1 7143   6.955   2.880   5.243  0.7581  1.3195 -1.5132
 2393TIP3    H2 7144   6.823   2.882   5.317  1.4652  0.5132 -0.2035
 2394TIP3   OH2 7145   1.678   1.393   0.150 -0.0660 -0.9869 -0.4561
 2394TIP3    H1 7146   1.693   1.333   0.077 -0.9692 -0.4139 -1.1280
 2394TIP3    H2 7147   1.724   1.473   0.125 -0.7679 -0.6288 -0.6321
 2395TIP3   OH2 7148   0.262   2.120   4.948  0.3509 -0.0059 -0.2619
 2395TIP3    H1 7149   0.204   2.194   4.967 -0.3096 -0.0902 -1.8847
 2395TIP3    H2 7150   0.242   2.056   5.016  0.8812  1.2235  1.1444
 2396TIP3   OH2 7151   5.158   1.638   4.373 -0.1023  0.8153 -0.3946
 2396TIP3    H1 7152   5.124   1.585   4.446 -0.8737  0.6078 -0.8921
 2396TIP3    H2 7153   5.203   1.711   4.416  2.0854 -0.8417  0.3437
 2397TIP3   OH2 7154   3.889   4.651   5.873 -0.3855 -0.6113 -0.3976
 2397TIP3    H1 7155   3.892   4.745   5.890 -1.2181 -0.9201  1.7021
 2397TIP3    H2 7156   3.801   4.635   5.840 -0.6958 -0.8179  0.5030
 2398TIP3   OH2 7157   5.205   2.189   5.785  0.5873  0.4485  0.0156
 2398TIP3    H1 7158   5.186   2.172   5.693 -1.7020 -0.8316  0.6276
 2398TIP3    H2 7159   5.181   2.108   5.830  1.7585  0.9956  1.7491
 2399TIP3   OH2 7160   2.152   3.657   0.502 -0.0799 -0.1534 -0.0628
 2399TIP3    H1 7161   2.209   3.659   0.579  1.5861  0.6680 -1.2650
 2399TIP3    H2 7162   2.136   3.563   0.487 -0.0910 -0.3392  1.0237
 2400TIP3   OH2 7163   3.848   3.775   4.003 -0.4073  0.1038 -0.2424
 2400TIP3    H1 7164   3.909   3.811   4.068 -2.3635  2.1565  0.6156
 2400TIP3    H2 7165   3.904   3.735   3.937  1.7630  0.1855  1.4275
 2401TIP3   OH2 7166   2.726   2.637   2.922  0.3795  0.3861 -0.2194
 2401TIP3    H1 7167   2.677   2.621   3.002  0.2700 -0.2842 -0.4145
 2401TIP3    H2 7168   2.727   2.732   2.913 -1.0243  0.4212 -0.2958
 2402TIP3   OH2 7169   3.213   4.267   2.651 -0.1451 -0.3692  0.2341
 2402TIP3    H1 7170   3.280   4.278   2.583 -0.7057  1.4631 -0.0804
 2402TIP3    H2 7171   3.217   4.347   2.702 -1.0610 -0.8952  1.1773
 2403TIP3   OH2 7172   6.105   5.173   2.519 -0.3761 -0.1740 -0.0567
 2403TIP3    H1 7173   6.164   5.183   2.444 -0.6039  1.2641 -0.0613
 2403TIP3    H2 7174   6.163   5.175   2.595 -0.4313  1.7703 -0.0322
 2404TIP3   OH2 7175   4.278   3.266   4.084 -0.5789 -0.0630  0.4499
 2404TIP3    H1 7176   4.343   3.334   4.104  1.5467 -1.9319  0.2897
 2404TIP3    H2 7177   4.264   3.274   3.990 -1.4577  1.0610  0.6625
 2405TIP3   OH2 7178   3.892   5.884   4.080  0.0347  0.4018 -0.0725
 2405TIP3    H1 7179   3.798   5.866   4.079 -0.5356  2.9245 -2.0002
 2405TIP3    H2 7180   3.931   5.807   4.038 -1.2707 -0.2655 -0.1305
 2406TIP3   OH2 7181   6.566   2.336   1.051  0.6872  0.0464  0.5441
 2406TIP3    H1 7182   6.635   2.402   1.059  0.3942  0.1840  2.5174
 2406TIP3    H2 7183   6.486   2.387   1.034  1.0620 -0.1401 -2.1830
 2407TIP3   OH2 7184   2.945   2.952   1.313 -0.6448 -0.7603 -0.3169
 2407TIP3    H1 7185   2.924   2.942   1.220 -1.7930 -1.6977  0.0074
 2407TIP3    H2 7186   2.883   2.894   1.357  0.0076 -0.4699  1.0262
 2408TIP3   OH2 7187   5.004   6.474   3.832 -0.1828  0.1479  0.1948
 2408TIP3    H1 7188   4.932   6.458   3.772  1.6328 -1.8694 -1.5990
 2408TIP3    H2 7189   4.972   6.445   3.917 -1.9395  0.6644 -0.2632
 2409TIP3   OH2 7190   2.961   5.674   1.050  0.1766 -0.4968 -0.0925
 2409TIP3    H1 7191   3.033   5.651   1.108 -1.3084 -0.6811  1.8014
 2409TIP3    H2 7192   2.890   5.615   1.076 -1.6714  1.7812  0.3842
 2410TIP3   OH2 7193   5.326   3.590   0.534  0.2005  0.4296 -0.3146
 2410TIP3    H1 7194   5.411   3.605   0.576  0.2291 -1.5759  0.4573
 2410TIP3    H2 7195   5.348   3.561   0.446  0.2400  1.4019 -0.6391
 2411TIP3   OH2 7196   2.977   5.200   3.609  0.2906 -0.3920  0.9449
 2411TIP3    H1 7197   3.021   5.284   3.600 -1.4775  0.6908  1.9061
 2411TIP3    H2 7198   2.944   5.180   3.522 -0.6121  0.7091  1.0106
 2412TIP3   OH2 7199   2.219   4.022   0.250 -0.1442 -0.3164 -0.0030
 2412TIP3    H1 7200   2.305   4.054   0.222  1.0201 -1.3708  2.1341
 2412TIP3    H2 7201   2.192   4.081   0.320  0.1850 -1.5883  1.2407
 2413TIP3   OH2 7202   2.514   3.029   3.778  0.0341 -0.4106 -0.1036
 2413TIP3    H1 7203   2.574   2.974   3.828  1.6945  1.0848 -0.3762
 2413TIP3    H2 7204   2.506   3.108   3.830 -0.6234 -0.0371 -0.7594
 2414TIP3   OH2 7205   0.320   5.696   5.780  0.1162  0.8821  0.4552
 2414TIP3    H1 7206   0.319   5.662   5.691 -3.0519 -0.6713  0.9424
 2414TIP3    H2 7207   0.249   5.760   5.783 -1.4238 -0.7744  2.3368
 2415TIP3   OH2 7208   4.547   1.109   2.926 -0.0840 -0.0106  0.2858
 2415TIP3    H1 7209   4.502   1.155   2.856 -0.4304 -0.9258 -0.1089
 2415TIP3    H2 7210   4.480   1.051   2.964  0.5690 -0.8822  0.1419
 2416TIP3   OH2 7211   6.453   6.686   5.349 -0.4994 -0.2783 -0.0406
 2416TIP3    H1 7212   6.461   6.655   5.258 -0.1240 -1.3308  0.3332
 2416TIP3    H2 7213   6.499   6.619   5.400 -0.3192  0.5397  0.8827
 2417TIP3   OH2 7214   5.632   0.497   2.843 -0.5813  0.6400  0.0365
 2417TIP3    H1 7215   5.618   0.547   2.763 -0.1181  1.8902  0.6987
 2417TIP3    H2 7216   5.713   0.448   2.828 -1.4279 -0.5402 -0.8968
 2418TIP3   OH2 7217   4.231   0.329   4.524 -0.3563 -0.3920 -0.9611
 2418TIP3    H1 7218   4.203   0.265   4.458 -0.4877  0.8825 -2.1995
 2418TIP3    H2 7219   4.229   0.413   4.478  3.4270  0.1181 -0.5605
 2419TIP3   OH2 7220   4.244   4.232   5.602 -0.2535 -0.5685 -0.5013
 2419TIP3    H1 7221   4.192   4.283   5.665 -1.7757 -0.6051 -1.6582
 2419TIP3    H2 7222   4.314   4.194   5.654 -0.6929  0.4706  0.9186
 2420TIP3   OH2 7223   7.182   3.038   1.724  0.1184  0.8533  0.5167
 2420TIP3    H1 7224   7.206   2.996   1.642 -2.7077  0.1867 -0.0750
 2420TIP3    H2 7225   7.178   2.966   1.788  1.9005  1.3067  1.1875
 2421TIP3   OH2 7226   2.651   5.140   2.028  0.2397 -0.2169 -0.1030
 2421TIP3    H1 7227   2.593   5.152   1.953  1.2373  0.9837 -0.7279
 2421TIP3    H2 7228   2.688   5.227   2.044  0.3420 -0.5265  1.5591
 2422TIP3   OH2 7229   1.840   1.743   0.269 -0.1410  0.1853  0.4176
 2422TIP3    H1 7230   1.833   1.661   0.316  1.1168  0.0839  0.4553
 2422TIP3    H2 7231   1.803   1.725   0.183 -2.3810  0.3506  1.2721
 2423TIP3   OH2 7232   3.302   5.238   4.564  0.0195 -0.0839  0.2667
 2423TIP3    H1 7233   3.305   5.177   4.490  4.1828  0.5485 -0.3260
 2423TIP3    H2 7234   3.280   5.322   4.525  1.2863  0.0737 -0.1285
 2424TIP3   OH2 7235   1.464   4.228   1.194  0.2596 -0.8265 -0.2043
 2424TIP3    H1 7236   1.458   4.165   1.122 -0.1215 -0.8233 -0.1774
 2424TIP3    H2 7237   1.398   4.294   1.173 -0.5870 -1.3724  0.6822
 2425TIP3   OH2 7238   0.556   4.144   3.653 -0.0248  0.1631  0.1241
 2425TIP3    H1 7239   0.632   4.186   3.695 -0.3481  0.7167  0.1677
 2425TIP3    H2 7240   0.563   4.052   3.678  0.1127  0.3798  0.9154
 2426TIP3   OH2 7241   0.868   2.658   3.358 -0.5597 -0.5799 -0.0514
 2426TIP3    H1 7242   0.901   2.726   3.299 -0.5562 -0.7699 -0.2668
 2426TIP3    H2 7243   0.781   2.637   3.325 -0.8895 -0.1174  0.4868
 2427TIP3   OH2 7244   6.702   0.260   2.522 -0.0101 -0.4456 -0.1468
 2427TIP3    H1 7245   6.706   0.353   2.501 -0.2930  0.3076  2.6546
 2427TIP3    H2 7246   6.617   0.249   2.565  0.6503 -1.6575  0.9163
 2428TIP3   OH2 7247   5.145   5.905   0.027  0.0456  0.2795 -0.6565
 2428TIP3    H1 7248   5.228   5.859   0.023 -0.2675 -0.3071 -4.6976
 2428TIP3    H2 7249   5.081   5.837   0.049  0.3605  0.3641  0.6156
 2429TIP3   OH2 7250   1.196   0.333   4.853 -0.0837 -0.1016 -0.2228
 2429TIP3    H1 7251   1.116   0.358   4.809 -0.9180  0.4762  1.5291
 2429TIP3    H2 7252   1.218   0.408   4.908  0.6549 -0.9439  0.6750
 2430TIP3   OH2 7253   2.958   6.054   0.185  0.1569 -0.1275 -0.3594
 2430TIP3    H1 7254   2.970   6.132   0.130 -0.9516  0.2506 -0.0997
 2430TIP3    H2 7255   3.046   6.031   0.215  0.3341  2.3645  1.3585
 2431TIP3   OH2 7256   0.956   5.189   3.421  0.5843 -0.1486 -0.2797
 2431TIP3    H1 7257   0.896   5.129   3.376  0.5685 -1.3677  1.2735
 2431TIP3    H2 7258   0.900   5.238   3.482  0.9159 -0.1172  0.0023
 2432TIP3   OH2 7259   2.002   1.036   0.207  0.7188  0.4208 -0.2833
 2432TIP3    H1 7260   2.006   0.945   0.236  2.0389  0.4724 -0.2533
 2432TIP3    H2 7261   2.013   1.032   0.112 -2.3219  0.3514 -0.7329
 2433TIP3   OH2 7262   0.015   0.414   1.435  0.0582  0.1479 -0.7580
 2433TIP3    H1 7263   0.102   0.426   1.474  0.1008 -1.1635 -0.4059
 2433TIP3    H2 7264   0.013   0.322   1.409 -1.7615 -0.2635  0.6013
 2434TIP3   OH2 7265   6.493   0.598   3.784  0.4490 -0.5340 -0.0773
 2434TIP3    H1 7266   6.473   0.532   3.717  1.3848 -1.3942  0.4676
 2434TIP3    H2 7267   6.483   0.682   3.739  0.8003 -1.0881 -1.2243
 2435TIP3   OH2 7268   4.557   4.711   4.921  0.2360 -0.1370  0.9845
 2435TIP3    H1 7269   4.639   4.663   4.936  0.4437  0.0817  0.5680
 2435TIP3    H2 7270   4.493   4.668   4.978  0.0274 -1.9351 -0.5301
 2436TIP3   OH2 7271   3.106   1.057   4.119 -0.1886  0.5485  0.0305
 2436TIP3    H1 7272   3.184   1.068   4.063  0.2073 -0.2225  0.4100
 2436TIP3    H2 7273   3.123   0.976   4.166 -1.8921 -0.4176 -0.9522
 2437TIP3   OH2 7274   5.376   1.978   5.489  0.3025 -0.3082 -0.0239
 2437TIP3    H1 7275   5.395   1.888   5.462 -2.3369 -1.1577  0.6214
 2437TIP3    H2 7276   5.382   1.976   5.585 -1.2479 -0.2370  0.1012
 2438TIP3   OH2 7277   5.209   2.465   5.281 -0.0487 -0.3827 -0.3192
 2438TIP3    H1 7278   5.285   2.476   5.339 -0.6089 -1.1107  0.5972
 2438TIP3    H2 7279   5.242   2.485   5.194  1.4118 -1.4234 -0.0486
 2439TIP3   OH2 7280   2.251   5.162   5.127 -0.0091  0.5186 -0.2150
 2439TIP3    H1 7281   2.243   5.225   5.199 -1.1363 -0.5467  0.6483
 2439TIP3    H2 7282   2.283   5.213   5.053  0.3800  1.8248  0.8126
 2440TIP3   OH2 7283   6.334   4.690   1.272  0.4640  0.1795 -0.1552
 2440TIP3    H1 7284   6.375   4.749   1.209  0.9704  0.5980  0.5537
 2440TIP3    H2 7285   6.250   4.668   1.233 -0.0907  1.9954 -0.0857
 2441TIP3   OH2 7286   1.424   4.340   4.497 -0.0246 -0.6462  0.2628
 2441TIP3    H1 7287   1.367   4.350   4.421  0.1887 -0.8122  0.0810
 2441TIP3    H2 7288   1.505   4.302   4.462  0.9985  1.4787  0.1629
 2442TIP3   OH2 7289   1.967   6.235   3.304  0.4366  0.2815  0.5533
 2442TIP3    H1 7290   1.873   6.240   3.291  0.2129 -0.6942  1.6300
 2442TIP3    H2 7291   2.001   6.318   3.270 -0.7521  0.4456 -0.2592
 2443TIP3   OH2 7292   5.643   4.276   0.589 -0.1394 -0.7769  0.0810
 2443TIP3    H1 7293   5.599   4.233   0.516 -0.9796  1.7622 -1.0107
 2443TIP3    H2 7294   5.574   4.292   0.653  0.0072 -0.3338  0.1313
 2444TIP3   OH2 7295   1.833   3.981   5.253  0.2165  0.2502  0.2042
 2444TIP3    H1 7296   1.845   4.000   5.160  0.9812 -0.5469  0.1248
 2444TIP3    H2 7297   1.776   4.051   5.285 -0.8448  0.0247 -1.0710
 2445TIP3   OH2 7298   7.086   3.547   1.827 -0.3092  0.0648  0.7302
 2445TIP3    H1 7299   7.181   3.557   1.836 -0.3725  0.4856  0.9703
 2445TIP3    H2 7300   7.075   3.467   1.775  0.1867  0.2211  0.3757
 2446TIP3   OH2 7301   7.034   4.960   5.201  0.4204 -1.0041 -0.0975
 2446TIP3    H1 7302   6.986   4.900   5.257 -0.4083  0.1945  0.5148
 2446TIP3    H2 7303   7.083   4.903   5.141 -0.3237 -2.2706  0.4593
 2447TIP3   OH2 7304   1.912   0.390   1.517  0.2982 -0.2396 -0.1416
 2447TIP3    H1 7305   1.895   0.298   1.497 -2.9456  0.1097  0.3953
 2447TIP3    H2 7306   1.838   0.436   1.478  0.8373  1.9370  1.2574
 2448TIP3   OH2 7307   0.063   6.801   5.648 -0.1751 -0.2852  0.3340
 2448TIP3    H1 7308   0.156   6.782   5.657 -0.6622 -2.8879  0.7361
 2448TIP3    H2 7309   0.042   6.775   5.558 -0.8482 -1.6679  0.8542
 2449TIP3   OH2 7310   5.303   2.734   2.778  0.0402 -0.0817 -0.7056
 2449TIP3    H1 7311   5.385   2.780   2.761 -0.6002  1.5182  0.2891
 2449TIP3    H2 7312   5.237   2.803   2.784 -0.5071 -0.6743  3.8522
 2450TIP3   OH2 7313   5.284   2.845   2.004 -0.1408 -0.4906  0.2153
 2450TIP3    H1 7314   5.299   2.769   2.060  1.7305 -0.5199 -0.2622
 2450TIP3    H2 7315   5.372   2.878   1.984 -0.7287 -0.3815 -2.5853
 2451TIP3   OH2 7316   3.198   4.133   0.991 -0.0798 -0.0445 -0.0001
 2451TIP3    H1 7317   3.277   4.173   0.954  0.0434  0.4810  0.8008
 2451TIP3    H2 7318   3.216   4.039   0.990 -0.2181 -0.0937 -1.5674
 2452TIP3   OH2 7319   1.200   4.393   4.033  0.1614 -0.0130  0.3419
 2452TIP3    H1 7320   1.197   4.360   3.943 -0.1420 -1.4927  0.8630
 2452TIP3    H2 7321   1.195   4.488   4.024 -0.2768 -0.1552 -1.1788
 2453TIP3   OH2 7322   3.650   1.203   0.069  0.1089  0.0620  0.0858
 2453TIP3    H1 7323   3.562   1.236   0.055 -0.0931 -0.2085  0.6805
 2453TIP3    H2 7324   3.649   1.169   0.159  1.7940  3.1759  1.4386
 2454TIP3   OH2 7325   0.730   1.244   4.888  0.8649 -0.2205 -0.2612
 2454TIP3    H1 7326   0.717   1.331   4.926 -1.6623 -0.1485 -1.1083
 2454TIP3    H2 7327   0.696   1.252   4.799  0.1984 -2.1772 -0.2261
 2455TIP3   OH2 7328   5.511   4.633   1.445 -0.1578 -0.1438 -0.4741
 2455TIP3    H1 7329   5.573   4.692   1.487 -0.8529  0.0160  0.3590
 2455TIP3    H2 7330   5.428   4.650   1.490 -0.1896 -2.3879  0.4221
 2456TIP3   OH2 7331   4.236   2.523   0.799 -0.3606  0.0473  0.3893
 2456TIP3    H1 7332   4.146   2.530   0.830 -0.1815 -0.2059  0.9653
 2456TIP3    H2 7333   4.245   2.431   0.773 -0.2310  0.0493  0.4311
 2457TIP3   OH2 7334   4.203   3.323   1.573 -0.1403 -0.2190  0.0382
 2457TIP3    H1 7335   4.289   3.363   1.586 -0.1550 -0.2663  0.2947
 2457TIP3    H2 7336   4.186   3.332   1.480 -0.8798  1.8843  0.3273
 2458TIP3   OH2 7337   6.235   5.409   0.212  0.0885  0.4628  0.1199
 2458TIP3    H1 7338   6.242   5.497   0.176  0.2085  1.0031  1.4232
 2458TIP3    H2 7339   6.149   5.378   0.182 -1.2496  2.1369  1.9664
 2459TIP3   OH2 7340   3.089   5.108   3.378 -0.3679  0.0537 -1.0521
 2459TIP3    H1 7341   3.183   5.102   3.392 -0.3027 -0.1094 -1.5431
 2459TIP3    H2 7342   3.061   5.019   3.358 -1.2222 -0.6418  2.5168
 2460TIP3   OH2 7343   1.372   4.085   3.178 -0.2902  0.2738 -0.2904
 2460TIP3    H1 7344   1.442   4.025   3.154 -1.8069 -0.7141 -2.6332
 2460TIP3    H2 7345   1.408   4.172   3.160  0.2719 -0.2331 -1.7699
 2461TIP3   OH2 7346   3.141   5.318   1.486  0.0119 -0.1617 -0.7323
 2461TIP3    H1 7347   3.160   5.363   1.568 -0.5938  0.7707 -1.0922
 2461TIP3    H2 7348   3.226   5.286   1.456 -0.0573 -3.0287  1.6505
 2462TIP3   OH2 7349   1.711   0.895   2.541  0.4257 -0.1607  0.0427
 2462TIP3    H1 7350   1.628   0.900   2.589  0.1307  2.7656 -0.5952
 2462TIP3    H2 7351   1.778   0.904   2.609  0.0222  3.4312  0.1692
 2463TIP3   OH2 7352   1.032   3.474   4.388 -0.0960  0.0870  0.0219
 2463TIP3    H1 7353   1.020   3.424   4.468  0.9659  1.2220  0.9145
 2463TIP3    H2 7354   1.042   3.408   4.320  0.0924 -0.8988  0.9852
 2464TIP3   OH2 7355   2.746   2.267   0.717 -0.6380  0.0223  0.0172
 2464TIP3    H1 7356   2.838   2.280   0.698 -0.1488 -2.6064  0.1899
 2464TIP3    H2 7357   2.712   2.219   0.641 -2.5139  2.9579 -1.1509
 2465TIP3   OH2 7358   4.835   1.633   5.008 -0.1630  0.1297  0.0670
 2465TIP3    H1 7359   4.793   1.584   5.078 -0.4715 -0.3471 -0.4356
 2465TIP3    H2 7360   4.764   1.687   4.971 -0.4777 -0.9840 -1.0549
 2466TIP3   OH2 7361   4.857   3.410   1.713  0.0591 -0.3613  0.1781
 2466TIP3    H1 7362   4.898   3.489   1.749 -0.0623  0.9182 -2.2570
 2466TIP3    H2 7363   4.930   3.361   1.675 -0.0681 -0.5291  0.1503
 2467TIP3   OH2 7364   3.845   0.395   4.308  0.1724 -0.0364 -0.2683
 2467TIP3    H1 7365   3.935   0.365   4.320  1.2599  1.8253 -2.7227
 2467TIP3    H2 7366   3.816   0.352   4.227 -0.2275  1.1705 -0.8014
 2468TIP3   OH2 7367   1.372   4.082   4.961 -0.5068  0.6814  0.4730
 2468TIP3    H1 7368   1.302   4.056   4.900 -1.1186 -0.2563  1.5408
 2468TIP3    H2 7369   1.346   4.043   5.045  1.9131 -0.7525  0.6466
 2469TIP3   OH2 7370   4.111   6.363   5.010 -0.3955  0.1683  0.2156
 2469TIP3    H1 7371   4.110   6.271   5.037  1.0696  0.6488  2.1346
 2469TIP3    H2 7372   4.204   6.385   5.003 -0.7084  1.6848  0.4840
 2470TIP3   OH2 7373   3.140   4.552   0.242  0.0724  0.1786  0.3393
 2470TIP3    H1 7374   3.113   4.639   0.269 -1.2174  0.1184 -0.6463
 2470TIP3    H2 7375   3.058   4.501   0.239  0.7331 -0.9357  0.4268
 2471TIP3   OH2 7376   0.342   5.982   0.356  0.0957  0.1819 -0.6045
 2471TIP3    H1 7377   0.420   5.999   0.303 -0.3850  3.2351 -0.5122
 2471TIP3    H2 7378   0.278   5.948   0.293  1.1007 -1.1674 -0.9206
 2472TIP3   OH2 7379   1.331   1.500   2.395 -0.1784 -0.3873  0.2260
 2472TIP3    H1 7380   1.398   1.510   2.462 -1.1662 -0.8928  1.3325
 2472TIP3    H2 7381   1.321   1.587   2.356 -0.0557  0.0683  1.2083
 2473TIP3   OH2 7382   2.475   3.245   3.263 -0.4850 -0.3647 -0.2739
 2473TIP3    H1 7383   2.382   3.254   3.282 -0.0168  1.0655  1.6877
 2473TIP3    H2 7384   2.511   3.203   3.341  0.4033 -1.6905 -1.3708
 2474TIP3   OH2 7385   1.541   5.305   4.416  0.0098  0.0688  0.6310
 2474TIP3    H1 7386   1.530   5.400   4.406  1.1098  0.2678  1.1388
 2474TIP3    H2 7387   1.494   5.284   4.496 -1.5063 -0.0914 -0.2540
 2475TIP3   OH2 7388   3.312   2.454   5.503 -0.7821  0.1696  0.1791
 2475TIP3    H1 7389   3.347   2.543   5.512  0.7751 -0.0217 -2.7509
 2475TIP3    H2 7390   3.338   2.409   5.583  1.9753  1.2836  0.0073
 2476TIP3   OH2 7391   3.966   2.808   5.569 -0.6728 -0.0770  0.3466
 2476TIP3    H1 7392   4.000   2.733   5.520  2.0833  1.4998 -0.3777
 2476TIP3    H2 7393   3.957   2.877   5.503 -0.8128  0.9233  1.3937
 2477TIP3   OH2 7394   2.848   3.387   0.728 -0.1594  0.3987  0.1990
 2477TIP3    H1 7395   2.860   3.481   0.720 -0.4785  0.8057  3.3467
 2477TIP3    H2 7396   2.753   3.374   0.735 -0.0306  0.3487  3.2833
 2478TIP3   OH2 7397   3.502   1.758   2.960 -0.5274 -0.3444 -0.0678
 2478TIP3    H1 7398   3.476   1.786   3.048 -0.6955 -1.0538  0.1133
 2478TIP3    H2 7399   3.419   1.731   2.919 -0.0796 -3.2702  0.7369
 2479TIP3   OH2 7400   5.081   0.415   4.594  0.3565  0.1391  0.3195
 2479TIP3    H1 7401   5.102   0.323   4.610 -0.0386 -0.0977 -0.4645
 2479TIP3    H2 7402   5.018   0.437   4.662 -1.2477 -0.8292 -0.7855
 2480TIP3   OH2 7403   5.998   0.892   2.594 -0.2338  0.0438 -0.0335
 2480TIP3    H1 7404   6.017   0.800   2.609  1.0897  0.5574  1.8273
 2480TIP3    H2 7405   6.064   0.920   2.531  0.0371 -0.0375  0.2134
 2481TIP3   OH2 7406   5.685   0.748   0.879 -0.2441 -0.3681 -0.0635
 2481TIP3    H1 7407   5.649   0.663   0.854  0.2668 -1.0512  1.3981
 2481TIP3    H2 7408   5.774   0.729   0.908  0.0018  0.7285 -0.0549
 2482TIP3   OH2 7409   1.781   3.497   1.240 -0.3380  0.0590  0.7611
 2482TIP3    H1 7410   1.810   3.421   1.189 -0.4477  0.5628 -0.0848
 2482TIP3    H2 7411   1.721   3.543   1.181  0.1637  1.1028  1.0500
 2483TIP3   OH2 7412   1.560   0.456   1.476  0.0756 -0.1934 -0.1950
 2483TIP3    H1 7413   1.487   0.396   1.462 -0.8705  0.5593  1.3357
 2483TIP3    H2 7414   1.596   0.432   1.561 -0.1519  1.1939  0.3272
 2484TIP3   OH2 7415   3.982   5.029   0.785  0.3764  0.3780 -0.1768
 2484TIP3    H1 7416   3.889   5.014   0.768 -0.0295  1.1958  1.2022
 2484TIP3    H2 7417   4.025   4.950   0.752 -0.8921 -0.3899 -0.0579
 2485TIP3   OH2 7418   3.709   0.707   3.597  0.0807  0.2084  0.2629
 2485TIP3    H1 7419   3.708   0.737   3.688  1.2489 -0.3706  0.4864
 2485TIP3    H2 7420   3.794   0.734   3.564 -1.2113  2.5968 -1.4672
 2486TIP3   OH2 7421   1.917   0.407   2.031  0.2157  0.5184 -0.1146
 2486TIP3    H1 7422   1.846   0.345   2.015  0.9318  0.1429 -2.0382
 2486TIP3    H2 7423   1.979   0.392   1.960  2.1194  1.0214  1.3522
 2487TIP3   OH2 7424   2.029   1.434   0.674  0.3470 -0.0584  0.0302
 2487TIP3    H1 7425   2.010   1.423   0.767 -0.5827  0.5999 -0.0624
 2487TIP3    H2 7426   2.121   1.412   0.665  0.4239 -0.2174  1.0906
 2488TIP3   OH2 7427   0.378   0.045   1.184  0.0112 -0.1111  0.2049
 2488TIP3    H1 7428   0.354  -0.018   1.115  0.5572 -0.4413  0.3053
 2488TIP3    H2 7429   0.474   0.043   1.185  0.0123 -0.5379  1.3541
 2489TIP3   OH2 7430   3.361   4.475   1.471  0.0927  0.4222 -0.3838
 2489TIP3    H1 7431   3.370   4.381   1.461 -3.2453 -0.0173 -0.5647
 2489TIP3    H2 7432   3.367   4.491   1.565  1.7975  0.2369 -0.4402
 2490TIP3   OH2 7433   6.800   6.154   1.430  0.8185  0.3245 -0.4869
 2490TIP3    H1 7434   6.854   6.179   1.355  2.0040 -0.1011  0.1862
 2490TIP3    H2 7435   6.817   6.221   1.496 -0.8370  1.1387 -0.8591
 2491TIP3   OH2 7436   3.144   0.598   5.568  0.0614 -0.3031 -0.2091
 2491TIP3    H1 7437   3.141   0.564   5.479 -0.7788  2.2324 -1.2436
 2491TIP3    H2 7438   3.113   0.526   5.623  1.3660 -2.1907 -1.8224
 2492TIP3   OH2 7439   3.324   2.996   5.563 -0.1198 -0.6485 -0.0148
 2492TIP3    H1 7440   3.364   3.005   5.649 -0.1471 -0.4080 -0.0253
 2492TIP3    H2 7441   3.234   3.029   5.574  0.3245  0.7935 -0.4759
 2493TIP3   OH2 7442   6.167   2.207   1.143 -0.3589  0.2466 -0.5710
 2493TIP3    H1 7443   6.208   2.131   1.102 -0.2250 -1.2031  2.0551
 2493TIP3    H2 7444   6.077   2.206   1.111 -0.1807 -0.6152 -1.0792
 2494TIP3   OH2 7445   0.429   1.946   3.857 -0.3079 -0.0702  0.1536
 2494TIP3    H1 7446   0.414   2.038   3.880  0.7530 -0.3156  2.0112
 2494TIP3    H2 7447   0.341   1.907   3.858 -0.6667  0.7187  0.2772
 2495TIP3   OH2 7448   3.216   1.956   4.128  0.0870 -0.6305 -0.0305
 2495TIP3    H1 7449   3.275   1.991   4.195 -0.1932  3.5883 -1.6528
 2495TIP3    H2 7450   3.273   1.909   4.068  1.3105  0.4835  0.2142
 2496TIP3   OH2 7451   4.770   3.683   5.234  0.3308 -0.4229  0.6839
 2496TIP3    H1 7452   4.844   3.722   5.281  0.4694 -1.0669  1.0130
 2496TIP3    H2 7453   4.782   3.710   5.143  0.2057  0.6249  0.9651
 2497TIP3   OH2 7454   3.257   5.785   1.687  0.5134 -0.4765 -0.2268
 2497TIP3    H1 7455   3.303   5.702   1.693 -0.5578 -1.2052 -1.6468
 2497TIP3    H2 7456   3.173   5.769   1.732  0.0581 -0.3545 -1.0251
 2498TIP3   OH2 7457   5.492   5.375   4.038  0.6848  0.2480  0.4658
 2498TIP3    H1 7458   5.406   5.415   4.053  0.5224  0.9415 -1.9605
 2498TIP3    H2 7459   5.535   5.433   3.975  1.6991 -1.7444 -0.7459
 2499TIP3   OH2 7460   0.906   2.880   1.445 -0.4583 -0.0534  0.0340
 2499TIP3    H1 7461   0.817   2.916   1.449 -1.1383 -1.6013 -0.1876
 2499TIP3    H2 7462   0.923   2.868   1.351 -0.1124  0.0048  0.0875
 2500TIP3   OH2 7463   7.182   3.981   0.531 -0.3108  0.3052  0.1084
 2500TIP3    H1 7464   7.260   3.930   0.506 -0.2860 -0.5981  1.8173
 2500TIP3    H2 7465   7.113   3.950   0.473  0.0898 -0.5581  0.0761
 2501TIP3   OH2 7466   1.388   6.297   3.449  0.2164 -0.3977  0.5181
 2501TIP3    H1 7467   1.402   6.235   3.378 -0.2950 -1.1976  1.1059
 2501TIP3    H2 7468   1.458   6.278   3.512 -0.2609 -0.7455  0.9471
 2502TIP3   OH2 7469   6.218   0.995   2.766 -0.1705 -0.5116  0.0537
 2502TIP3    H1 7470   6.187   0.914   2.806 -0.3827 -0.6874 -0.4719
 2502TIP3    H2 7471   6.271   1.036   2.835 -0.6601 -0.7388  0.5720
 2503TIP3   OH2 7472   0.455   0.527   1.894 -0.1580 -0.0867 -0.6282
 2503TIP3    H1 7473   0.374   0.524   1.843  0.2201 -1.1075 -1.2060
 2503TIP3    H2 7474   0.480   0.619   1.894  0.1056 -0.1077 -2.7571
 2504TIP3   OH2 7475   5.094   6.667   5.290 -0.3699 -0.3264  0.3224
 2504TIP3    H1 7476   5.129   6.712   5.213 -0.8780 -1.4389 -0.6012
 2504TIP3    H2 7477   5.133   6.712   5.365  1.1233 -0.0017 -0.6110
 2505TIP3   OH2 7478   0.310   2.646   5.098 -0.0765 -0.1886  0.2865
 2505TIP3    H1 7479   0.344   2.609   5.017 -0.6838 -0.0171 -0.0524
 2505TIP3    H2 7480   0.338   2.738   5.097 -1.4109  0.2488 -0.5167
 2506TIP3   OH2 7481   2.801   5.149   1.629  0.2488 -0.3412  0.1345
 2506TIP3    H1 7482   2.855   5.073   1.653  0.5088 -0.2274 -0.0877
 2506TIP3    H2 7483   2.760   5.124   1.546 -0.1486 -0.4824  0.3742
 2507TIP3   OH2 7484   5.408   2.127   4.447  0.1279 -0.5004 -0.3432
 2507TIP3    H1 7485   5.483   2.184   4.465  0.1324  0.2063 -2.3438
 2507TIP3    H2 7486   5.332   2.178   4.474  0.2166 -0.1401 -0.7728
 2508TIP3   OH2 7487   4.886   5.915   0.714  0.3521  0.3753  0.0773
 2508TIP3    H1 7488   4.898   5.820   0.721 -1.0892  0.1714  0.1953
 2508TIP3    H2 7489   4.796   5.929   0.745  0.6478  1.8118  0.3172
 2509TIP3   OH2 7490   5.585   2.193   2.511  0.3336 -0.4890 -0.3863
 2509TIP3    H1 7491   5.584   2.255   2.438 -1.2517 -0.3547 -0.2858
 2509TIP3    H2 7492   5.510   2.219   2.565  0.8030 -1.2967  0.6845
 2510TIP3   OH2 7493   2.338   5.552   1.647  0.3106  0.6403 -0.5477
 2510TIP3    H1 7494   2.335   5.567   1.742 -1.8609  1.2258 -0.6608
 2510TIP3    H2 7495   2.318   5.459   1.638  2.0623  0.2014 -0.4155
 2511TIP3   OH2 7496   5.343   6.618   3.068 -0.3646  0.1439  0.3505
 2511TIP3    H1 7497   5.399   6.588   3.140 -0.7810  0.0307  0.6251
 2511TIP3    H2 7498   5.278   6.549   3.057  0.0259 -0.1101 -0.5121
 2512TIP3   OH2 7499   6.475   5.045   5.765  0.6652  0.0893  0.2577
 2512TIP3    H1 7500   6.529   4.971   5.795 -0.0695 -0.4176  0.3613
 2512TIP3    H2 7501   6.533   5.120   5.771  1.1172 -0.3080  1.1717
 2513TIP3   OH2 7502   1.740   5.411   1.249 -1.0379 -0.8150 -0.3528
 2513TIP3    H1 7503   1.730   5.319   1.273 -0.4939 -0.2264  2.4469
 2513TIP3    H2 7504   1.690   5.459   1.315  2.6335  1.0988  1.3314
 2514TIP3   OH2 7505   0.206   6.068   5.199 -0.0613  0.1772  0.1962
 2514TIP3    H1 7506   0.165   6.048   5.114 -1.2865 -0.4816  0.9035
 2514TIP3    H2 7507   0.294   6.098   5.177 -0.0203 -0.8946 -1.2659
 2515TIP3   OH2 7508   6.410   2.831   4.315 -0.1399  0.1182  0.1797
 2515TIP3    H1 7509   6.379   2.920   4.300 -1.4877 -0.1502  1.2568
 2515TIP3    H2 7510   6.496   2.843   4.356  0.4264  0.8872 -1.1747
 2516TIP3   OH2 7511   2.310   5.043   2.341  0.1307 -0.2675 -0.1389
 2516TIP3    H1 7512   2.392   5.093   2.336  1.1205 -1.9160 -1.2353
 2516TIP3    H2 7513   2.272   5.050   2.254  0.5342 -1.8020 -0.4528
 2517TIP3   OH2 7514   3.638   4.713   2.679  0.1085 -0.2676 -0.3414
 2517TIP3    H1 7515   3.641   4.651   2.606  0.9867  0.2246 -0.7367
 2517TIP3    H2 7516   3.551   4.753   2.672  0.8473  1.1890 -2.3582
 2518TIP3   OH2 7517   0.894   3.776   4.725  0.5206 -0.5721  0.3838
 2518TIP3    H1 7518   0.885   3.724   4.805  0.2707  0.6932  1.2079
 2518TIP3    H2 7519   0.986   3.768   4.702  0.3367 -2.0014  0.0362
 2519TIP3   OH2 7520   3.830   3.029   0.190 -0.0305  0.3193 -0.4570
 2519TIP3    H1 7521   3.923   3.041   0.209 -0.0531  2.4637 -1.3898
 2519TIP3    H2 7522   3.821   3.054   0.098 -1.7462  1.6400  0.0180
 2520TIP3   OH2 7523   3.356   3.943   3.888  0.0998  0.4429 -0.3149
 2520TIP3    H1 7524   3.427   3.879   3.898  0.2447 -0.0601 -3.5099
 2520TIP3    H2 7525   3.297   3.926   3.962  2.3922 -0.2495  1.4903
 2521TIP3   OH2 7526   5.517   4.102   0.820 -0.0330 -0.1173  0.0329
 2521TIP3    H1 7527   5.496   4.194   0.839  0.5641 -0.0819  0.5494
 2521TIP3    H2 7528   5.469   4.052   0.886  0.2159 -0.1321  0.2036
 2522TIP3   OH2 7529   0.874   0.360   5.184  0.1683  0.3567 -0.1596
 2522TIP3    H1 7530   0.875   0.267   5.207  0.0395 -0.0242 -1.5579
 2522TIP3    H2 7531   0.938   0.401   5.242 -0.5246 -0.4122  1.1904
 2523TIP3   OH2 7532   4.555   6.307   4.320  0.3442  0.4582  0.3068
 2523TIP3    H1 7533   4.539   6.259   4.401  0.5309  0.1776  0.1812
 2523TIP3    H2 7534   4.619   6.253   4.273 -1.0305 -0.2762 -0.8005
 2524TIP3   OH2 7535   1.228   1.151   4.579 -0.4204  0.5067 -0.3268
 2524TIP3    H1 7536   1.266   1.162   4.666  0.7248  1.4073 -0.9136
 2524TIP3    H2 7537   1.244   1.059   4.558  1.3746  0.8256 -0.5011
 2525TIP3   OH2 7538   2.529   4.733   0.816  0.2546  0.3719  0.3408
 2525TIP3    H1 7539   2.615   4.694   0.834 -0.5119 -2.1817 -0.9906
 2525TIP3    H2 7540   2.469   4.687   0.875 -0.5076  0.6297 -0.2204
 2526TIP3   OH2 7541   7.011   6.580   2.665 -0.7623  0.0900  0.0130
 2526TIP3    H1 7542   6.971   6.493   2.669  2.3146 -1.4480  0.3827
 2526TIP3    H2 7543   7.045   6.594   2.753  0.3020  0.8720 -0.5026
 2527TIP3   OH2 7544   4.264   2.792   0.901  0.5478 -0.3084  0.0386
 2527TIP3    H1 7545   4.277   2.703   0.869 -0.2474 -1.4296  2.5583
 2527TIP3    H2 7546   4.337   2.808   0.960  1.9386  1.6731 -2.0158
 2528TIP3   OH2 7547   1.681   0.908   4.303  0.0520 -0.0704  0.4045
 2528TIP3    H1 7548   1.629   0.875   4.230  0.0935 -0.1666  0.4186
 2528TIP3    H2 7549   1.669   0.844   4.372  0.6438 -0.3930  0.2185
 2529TIP3   OH2 7550   2.151   3.814   5.487 -0.3225  0.1360  0.1795
 2529TIP3    H1 7551   2.231   3.790   5.532 -0.2775  0.5885  0.3461
 2529TIP3    H2 7552   2.155   3.768   5.403  0.7228  1.1410 -0.3532
 2530TIP3   OH2 7553   1.855   6.603   2.492 -0.0215 -0.7540  0.2589
 2530TIP3    H1 7554   1.827   6.658   2.419 -0.7724 -1.6920 -0.1956
 2530TIP3    H2 7555   1.895   6.663   2.554 -3.5769  0.8605  1.2409
 2531TIP3   OH2 7556   3.132   0.877   3.336 -0.0595  0.1811  0.1411
 2531TIP3    H1 7557   3.117   0.963   3.296  0.7470  0.1432 -0.2632
 2531TIP3    H2 7558   3.073   0.875   3.412 -1.0229  0.5782 -0.5756
 2532TIP3   OH2 7559   6.299   5.198   0.564  0.0817 -0.1301 -0.1923
 2532TIP3    H1 7560   6.322   5.199   0.471  0.5056 -0.0460 -0.0923
 2532TIP3    H2 7561   6.204   5.189   0.566 -0.0905  1.4057 -0.6547
 2533TIP3   OH2 7562   6.743   6.176   1.973 -0.2969  0.2779 -0.5256
 2533TIP3    H1 7563   6.737   6.269   1.994 -0.1978  0.4027 -1.0389
 2533TIP3    H2 7564   6.655   6.142   1.987 -0.3988  0.5069 -0.6154
 2534TIP3   OH2 7565   1.331   1.724   4.691  0.4546 -0.1441  0.3954
 2534TIP3    H1 7566   1.362   1.703   4.603 -0.9777  0.5957 -0.3167
 2534TIP3    H2 7567   1.288   1.809   4.682 -0.5919 -0.5131  1.5873
 2535TIP3   OH2 7568   6.703   0.186   3.636  0.3934 -0.6775  0.0112
 2535TIP3    H1 7569   6.779   0.173   3.693  0.6389 -1.9331 -0.5795
 2535TIP3    H2 7570   6.634   0.218   3.695  1.6757  1.6785  0.3547
 2536TIP3   OH2 7571   2.065   6.268   1.155 -0.3438  0.3166 -0.0138
 2536TIP3    H1 7572   2.150   6.241   1.122 -0.4314  1.9084 -1.6561
 2536TIP3    H2 7573   2.063   6.235   1.245  1.6403 -0.4771 -0.2178
 2537TIP3   OH2 7574   2.458   0.256   2.563 -0.3544 -0.2778 -0.1079
 2537TIP3    H1 7575   2.429   0.246   2.473  0.6390 -0.4213 -0.4263
 2537TIP3    H2 7576   2.478   0.167   2.592 -1.2515 -0.3041  0.4670
 2538TIP3   OH2 7577   6.925   5.289   0.791 -0.2519  0.5657 -0.4096
 2538TIP3    H1 7578   6.927   5.290   0.887 -0.7639 -0.4145 -0.3738
 2538TIP3    H2 7579   6.835   5.315   0.769 -0.0100  1.2218 -0.6433
 2539TIP3   OH2 7580   4.639   6.441   0.904  0.3573  0.7298 -0.0995
 2539TIP3    H1 7581   4.717   6.387   0.897 -1.0643 -1.3064 -1.5391
 2539TIP3    H2 7582   4.639   6.494   0.824 -0.0396  0.2548 -0.4204
 2540TIP3   OH2 7583   5.310   1.774   2.935 -0.1270 -0.4372  0.5600
 2540TIP3    H1 7584   5.334   1.683   2.945 -0.2439 -0.5904 -0.3884
 2540TIP3    H2 7585   5.246   1.774   2.863  0.3408  0.4518  0.1175
 2541TIP3   OH2 7586   1.925   6.529   1.282 -0.3220  0.1300 -0.5592
 2541TIP3    H1 7587   1.910   6.607   1.335 -1.9984 -1.2063  1.0695
 2541TIP3    H2 7588   2.019   6.512   1.291  0.2092  2.2609 -1.4788
 2542TIP3   OH2 7589   0.213   5.970   2.754 -0.2551  0.1775  0.3047
 2542TIP3    H1 7590   0.285   6.020   2.716  0.9450 -1.2349  0.6445
 2542TIP3    H2 7591   0.233   5.879   2.732 -2.2148 -0.2088 -0.0202
 2543TIP3   OH2 7592   0.139   1.260   2.549  0.5091 -0.0028 -0.2657
 2543TIP3    H1 7593   0.232   1.246   2.565  0.8098  1.1304 -0.8853
 2543TIP3    H2 7594   0.109   1.181   2.504  1.0783 -0.5375  0.2834
 2544TIP3   OH2 7595   1.704   0.700   5.147 -0.3630 -0.8334 -0.2781
 2544TIP3    H1 7596   1.721   0.633   5.081  1.1755 -0.5932 -0.1689
 2544TIP3    H2 7597   1.789   0.714   5.189 -0.5436  1.4396 -0.5395
 2545TIP3   OH2 7598   2.617   6.239   1.290 -0.2261 -0.3926  0.4222
 2545TIP3    H1 7599   2.622   6.192   1.207  0.3408 -1.0853  0.8356
 2545TIP3    H2 7600   2.658   6.180   1.353  0.5307  0.6779  0.9557
 2546TIP3   OH2 7601   6.399   3.305   1.017 -0.2194  0.0271  0.0126
 2546TIP3    H1 7602   6.425   3.314   1.109  0.4214 -2.5920  0.1553
 2546TIP3    H2 7603   6.357   3.220   1.012  0.0572 -0.0377 -2.2132
 2547TIP3   OH2 7604   1.961   2.617   3.318  0.7740 -0.0510  0.2368
 2547TIP3    H1 7605   2.008   2.689   3.277 -0.2339  0.0086 -0.8630
 2547TIP3    H2 7606   1.924   2.655   3.398  0.2756  0.6422 -0.3173
 2548TIP3   OH2 7607   4.654   5.383   2.395 -0.2025  0.0255 -0.1355
 2548TIP3    H1 7608   4.594   5.368   2.321 -0.7580  0.6017  0.1855
 2548TIP3    H2 7609   4.696   5.298   2.409 -2.1750 -0.8814  0.6799
 2549TIP3   OH2 7610   6.369   3.999   1.810  0.3905 -0.3129  0.1585
 2549TIP3    H1 7611   6.318   3.941   1.867  3.1628 -2.8412  0.3071
 2549TIP3    H2 7612   6.427   4.047   1.869  0.7594 -0.2232 -0.2704
 2550TIP3   OH2 7613   2.715   0.935   0.769 -0.4412 -0.4876  0.4473
 2550TIP3    H1 7614   2.758   0.954   0.853  2.2033 -1.8486 -0.4815
 2550TIP3    H2 7615   2.685   1.020   0.737  0.3793  0.3404  1.8088
 2551TIP3   OH2 7616   7.119   0.384   2.092 -0.2272 -0.0222  0.2176
 2551TIP3    H1 7617   7.163   0.396   2.176 -1.8618 -0.6016  1.1825
 2551TIP3    H2 7618   7.095   0.473   2.065 -1.1380  0.0338  1.1761
 2552TIP3   OH2 7619   5.038   0.636   5.019  0.0165 -0.5908  0.3321
 2552TIP3    H1 7620   5.022   0.565   5.081 -0.9927  0.7131  1.6524
 2552TIP3    H2 7621   5.104   0.691   5.063 -0.7599  0.3839  0.3191
 2553TIP3   OH2 7622   4.375   3.430   4.286 -0.4052 -0.2933  0.4500
 2553TIP3    H1 7623   4.288   3.459   4.315  0.1271  0.6317  1.1777
 2553TIP3    H2 7624   4.435   3.463   4.353  0.5869 -0.3380 -0.3933
 2554TIP3   OH2 7625   5.350   3.287   4.434  0.0565  0.1780 -0.1528
 2554TIP3    H1 7626   5.294   3.281   4.356  0.2226 -1.3013 -0.1874
 2554TIP3    H2 7627   5.420   3.346   4.408 -0.1949  0.1449 -0.9422
 2555TIP3   OH2 7628   5.570   2.880   2.010 -0.0229  0.8358  0.3666
 2555TIP3    H1 7629   5.656   2.909   1.980 -0.0306  0.7457  0.2558
 2555TIP3    H2 7630   5.555   2.928   2.091  0.4695  0.2568  0.8078
 2556TIP3   OH2 7631   0.798   0.547   3.835 -0.5276  0.0577  0.0851
 2556TIP3    H1 7632   0.732   0.602   3.878  0.0034 -0.7016  1.9977
 2556TIP3    H2 7633   0.819   0.480   3.900  1.1214 -0.5483 -1.0026
 2557TIP3   OH2 7634   2.902   2.205   3.983  0.6014 -0.2378  0.9933
 2557TIP3    H1 7635   2.812   2.238   3.981  0.4209 -0.7194  1.1429
 2557TIP3    H2 7636   2.950   2.264   3.924  0.1460 -0.1125  0.7415
 2558TIP3   OH2 7637   6.140   5.759   2.435 -0.1822  0.3389 -0.0017
 2558TIP3    H1 7638   6.128   5.664   2.428  1.6806 -0.0496  1.2837
 2558TIP3    H2 7639   6.200   5.770   2.509  1.1571  2.3999 -1.2904
 2559TIP3   OH2 7640   3.803   0.247   1.329  0.1120  0.8602 -0.3219
 2559TIP3    H1 7641   3.799   0.154   1.308 -1.5809  0.6661  0.7269
 2559TIP3    H2 7642   3.848   0.286   1.254 -1.7572 -0.3793 -2.2098
 2560TIP3   OH2 7643   1.337   0.503   3.309 -0.4324 -0.8362  0.0921
 2560TIP3    H1 7644   1.309   0.413   3.325  1.5141 -1.4357  0.4506
 2560TIP3    H2 7645   1.422   0.509   3.353 -0.1858  0.9533 -0.5727
 2561TIP3   OH2 7646   6.836   2.540  -0.005 -0.1189 -0.9036 -0.2207
 2561TIP3    H1 7647   6.881   2.503   0.071  0.8864 -0.0441 -0.3597
 2561TIP3    H2 7648   6.902   2.597  -0.045 -1.3133  0.3316 -0.4932
 2562TIP3   OH2 7649   1.222   3.317   5.037 -0.5169 -0.1713  0.4747
 2562TIP3    H1 7650   1.262   3.401   5.016 -1.1911 -0.5026 -2.6099
 2562TIP3    H2 7651   1.296   3.258   5.053  0.0294  0.4154  0.1301
 2563TIP3   OH2 7652   2.120   2.321   5.851 -0.5257 -0.2806 -0.2423
 2563TIP3    H1 7653   2.039   2.329   5.801 -0.1249  0.8627 -0.7515
 2563TIP3    H2 7654   2.164   2.246   5.813 -0.4954  0.2281 -1.2511
 2564TIP3   OH2 7655   4.392   6.263   4.107 -0.3031  0.4698  0.3127
 2564TIP3    H1 7656   4.434   6.266   4.192 -1.8490 -0.8332  1.1840
 2564TIP3    H2 7657   4.416   6.177   4.071 -0.9205  0.3555  0.1480
 2565TIP3   OH2 7658   6.379   6.437   5.084 -0.3998  0.6662  0.3696
 2565TIP3    H1 7659   6.429   6.423   5.003  0.6873  2.7511  0.6187
 2565TIP3    H2 7660   6.300   6.483   5.055 -0.4036  0.6697  0.3852
 2566TIP3   OH2 7661   1.443   5.053   2.208 -0.3819 -0.3180 -0.2357
 2566TIP3    H1 7662   1.477   5.121   2.150 -0.1370 -1.0814 -1.0206
 2566TIP3    H2 7663   1.521   5.010   2.242 -0.4851  0.8924  1.6616
 2567TIP3   OH2 7664   5.287   0.609   3.439 -0.3677  0.6749  0.4951
 2567TIP3    H1 7665   5.342   0.554   3.495 -0.6062 -0.2439 -0.1298
 2567TIP3    H2 7666   5.212   0.632   3.494  0.5356  1.7831  1.2920
 2568TIP3   OH2 7667   5.663   3.081   3.672  0.3854 -0.3947 -0.7774
 2568TIP3    H1 7668   5.590   3.041   3.720  1.8855 -1.3918  0.7755
 2568TIP3    H2 7669   5.637   3.173   3.662 -0.5857 -0.4533  0.7899
 2569TIP3   OH2 7670   2.060   3.991   2.195 -0.4801 -0.3458  0.4242
 2569TIP3    H1 7671   1.971   3.955   2.194 -0.8126  0.4500  0.3110
 2569TIP3    H2 7672   2.062   4.052   2.121  0.1912 -0.4198  0.3757
 2570TIP3   OH2 7673   3.742   5.163   4.841 -0.0938  0.2210 -0.1793
 2570TIP3    H1 7674   3.818   5.154   4.898 -1.1323 -0.1565  1.2075
 2570TIP3    H2 7675   3.667   5.154   4.900 -1.2265 -0.5645 -1.6749
 2571TIP3   OH2 7676   2.471   4.929   4.971  0.4066 -0.0733  0.9470
 2571TIP3    H1 7677   2.420   4.922   4.890  0.8626 -0.4545  0.6936
 2571TIP3    H2 7678   2.406   4.917   5.041  0.1993 -0.9203  0.6222
 2572TIP3   OH2 7679   3.971   2.431   1.108 -0.2947  0.2613 -0.7989
 2572TIP3    H1 7680   4.007   2.344   1.092  0.0838  0.6126 -1.9587
 2572TIP3    H2 7681   3.931   2.456   1.025 -1.7344  0.5857 -0.0399
 2573TIP3   OH2 7682   1.179   5.377   2.304 -0.0074 -0.0462  0.0768
 2573TIP3    H1 7683   1.110   5.316   2.330 -1.1119  1.1211  0.0141
 2573TIP3    H2 7684   1.216   5.340   2.224 -0.0256 -1.0844  0.5346
 2574TIP3   OH2 7685   3.105   2.213   2.413 -0.1954 -0.1436 -0.3731
 2574TIP3    H1 7686   3.169   2.282   2.428  0.1528 -0.3511 -0.8829
 2574TIP3    H2 7687   3.157   2.139   2.380 -0.9485  0.3610 -2.8407
 2575TIP3   OH2 7688   2.539   3.072   4.244 -0.4460  0.6612  0.0612
 2575TIP3    H1 7689   2.447   3.086   4.266 -0.5394  0.0897  0.0537
 2575TIP3    H2 7690   2.547   2.978   4.232  0.0985  0.7266 -0.1416
 2576TIP3   OH2 7691   2.101   3.656   4.297 -0.2079  0.3187 -0.2068
 2576TIP3    H1 7692   2.007   3.672   4.295 -0.2313  0.1347 -0.6302
 2576TIP3    H2 7693   2.110   3.578   4.353 -0.4747 -0.7212 -1.5471
 2577TIP3   OH2 7694   5.688   2.890   2.275 -0.1354  0.2616  0.4313
 2577TIP3    H1 7695   5.720   2.977   2.253 -0.6668  0.8494  1.8716
 2577TIP3    H2 7696   5.762   2.832   2.255  0.1662  0.9981 -0.6938
 2578TIP3   OH2 7697   0.072   5.775   4.472  0.2701 -0.0461  0.4178
 2578TIP3    H1 7698   0.074   5.850   4.412 -0.6824 -0.4531 -0.1528
 2578TIP3    H2 7699   0.073   5.698   4.414 -4.2506 -0.5189  0.5525
 2579TIP3   OH2 7700   0.739   5.993   4.427  0.0862  0.1097 -0.1213
 2579TIP3    H1 7701   0.820   5.960   4.467 -0.5084 -0.9817  0.2392
 2579TIP3    H2 7702   0.690   6.031   4.501  0.0832  0.3911 -0.2667
 2580TIP3   OH2 7703   4.221   4.690   2.611 -0.3080 -0.6847 -0.3954
 2580TIP3    H1 7704   4.189   4.736   2.534 -1.8366 -1.9464 -0.5561
 2580TIP3    H2 7705   4.157   4.710   2.679  0.5390 -0.3264  0.3193
 2581TIP3   OH2 7706   5.010   6.118   3.557  0.0848 -0.4355  0.3452
 2581TIP3    H1 7707   4.925   6.086   3.587 -0.2365  0.4118  0.3700
 2581TIP3    H2 7708   4.989   6.180   3.487  0.5806  0.8023  1.2472
 2582TIP3   OH2 7709   5.213   3.238   2.250 -0.0316 -0.0683 -0.1053
 2582TIP3    H1 7710   5.223   3.303   2.319 -1.1213  1.4366 -1.2988
 2582TIP3    H2 7711   5.183   3.288   2.174 -0.4995 -1.9088 -1.1972
 2583TIP3   OH2 7712   3.200   4.524   1.264  0.4101  0.7526  0.1952
 2583TIP3    H1 7713   3.249   4.549   1.186  0.2683 -1.6837 -0.7443
 2583TIP3    H2 7714   3.265   4.490   1.324  0.1965 -0.0880 -0.0377
 2584TIP3   OH2 7715   6.179   6.016   5.223  0.3913 -0.1728 -0.0438
 2584TIP3    H1 7716   6.176   5.967   5.305 -0.6912  0.2506  0.1833
 2584TIP3    H2 7717   6.267   6.054   5.221  0.3281  0.0648  1.0736
 2585TIP3   OH2 7718   3.546   1.182   2.457 -0.6768  0.2658  0.8797
 2585TIP3    H1 7719   3.465   1.175   2.408  0.3024 -1.1106 -0.6923
 2585TIP3    H2 7720   3.581   1.092   2.458  0.2050  0.5802  2.6140
 2586TIP3   OH2 7721   2.331   3.481   0.718 -0.4892  0.8012  0.2949
 2586TIP3    H1 7722   2.325   3.533   0.798 -0.0262 -1.2900  1.7995
 2586TIP3    H2 7723   2.254   3.424   0.720 -0.3718  0.5933 -0.6383
 2587TIP3   OH2 7724   1.349   0.779   5.581 -0.2617 -0.0450  0.0835
 2587TIP3    H1 7725   1.422   0.775   5.519 -0.0861 -0.3490  0.3087
 2587TIP3    H2 7726   1.323   0.871   5.580  0.5734  0.2111  0.5157
 2588TIP3   OH2 7727   1.170   0.936   2.341  0.0644  0.0807 -0.5247
 2588TIP3    H1 7728   1.203   0.959   2.428  0.9018  1.2170 -1.1050
 2588TIP3    H2 7729   1.122   1.013   2.312 -1.5320 -0.8668 -0.4698
 2589TIP3   OH2 7730   5.415   4.072   1.080  0.5376  0.0381  0.3016
 2589TIP3    H1 7731   5.472   4.024   1.140  1.4701  2.0344  1.1033
 2589TIP3    H2 7732   5.388   4.150   1.129 -1.1617  0.2219 -0.8314
 2590TIP3   OH2 7733   6.879   3.907   0.672  0.5054 -0.1506  0.3130
 2590TIP3    H1 7734   6.881   3.829   0.616 -0.5398  0.0782 -0.0477
 2590TIP3    H2 7735   6.790   3.910   0.707  0.3178  1.2911 -0.2470
 2591TIP3   OH2 7736   4.356   5.863   3.273  0.0670 -0.0908  0.0152
 2591TIP3    H1 7737   4.411   5.889   3.348  0.8865 -0.1266 -0.5572
 2591TIP3    H2 7738   4.272   5.905   3.289 -0.0144 -0.7118  1.3511
 2592TIP3   OH2 7739   0.756   4.612   3.074  0.4660 -0.9686  0.4903
 2592TIP3    H1 7740   0.786   4.521   3.079 -1.1414 -1.6004 -0.4646
 2592TIP3    H2 7741   0.707   4.616   2.992 -0.4334  0.4775  1.0659
 2593TIP3   OH2 7742   5.147   2.472   1.974 -0.7860 -0.2452 -0.6408
 2593TIP3    H1 7743   5.132   2.409   1.904 -1.3092 -0.9386  0.0863
 2593TIP3    H2 7744   5.158   2.555   1.928 -1.2929 -0.6514 -1.5396
 2594TIP3   OH2 7745   5.329   0.412   4.200  0.0228  0.3161 -0.1752
 2594TIP3    H1 7746   5.380   0.488   4.175  0.1426 -0.5562 -2.8594
 2594TIP3    H2 7747   5.253   0.414   4.142 -0.0285 -1.5181 -0.2275
 2595TIP3   OH2 7748   5.047   4.133   2.320  0.1931  0.4773  0.7193
 2595TIP3    H1 7749   5.080   4.205   2.373 -0.7957 -0.0269  2.0964
 2595TIP3    H2 7750   5.065   4.055   2.373 -1.1038 -0.0163  0.4846
 2596TIP3   OH2 7751   0.525   5.838   5.925 -0.4677  0.1789  0.4833
 2596TIP3    H1 7752   0.453   5.801   5.874  0.0210  1.3497 -1.1467
 2596TIP3    H2 7753   0.586   5.872   5.859  1.5383 -0.6787  1.8093
 2597TIP3   OH2 7754   5.600   1.439   3.169  0.1097 -0.1463 -0.8020
 2597TIP3    H1 7755   5.611   1.524   3.128 -1.2543  0.2639 -0.3641
 2597TIP3    H2 7756   5.616   1.376   3.099  0.1274  0.4863 -1.3777
 2598TIP3   OH2 7757   6.599   4.235   4.972 -0.2033  1.0048  0.1079
 2598TIP3    H1 7758   6.678   4.284   4.948 -0.8784  1.6233 -0.9390
 2598TIP3    H2 7759   6.626   4.180   5.046  1.0490  1.6258  0.1360
 2599TIP3   OH2 7760   3.755   0.752   4.223 -0.0420 -0.6067 -0.3907
 2599TIP3    H1 7761   3.757   0.669   4.270  0.0613 -0.1822  0.3593
 2599TIP3    H2 7762   3.666   0.785   4.234 -0.3126 -0.9729 -1.3362
 2600TIP3   OH2 7763   2.365   4.737   2.036 -0.3967 -0.0623 -0.1527
 2600TIP3    H1 7764   2.428   4.804   2.064  1.0222 -1.3068 -0.2295
 2600TIP3    H2 7765   2.419   4.667   1.999 -1.9226 -0.5828 -1.5379
 2601TIP3   OH2 7766   6.840   5.892   5.635  0.5660  1.2337  0.0141
 2601TIP3    H1 7767   6.828   5.841   5.555 -0.4088 -0.4029  1.1495
 2601TIP3    H2 7768   6.754   5.929   5.654  0.9187  2.0710  0.0286
 2602TIP3   OH2 7769   4.764   0.867   1.600  0.0198  0.3067  0.1476
 2602TIP3    H1 7770   4.853   0.835   1.589 -0.5091 -1.0739 -0.2889
 2602TIP3    H2 7771   4.732   0.881   1.511 -0.8621 -1.1663  0.1996
 2603TIP3   OH2 7772   5.335   1.578   2.062  0.2346 -0.1631  0.4952
 2603TIP3    H1 7773   5.398   1.506   2.070 -0.2848 -0.4967  1.7383
 2603TIP3    H2 7774   5.333   1.618   2.148  0.8796  1.6829 -0.3000
 2604TIP3   OH2 7775   4.208   2.599   1.946 -0.0034  0.4560  0.5879
 2604TIP3    H1 7776   4.201   2.661   1.874 -0.2151 -0.9705 -0.6557
 2604TIP3    H2 7777   4.282   2.543   1.923  0.5092  0.5395  1.9437
 2605TIP3   OH2 7778   2.255   6.009   1.804 -0.3246  0.4311 -0.3033
 2605TIP3    H1 7779   2.302   6.067   1.745 -1.7463  0.0697 -1.8775
 2605TIP3    H2 7780   2.225   6.065   1.875 -0.3794  1.3242 -1.0147
 2606TIP3   OH2 7781   0.408   1.182   2.578  0.3464 -0.4678 -0.1228
 2606TIP3    H1 7782   0.368   1.096   2.580  1.2157 -0.9367 -1.5608
 2606TIP3    H2 7783   0.493   1.170   2.621  0.6640 -0.4491 -0.7360
 2607TIP3   OH2 7784   6.392   5.816   3.219 -0.0301 -0.1352  0.4932
 2607TIP3    H1 7785   6.487   5.811   3.213 -0.1152 -0.4510 -1.2591
 2607TIP3    H2 7786   6.362   5.793   3.131 -1.7009  0.6390  0.8273
 2608TIP3   OH2 7787   4.812   1.438   4.041  0.5666  0.0324 -0.6223
 2608TIP3    H1 7788   4.793   1.511   3.982 -2.0727 -1.8481 -2.3553
 2608TIP3    H2 7789   4.819   1.362   3.983  1.7918 -1.3626  1.2278
 2609TIP3   OH2 7790   3.167   1.005   1.238 -0.8384  0.0295  0.8167
 2609TIP3    H1 7791   3.177   0.911   1.251 -2.9334 -0.4565 -0.5871
 2609TIP3    H2 7792   3.252   1.033   1.203 -0.8637 -1.8015 -0.9010
 2610TIP3   OH2 7793   1.505   0.306   0.195  0.0172  0.0508 -0.1823
 2610TIP3    H1 7794   1.523   0.260   0.276 -0.9697  1.7245  1.0521
 2610TIP3    H2 7795   1.575   0.278   0.135  1.5110 -0.2866  1.6233
 2611TIP3   OH2 7796   2.493   5.917   2.867  0.2441 -0.2678  0.1606
 2611TIP3    H1 7797   2.494   5.993   2.809 -0.4231  1.1930  1.9596
 2611TIP3    H2 7798   2.480   5.842   2.809  1.4823  0.9047 -1.7325
 2612TIP3   OH2 7799   5.897   1.845   0.738  0.1015 -0.7953 -0.0971
 2612TIP3    H1 7800   5.958   1.812   0.804  0.2677 -0.3762 -0.0419
 2612TIP3    H2 7801   5.813   1.852   0.784  0.7367  1.9415  0.8229
 2613TIP3   OH2 7802   2.986   5.477   2.536  0.4137  0.0920 -0.1381
 2613TIP3    H1 7803   3.076   5.453   2.516  0.2718  0.4864 -1.3689
 2613TIP3    H2 7804   2.993   5.557   2.589  0.7908  0.0773 -0.1691
 2614TIP3   OH2 7805   4.258   3.194   0.565 -0.0142 -0.4384  0.1598
 2614TIP3    H1 7806   4.227   3.133   0.631 -0.1823 -1.0464 -0.4731
 2614TIP3    H2 7807   4.353   3.181   0.563 -0.0137 -0.4466  0.2549
 2615TIP3   OH2 7808   6.949   1.449   0.574  0.2166 -0.2417  0.2466
 2615TIP3    H1 7809   6.944   1.483   0.663  0.1099  0.4113 -0.0041
 2615TIP3    H2 7810   7.038   1.413   0.568  1.2397  2.1614 -0.2197
 2616TIP3   OH2 7811   4.855   3.738   5.554 -0.3362  0.1561 -1.0641
 2616TIP3    H1 7812   4.936   3.725   5.505 -1.0528 -0.6353 -2.1066
 2616TIP3    H2 7813   4.880   3.730   5.645  0.7701  0.0094 -1.3689
 2617TIP3   OH2 7814   4.705   4.043   1.056 -0.1459 -0.1091 -0.6058
 2617TIP3    H1 7815   4.721   4.112   0.992 -1.3466 -0.4580 -1.3266
 2617TIP3    H2 7816   4.687   4.089   1.137  0.7895  0.3590 -0.6507
 2618TIP3   OH2 7817   2.995   3.235   1.171  0.5467 -0.3623  0.3251
 2618TIP3    H1 7818   2.921   3.219   1.230  0.8758  0.5489  0.9979
 2618TIP3    H2 7819   3.006   3.152   1.124 -1.7223 -0.1451 -0.7372
 2619TIP3   OH2 7820   6.901   5.419   5.210 -0.1593  0.0730 -0.4143
 2619TIP3    H1 7821   6.806   5.428   5.207  0.0162  2.1601 -0.9655
 2619TIP3    H2 7822   6.916   5.324   5.211 -2.1960 -0.3301 -1.8819
 2620TIP3   OH2 7823   6.628   6.221   4.129  0.1662 -0.5211 -0.1335
 2620TIP3    H1 7824   6.722   6.227   4.146  0.3863  0.6460 -1.5080
 2620TIP3    H2 7825   6.587   6.241   4.213  1.1252 -1.4149  0.5743
 2621TIP3   OH2 7826   0.750   4.487   1.897 -0.3145  0.3267 -0.1036
 2621TIP3    H1 7827   0.802   4.438   1.834 -0.2420 -0.3415  0.4700
 2621TIP3    H2 7828   0.797   4.569   1.909 -1.1132  1.1570 -2.0760
 2622TIP3   OH2 7829   1.472   3.079   1.602 -0.1036 -0.3160 -0.3197
 2622TIP3    H1 7830   1.425   3.124   1.531  0.4695  1.9120  0.6022
 2622TIP3    H2 7831   1.403   3.038   1.654 -0.9011  1.2201 -0.1038
 2623TIP3   OH2 7832   2.769   3.663   4.567  0.3553  0.4045 -0.4418
 2623TIP3    H1 7833   2.805   3.733   4.622  0.8116  0.2438 -0.5392
 2623TIP3    H2 7834   2.810   3.676   4.482  0.5422 -0.0653 -0.4249
 2624TIP3   OH2 7835   3.288   1.647   4.276  0.4086  0.5086 -0.3772
 2624TIP3    H1 7836   3.304   1.617   4.366 -1.3700 -2.3236 -0.8650
 2624TIP3    H2 7837   3.371   1.685   4.248  0.4151  3.6937  3.1512
 2625TIP3   OH2 7838   0.551   0.756   0.929 -0.0090 -0.4573  0.2591
 2625TIP3    H1 7839   0.547   0.835   0.982  0.7392 -0.5837  0.5180
 2625TIP3    H2 7840   0.485   0.698   0.967  1.4616 -1.0989  2.0163
 2626TIP3   OH2 7841   3.054   3.615   1.196  0.6587  0.3196  0.5432
 2626TIP3    H1 7842   3.142   3.595   1.164  0.8384 -1.5585  2.0353
 2626TIP3    H2 7843   2.996   3.575   1.132  0.8927  1.0055 -0.1064
 2627TIP3   OH2 7844   3.331   1.031   0.469  0.0199  0.2525  0.4709
 2627TIP3    H1 7845   3.278   1.110   0.456 -2.2821 -1.3668 -0.8946
 2627TIP3    H2 7846   3.291   0.988   0.545 -0.6514 -0.9476 -0.5248
 2628TIP3   OH2 7847   3.765   2.722   2.883  0.0233 -0.5533 -0.0485
 2628TIP3    H1 7848   3.777   2.636   2.923  0.9665  0.3386  1.6861
 2628TIP3    H2 7849   3.682   2.754   2.919  1.4374  0.7465  2.3037
 2629TIP3   OH2 7850   2.376   3.576   1.185  0.3589 -0.1544  0.4136
 2629TIP3    H1 7851   2.400   3.645   1.247  1.4073  0.3078 -0.4810
 2629TIP3    H2 7852   2.433   3.590   1.109  1.2189 -2.5225  0.5429
 2630TIP3   OH2 7853   6.586   3.812   4.640  0.3434 -0.5539 -0.4282
 2630TIP3    H1 7854   6.547   3.874   4.702  0.3160 -1.0262  0.0331
 2630TIP3    H2 7855   6.670   3.851   4.618  1.2225 -1.2780  1.3959
 2631TIP3   OH2 7856   2.901   2.833   3.531  0.0624 -0.3144  0.0872
 2631TIP3    H1 7857   2.942   2.749   3.510  1.7955  0.0806  1.5731
 2631TIP3    H2 7858   2.830   2.843   3.467  0.6928 -2.2488 -0.9804
 2632TIP3   OH2 7859   2.577   2.094   2.116  0.2992  0.8633 -0.7184
 2632TIP3    H1 7860   2.651   2.038   2.141 -0.8400 -0.7511 -0.8407
 2632TIP3    H2 7861   2.557   2.069   2.026 -1.5564 -0.0567 -0.0795
 2633TIP3   OH2 7862   0.787   0.929   2.497  0.1934 -0.3178  0.7043
 2633TIP3    H1 7863   0.747   0.890   2.575 -0.0580 -0.5527  0.4603
 2633TIP3    H2 7864   0.804   1.020   2.521 -0.3783 -0.2458  0.8506
 2634TIP3   OH2 7865   0.262   3.829   0.492 -0.5307  1.0545 -0.6507
 2634TIP3    H1 7866   0.229   3.843   0.581  1.0089  0.6962  0.0147
 2634TIP3    H2 7867   0.305   3.744   0.495  0.0768  1.3044 -1.5717
 2635TIP3   OH2 7868   7.147   1.901   4.143  0.0513 -0.5150  0.1947
 2635TIP3    H1 7869   7.132   1.995   4.137  1.7482 -0.2122  0.3659
 2635TIP3    H2 7870   7.228   1.886   4.095 -1.0551 -2.1640 -1.2999
 2636TIP3   OH2 7871   3.737   4.202   2.038  0.3664  0.1481 -0.1930
 2636TIP3    H1 7872   3.813   4.223   2.091 -0.2169  1.1758  0.2654
 2636TIP3    H2 7873   3.714   4.284   1.994 -0.9159  0.0766  0.2753
 2637TIP3   OH2 7874   3.796   2.544   5.141 -0.2873 -0.4057 -0.2850
 2637TIP3    H1 7875   3.766   2.464   5.183 -0.0840 -0.4845 -0.2878
 2637TIP3    H2 7876   3.724   2.570   5.083 -1.0642  0.3596  0.9801
 2638TIP3   OH2 7877   1.099   4.012   3.166  0.3371 -0.0675 -0.0304
 2638TIP3    H1 7878   1.064   4.019   3.254  0.4434 -1.6850  0.1695
 2638TIP3    H2 7879   1.193   4.029   3.176  0.2774  0.1840  0.0987
 2639TIP3   OH2 7880   3.692   2.702   5.586 -0.3443 -0.0016  0.1601
 2639TIP3    H1 7881   3.768   2.760   5.596  0.6181 -1.2760  0.4590
 2639TIP3    H2 7882   3.680   2.695   5.491 -0.9792  1.3107  0.1262
 2640TIP3   OH2 7883   3.684   5.786   2.726  0.0150  0.1884  0.3719
 2640TIP3    H1 7884   3.617   5.850   2.748 -0.9646 -0.5978 -0.2222
 2640TIP3    H2 7885   3.695   5.734   2.806 -0.6893 -0.1880  0.2356
 2641TIP3   OH2 7886   5.665   6.734   3.991 -0.4267 -0.2154  0.4750
 2641TIP3    H1 7887   5.739   6.770   3.943 -1.8606  2.8666  0.3409
 2641TIP3    H2 7888   5.590   6.745   3.932 -2.0730  2.8194  2.8182
 2642TIP3   OH2 7889   3.135   6.219   5.112 -0.0574 -0.6039 -0.3554
 2642TIP3    H1 7890   3.200   6.158   5.078  0.0201 -0.7120 -0.0122
 2642TIP3    H2 7891   3.071   6.228   5.041  0.7876  0.1922 -1.0579
 2643TIP3   OH2 7892   4.137   0.953   3.271  0.4052 -0.0319 -0.0746
 2643TIP3    H1 7893   4.165   0.865   3.298 -0.9930 -0.6442 -0.4663
 2643TIP3    H2 7894   4.196   1.013   3.316  0.9073 -1.1595  0.8164
 2644TIP3   OH2 7895   4.770   5.592   3.324 -0.5483  0.3652 -0.1283
 2644TIP3    H1 7896   4.805   5.507   3.294  0.0261  0.9874 -1.2722
 2644TIP3    H2 7897   4.707   5.569   3.392  0.2993 -0.9406  0.2598
 2645TIP3   OH2 7898   6.324   5.841   0.645 -0.5105 -0.3847 -0.0642
 2645TIP3    H1 7899   6.404   5.852   0.697  0.4111  1.3237 -1.7263
 2645TIP3    H2 7900   6.253   5.848   0.709  0.5944  0.4622  1.1201
 2646TIP3   OH2 7901   3.462   5.996   4.661  0.1789 -0.1732  0.2217
 2646TIP3    H1 7902   3.445   6.088   4.639 -0.7341 -0.2575  0.5530
 2646TIP3    H2 7903   3.512   6.000   4.742 -0.4588  0.0224  0.6137
 2647TIP3   OH2 7904   6.704   6.671   3.958  0.3469  0.1373 -0.0083
 2647TIP3    H1 7905   6.673   6.591   3.915 -0.1039 -0.2251  0.9434
 2647TIP3    H2 7906   6.738   6.640   4.043 -1.8861  1.1861  1.3378
 2648TIP3   OH2 7907   1.666   3.913   0.968  0.6480  0.4187  0.1902
 2648TIP3    H1 7908   1.659   3.824   1.002  0.5524  0.0675 -0.7231
 2648TIP3    H2 7909   1.758   3.924   0.948  0.9631  1.1217  1.8107
 2649TIP3   OH2 7910   5.491   2.630   1.885 -0.4381 -0.4688 -0.0104
 2649TIP3    H1 7911   5.511   2.716   1.922  0.6617 -0.6508 -0.1492
 2649TIP3    H2 7912   5.491   2.571   1.960 -1.6881 -0.2846  0.1548
 2650TIP3   OH2 7913   6.420   4.435   2.161 -1.0334  0.2373  0.5796
 2650TIP3    H1 7914   6.330   4.411   2.137 -0.6913 -2.1073  1.3730
 2650TIP3    H2 7915   6.410   4.518   2.209 -2.5296  0.9955 -0.9249
 2651TIP3   OH2 7916   0.709   2.058   3.215  0.4134  0.1344 -0.1177
 2651TIP3    H1 7917   0.760   2.115   3.272 -1.4540  2.4765 -0.6222
 2651TIP3    H2 7918   0.620   2.060   3.251  0.2833 -2.8116  0.0184
 2652TIP3   OH2 7919   1.474   3.072   4.767  0.0838  0.0874  0.2311
 2652TIP3    H1 7920   1.550   3.099   4.819 -0.1734  2.7992 -0.6452
 2652TIP3    H2 7921   1.500   3.090   4.676 -1.2688  0.2151 -0.1479
 2653TIP3   OH2 7922   4.322   2.550   2.975 -0.8045  0.2045 -0.0678
 2653TIP3    H1 7923   4.273   2.623   3.013 -0.6953  0.6512 -0.7622
 2653TIP3    H2 7924   4.414   2.570   2.995 -0.8351 -0.2232  0.5391
 2654TIP3   OH2 7925   2.010   2.432   1.191 -0.8625  0.0692 -0.4284
 2654TIP3    H1 7926   2.031   2.525   1.177  0.2509 -0.3013 -1.3380
 2654TIP3    H2 7927   2.094   2.390   1.207 -1.3149 -0.8523 -0.3993
 2655TIP3   OH2 7928   0.811   0.648   0.273 -0.0190 -0.2808  0.1577
 2655TIP3    H1 7929   0.767   0.652   0.188 -0.5544 -0.5514  0.4169
 2655TIP3    H2 7930   0.742   0.623   0.335  0.4268 -0.3740  0.6268
 2656TIP3   OH2 7931   2.984   1.912   5.488  0.5884 -1.1327 -0.3017
 2656TIP3    H1 7932   2.968   1.859   5.566 -3.7832  0.0116 -0.1733
 2656TIP3    H2 7933   2.927   1.874   5.421  0.7321  0.6798 -1.5295
 2657TIP3   OH2 7934   4.580   1.181   0.495  0.1284  0.3345  0.2592
 2657TIP3    H1 7935   4.487   1.178   0.471  0.4562  0.9025 -1.2375
 2657TIP3    H2 7936   4.596   1.098   0.540 -0.5694 -0.9083 -1.6604
 2658TIP3   OH2 7937   3.531   0.839   2.263  0.6323  0.2402 -0.1566
 2658TIP3    H1 7938   3.509   0.831   2.356  1.4327 -0.1761  0.0053
 2658TIP3    H2 7939   3.560   0.929   2.253 -0.8578  0.7271 -0.3230
 2659TIP3   OH2 7940   4.106   3.727   5.863 -0.4489 -0.2357 -0.0615
 2659TIP3    H1 7941   4.025   3.732   5.812 -0.6907 -0.9454  0.2421
 2659TIP3    H2 7942   4.157   3.658   5.820  0.1358  0.4135 -0.4367
 2660TIP3   OH2 7943   4.218   1.982   2.199  0.2955  0.1648  0.1470
 2660TIP3    H1 7944   4.157   1.920   2.238  1.2972 -0.7224  0.3475
 2660TIP3    H2 7945   4.249   2.035   2.273 -0.0146  0.4278  0.0896
 2661TIP3   OH2 7946   7.179   6.714   1.641 -0.4155  0.1625 -0.0330
 2661TIP3    H1 7947   7.241   6.676   1.579 -0.6548 -0.1169 -0.1024
 2661TIP3    H2 7948   7.196   6.668   1.723  1.2521  1.8641  0.6695
 2662TIP3   OH2 7949   0.069   1.417   2.273 -0.0965 -0.1666  0.3496
 2662TIP3    H1 7950   0.081   1.397   2.366 -1.0761 -1.3061  0.2617
 2662TIP3    H2 7951   0.098   1.508   2.264  0.7725 -0.2891  1.6034
 2663TIP3   OH2 7952   5.338   1.839   5.187 -0.3290  0.1088  0.1683
 2663TIP3    H1 7953   5.321   1.882   5.270 -1.2197  0.7453 -0.3216
 2663TIP3    H2 7954   5.362   1.910   5.127  1.7945 -0.4958  0.2181
 2664TIP3   OH2 7955   2.775   1.286   2.935  0.2462  0.3047 -0.3887
 2664TIP3    H1 7956   2.727   1.368   2.951 -1.2946 -0.4322 -1.0039
 2664TIP3    H2 7957   2.755   1.232   3.011 -0.5256 -0.2762 -0.9921
 2665TIP3   OH2 7958   3.731   0.596   4.446  0.4536 -0.4555  0.0713
 2665TIP3    H1 7959   3.786   0.523   4.417  1.1963 -0.3657  1.2143
 2665TIP3    H2 7960   3.793   0.660   4.480 -0.2419  0.4600 -0.3539
 2666TIP3   OH2 7961   1.771   5.828   0.815 -0.2387  0.3070 -0.1088
 2666TIP3    H1 7962   1.843   5.771   0.787  0.3309  1.1906 -0.4995
 2666TIP3    H2 7963   1.693   5.772   0.813  0.3801 -0.5638 -0.0396
 2667TIP3   OH2 7964   2.955   3.756   0.122 -0.2357  0.0319  0.1172
 2667TIP3    H1 7965   2.885   3.757   0.057 -1.2479  0.8849  1.1725
 2667TIP3    H2 7966   3.009   3.681   0.098 -0.3969  0.4881 -1.8653
 2668TIP3   OH2 7967   1.813   2.741   0.610  0.0473 -0.5723  0.6037
 2668TIP3    H1 7968   1.804   2.836   0.606 -0.7894 -0.6880 -1.7195
 2668TIP3    H2 7969   1.812   2.721   0.704 -1.8983  1.5171  1.1119
 2669TIP3   OH2 7970   1.902   4.537   3.067 -0.4691  0.5469 -0.7059
 2669TIP3    H1 7971   1.912   4.628   3.095 -0.9354 -0.0227  1.5041
 2669TIP3    H2 7972   1.988   4.512   3.035 -0.1483  1.5401 -0.6469
 2670TIP3   OH2 7973   5.660   0.565   5.365 -0.4054 -0.4023 -0.0055
 2670TIP3    H1 7974   5.639   0.475   5.387 -2.2984 -0.2517 -1.0219
 2670TIP3    H2 7975   5.660   0.568   5.269  0.9421  0.4150 -0.0117
 2671TIP3   OH2 7976   0.317   1.228   3.693 -0.0775  0.0025 -0.0528
 2671TIP3    H1 7977   0.347   1.318   3.688  2.0949 -0.7025 -0.7932
 2671TIP3    H2 7978   0.282   1.210   3.606 -0.6535  0.1676  0.1421
 2672TIP3   OH2 7979   4.203   1.922   4.674  0.0433 -0.2737 -0.6057
 2672TIP3    H1 7980   4.147   1.846   4.686  0.8482 -0.8007 -0.0900
 2672TIP3    H2 7981   4.148   1.997   4.696 -0.7745 -0.6905 -1.1642
 2673TIP3   OH2 7982   3.464   0.422   4.752  0.7099 -0.3321  0.5760
 2673TIP3    H1 7983   3.417   0.385   4.827  1.1188  1.5577  1.8362
 2673TIP3    H2 7984   3.475   0.515   4.773  2.4119 -0.0901 -1.0228
 2674TIP3   OH2 7985   0.582   5.436   5.250 -0.0381 -0.1446  0.1501
 2674TIP3    H1 7986   0.492   5.462   5.231  0.2951  0.0756 -1.2912
 2674TIP3    H2 7987   0.605   5.374   5.180  1.0886  0.1866  0.1959
 2675TIP3   OH2 7988   3.702   0.674   2.126 -0.0362  0.6689 -0.0745
 2675TIP3    H1 7989   3.639   0.737   2.163 -0.2745  0.5320 -0.2382
 2675TIP3    H2 7990   3.698   0.691   2.031 -1.1668 -0.5407 -0.2821
 2676TIP3   OH2 7991   1.432   6.119   4.012 -0.6350  0.2059  0.0729
 2676TIP3    H1 7992   1.406   6.029   4.029 -0.9939  0.0772 -1.0967
 2676TIP3    H2 7993   1.356   6.159   3.969 -0.2807  0.9074  0.0782
 2677TIP3   OH2 7994   4.077   5.450   4.855  0.7249  0.5256  0.2533
 2677TIP3    H1 7995   4.005   5.502   4.821  0.6007  0.8216  0.9591
 2677TIP3    H2 7996   4.069   5.366   4.811  0.4802  0.8503 -0.3323
 2678TIP3   OH2 7997   0.684   4.884   1.163 -0.1560  0.2498  0.0608
 2678TIP3    H1 7998   0.654   4.913   1.250 -2.5922  1.0787 -0.9626
 2678TIP3    H2 7999   0.666   4.959   1.106  0.5158 -0.6245 -1.3356
 2679TIP3   OH2 8000   4.112   2.274   4.524 -0.3173 -0.2165  0.3154
 2679TIP3    H1 8001   4.071   2.355   4.494  0.0678  0.1696  0.8093
 2679TIP3    H2 8002   4.139   2.230   4.443 -0.3853  0.2242  0.0463
 2680TIP3   OH2 8003   4.980   3.795   1.621  0.2226  0.1227 -0.3547
 2680TIP3    H1 8004   4.890   3.783   1.590  0.5380 -0.4620 -1.0794
 2680TIP3    H2 8005   5.020   3.708   1.613  1.2044  0.6273 -1.2222
 2681TIP3   OH2 8006   7.016   1.479   0.178  0.2075 -0.8220 -0.1334
 2681TIP3    H1 8007   7.002   1.418   0.106  0.5796 -0.8950 -0.1492
 2681TIP3    H2 8008   7.031   1.423   0.254  1.0427 -0.7683 -0.2435
 2682TIP3   OH2 8009   4.763   5.289   1.911  0.0164  0.3872  0.3901
 2682TIP3    H1 8010   4.783   5.378   1.940  1.9849  0.2516 -0.4285
 2682TIP3    H2 8011   4.826   5.272   1.841 -0.3383 -1.6498  0.5156
 2683TIP3   OH2 8012   2.810   1.033   4.888 -0.0343 -0.3303 -0.3343
 2683TIP3    H1 8013   2.904   1.017   4.878 -0.1757 -0.2105 -2.0664
 2683TIP3    H2 8014   2.770   0.948   4.868 -0.3406 -0.1557 -0.4567
 2684TIP3   OH2 8015   0.170   3.813   0.772 -0.1485  0.9825 -0.4439
 2684TIP3    H1 8016   0.076   3.795   0.769  0.2011 -1.0967 -0.3316
 2684TIP3    H2 8017   0.201   3.763   0.847  0.6018  4.3024  1.6824
 2685TIP3   OH2 8018   1.531   0.141   0.424  0.0096  0.1126 -0.0291
 2685TIP3    H1 8019   1.437   0.128   0.414  0.0116  0.4652 -0.5554
 2685TIP3    H2 8020   1.539   0.205   0.495 -0.2291  1.2449 -0.9752
 2686TIP3   OH2 8021   6.177   6.285   4.233 -0.2675 -0.4784 -0.0147
 2686TIP3    H1 8022   6.121   6.269   4.310 -0.6041  1.9003  0.3147
 2686TIP3    H2 8023   6.266   6.269   4.264 -0.5601 -2.1038  0.0847
 2687TIP3   OH2 8024   0.430   2.529   4.853 -0.7034 -0.7575 -0.0511
 2687TIP3    H1 8025   0.495   2.595   4.827 -1.4206 -0.3042 -0.7386
 2687TIP3    H2 8026   0.348   2.559   4.814 -1.2455 -1.5535  0.4407
 2688TIP3   OH2 8027   6.581   5.728   5.230  0.6297  0.5111  0.1021
 2688TIP3    H1 8028   6.570   5.742   5.136  0.7403 -1.8804 -0.3367
 2688TIP3    H2 8029   6.498   5.755   5.269  0.3612  0.9244 -0.7411
 2689TIP3   OH2 8030   6.002   4.083   3.558  0.2186  0.0168 -0.5782
 2689TIP3    H1 8031   6.074   4.021   3.560 -0.1274 -0.3937 -0.8447
 2689TIP3    H2 8032   6.045   4.169   3.558  0.6863 -0.1593  1.5545
 2690TIP3   OH2 8033   3.231   1.424   0.548 -0.2389  0.8476  0.3251
 2690TIP3    H1 8034   3.156   1.376   0.512  1.8783 -2.3714 -0.1979
 2690TIP3    H2 8035   3.259   1.481   0.477  0.4985 -1.3382 -1.2551
 2691TIP3   OH2 8036   2.547   3.284   5.626 -0.1099  0.0724 -0.0353
 2691TIP3    H1 8037   2.494   3.232   5.686  2.1064 -1.0303  1.1007
 2691TIP3    H2 8038   2.558   3.368   5.671 -2.1035  0.9152 -1.0010
 2692TIP3   OH2 8039   4.158   0.486   5.664 -0.1815  0.2362 -0.6376
 2692TIP3    H1 8040   4.099   0.411   5.656  0.3677 -0.4021  0.9604
 2692TIP3    H2 8041   4.135   0.528   5.746  2.0226 -0.4847  0.4354
 2693TIP3   OH2 8042   7.234   6.239   2.217 -0.0434  0.2111 -0.2849
 2693TIP3    H1 8043   7.145   6.219   2.245 -0.2521  2.9902  1.3290
 2693TIP3    H2 8044   7.233   6.226   2.122 -1.9445 -0.4698 -0.2087
 2694TIP3   OH2 8045   0.635   0.155   2.086  0.3445 -0.0929 -0.1838
 2694TIP3    H1 8046   0.645   0.229   2.026 -0.3517 -0.2677 -0.5212
 2694TIP3    H2 8047   0.723   0.117   2.092  0.6777  0.6776 -0.1110
 2695TIP3   OH2 8048   5.606   5.520   3.216  0.0796  0.2482  0.3059
 2695TIP3    H1 8049   5.554   5.600   3.227  0.2655  0.6041 -1.2471
 2695TIP3    H2 8050   5.559   5.454   3.267 -1.4052  0.7829 -0.3273
 2696TIP3   OH2 8051   5.979   1.298   4.969 -0.0756  0.9166 -0.0634
 2696TIP3    H1 8052   6.018   1.230   5.024 -2.0038  0.0809  0.3396
 2696TIP3    H2 8053   6.048   1.365   4.961  1.9685 -1.1174 -0.6551
 2697TIP3   OH2 8054   4.794   3.428   3.436 -0.3223  0.1617  0.4500
 2697TIP3    H1 8055   4.869   3.372   3.457 -0.2807  0.0259 -0.0408
 2697TIP3    H2 8056   4.766   3.398   3.349 -1.7343 -0.6440  1.1439
 2698TIP3   OH2 8057   1.459   1.721   0.942  0.2176 -0.3243 -0.0432
 2698TIP3    H1 8058   1.456   1.777   0.865  0.7314  0.2097  0.3175
 2698TIP3    H2 8059   1.509   1.644   0.914 -0.4796 -0.6018 -0.5356
 2699TIP3   OH2 8060   0.612   5.750   2.834  0.1271 -0.1143 -0.6686
 2699TIP3    H1 8061   0.612   5.844   2.819 -0.2660 -0.3100 -2.0441
 2699TIP3    H2 8062   0.526   5.732   2.873  0.5433  0.1891  0.4412
 2700TIP3   OH2 8063   5.035   2.266   1.775 -0.4996  0.0082 -0.3736
 2700TIP3    H1 8064   4.945   2.237   1.761 -0.3680 -0.1275 -0.9588
 2700TIP3    H2 8065   5.076   2.259   1.689  0.1844 -0.3280 -0.0242
 2701TIP3   OH2 8066   0.491   2.219   4.011 -0.3178 -0.1241  0.6485
 2701TIP3    H1 8067   0.440   2.297   3.990 -1.4093 -0.7112  1.0412
 2701TIP3    H2 8068   0.452   2.186   4.092  0.9170 -0.4070  1.1575
 2702TIP3   OH2 8069   2.729   6.350   4.895  0.1376  0.5016 -0.2670
 2702TIP3    H1 8070   2.681   6.333   4.814 -0.4226  0.5119  0.0580
 2702TIP3    H2 8071   2.771   6.266   4.916  0.0215  0.4101 -0.3993
 2703TIP3   OH2 8072   0.617   4.068   4.958  0.2914  0.3040 -0.2728
 2703TIP3    H1 8073   0.574   3.995   5.001  1.2114 -0.5194 -0.7095
 2703TIP3    H2 8074   0.671   4.108   5.026 -1.0257  1.2731  0.2476
 2704TIP3   OH2 8075   4.717   6.142   5.706 -0.3057  0.1770  0.6968
 2704TIP3    H1 8076   4.654   6.213   5.714 -0.9038 -0.0031 -1.6199
 2704TIP3    H2 8077   4.768   6.164   5.628 -1.5172 -2.6008 -1.0334
 2705TIP3   OH2 8078   0.900   3.827   3.282  0.1156 -0.6601 -1.1538
 2705TIP3    H1 8079   0.841   3.847   3.209  1.2862 -0.2731 -2.0243
 2705TIP3    H2 8080   0.978   3.791   3.240  1.2716  0.6436 -0.2059
 2706TIP3   OH2 8081   6.018   1.179   2.538 -0.0993  0.1388  0.4875
 2706TIP3    H1 8082   6.006   1.267   2.573  1.1848  0.0819  1.1534
 2706TIP3    H2 8083   6.041   1.125   2.614  3.6714  0.1856 -0.3748
 2707TIP3   OH2 8084   5.180   3.554   4.313 -0.0915  0.1546  0.1470
 2707TIP3    H1 8085   5.179   3.643   4.348 -0.3850  0.4640 -0.6478
 2707TIP3    H2 8086   5.097   3.544   4.267  1.4576  0.8277 -3.1045
 2708TIP3   OH2 8087   1.048   1.138   3.089  0.6531 -0.0192  0.2815
 2708TIP3    H1 8088   1.046   1.054   3.135 -0.2100 -0.4232 -0.4587
 2708TIP3    H2 8089   0.970   1.184   3.121  0.8536  0.2974  0.3165
 2709TIP3   OH2 8090   5.766   1.272   4.636 -1.0593 -0.6662 -0.0452
 2709TIP3    H1 8091   5.840   1.211   4.642 -0.4545 -0.2387 -2.2218
 2709TIP3    H2 8092   5.798   1.352   4.678 -1.3854 -1.3709  1.6378
 2710TIP3   OH2 8093   5.814   1.793   2.442  0.7362  0.1116 -0.2973
 2710TIP3    H1 8094   5.866   1.833   2.373  1.5455  0.9249  0.7520
 2710TIP3    H2 8095   5.869   1.797   2.520 -0.6485  0.4314  0.7216
 2711TIP3   OH2 8096   3.488   0.681   4.529 -0.0135 -0.4931  0.0914
 2711TIP3    H1 8097   3.571   0.634   4.518 -1.0318 -2.6601  1.2391
 2711TIP3    H2 8098   3.473   0.682   4.623 -2.1831 -1.8181 -0.1854
 2712TIP3   OH2 8099   1.279   3.724   2.521 -0.3101  0.4892 -0.1112
 2712TIP3    H1 8100   1.222   3.768   2.584 -1.2060  0.9306 -1.1891
 2712TIP3    H2 8101   1.266   3.773   2.440  1.6552  0.6209 -0.3820
 2713TIP3   OH2 8102   6.949   2.948   5.560 -0.7445  0.3658 -0.5703
 2713TIP3    H1 8103   6.938   3.034   5.517 -1.8171 -0.4383 -1.9875
 2713TIP3    H2 8104   7.017   2.905   5.508 -0.3279  0.2750  0.0407
 2714TIP3   OH2 8105   5.787   0.131   1.124 -0.2774 -0.0282  0.5290
 2714TIP3    H1 8106   5.807   0.038   1.113  1.6334  0.5818 -2.5201
 2714TIP3    H2 8107   5.747   0.156   1.041  1.9705  2.4136  0.0462
 2715TIP3   OH2 8108   3.706   5.251   2.266  0.0618  0.5431  0.0465
 2715TIP3    H1 8109   3.691   5.192   2.339  1.7474 -0.1931 -0.1643
 2715TIP3    H2 8110   3.727   5.193   2.192  0.5659  1.3474 -0.4620
 2716TIP3   OH2 8111   1.062   6.096   5.759  0.0974 -0.4218  0.0907
 2716TIP3    H1 8112   1.111   6.086   5.840 -0.3815  0.4761  0.5025
 2716TIP3    H2 8113   1.000   6.166   5.776  1.8677  1.8234 -1.9130
 2717TIP3   OH2 8114   4.256   3.460   0.539  0.2029  0.1536 -0.1529
 2717TIP3    H1 8115   4.264   3.387   0.476  1.6356 -0.1294  0.3106
 2717TIP3    H2 8116   4.176   3.441   0.588  1.7981 -2.5344  1.6545
 2718TIP3   OH2 8117   2.816   5.640   0.695 -0.1835 -0.7171 -0.0950
 2718TIP3    H1 8118   2.882   5.576   0.667  0.3778 -0.3644  0.4048
 2718TIP3    H2 8119   2.865   5.721   0.708 -0.7765 -0.3657 -0.0444
 2719TIP3   OH2 8120   5.328   5.698   2.316 -0.3119 -0.4518  0.0553
 2719TIP3    H1 8121   5.394   5.713   2.384 -2.6215  0.7725  2.1992
 2719TIP3    H2 8122   5.379   5.679   2.237  2.5575 -0.1388  1.6740
 2720TIP3   OH2 8123   2.931   3.111   3.543  0.7302 -0.0012  0.1352
 2720TIP3    H1 8124   2.933   3.016   3.531  1.6155  0.1863 -1.4582
 2720TIP3    H2 8125   3.018   3.141   3.516  0.2141  1.3491 -0.1157
 2721TIP3   OH2 8126   2.200   4.222   3.613 -0.0234 -0.8712  0.3394
 2721TIP3    H1 8127   2.207   4.286   3.542  1.0806 -1.3792 -0.0214
 2721TIP3    H2 8128   2.167   4.273   3.687  2.1725  0.4734  0.4755
 2722TIP3   OH2 8129   4.093   6.440   3.531  0.2479  0.2820 -0.0369
 2722TIP3    H1 8130   4.031   6.511   3.514 -0.8728 -0.2715  1.5155
 2722TIP3    H2 8131   4.069   6.408   3.618  1.3851 -1.3462 -0.2849
 2723TIP3   OH2 8132   1.198   1.584   3.742 -0.5257 -0.0697 -0.6141
 2723TIP3    H1 8133   1.203   1.619   3.831  1.1572 -1.1820 -0.2058
 2723TIP3    H2 8134   1.222   1.658   3.686 -2.0145  0.7549 -0.1972
 2724TIP3   OH2 8135   0.718   1.615   1.984 -0.2258 -1.0967 -0.5375
 2724TIP3    H1 8136   0.728   1.645   2.074 -4.1544 -0.7440 -0.0421
 2724TIP3    H2 8137   0.789   1.659   1.937  0.2978  0.9177  1.9027
 2725TIP3   OH2 8138   2.432   5.116   0.787 -0.6349  0.4585 -0.4019
 2725TIP3    H1 8139   2.359   5.076   0.834  0.5766 -0.8928  0.4170
 2725TIP3    H2 8140   2.505   5.114   0.849  0.3459  0.9577 -1.4922
 2726TIP3   OH2 8141   0.880   1.785   1.512  0.3352  0.4474  0.0606
 2726TIP3    H1 8142   0.941   1.846   1.470  0.9448 -0.6817 -0.7481
 2726TIP3    H2 8143   0.935   1.712   1.539 -0.5155 -0.1516  0.1890
 2727TIP3   OH2 8144   1.292   3.968   4.344  0.0226 -0.0361 -0.2517
 2727TIP3    H1 8145   1.282   4.031   4.273 -0.1622  0.7372  0.4464
 2727TIP3    H2 8146   1.249   3.889   4.312  1.2664 -0.2102 -1.6118
 2728TIP3   OH2 8147   1.265   4.961   0.037  0.2344  0.6146 -0.2971
 2728TIP3    H1 8148   1.212   4.884   0.017 -0.5877  0.4341  2.2104
 2728TIP3    H2 8149   1.317   4.936   0.113  1.2366  1.9813 -0.4893
 2729TIP3   OH2 8150   5.024   0.852   0.999 -0.3289 -0.4093  0.0017
 2729TIP3    H1 8151   4.987   0.771   1.034  0.1339 -0.5648  0.1383
 2729TIP3    H2 8152   4.964   0.921   1.027  0.4651 -0.4128  1.8171
 2730TIP3   OH2 8153   6.790   4.727   4.430 -0.1448  0.4540  0.0922
 2730TIP3    H1 8154   6.752   4.815   4.439  0.2659  0.6224  0.1907
 2730TIP3    H2 8155   6.751   4.693   4.349  0.8449  1.3175 -0.7839
 2731TIP3   OH2 8156   5.078   2.880   4.836 -0.1199 -0.3262  0.5879
 2731TIP3    H1 8157   5.135   2.929   4.894  2.2707 -2.7029  0.4903
 2731TIP3    H2 8158   5.118   2.891   4.749 -1.5888  0.3402 -0.0288
 2732TIP3   OH2 8159   5.312   4.462   3.853 -0.1120  0.0598  0.1187
 2732TIP3    H1 8160   5.378   4.399   3.823  1.9595  1.4487  1.4852
 2732TIP3    H2 8161   5.319   4.535   3.793  2.5900  1.9552  2.4927
 2733TIP3   OH2 8162   3.803   1.006   3.284 -0.0958 -0.9341  0.3664
 2733TIP3    H1 8163   3.772   1.076   3.341 -1.0757 -0.8093 -0.2817
 2733TIP3    H2 8164   3.860   0.953   3.339 -0.0833 -0.1517  1.1231
 2734TIP3   OH2 8165   0.351   6.690   5.680 -0.3475 -0.0607 -0.1160
 2734TIP3    H1 8166   0.404   6.690   5.600 -0.5791 -1.3841 -0.2945
 2734TIP3    H2 8167   0.284   6.623   5.664 -0.8677  0.2016  0.8870
 2735TIP3   OH2 8168   0.860   6.607   5.487 -0.0998  0.7513 -0.2146
 2735TIP3    H1 8169   0.950   6.619   5.457  0.3893 -1.4411  0.2256
 2735TIP3    H2 8170   0.840   6.688   5.534  0.9043  2.1037 -1.9714
 2736TIP3   OH2 8171   2.755   5.957   0.036 -0.0173  0.2203 -0.2519
 2736TIP3    H1 8172   2.823   5.993   0.093 -0.6136  1.7022 -0.4208
 2736TIP3    H2 8173   2.803   5.916  -0.036  0.7024  0.5191  0.0483
 2737TIP3   OH2 8174   5.487   4.060   3.388  0.1489 -0.1341  0.4013
 2737TIP3    H1 8175   5.571   4.054   3.433  1.7166 -0.6668 -2.3695
 2737TIP3    H2 8176   5.481   4.151   3.359 -0.1376 -0.1387  0.4386
 2738TIP3   OH2 8177   3.164   0.339   2.424 -0.0428 -0.1671 -0.3244
 2738TIP3    H1 8178   3.198   0.257   2.388  0.4021 -0.6632  1.1145
 2738TIP3    H2 8179   3.234   0.371   2.480 -0.8773  0.2711  0.5066
 2739TIP3   OH2 8180   6.456   2.539   4.346  0.6903 -0.5190 -0.0185
 2739TIP3    H1 8181   6.404   2.476   4.296 -0.1139 -0.0444  0.2053
 2739TIP3    H2 8182   6.424   2.625   4.317  2.0237 -0.1859 -0.5865
 2740TIP3   OH2 8183   0.501   3.522   2.748  0.1643 -0.3172  0.2379
 2740TIP3    H1 8184   0.590   3.486   2.745  1.0572  1.6881  0.8778
 2740TIP3    H2 8185   0.514   3.617   2.752 -2.0176  0.0150  0.5743
 2741TIP3   OH2 8186   5.552   1.835   4.841  0.4783  0.4375 -0.1290
 2741TIP3    H1 8187   5.613   1.905   4.862  1.6167 -0.4118 -0.4968
 2741TIP3    H2 8188   5.603   1.773   4.789 -0.2339 -1.1073  0.9367
 2742TIP3   OH2 8189   2.224   4.781   3.502  0.2304 -0.1868 -0.1989
 2742TIP3    H1 8190   2.290   4.809   3.565 -0.8770  4.2111 -0.6502
 2742TIP3    H2 8191   2.274   4.747   3.428  1.8620  0.3171  0.6365
 2743TIP3   OH2 8192   3.435   5.056   2.708  0.3049 -0.4474 -0.6125
 2743TIP3    H1 8193   3.511   5.080   2.761  0.3651  0.2872 -1.0218
 2743TIP3    H2 8194   3.375   5.015   2.771 -0.4611  2.1722  0.5175
 2744TIP3   OH2 8195   2.660   6.052   3.484  0.2329 -0.1077 -0.2656
 2744TIP3    H1 8196   2.584   6.085   3.435  0.2944  0.6416  0.1207
 2744TIP3    H2 8197   2.710   6.002   3.419  0.3719  0.9644 -1.0255
 2745TIP3   OH2 8198   2.977   4.538   1.083 -0.5409  0.3033  0.0792
 2745TIP3    H1 8199   2.978   4.442   1.086  0.3381  0.2689 -0.6658
 2745TIP3    H2 8200   2.991   4.565   1.173  1.2569 -0.2957  0.0179
 2746TIP3   OH2 8201   2.906   1.048   2.201  0.1347  0.2367 -0.2790
 2746TIP3    H1 8202   2.876   1.052   2.292 -2.3632 -0.6251 -0.9648
 2746TIP3    H2 8203   2.924   0.955   2.185  1.8160  0.5460 -0.3432
 2747TIP3   OH2 8204   4.863   2.210   2.273  0.1393  0.0757  0.1507
 2747TIP3    H1 8205   4.800   2.274   2.306 -0.4119  0.7247 -2.0112
 2747TIP3    H2 8206   4.943   2.260   2.259 -0.0330  0.1150 -0.7267
 2748TIP3   OH2 8207   2.014   0.498   2.266 -0.0348  0.0874 -0.9116
 2748TIP3    H1 8208   1.955   0.482   2.192 -1.4347 -1.1148  0.3951
 2748TIP3    H2 8209   2.022   0.413   2.310 -0.8637  1.1384  1.4414
 2749TIP3   OH2 8210   7.007   1.156   4.228  0.2677  0.1243  0.3128
 2749TIP3    H1 8211   7.005   1.141   4.134 -1.3547  1.8112  0.0330
 2749TIP3    H2 8212   7.100   1.155   4.251  0.6090 -1.9510 -0.9857
 2750TIP3   OH2 8213   0.167   6.113   0.100  0.0812 -0.0609  0.4913
 2750TIP3    H1 8214   0.105   6.087   0.168  1.4533 -1.7719  1.1679
 2750TIP3    H2 8215   0.174   6.037   0.043  0.5288  0.6056 -0.3715
 2751TIP3   OH2 8216   0.417   6.118   2.432 -0.6028  1.0856 -0.0836
 2751TIP3    H1 8217   0.350   6.050   2.431  0.4696 -0.0210  0.5368
 2751TIP3    H2 8218   0.400   6.168   2.511 -1.2598  1.4101 -0.4259
 2752TIP3   OH2 8219   6.827   1.563   2.575 -0.0641  0.0468 -0.0813
 2752TIP3    H1 8220   6.918   1.567   2.603  0.3210 -0.0731 -1.2367
 2752TIP3    H2 8221   6.810   1.470   2.560 -0.7168 -0.0506  1.1230
 2753TIP3   OH2 8222   4.725   6.320   2.388  0.1709  0.3866  0.2126
 2753TIP3    H1 8223   4.796   6.383   2.375 -0.0015  0.9604  1.7782
 2753TIP3    H2 8224   4.645   6.372   2.378  0.0288  0.7047  2.4724
 2754TIP3   OH2 8225   2.975   4.860   4.013 -0.3692 -0.2953 -0.6513
 2754TIP3    H1 8226   2.979   4.949   4.049 -0.2280  0.1326 -1.6904
 2754TIP3    H2 8227   3.064   4.826   4.023 -0.2106  0.0029 -1.0367
 2755TIP3   OH2 8228   5.552   5.041   4.592 -0.1072  0.4765 -0.2205
 2755TIP3    H1 8229   5.647   5.047   4.605  0.1599  0.0211 -1.7670
 2755TIP3    H2 8230   5.518   5.125   4.621  1.1090  1.6876 -2.0876
 2756TIP3   OH2 8231   5.797   1.046   4.306  0.0127  0.7615 -0.1310
 2756TIP3    H1 8232   5.786   1.061   4.212 -1.9255 -0.7413 -0.1931
 2756TIP3    H2 8233   5.765   1.127   4.347 -0.6383  0.8056 -0.7169
 2757TIP3   OH2 8234   3.859   1.348   0.014 -0.2548 -0.1905 -0.2474
 2757TIP3    H1 8235   3.786   1.291   0.038 -1.2352  1.8988  2.2106
 2757TIP3    H2 8236   3.896   1.377   0.098  2.5746 -0.0687 -1.3985
 2758TIP3   OH2 8237   4.974   0.399   5.112 -0.0179 -0.7442 -0.2060
 2758TIP3    H1 8238   4.963   0.325   5.052 -1.1172  0.9712 -2.2407
 2758TIP3    H2 8239   5.045   0.372   5.170  1.8407 -2.1273 -2.9260
 2759TIP3   OH2 8240   4.136   2.162   1.095  0.1487 -0.4124  0.6367
 2759TIP3    H1 8241   4.073   2.150   1.024 -0.7116 -0.8688  1.4408
 2759TIP3    H2 8242   4.207   2.213   1.057 -0.7114  0.1167 -0.3066
 2760TIP3   OH2 8243   3.053   5.961   1.954 -0.5296 -0.2614  0.2782
 2760TIP3    H1 8244   2.987   6.019   1.917 -2.2637 -0.9458  2.1397
 2760TIP3    H2 8245   3.095   6.013   2.023  0.5953  0.0174 -0.5956
 2761TIP3   OH2 8246   5.155   5.557   2.062  0.6582 -0.3459  0.1639
 2761TIP3    H1 8247   5.218   5.515   2.122 -0.4811  0.3059  1.8988
 2761TIP3    H2 8248   5.070   5.527   2.092  0.0334  0.2183 -0.9967
 2762TIP3   OH2 8249   6.858   5.684   2.436 -0.1687 -0.0821  0.0422
 2762TIP3    H1 8250   6.764   5.681   2.416 -0.2539 -2.3121  0.5167
 2762TIP3    H2 8251   6.895   5.609   2.389  1.1459 -0.0813  1.0258
 2763TIP3   OH2 8252   2.583   2.681   3.975  0.3108  0.8728  0.3465
 2763TIP3    H1 8253   2.601   2.770   3.944  1.8220  0.5056  0.1027
 2763TIP3    H2 8254   2.603   2.625   3.900  1.7527  0.1453  1.2362
 2764TIP3   OH2 8255   5.956   4.479   1.680 -0.6895  0.0229  0.4963
 2764TIP3    H1 8256   5.942   4.562   1.633 -1.3974  1.6872  3.3774
 2764TIP3    H2 8257   5.888   4.421   1.647 -2.0391  1.5802  0.3924
 2765TIP3   OH2 8258   5.195   0.157   2.734 -0.8524 -0.1887 -0.3999
 2765TIP3    H1 8259   5.107   0.167   2.696 -1.1168  0.1517  0.2972
 2765TIP3    H2 8260   5.248   0.222   2.689 -0.9831 -0.3056 -0.7302
 2766TIP3   OH2 8261   7.165   3.419   1.374 -0.2041  0.0581 -0.1593
 2766TIP3    H1 8262   7.241   3.361   1.371 -0.1329  0.0083  1.5336
 2766TIP3    H2 8263   7.197   3.500   1.412 -0.9110  0.1753  0.2100
 2767TIP3   OH2 8264   4.396   2.446   0.045 -0.2726 -0.4826 -0.5414
 2767TIP3    H1 8265   4.432   2.387  -0.021 -0.6822  0.1092 -1.3133
 2767TIP3    H2 8266   4.466   2.510   0.061  0.7380 -1.9651  1.3760
 2768TIP3   OH2 8267   4.340   3.860   4.638  0.4783  0.2833  0.0197
 2768TIP3    H1 8268   4.320   3.862   4.545  0.7559  1.2893 -0.0348
 2768TIP3    H2 8269   4.260   3.890   4.681 -0.4807 -2.3943  0.3077
 2769TIP3   OH2 8270   2.826   1.748   5.269 -0.0549  0.0587  0.2469
 2769TIP3    H1 8271   2.844   1.675   5.210 -1.6731 -0.6191  0.5596
 2769TIP3    H2 8272   2.830   1.826   5.213 -0.7811 -0.5035 -0.5939
 2770TIP3   OH2 8273   5.287   2.502   2.944  0.4470 -0.2016 -0.7131
 2770TIP3    H1 8274   5.297   2.596   2.930  0.2236 -0.1267 -0.3825
 2770TIP3    H2 8275   5.210   2.478   2.893  0.0420 -0.0574 -0.1799
 2771TIP3   OH2 8276   6.912   1.717   5.493  0.0955  0.2134 -0.0225
 2771TIP3    H1 8277   6.991   1.771   5.497 -0.4341  1.0157 -0.0140
 2771TIP3    H2 8278   6.921   1.666   5.413  0.2737  0.8640 -0.4232
 2772TIP3   OH2 8279   2.290   1.574   2.145 -0.0298 -0.2596  0.1284
 2772TIP3    H1 8280   2.306   1.658   2.102 -0.3271 -0.6414 -0.7339
 2772TIP3    H2 8281   2.277   1.597   2.237 -1.6325  0.8225 -0.3342
 2773TIP3   OH2 8282   2.622   3.871   2.875  0.3040 -0.8333  0.0987
 2773TIP3    H1 8283   2.573   3.790   2.865 -0.5091 -0.2606 -0.7188
 2773TIP3    H2 8284   2.581   3.915   2.950  0.0776 -0.7141 -0.0944
 2774TIP3   OH2 8285   3.888   2.478   0.214  0.0456  0.4466 -0.0124
 2774TIP3    H1 8286   3.897   2.544   0.283 -1.1480 -0.5709  1.1909
 2774TIP3    H2 8287   3.977   2.461   0.185  0.9401 -0.8587  3.0862
 2775TIP3   OH2 8288   6.923   0.227   0.868  0.1323 -0.0042  0.1572
 2775TIP3    H1 8289   6.866   0.215   0.944  0.5401  0.3580  0.5260
 2775TIP3    H2 8290   6.885   0.301   0.820  0.8605  0.9063  0.9526
 2776TIP3   OH2 8291   4.842   2.812   4.543  0.1058 -0.3542  0.2095
 2776TIP3    H1 8292   4.751   2.830   4.518 -0.2486 -0.4425  1.3479
 2776TIP3    H2 8293   4.894   2.842   4.469 -0.9328 -1.7774 -1.1697
 2777TIP3   OH2 8294   2.063   2.260   2.133 -0.4059 -0.5262 -0.6541
 2777TIP3    H1 8295   2.060   2.166   2.116 -0.0020 -0.8232  0.8091
 2777TIP3    H2 8296   1.987   2.277   2.188 -0.3968 -0.0172 -0.7922
 2778TIP3   OH2 8297   0.374   2.098   4.224  0.4192  0.0534  0.4333
 2778TIP3    H1 8298   0.340   2.088   4.313  0.3735 -0.5310  0.3530
 2778TIP3    H2 8299   0.438   2.028   4.214 -0.3158 -0.5306 -0.3439
 2779TIP3   OH2 8300   0.418   1.001   3.987  0.2221  0.0182  0.6145
 2779TIP3    H1 8301   0.412   0.922   4.041 -2.0592  1.1056  2.1385
 2779TIP3    H2 8302   0.490   1.051   4.025  0.7153 -0.6536  0.5862
 2780TIP3   OH2 8303   7.204   2.493   5.297 -0.0291  0.2180  0.1397
 2780TIP3    H1 8304   7.181   2.518   5.386  0.2240 -0.9977  0.5573
 2780TIP3    H2 8305   7.128   2.519   5.244 -1.4715 -1.7364  1.1505
 2781TIP3   OH2 8306   5.550   0.088   2.051  0.5478 -0.0265 -0.3061
 2781TIP3    H1 8307   5.605   0.159   2.018 -0.7341  0.6336 -1.1017
 2781TIP3    H2 8308   5.479   0.082   1.988  0.5094 -1.9035 -0.1445
 2782TIP3   OH2 8309   1.255   4.475   2.410  0.6593  0.5777 -0.5703
 2782TIP3    H1 8310   1.238   4.523   2.329 -0.9841  1.7166  0.3887
 2782TIP3    H2 8311   1.340   4.434   2.396 -0.9484 -2.0750 -4.1840
 2783TIP3   OH2 8312   1.168   3.065   0.612  0.1787 -0.1930 -0.4040
 2783TIP3    H1 8313   1.104   3.038   0.678  0.8557 -1.8586 -0.3856
 2783TIP3    H2 8314   1.248   3.079   0.661 -0.0364  1.5444 -0.4807
 2784TIP3   OH2 8315   6.191   6.115   0.456  0.0447  0.7170 -0.1888
 2784TIP3    H1 8316   6.184   6.028   0.417 -0.4613  0.9043 -0.5224
 2784TIP3    H2 8317   6.259   6.159   0.406  1.0704  0.1493  0.6772
 2785TIP3   OH2 8318   0.843   6.710   3.971  0.4184  1.0737 -0.1565
 2785TIP3    H1 8319   0.777   6.669   4.028 -0.3150  0.0821 -1.6688
 2785TIP3    H2 8320   0.798   6.786   3.933  0.7690  1.4856  0.2423
 2786TIP3   OH2 8321   3.578   3.076   0.257  0.3490  0.2326  0.1813
 2786TIP3    H1 8322   3.664   3.042   0.236  1.1961  1.1151  1.9526
 2786TIP3    H2 8323   3.590   3.171   0.261 -0.6311  0.3504  0.7289
 2787TIP3   OH2 8324   4.071   6.378   5.624 -0.7847  0.0468 -0.4579
 2787TIP3    H1 8325   4.073   6.471   5.647 -0.5607  0.4016 -1.8730
 2787TIP3    H2 8326   4.104   6.333   5.703 -0.0047  1.2182 -0.1026
 2788TIP3   OH2 8327   0.284   5.788   2.484  0.2515 -0.1761  0.3784
 2788TIP3    H1 8328   0.237   5.846   2.424  0.1600 -0.4906  0.1416
 2788TIP3    H2 8329   0.291   5.705   2.436 -2.2036 -1.3163  1.8533
 2789TIP3   OH2 8330   4.237   6.261   5.838  0.2026 -0.0638  0.1103
 2789TIP3    H1 8331   4.329   6.239   5.821  0.1722 -0.1242  0.0232
 2789TIP3    H2 8332   4.200   6.181   5.875 -0.0384 -0.3367 -0.6996
 2790TIP3   OH2 8333   3.951   5.494   1.834  0.0451 -0.1965  0.2893
 2790TIP3    H1 8334   3.907   5.554   1.774  0.6235 -0.2056 -0.1548
 2790TIP3    H2 8335   4.041   5.526   1.838  0.5280 -1.3863 -0.4496
 2791TIP3   OH2 8336   6.404   3.875   1.210 -0.2162  0.1254  0.6280
 2791TIP3    H1 8337   6.344   3.841   1.144  0.1271 -0.2169  0.4828
 2791TIP3    H2 8338   6.351   3.934   1.263 -0.5458  0.2381  0.1769
 2792TIP3   OH2 8339   5.064   2.718   0.665 -0.3071  0.3632  0.3152
 2792TIP3    H1 8340   5.000   2.652   0.692 -0.7825  0.7684  0.2119
 2792TIP3    H2 8341   5.011   2.785   0.620  0.1649  0.8022  0.4046
 2793TIP3   OH2 8342   5.119   3.783   3.957  0.2396  0.1904 -0.4367
 2793TIP3    H1 8343   5.158   3.868   3.980  0.0855 -0.5057  2.7935
 2793TIP3    H2 8344   5.026   3.793   3.977 -0.1052 -0.2197 -1.7579
 2794TIP3   OH2 8345   2.410   6.737   3.275 -0.0456 -0.2689  0.0336
 2794TIP3    H1 8346   2.321   6.761   3.249 -0.1395  0.1365  0.6913
 2794TIP3    H2 8347   2.463   6.812   3.247 -0.2396  0.4538  1.5102
 2795TIP3   OH2 8348   4.070   5.381   5.648  0.0741 -0.9439  0.5398
 2795TIP3    H1 8349   4.043   5.423   5.567 -1.5666 -3.0399 -0.0811
 2795TIP3    H2 8350   4.018   5.423   5.716  0.0385 -0.5134  0.2485
 2796TIP3   OH2 8351   3.406   3.249   3.424  0.1524 -0.1901 -0.3291
 2796TIP3    H1 8352   3.436   3.160   3.437  2.9430  0.7981  0.6605
 2796TIP3    H2 8353   3.462   3.284   3.355  1.4067  1.7217  1.5305
 2797TIP3   OH2 8354   1.994   4.223   2.031  0.6600 -0.4004 -0.2487
 2797TIP3    H1 8355   2.036   4.286   2.090 -0.3535 -1.5563  1.7830
 2797TIP3    H2 8356   1.966   4.276   1.956  3.1993  0.8762 -0.3948
 2798TIP3   OH2 8357   6.065   0.448   0.801 -0.1666  0.2529 -0.1453
 2798TIP3    H1 8358   6.028   0.360   0.797  0.0171  0.1464  0.4193
 2798TIP3    H2 8359   6.055   0.483   0.712 -1.2564  0.0849 -0.0981
 2799TIP3   OH2 8360   4.559   3.648   5.603 -0.1042  0.6374  0.5627
 2799TIP3    H1 8361   4.644   3.657   5.645  0.1132 -0.3801  0.3778
 2799TIP3    H2 8362   4.519   3.735   5.609  0.5374  0.8773  1.5345
 2800TIP3   OH2 8363   2.880   5.604   3.335  0.1937 -0.1346  0.1215
 2800TIP3    H1 8364   2.905   5.520   3.297 -1.0213  0.6641 -2.6910
 2800TIP3    H2 8365   2.943   5.618   3.405  3.9412 -0.9474 -2.7312
 2801TIP3   OH2 8366   4.301   3.066   2.768 -0.4536  0.2051  0.2030
 2801TIP3    H1 8367   4.337   2.981   2.742  2.6587  1.6550 -0.6816
 2801TIP3    H2 8368   4.269   3.104   2.686  1.8860  1.4547 -0.2013
 2802TIP3   OH2 8369   0.690   3.341   0.261  0.0693 -1.3026 -0.6788
 2802TIP3    H1 8370   0.662   3.318   0.349  2.5262 -0.8503  0.3074
 2802TIP3    H2 8371   0.623   3.401   0.228 -0.4805 -0.8647  1.1692
 2803TIP3   OH2 8372   3.692   4.866   4.426  0.1109  0.3199  0.8142
 2803TIP3    H1 8373   3.725   4.795   4.482  1.4790  0.9374  0.8389
 2803TIP3    H2 8374   3.655   4.929   4.488  1.5263  0.9526  1.0612
 2804TIP3   OH2 8375   2.238   3.829   0.070 -0.5335 -0.6363 -0.3674
 2804TIP3    H1 8376   2.328   3.804   0.049  0.0502  1.5723 -0.7604
 2804TIP3    H2 8377   2.244   3.870   0.157 -0.8957  0.6283 -0.9098
 2805TIP3   OH2 8378   2.654   1.358   3.179 -0.5089 -0.1090  0.4278
 2805TIP3    H1 8379   2.638   1.322   3.266  1.8661 -2.4902  0.0134
 2805TIP3    H2 8380   2.739   1.401   3.186  0.1732 -1.1685 -0.8797
 2806TIP3   OH2 8381   3.085   3.421   4.610 -0.0355  0.6833  0.2383
 2806TIP3    H1 8382   3.073   3.358   4.681  0.5296  1.3673  0.9608
 2806TIP3    H2 8383   3.110   3.368   4.534  2.7729  0.1752  1.3903
 2807TIP3   OH2 8384   3.846   3.563   5.244  0.2132  0.0563  0.4718
 2807TIP3    H1 8385   3.791   3.571   5.165  2.8580 -0.5350 -1.5682
 2807TIP3    H2 8386   3.891   3.647   5.251 -0.8435  0.5309  2.1193
 2808TIP3   OH2 8387   7.002   2.869   5.845  0.5162  0.5600 -0.0611
 2808TIP3    H1 8388   6.975   2.864   5.753 -0.3584  0.9731  0.1629
 2808TIP3    H2 8389   6.932   2.918   5.888  0.9474  0.4243  0.8192
 2809TIP3   OH2 8390   2.465   6.705   2.010 -0.1340  0.1767 -0.1789
 2809TIP3    H1 8391   2.542   6.762   2.010  1.6005 -2.0272 -1.2704
 2809TIP3    H2 8392   2.402   6.750   1.954  1.5602  0.5786 -1.8559
 2810TIP3   OH2 8393   0.286   3.537   5.900  0.3381  0.2731 -0.2904
 2810TIP3    H1 8394   0.217   3.500   5.845 -0.2019  2.0556 -0.9060
 2810TIP3    H2 8395   0.300   3.625   5.864  0.1901  1.4182  2.2321
 2811TIP3   OH2 8396   2.450   0.440   5.206  0.3102 -0.3770  0.1705
 2811TIP3    H1 8397   2.447   0.519   5.259 -1.5420  1.3425 -2.2873
 2811TIP3    H2 8398   2.373   0.389   5.235 -0.7485  0.5959 -0.8339
 2812TIP3   OH2 8399   0.204   0.909   0.235 -0.6411 -0.0119  0.2574
 2812TIP3    H1 8400   0.233   0.822   0.262 -0.3027  0.7068  2.4197
 2812TIP3    H2 8401   0.206   0.907   0.139 -0.4699 -2.2977  0.2661
 2813TIP3   OH2 8402   4.609   4.915   5.317 -0.3928 -0.1114 -0.0119
 2813TIP3    H1 8403   4.618   4.936   5.410 -2.1523 -2.3686  0.7550
 2813TIP3    H2 8404   4.691   4.870   5.294  0.8729  2.1169 -0.1492
 2814TIP3   OH2 8405   0.399   0.194   0.517  0.5654  0.5323 -0.7028
 2814TIP3    H1 8406   0.423   0.213   0.426 -1.0272  0.7400 -1.1045
 2814TIP3    H2 8407   0.402   0.278   0.561  0.5746  0.5557 -0.7478
 2815TIP3   OH2 8408   1.949   4.134   3.209  0.6736  0.7186  0.6854
 2815TIP3    H1 8409   1.974   4.131   3.301  1.3562  0.7592  0.5075
 2815TIP3    H2 8410   1.988   4.054   3.171  0.9227  1.0128  0.3078
 2816TIP3   OH2 8411   0.810   0.553   2.151  0.4957  0.3283  0.3194
 2816TIP3    H1 8412   0.755   0.523   2.079 -0.9507  1.0422  1.1063
 2816TIP3    H2 8413   0.818   0.648   2.138  2.2068  0.1463 -0.2172
 2817TIP3   OH2 8414   6.738   1.801   2.025  0.1461 -0.1459 -0.0703
 2817TIP3    H1 8415   6.804   1.824   2.091 -1.0299  0.4789  0.9534
 2817TIP3    H2 8416   6.657   1.839   2.059 -1.1181 -2.3916 -0.3739
 2818TIP3   OH2 8417   1.470   4.594   1.605  0.5561 -0.3297 -0.3038
 2818TIP3    H1 8418   1.381   4.586   1.640 -0.1039 -0.6915 -2.0046
 2818TIP3    H2 8419   1.517   4.519   1.642 -0.4005 -1.2807 -0.9557
 2819TIP3   OH2 8420   4.953   4.922   2.784 -0.1102 -0.5483  0.0140
 2819TIP3    H1 8421   5.048   4.916   2.776  0.2131  1.1885  1.7716
 2819TIP3    H2 8422   4.934   5.015   2.776 -1.2749 -0.4652  2.6530
 2820TIP3   OH2 8423   3.532   6.428   4.331  0.1441  0.3418  0.3773
 2820TIP3    H1 8424   3.445   6.467   4.333 -0.5309 -0.9513 -1.6924
 2820TIP3    H2 8425   3.588   6.495   4.371 -1.1617  2.8692 -1.6817
 2821TIP3   OH2 8426   6.255   1.337   2.345  0.0820  0.2789  0.2382
 2821TIP3    H1 8427   6.206   1.406   2.300  1.1585  1.1372  0.3606
 2821TIP3    H2 8428   6.345   1.347   2.315  0.2270 -1.2474  0.0641
 2822TIP3   OH2 8429   2.551   4.984   4.619  0.6974  0.6279 -0.2714
 2822TIP3    H1 8430   2.508   4.936   4.690  0.0912  0.9971 -0.3853
 2822TIP3    H2 8431   2.485   5.046   4.588  1.1053  0.7719 -0.8684
 2823TIP3   OH2 8432   4.297   5.424   1.323  0.3569  0.4262 -0.2494
 2823TIP3    H1 8433   4.233   5.367   1.281 -1.3711  2.0182  0.0751
 2823TIP3    H2 8434   4.315   5.383   1.407 -1.0994  0.4829  0.1156
 2824TIP3   OH2 8435   6.266   0.730   1.452  0.1052  0.3473 -0.0549
 2824TIP3    H1 8436   6.209   0.656   1.432  0.8662  0.0112 -1.0697
 2824TIP3    H2 8437   6.355   0.695   1.442  0.4820  1.1815  0.2522
 2825TIP3   OH2 8438   1.231   0.898   1.895 -0.0844  0.7639 -0.1701
 2825TIP3    H1 8439   1.268   0.944   1.820  0.5824  1.0776  0.3454
 2825TIP3    H2 8440   1.307   0.861   1.940 -0.3328  1.7828  1.1469
 2826TIP3   OH2 8441   1.513   5.224   3.868  0.0461 -0.5303 -0.5657
 2826TIP3    H1 8442   1.431   5.267   3.895 -0.8975 -1.5526 -1.6818
 2826TIP3    H2 8443   1.485   5.139   3.835  1.1884  0.1938 -3.7833
 2827TIP3   OH2 8444   1.206   0.543   3.664 -0.3414  0.3300  0.1630
 2827TIP3    H1 8445   1.191   0.584   3.579 -0.2836  1.0501  0.4922
 2827TIP3    H2 8446   1.222   0.616   3.723  2.7925 -0.2691  0.1905
 2828TIP3   OH2 8447   7.187   4.994   1.527  0.4682 -0.3953  0.2233
 2828TIP3    H1 8448   7.177   5.075   1.577  0.5661 -0.8099  0.9273
 2828TIP3    H2 8449   7.259   5.012   1.467 -0.1205  0.3535 -0.2785
 2829TIP3   OH2 8450   6.579   3.224   4.363  0.1897  0.0837  0.7053
 2829TIP3    H1 8451   6.484   3.215   4.356  0.3525 -0.4657 -2.2532
 2829TIP3    H2 8452   6.600   3.301   4.311  1.5387 -1.6969 -1.6247
 2830TIP3   OH2 8453   5.381   6.154   2.358 -0.3986 -0.2693 -0.4813
 2830TIP3    H1 8454   5.424   6.081   2.314 -0.2937 -0.3032 -0.3245
 2830TIP3    H2 8455   5.437   6.229   2.342 -0.3296 -0.2937 -0.3580
 2831TIP3   OH2 8456   6.270   0.565   5.632  0.3960  0.3092 -0.1079
 2831TIP3    H1 8457   6.226   0.582   5.716  0.2677  0.3306 -0.1786
 2831TIP3    H2 8458   6.207   0.595   5.566  1.5460  2.7920 -0.1739
 2832TIP3   OH2 8459   2.764   3.089   5.851 -0.0248 -0.3286 -0.6006
 2832TIP3    H1 8460   2.810   3.166   5.817  2.6435 -1.4591  0.2442
 2832TIP3    H2 8461   2.799   3.077   5.939 -2.9974 -0.5120  0.6959
 2833TIP3   OH2 8462   6.184   0.930   5.610  0.5245  0.0300  0.2100
 2833TIP3    H1 8463   6.258   0.877   5.580  0.2416  0.0787 -0.6037
 2833TIP3    H2 8464   6.224   1.007   5.649  0.9391 -0.7554  1.3811
 2834TIP3   OH2 8465   1.394   6.495   0.937 -0.2054 -0.7747  0.2551
 2834TIP3    H1 8466   1.334   6.540   0.878  0.9221  0.1111 -0.2580
 2834TIP3    H2 8467   1.370   6.526   1.024  0.2875  0.5652 -0.0528
 2835TIP3   OH2 8468   6.318   5.504   0.773  0.9047  0.4028  0.2112
 2835TIP3    H1 8469   6.341   5.418   0.738 -1.2001 -0.3061  0.4163
 2835TIP3    H2 8470   6.293   5.487   0.864  0.8135  1.3032  0.3633
 2836TIP3   OH2 8471   5.933   6.495   2.902  0.2943  0.1000  0.5325
 2836TIP3    H1 8472   5.882   6.432   2.953 -0.4865  1.3622  1.3495
 2836TIP3    H2 8473   5.982   6.441   2.839  0.8356 -1.4554  2.2134
 2837TIP3   OH2 8474   7.194   3.996   2.702 -0.2067 -0.6020 -0.5841
 2837TIP3    H1 8475   7.108   3.954   2.707 -0.6284  0.3772  0.9952
 2837TIP3    H2 8476   7.191   4.044   2.619 -1.1157 -0.7601 -0.6602
 2838TIP3   OH2 8477   2.574   2.334   0.379 -0.3185  0.4634  0.3521
 2838TIP3    H1 8478   2.600   2.411   0.328 -0.7310  0.9636  0.8886
 2838TIP3    H2 8479   2.645   2.271   0.365  0.6870  1.4188  0.9594
 2839TIP3   OH2 8480   6.446   5.008   4.867  0.2628  0.2471  0.3568
 2839TIP3    H1 8481   6.419   4.929   4.914 -1.1210  1.3103  1.4556
 2839TIP3    H2 8482   6.371   5.029   4.811  1.3684 -0.2445 -1.3940
 2840TIP3   OH2 8483   4.798   3.069   0.469 -0.2879 -0.2045 -0.0849
 2840TIP3    H1 8484   4.800   3.058   0.564  0.2126 -0.7107 -0.1449
 2840TIP3    H2 8485   4.812   3.162   0.454 -1.4865  0.0709  0.3667
 2841TIP3   OH2 8486   3.993   5.541   3.637  0.2456  0.0951 -0.1586
 2841TIP3    H1 8487   4.034   5.627   3.628  0.2433  0.0980 -0.1445
 2841TIP3    H2 8488   3.918   5.544   3.578 -0.7925  0.7391  1.1463
 2842TIP3   OH2 8489   0.806   1.378   2.791  0.2047 -0.2397  0.1449
 2842TIP3    H1 8490   0.879   1.372   2.853  1.7279  0.4342 -1.5129
 2842TIP3    H2 8491   0.836   1.332   2.713 -0.5788  1.1936 -1.0669
 2843TIP3   OH2 8492   2.933   0.505   2.327 -0.6428 -0.4973  0.3728
 2843TIP3    H1 8493   2.872   0.467   2.390 -0.9118  1.6708  1.5470
 2843TIP3    H2 8494   3.020   0.485   2.363 -0.7405 -0.9635  0.3542
 2844TIP3   OH2 8495   1.213   0.668   0.038  0.3017  0.2350  0.6562
 2844TIP3    H1 8496   1.245   0.758   0.029  0.1192  0.1231 -1.9636
 2844TIP3    H2 8497   1.291   0.614   0.030  0.2263  0.1175  0.7131
 2845TIP3   OH2 8498   6.246   2.189   5.479 -0.3378  0.5775 -0.0056
 2845TIP3    H1 8499   6.319   2.144   5.522  0.2354  0.4189 -1.0956
 2845TIP3    H2 8500   6.175   2.126   5.481  0.6543 -0.7236 -2.1122
 2846TIP3   OH2 8501   1.757   2.211   3.281  0.4036  0.6406  0.1898
 2846TIP3    H1 8502   1.806   2.129   3.270  0.4879  0.6597  0.4389
 2846TIP3    H2 8503   1.808   2.276   3.231 -0.7834  0.1120 -1.8455
 2847TIP3   OH2 8504   5.201   1.080   3.759 -0.5507  0.6911 -0.0625
 2847TIP3    H1 8505   5.136   1.052   3.824  0.3632  1.5408  1.2683
 2847TIP3    H2 8506   5.245   1.155   3.799  2.0150 -0.5113 -0.4001
 2848TIP3   OH2 8507   4.765   5.182   5.382 -0.4251 -0.5365  0.2213
 2848TIP3    H1 8508   4.805   5.260   5.344  0.3273 -0.5653  0.9353
 2848TIP3    H2 8509   4.682   5.212   5.418 -1.4219 -0.6074 -1.8804
 2849TIP3   OH2 8510   4.292   4.759   3.525 -0.0665 -0.2813 -0.2103
 2849TIP3    H1 8511   4.338   4.794   3.448 -1.5019  0.2764 -0.8483
 2849TIP3    H2 8512   4.211   4.723   3.490 -0.1200 -1.2720  0.8909
 2850TIP3   OH2 8513   3.453   6.236   4.509 -0.7542 -0.0179  0.1023
 2850TIP3    H1 8514   3.460   6.304   4.442 -1.2900 -1.1052 -1.1218
 2850TIP3    H2 8515   3.370   6.255   4.554 -0.3646  0.7539  0.5089
 2851TIP3   OH2 8516   3.833   6.100   5.342 -0.2223 -0.8041 -0.3224
 2851TIP3    H1 8517   3.860   6.115   5.433  0.4859 -0.6348 -0.5485
 2851TIP3    H2 8518   3.826   6.188   5.305  0.1514 -0.8951 -0.6114
 2852TIP3   OH2 8519   4.189   5.778   0.146 -0.0858  0.2089 -0.3419
 2852TIP3    H1 8520   4.129   5.801   0.216  0.7903 -1.6445  1.0919
 2852TIP3    H2 8521   4.246   5.855   0.137 -1.2004  1.0807 -0.1626
 2853TIP3   OH2 8522   0.190   0.890   4.316 -0.4570 -0.4461 -0.3940
 2853TIP3    H1 8523   0.166   0.899   4.408 -0.5982  2.2378 -0.6249
 2853TIP3    H2 8524   0.274   0.844   4.318  0.0928  0.5327  1.1891
 2854TIP3   OH2 8525   4.691   3.673   3.011 -0.6269  0.3536 -0.5657
 2854TIP3    H1 8526   4.641   3.740   3.058  0.1607  0.1933  0.5354
 2854TIP3    H2 8527   4.771   3.718   2.985  0.0482 -0.2259  0.4616
 2855TIP3   OH2 8528   3.152   0.375   4.055 -0.2510  0.3122  0.2203
 2855TIP3    H1 8529   3.094   0.342   4.123  1.0636 -2.1701  0.2544
 2855TIP3    H2 8530   3.235   0.391   4.101 -0.1919  1.4935 -0.2650
 2856TIP3   OH2 8531   4.795   0.244   1.393 -0.1954 -0.1382 -0.2448
 2856TIP3    H1 8532   4.738   0.177   1.355 -1.6226  0.3636  0.8973
 2856TIP3    H2 8533   4.865   0.195   1.436 -1.3488 -0.9514  0.7718
 2857TIP3   OH2 8534   2.964   6.688   4.802  0.1720  0.6186  0.1113
 2857TIP3    H1 8535   3.032   6.631   4.766 -1.5835 -1.8606  0.4713
 2857TIP3    H2 8536   2.992   6.776   4.778  1.7281 -0.5260 -2.8064
 2858TIP3   OH2 8537   5.995   3.546   4.441 -0.7746 -0.4252 -0.0081
 2858TIP3    H1 8538   6.016   3.452   4.441  0.1731 -0.2344  1.0776
 2858TIP3    H2 8539   6.081   3.589   4.438 -1.2116  0.4190 -0.6247
 2859TIP3   OH2 8540   3.510   4.364   4.986  0.4812  0.1037  0.1164
 2859TIP3    H1 8541   3.463   4.310   5.049  0.8077  0.3033  0.5432
 2859TIP3    H2 8542   3.603   4.345   5.002  0.5477 -1.6436 -1.9101
 2860TIP3   OH2 8543   2.997   4.845   5.321 -0.2572  0.2492  0.0470
 2860TIP3    H1 8544   2.944   4.779   5.367 -0.5261  1.6653  1.8690
 2860TIP3    H2 8545   3.086   4.828   5.351 -0.1217 -0.0825 -0.5152
 2861TIP3   OH2 8546   4.346   2.264   1.594 -0.1194 -0.0947 -0.7053
 2861TIP3    H1 8547   4.259   2.303   1.600  0.1395  0.5204 -0.8510
 2861TIP3    H2 8548   4.396   2.326   1.540  0.4549 -0.3567 -0.4779
 2862TIP3   OH2 8549   4.538   6.246   0.041 -0.4653  0.0806  0.6064
 2862TIP3    H1 8550   4.565   6.158   0.016 -1.1271 -0.4066  1.5113
 2862TIP3    H2 8551   4.556   6.300  -0.036  1.5233 -0.5005  0.6027
 2863TIP3   OH2 8552   0.653   3.975   1.743  0.0438  0.2498  0.2288
 2863TIP3    H1 8553   0.683   4.064   1.765  1.0220 -0.0695  0.2543
 2863TIP3    H2 8554   0.660   3.970   1.647  0.1209  0.1648  0.2380
 2864TIP3   OH2 8555   7.180   4.391   0.121 -0.4631  0.0496  0.1694
 2864TIP3    H1 8556   7.217   4.304   0.136 -1.3288 -0.2409  0.7116
 2864TIP3    H2 8557   7.090   4.374   0.092 -1.5197  0.7478  2.6921
 2865TIP3   OH2 8558   1.180   0.092   2.172 -0.2524  0.1146 -0.1015
 2865TIP3    H1 8559   1.242   0.049   2.113 -1.5779 -1.7776 -0.2285
 2865TIP3    H2 8560   1.159   0.175   2.129 -0.9177 -1.0486 -2.1942
 2866TIP3   OH2 8561   0.792   3.078   2.058  0.8059  0.0353  0.0819
 2866TIP3    H1 8562   0.837   3.142   2.113  0.6144  0.5556 -0.3608
 2866TIP3    H2 8563   0.859   3.045   1.999  0.6917  0.5820 -0.3682
 2867TIP3   OH2 8564   6.170   3.497   4.864 -0.3403 -0.6535 -0.5430
 2867TIP3    H1 8565   6.261   3.510   4.835 -0.5547  0.5947 -0.7269
 2867TIP3    H2 8566   6.165   3.404   4.885  1.3412 -0.5270  0.6694
 2868TIP3   OH2 8567   0.450   1.443   4.103 -0.1367  0.3826 -0.0956
 2868TIP3    H1 8568   0.539   1.411   4.117 -0.4122 -0.2715  0.2704
 2868TIP3    H2 8569   0.440   1.448   4.008  0.0753 -0.2018 -0.1526
 2869TIP3   OH2 8570   2.940   6.279   4.193  0.1628  0.1134 -0.2979
 2869TIP3    H1 8571   2.932   6.375   4.194  0.8199  0.1678  0.4511
 2869TIP3    H2 8572   2.882   6.251   4.121 -0.2054  1.0517 -0.3822
 2870TIP3   OH2 8573   2.873   5.344   5.163  0.4705  0.4598  0.0577
 2870TIP3    H1 8574   2.879   5.357   5.068 -1.1683  0.2158 -0.0954
 2870TIP3    H2 8575   2.964   5.331   5.190  0.8231 -1.9011 -1.8268
 2871TIP3   OH2 8576   2.036   1.677   2.139  0.3743 -0.0567 -0.5290
 2871TIP3    H1 8577   2.047   1.657   2.231 -0.6971  1.5635  0.0035
 2871TIP3    H2 8578   2.123   1.701   2.108  0.4426  1.2284  0.5711
 2872TIP3   OH2 8579   5.617   1.696   4.301 -0.4309  0.0933 -0.1163
 2872TIP3    H1 8580   5.622   1.606   4.267  0.4582 -0.0055  0.2447
 2872TIP3    H2 8581   5.615   1.751   4.224 -2.1743 -0.2635 -0.3751
 2873TIP3   OH2 8582   5.217   1.632   1.081 -0.4550 -0.4069  0.3982
 2873TIP3    H1 8583   5.125   1.647   1.062 -0.3468  0.9226  0.8271
 2873TIP3    H2 8584   5.221   1.625   1.176 -0.0094  0.5281  0.4661
 2874TIP3   OH2 8585   2.557   0.140   1.967 -0.6895 -0.2013 -0.0977
 2874TIP3    H1 8586   2.642   0.098   1.984 -1.3780 -1.1443  1.2240
 2874TIP3    H2 8587   2.494   0.069   1.973 -1.5756  0.4662 -1.2253
 2875TIP3   OH2 8588   5.390   0.306   5.646 -0.3071 -0.0111 -0.4320
 2875TIP3    H1 8589   5.305   0.264   5.659  0.1796 -1.2781 -1.0961
 2875TIP3    H2 8590   5.431   0.305   5.733 -1.4707  1.8635  0.1979
 2876TIP3   OH2 8591   3.468   0.191   1.291  0.2378 -0.2069  0.4702
 2876TIP3    H1 8592   3.532   0.251   1.252 -0.1135 -1.2820 -1.8916
 2876TIP3    H2 8593   3.499   0.179   1.381  4.1337 -1.6471 -0.8713
 2877TIP3   OH2 8594   4.487   0.970   2.446  0.2360  0.4646  0.0788
 2877TIP3    H1 8595   4.415   0.929   2.397 -1.0870  1.4476  1.1256
 2877TIP3    H2 8596   4.560   0.909   2.436 -0.7592 -0.6280 -0.9437
 2878TIP3   OH2 8597   0.505   2.920   5.849 -0.2752 -0.1143 -0.2570
 2878TIP3    H1 8598   0.546   2.963   5.924 -1.7808 -0.7626  1.0034
 2878TIP3    H2 8599   0.427   2.973   5.830 -0.0379 -0.0890 -1.2295
 2879TIP3   OH2 8600   7.199   3.993   5.462 -0.5342 -0.4463 -0.0183
 2879TIP3    H1 8601   7.109   3.967   5.448 -1.8053  3.3355 -0.1053
 2879TIP3    H2 8602   7.250   3.940   5.401 -2.7913 -2.0182 -0.6324
 2880TIP3   OH2 8603   4.877   0.748   0.078  0.3350  0.1198 -0.3061
 2880TIP3    H1 8604   4.925   0.718   0.000 -0.6282 -0.5562 -0.6499
 2880TIP3    H2 8605   4.909   0.692   0.149  0.2693 -0.1266 -0.4704
 2881TIP3   OH2 8606   5.952   6.733   0.857 -0.2430  0.1082 -0.7396
 2881TIP3    H1 8607   5.977   6.652   0.902  1.6870  1.8277  1.5528
 2881TIP3    H2 8608   5.875   6.764   0.904 -0.8620 -0.2494 -1.4912
 2882TIP3   OH2 8609   4.213   5.652   5.591 -0.6116  0.0990  0.1951
 2882TIP3    H1 8610   4.273   5.656   5.516 -1.5527 -1.6459 -0.7005
 2882TIP3    H2 8611   4.195   5.744   5.612  1.0094  0.6387 -0.5978
 2883TIP3   OH2 8612   3.070   5.745   0.667  0.5544  0.5496  0.5129
 2883TIP3    H1 8613   3.145   5.762   0.610 -0.1030  0.9488 -0.2719
 2883TIP3    H2 8614   3.067   5.821   0.726  1.2791  0.1022  1.1307
 2884TIP3   OH2 8615   3.935   3.220   1.579  0.1833 -0.3938 -0.5782
 2884TIP3    H1 8616   4.026   3.246   1.593  0.2292  0.0264 -1.5725
 2884TIP3    H2 8617   3.894   3.295   1.536 -0.2412 -1.1203 -1.4890
 2885TIP3   OH2 8618   3.795   5.391   5.163  0.4456  0.0159  0.1304
 2885TIP3    H1 8619   3.780   5.342   5.244  0.7438  0.4843  0.4777
 2885TIP3    H2 8620   3.816   5.325   5.098  1.7019 -0.2649  0.7833
 2886TIP3   OH2 8621   3.019   0.241   4.253 -0.2714  0.3296 -0.5846
 2886TIP3    H1 8622   2.992   0.273   4.340  1.0960 -1.3364  0.5175
 2886TIP3    H2 8623   3.075   0.165   4.272  0.2210  0.0433 -2.9390
 2887TIP3   OH2 8624   6.940   0.183   4.133  0.3246 -0.3157 -0.0589
 2887TIP3    H1 8625   6.912   0.119   4.199  1.1191 -0.6679 -0.0533
 2887TIP3    H2 8626   6.988   0.249   4.182  1.0327 -0.6483 -0.2969
 2888TIP3   OH2 8627   2.362   0.582   4.720 -0.2657 -0.0551  0.3065
 2888TIP3    H1 8628   2.457   0.567   4.722 -0.0994  0.7321 -0.5493
 2888TIP3    H2 8629   2.333   0.540   4.639 -0.3975  0.9507 -0.1821
 2889TIP3   OH2 8630   6.365   6.485   0.349 -0.0781 -0.4873 -0.1099
 2889TIP3    H1 8631   6.304   6.550   0.313 -0.8346 -0.9008  0.3969
 2889TIP3    H2 8632   6.426   6.537   0.402 -2.1871 -0.3443  2.3878
 2890TIP3   OH2 8633   6.133   2.389   4.549  0.2180 -0.5892  0.0457
 2890TIP3    H1 8634   6.223   2.405   4.577 -0.5204  0.8128  1.7807
 2890TIP3    H2 8635   6.099   2.476   4.528 -1.1070 -0.9519  0.6432
 2891TIP3   OH2 8636   6.537   6.057   1.442 -0.0515  0.1516  0.5783
 2891TIP3    H1 8637   6.609   6.118   1.425  0.0606 -0.2035 -0.2809
 2891TIP3    H2 8638   6.500   6.040   1.355 -0.6295 -0.3279  0.9166
 2892TIP3   OH2 8639   2.863   2.023   2.107 -0.0624 -0.5673 -0.2648
 2892TIP3    H1 8640   2.861   2.002   2.014  0.2442  0.4740 -0.5172
 2892TIP3    H2 8641   2.914   2.104   2.113  2.1768 -1.9698  1.0850
 2893TIP3   OH2 8642   6.390   5.453   3.875 -0.0469 -0.3297  0.1477
 2893TIP3    H1 8643   6.332   5.466   3.950  1.1462 -1.3053  1.2998
 2893TIP3    H2 8644   6.458   5.520   3.886 -1.2194  1.2082 -1.5283
 2894TIP3   OH2 8645   2.330   2.801   3.821  0.5526  0.0190 -0.5277
 2894TIP3    H1 8646   2.340   2.818   3.915  0.0228  1.1679 -0.6666
 2894TIP3    H2 8647   2.365   2.879   3.778 -1.0006  0.3607 -1.2305
 2895TIP3   OH2 8648   4.430   4.608   2.001 -0.0133 -0.2542  0.6274
 2895TIP3    H1 8649   4.499   4.669   1.973  1.0303 -1.0645  1.4038
 2895TIP3    H2 8650   4.375   4.599   1.923  0.7425  0.4057 -0.0142
 2896TIP3   OH2 8651   3.058   4.822   5.017 -0.3740  0.4091 -0.2454
 2896TIP3    H1 8652   3.135   4.851   5.067 -0.9453  0.6623  0.5284
 2896TIP3    H2 8653   2.987   4.877   5.051 -0.5676  1.4979 -2.2548
 2897TIP3   OH2 8654   6.906   4.888   5.632 -0.0698  0.1244 -0.0306
 2897TIP3    H1 8655   6.992   4.860   5.600 -0.0842  0.2252 -0.1577
 2897TIP3    H2 8656   6.922   4.915   5.722 -0.3680 -1.9224  0.7002
 2898TIP3   OH2 8657   1.063   4.417   2.777 -0.1110 -0.1033 -0.0488
 2898TIP3    H1 8658   1.076   4.512   2.778 -1.5943  0.1200  0.2664
 2898TIP3    H2 8659   1.067   4.391   2.869 -1.4945 -0.0512  0.0502
 2899TIP3   OH2 8660   5.188   4.403   1.430 -0.1885 -0.4434 -0.1451
 2899TIP3    H1 8661   5.156   4.360   1.509 -2.9658  2.0655  0.2769
 2899TIP3    H2 8662   5.135   4.364   1.360 -1.3140  0.8105 -0.0231
 2900TIP3   OH2 8663   4.310   1.816   2.886 -0.1348  0.1289  0.0485
 2900TIP3    H1 8664   4.233   1.808   2.942  1.1196  2.2071  2.2161
 2900TIP3    H2 8665   4.367   1.745   2.915 -0.2411  0.0622  0.0970
 2901TIP3   OH2 8666   4.719   2.567   5.450 -0.1231  0.3764 -0.1588
 2901TIP3    H1 8667   4.731   2.655   5.487  1.5402  0.1002  0.0625
 2901TIP3    H2 8668   4.782   2.512   5.499  2.3264  0.0054 -3.3881
 2902TIP3   OH2 8669   4.957   5.085   4.642  0.3688 -0.3547 -0.0838
 2902TIP3    H1 8670   5.024   5.142   4.680 -0.4555  0.9887 -0.5629
 2902TIP3    H2 8671   4.874   5.123   4.671 -0.1975 -1.8408  0.2883
 2903TIP3   OH2 8672   6.489   3.367   0.155  0.2807 -0.3679 -0.1784
 2903TIP3    H1 8673   6.553   3.299   0.174  1.4769  0.5917 -0.6022
 2903TIP3    H2 8674   6.537   3.431   0.101 -0.7843  0.8085  0.2062
 2904TIP3   OH2 8675   0.007   0.006   4.667 -0.2467 -0.4850 -0.7909
 2904TIP3    H1 8676   0.071  -0.058   4.700  0.5341 -0.4584 -2.1713
 2904TIP3    H2 8677   0.016   0.081   4.726  1.2908 -0.3365 -1.1583
 2905TIP3   OH2 8678   5.641   0.493   1.738 -0.3892 -0.0652 -0.4579
 2905TIP3    H1 8679   5.656   0.584   1.711  0.5158 -0.5217 -1.5680
 2905TIP3    H2 8680   5.574   0.461   1.677  2.0250 -1.2535 -2.6936
 2906TIP3   OH2 8681   5.835   0.418   4.360 -0.0962 -0.3241 -0.1230
 2906TIP3    H1 8682   5.804   0.508   4.370  1.5900  0.3862 -0.8892
 2906TIP3    H2 8683   5.799   0.389   4.276 -0.7375 -0.4262  0.1794
 2907TIP3   OH2 8684   0.046   5.112   4.439  0.3775  0.5506 -0.0923
 2907TIP3    H1 8685   0.117   5.055   4.409 -0.9386 -0.6327 -1.0361
 2907TIP3    H2 8686  -0.034   5.063   4.422 -0.6581  1.4978  1.7422
 2908TIP3   OH2 8687   2.602   4.292   5.858 -0.3161  0.6133 -0.3325
 2908TIP3    H1 8688   2.618   4.239   5.779 -1.2246 -0.5799  0.2403
 2908TIP3    H2 8689   2.678   4.349   5.864  0.2096  0.0974 -1.5691
 2909TIP3   OH2 8690   6.878   1.099   2.814  0.5617 -0.3539 -0.2750
 2909TIP3    H1 8691   6.957   1.076   2.764 -0.2065 -0.3098 -1.5665
 2909TIP3    H2 8692   6.810   1.043   2.777 -0.2727  0.4695 -0.0115
 2910TIP3   OH2 8693   6.708   4.381   3.855  0.2337 -0.5288  0.1139
 2910TIP3    H1 8694   6.746   4.330   3.783 -1.4234 -0.3219 -0.9582
 2910TIP3    H2 8695   6.758   4.463   3.855  1.1145 -1.0517  0.0704
 2911TIP3   OH2 8696   6.906   0.181   2.366 -0.4297 -0.9449  0.0655
 2911TIP3    H1 8697   6.938   0.266   2.335  0.8374 -1.3146  0.3294
 2911TIP3    H2 8698   6.834   0.204   2.425 -0.8761 -0.1141 -0.7682
 2912TIP3   OH2 8699   5.352   4.754   1.648 -0.0791 -0.2491 -0.4378
 2912TIP3    H1 8700   5.270   4.719   1.682 -1.1100 -1.1955 -3.5437
 2912TIP3    H2 8701   5.327   4.839   1.611  1.5847  2.1658  3.3807
 2913TIP3   OH2 8702   6.557   4.188   3.021 -0.3020  0.3634  0.6989
 2913TIP3    H1 8703   6.579   4.229   3.105 -1.0710  1.2145  0.5051
 2913TIP3    H2 8704   6.463   4.203   3.012 -0.4835 -0.8977  0.3066
 2914TIP3   OH2 8705   1.281   3.448   2.326 -0.2804 -0.6221  0.4379
 2914TIP3    H1 8706   1.246   3.521   2.274  1.1038 -1.2371 -1.4685
 2914TIP3    H2 8707   1.242   3.370   2.287  1.9782 -1.2158 -0.8459
 2915TIP3   OH2 8708   2.239   1.535   0.208 -0.4379 -0.0751 -0.5113
 2915TIP3    H1 8709   2.204   1.618   0.176  0.1106 -0.1952 -1.4565
 2915TIP3    H2 8710   2.328   1.555   0.235 -0.3157 -0.3511 -0.7067
 2916TIP3   OH2 8711   1.002   5.364   5.640 -0.3997  0.1401 -0.0162
 2916TIP3    H1 8712   0.915   5.368   5.600 -1.5999 -0.4231  2.3734
 2916TIP3    H2 8713   1.027   5.272   5.633 -0.5531  0.0663  0.3618
 2917TIP3   OH2 8714   2.912   1.049   1.255 -0.0117  0.4595 -0.1003
 2917TIP3    H1 8715   3.007   1.057   1.252 -0.0416  1.8086  1.2697
 2917TIP3    H2 8716   2.896   0.956   1.273  1.0176  0.1870 -0.5144
 2918TIP3   OH2 8717   0.995   3.029   0.853  0.2499  0.3205  0.0040
 2918TIP3    H1 8718   0.907   3.034   0.816 -0.1828 -0.1703  0.9169
 2918TIP3    H2 8719   0.990   3.084   0.931  1.2385  1.6092 -0.8069
 2919TIP3   OH2 8720   0.408   2.655   1.720 -0.1641  0.1208  0.4042
 2919TIP3    H1 8721   0.474   2.621   1.781  0.2614  1.4864  0.7385
 2919TIP3    H2 8722   0.335   2.594   1.728  0.2024 -0.1885  1.6823
 2920TIP3   OH2 8723   5.904   6.808   0.576  1.3834  0.3495 -0.3986
 2920TIP3    H1 8724   5.877   6.722   0.541  1.1823  0.5427 -0.7279
 2920TIP3    H2 8725   5.921   6.792   0.668 -0.4851  0.3225 -0.0127
 2921TIP3   OH2 8726   3.689   5.621   3.947  0.1606 -0.1749  0.6379
 2921TIP3    H1 8727   3.736   5.545   3.982 -0.8541 -0.9268  0.4041
 2921TIP3    H2 8728   3.758   5.680   3.917  0.9645 -1.1101  0.6034
 2922TIP3   OH2 8729   5.247   3.652   5.746  0.3548 -0.3294 -0.3927
 2922TIP3    H1 8730   5.314   3.643   5.678 -1.3139  0.8585 -2.3543
 2922TIP3    H2 8731   5.272   3.732   5.793  0.6896 -0.2699 -0.6631
 2923TIP3   OH2 8732   2.174   4.667   3.029 -0.2834 -0.1145  0.2444
 2923TIP3    H1 8733   2.144   4.684   3.118 -0.5628 -3.8274  1.0293
 2923TIP3    H2 8734   2.261   4.706   3.024 -0.9500  1.6816  1.4633
 2924TIP3   OH2 8735   5.258   1.879   0.690 -0.1939 -0.3939 -0.1003
 2924TIP3    H1 8736   5.201   1.804   0.702  1.8674 -1.8231  1.5207
 2924TIP3    H2 8737   5.260   1.923   0.775  0.9801 -0.3061 -0.1555
 2925TIP3   OH2 8738   6.350   4.726   2.661  0.4970 -0.1282 -0.4767
 2925TIP3    H1 8739   6.308   4.643   2.638  0.1510  0.2255 -1.1784
 2925TIP3    H2 8740   6.277   4.782   2.688  0.6312  0.1930 -0.7824
 2926TIP3   OH2 8741   0.302   3.247   4.339 -0.0538  0.0909 -0.2769
 2926TIP3    H1 8742   0.223   3.201   4.367  0.4684  0.3537  1.8166
 2926TIP3    H2 8743   0.320   3.308   4.411  1.6799  0.4979 -1.0167
 2927TIP3   OH2 8744   7.131   6.511   1.111  0.4773  0.2074 -0.3004
 2927TIP3    H1 8745   7.082   6.587   1.079  0.6642 -0.8027 -3.3652
 2927TIP3    H2 8746   7.218   6.545   1.130  0.3975  0.9046 -1.0766
 2928TIP3   OH2 8747   0.043   5.267   3.128  0.5892  0.2098 -0.2564
 2928TIP3    H1 8748  -0.037   5.292   3.083 -0.2307 -0.8077  0.5716
 2928TIP3    H2 8749   0.017   5.255   3.220  1.5577 -0.6642 -0.0610
 2929TIP3   OH2 8750   4.554   1.622   3.109  0.5450  0.2396  0.3236
 2929TIP3    H1 8751   4.614   1.575   3.167  0.8127  0.4159  0.1925
 2929TIP3    H2 8752   4.607   1.693   3.073  0.6589 -0.4151 -0.8649
 2930TIP3   OH2 8753   1.380   5.559   2.076 -0.0723 -0.7376 -0.2108
 2930TIP3    H1 8754   1.299   5.610   2.071 -0.3121 -0.9623  1.1116
 2930TIP3    H2 8755   1.351   5.470   2.094  0.4843 -0.6232  1.4174
 2931TIP3   OH2 8756   5.431   2.143   3.955  0.2964 -0.2702 -0.4925
 2931TIP3    H1 8757   5.473   2.152   4.040  0.0316  0.9456 -0.4761
 2931TIP3    H2 8758   5.456   2.222   3.907  0.1037 -0.7457 -1.3869
 2932TIP3   OH2 8759   7.060   2.852   2.605 -0.9781  0.2560 -0.1603
 2932TIP3    H1 8760   7.048   2.942   2.574 -1.1001  0.3632  0.1969
 2932TIP3    H2 8761   7.090   2.804   2.528 -0.7779  0.6328 -0.3174
 2933TIP3   OH2 8762   6.368   6.519   1.088 -0.6326  0.2428 -0.4205
 2933TIP3    H1 8763   6.424   6.509   1.010  1.5407 -2.7246  1.2856
 2933TIP3    H2 8764   6.420   6.572   1.148  0.4276 -2.2416  1.0408
 2934TIP3   OH2 8765   6.487   2.025   1.979  0.3812  0.0878 -0.0792
 2934TIP3    H1 8766   6.413   2.065   1.934 -0.1669 -0.7657  0.0304
 2934TIP3    H2 8767   6.497   2.075   2.060 -2.9644 -2.3581  2.1615
 2935TIP3   OH2 8768   3.549   0.899   3.474  0.3709  0.1300  0.0144
 2935TIP3    H1 8769   3.587   0.826   3.521 -0.1581 -0.2874 -0.1964
 2935TIP3    H2 8770   3.617   0.967   3.476  0.2622  0.2246  1.5927
 2936TIP3   OH2 8771   6.899   1.667   5.208  0.3006  0.2978  0.1572
 2936TIP3    H1 8772   6.914   1.761   5.197 -0.8701  0.2832 -2.1529
 2936TIP3    H2 8773   6.972   1.626   5.162 -0.9413  0.1516 -1.7732
 2937TIP3   OH2 8774   0.573   6.327   0.451 -0.4925 -0.1284  0.4837
 2937TIP3    H1 8775   0.548   6.238   0.425 -1.0695  0.4213 -0.9220
 2937TIP3    H2 8776   0.504   6.383   0.416  0.3489  0.9716  0.5306
 2938TIP3   OH2 8777   2.150   5.191   4.112 -0.0417 -0.4263 -0.3777
 2938TIP3    H1 8778   2.096   5.119   4.145 -0.2303 -0.0803  0.0901
 2938TIP3    H2 8779   2.092   5.267   4.112 -0.0857 -0.4442 -1.6732
 2939TIP3   OH2 8780   5.394   6.652   5.721 -0.0232 -0.7875 -0.3519
 2939TIP3    H1 8781   5.393   6.559   5.742 -0.3938 -0.1837  2.8350
 2939TIP3    H2 8782   5.355   6.694   5.798  1.4685  2.1018 -1.0437
 2940TIP3   OH2 8783   1.890   5.751   1.943  0.3941  0.1115 -0.1832
 2940TIP3    H1 8784   1.837   5.684   1.900 -0.6859 -0.0664  1.3354
 2940TIP3    H2 8785   1.965   5.763   1.885 -1.7963  1.2231 -3.0931
 2941TIP3   OH2 8786   0.714   3.325   2.692 -0.5065 -0.0287  0.7025
 2941TIP3    H1 8787   0.810   3.323   2.699 -0.3469 -0.9181 -1.2346
 2941TIP3    H2 8788   0.692   3.253   2.634 -2.3290  0.4902  0.6836
 2942TIP3   OH2 8789   4.696   1.663   0.429 -0.3595 -0.3643  0.0339
 2942TIP3    H1 8790   4.640   1.720   0.376 -0.2024 -0.5485 -0.3351
 2942TIP3    H2 8791   4.782   1.670   0.387  0.2781  1.1337  1.4970
 2943TIP3   OH2 8792   2.642   2.391   4.376 -0.3332  0.8097  0.2448
 2943TIP3    H1 8793   2.684   2.308   4.355 -1.1787  0.9199 -2.2370
 2943TIP3    H2 8794   2.712   2.455   4.374  0.0561  0.3937  0.4758
 2944TIP3   OH2 8795   4.133   2.118   0.139  0.0863  0.1197 -0.5342
 2944TIP3    H1 8796   4.222   2.101   0.107  0.4702  1.2728 -0.1255
 2944TIP3    H2 8797   4.076   2.094   0.066  0.7347 -0.4813 -0.8593
 2945TIP3   OH2 8798   4.636   0.313   2.024  0.1541 -0.1570 -0.8497
 2945TIP3    H1 8799   4.728   0.339   2.025  0.3915 -0.9781 -0.8262
 2945TIP3    H2 8800   4.588   0.395   2.033  0.8833  0.2710 -0.7911
 2946TIP3   OH2 8801   1.551   0.360   4.848  0.0608  0.4483  0.2990
 2946TIP3    H1 8802   1.509   0.274   4.845 -0.6961  0.8317 -0.9572
 2946TIP3    H2 8803   1.529   0.394   4.934  0.5500 -0.6998  0.8940
 2947TIP3   OH2 8804   0.667   4.557   2.156  0.1125  0.7139 -0.0906
 2947TIP3    H1 8805   0.620   4.476   2.176 -0.7490  0.6800 -2.0275
 2947TIP3    H2 8806   0.686   4.552   2.062  1.6587  1.9516  0.1045
 2948TIP3   OH2 8807   3.443   3.609   4.419 -0.2717  0.4137  0.2736
 2948TIP3    H1 8808   3.461   3.686   4.472  0.6075 -0.8764  1.9347
 2948TIP3    H2 8809   3.513   3.547   4.442 -1.6027 -1.3143 -0.1339
 2949TIP3   OH2 8810   1.376   3.526   5.225  0.1832  0.2719  0.1991
 2949TIP3    H1 8811   1.373   3.458   5.293 -1.5524  1.0704  0.9931
 2949TIP3    H2 8812   1.464   3.519   5.188  0.4094 -1.7178  0.9473
 2950TIP3   OH2 8813   0.043   0.549   0.041 -0.2022  0.2319 -0.4194
 2950TIP3    H1 8814   0.129   0.544  -0.000  0.3964  0.1652  0.7786
 2950TIP3    H2 8815   0.025   0.460   0.072 -0.5613  0.3073 -0.4083
 2951TIP3   OH2 8816   2.054   5.772   0.812 -0.6663  0.1075  0.2733
 2951TIP3    H1 8817   2.132   5.722   0.787  0.1724  0.7680  1.4763
 2951TIP3    H2 8818   2.044   5.754   0.905 -2.5557 -0.7363 -0.0557
 2952TIP3   OH2 8819   2.900   1.484   0.456  0.4917  0.5580  0.5371
 2952TIP3    H1 8820   2.923   1.391   0.457  1.2826  0.7281 -0.1120
 2952TIP3    H2 8821   2.901   1.510   0.548 -0.8599 -0.3220  0.8236
 2953TIP3   OH2 8822   0.412   4.025   1.144 -0.5996 -0.7397  0.3993
 2953TIP3    H1 8823   0.433   3.950   1.088 -3.6927 -2.7207  1.6645
 2953TIP3    H2 8824   0.380   4.092   1.082  1.3408 -0.7084 -0.6552
 2954TIP3   OH2 8825   3.505   1.478   5.356 -0.6288 -0.0255 -0.3427
 2954TIP3    H1 8826   3.507   1.451   5.265  1.0931 -1.0329 -0.0338
 2954TIP3    H2 8827   3.597   1.485   5.382 -1.0765 -0.2830  1.4610
 2955TIP3   OH2 8828   6.563   2.476   2.184  0.3841 -0.4087 -0.0502
 2955TIP3    H1 8829   6.653   2.469   2.216  0.8981  0.5153 -1.2256
 2955TIP3    H2 8830   6.571   2.476   2.089 -0.5954  2.0292 -0.2033
 2956TIP3   OH2 8831   5.901   6.339   2.452 -0.1044  0.8641  0.0852
 2956TIP3    H1 8832   5.898   6.421   2.402 -0.5948  1.9201  1.7506
 2956TIP3    H2 8833   5.992   6.310   2.444  0.0436  1.4910 -0.6517
 2957TIP3   OH2 8834   1.605   6.393   5.131  0.1023 -0.2775  0.0188
 2957TIP3    H1 8835   1.663   6.442   5.189 -0.0259 -0.0830 -0.0166
 2957TIP3    H2 8836   1.570   6.324   5.186  0.6237 -0.6015 -0.0443
 2958TIP3   OH2 8837   0.608   1.114   4.151  0.4851 -0.1593 -0.0170
 2958TIP3    H1 8838   0.696   1.135   4.120  0.9460  0.8184  1.8563
 2958TIP3    H2 8839   0.619   1.098   4.245 -1.4009  0.4145  0.3282
 2959TIP3   OH2 8840   6.348   1.152   1.052 -0.6039  0.2604 -0.2722
 2959TIP3    H1 8841   6.425   1.102   1.026 -0.0934  0.5523  0.6396
 2959TIP3    H2 8842   6.293   1.152   0.974  0.3243  0.0714 -0.9500
 2960TIP3   OH2 8843   5.704   4.039   4.314 -0.3836  0.0083 -0.6244
 2960TIP3    H1 8844   5.758   3.964   4.339  0.1057  0.9391  1.3458
 2960TIP3    H2 8845   5.768   4.108   4.293 -0.8225  0.3468 -0.8680
 2961TIP3   OH2 8846   1.718   4.278   1.138 -0.2220  0.4888 -0.2786
 2961TIP3    H1 8847   1.624   4.262   1.140 -0.0355 -0.7150  0.2922
 2961TIP3    H2 8848   1.739   4.287   1.045 -0.7809 -0.1428 -0.4774
 2962TIP3   OH2 8849   5.071   1.930   0.981 -0.4005  0.4576  0.2162
 2962TIP3    H1 8850   5.142   1.938   1.044 -1.3245  0.6050  1.2728
 2962TIP3    H2 8851   5.065   2.016   0.939 -0.1373  0.5279  0.3247
 2963TIP3   OH2 8852   3.430   5.075   4.147  0.7635 -0.0230  0.6830
 2963TIP3    H1 8853   3.393   5.066   4.058 -0.3663  0.6595  1.0612
 2963TIP3    H2 8854   3.478   5.157   4.145  0.4935  0.1374  0.7854
 2964TIP3   OH2 8855   4.620   0.333   2.460 -0.1106 -0.1814 -0.8436
 2964TIP3    H1 8856   4.658   0.411   2.420 -0.8709 -1.0855 -3.5516
 2964TIP3    H2 8857   4.683   0.263   2.441  0.9267 -0.1950  2.1999
 2965TIP3   OH2 8858   4.143   3.616   5.294 -0.2573  0.4848 -0.5519
 2965TIP3    H1 8859   4.238   3.602   5.297 -0.3583 -0.0810  0.9870
 2965TIP3    H2 8860   4.106   3.528   5.286 -0.6599  0.7425 -1.7108
 2966TIP3   OH2 8861   4.945   6.652   0.063  0.6818  0.0466  0.4452
 2966TIP3    H1 8862   5.009   6.592   0.026 -0.0207 -1.0845  1.0150
 2966TIP3    H2 8863   4.930   6.620   0.152 -1.8894 -0.7770 -0.1873
 2967TIP3   OH2 8864   0.785   0.537   1.201 -0.2330 -0.2287  0.3579
 2967TIP3    H1 8865   0.816   0.568   1.117  1.3183 -1.2933  0.4945
 2967TIP3    H2 8866   0.690   0.530   1.191 -0.0567 -0.5368 -1.3773
 2968TIP3   OH2 8867   6.676   6.400   3.022 -0.3079 -0.0557  0.3370
 2968TIP3    H1 8868   6.766   6.421   2.998 -0.2021  0.2372  0.9761
 2968TIP3    H2 8869   6.669   6.425   3.114 -1.1420  0.2505  0.1982
 2969TIP3   OH2 8870   1.642   0.875   2.922  0.4482 -0.2492  0.3803
 2969TIP3    H1 8871   1.621   0.804   2.862  0.1583  0.4148 -0.3056
 2969TIP3    H2 8872   1.728   0.851   2.958  0.3917 -0.9018  0.0894
 2970TIP3   OH2 8873   0.120   5.282   4.943  0.1961 -0.6503 -0.4688
 2970TIP3    H1 8874   0.150   5.308   4.856 -0.3260  1.2750 -0.1089
 2970TIP3    H2 8875   0.201   5.265   4.992  0.5867  0.6881 -0.6267
 2971TIP3   OH2 8876   4.393   2.399   0.434  0.2879 -0.3000  0.5086
 2971TIP3    H1 8877   4.454   2.455   0.385  0.6471 -1.4329 -0.3752
 2971TIP3    H2 8878   4.307   2.433   0.411  0.5221  0.2704  0.4549
 2972TIP3   OH2 8879   5.087   1.417   3.810 -0.0649 -0.3213  0.0524
 2972TIP3    H1 8880   5.035   1.392   3.734  0.6079  2.3950 -1.4451
 2972TIP3    H2 8881   5.023   1.439   3.877 -0.6738 -2.2676  0.1771
 2973TIP3   OH2 8882   2.339   5.109   0.271 -0.0568 -0.3875 -0.3400
 2973TIP3    H1 8883   2.381   5.182   0.225 -0.6504  0.1656 -0.0204
 2973TIP3    H2 8884   2.389   5.100   0.352 -1.1308  0.9457  0.5240
 2974TIP3   OH2 8885   4.990   3.281   0.195 -0.1705 -0.2944 -0.1720
 2974TIP3    H1 8886   5.049   3.241   0.260  1.8793  2.0021 -0.4637
 2974TIP3    H2 8887   5.045   3.294   0.118 -1.3113  1.1387 -0.7867
 2975TIP3   OH2 8888   0.083   0.921   4.026 -0.7115 -0.1446  0.0351
 2975TIP3    H1 8889   0.119   0.936   4.114  0.4048 -0.3739 -0.3646
 2975TIP3    H2 8890  -0.011   0.909   4.040 -0.3637 -1.6837  1.3781
 2976TIP3   OH2 8891   6.623   5.226   1.452  0.0875  1.0390  0.5041
 2976TIP3    H1 8892   6.601   5.149   1.401 -0.6000  1.9719 -0.6601
 2976TIP3    H2 8893   6.583   5.211   1.538  0.3665 -0.0891  0.4419
 2977TIP3   OH2 8894   1.010   1.190   5.380 -0.1814  0.0897 -0.2779
 2977TIP3    H1 8895   1.088   1.243   5.399 -0.0154 -0.1806 -0.2015
 2977TIP3    H2 8896   0.959   1.244   5.320  0.4821 -0.0969 -1.0275
 2978TIP3   OH2 8897   2.131   0.567   3.035 -0.3025  0.9257 -0.3804
 2978TIP3    H1 8898   2.187   0.619   2.977 -0.7250 -0.6036 -2.2981
 2978TIP3    H2 8899   2.190   0.501   3.072 -0.3502  0.8046 -0.5139
 2979TIP3   OH2 8900   0.864   0.362   4.874  0.0041 -0.5463 -0.0331
 2979TIP3    H1 8901   0.844   0.389   4.963  2.4987  0.0501  0.4317
 2979TIP3    H2 8902   0.807   0.287   4.857 -2.7187  1.1847  0.8866
 2980TIP3   OH2 8903   3.674   2.791   0.818  0.2009 -0.0600  0.1655
 2980TIP3    H1 8904   3.634   2.793   0.905 -0.8584  2.8903 -0.2731
 2980TIP3    H2 8905   3.756   2.838   0.828 -0.1521  0.7225 -0.4824
 2981TIP3   OH2 8906   1.611   6.641   0.781  0.4423 -0.1706  0.2679
 2981TIP3    H1 8907   1.629   6.562   0.833 -2.1372 -0.1979  1.2413
 2981TIP3    H2 8908   1.615   6.712   0.844  2.8871  0.5923 -0.6323
 2982TIP3   OH2 8909   5.604   4.355   1.067 -0.6789  0.1945  0.8391
 2982TIP3    H1 8910   5.551   4.396   0.999 -2.0930 -2.6227  0.1278
 2982TIP3    H2 8911   5.541   4.322   1.131  0.1386 -2.7143  0.2703
 2983TIP3   OH2 8912   4.058   1.296   1.417 -0.0602  0.2096  0.2285
 2983TIP3    H1 8913   4.119   1.233   1.379  1.4909  1.6326  0.2098
 2983TIP3    H2 8914   4.016   1.337   1.342 -0.2004  0.0206  0.2029
 2984TIP3   OH2 8915   1.554   0.850   0.157 -0.1217 -0.5860 -0.1227
 2984TIP3    H1 8916   1.629   0.910   0.150  0.1760 -0.9219  0.1429
 2984TIP3    H2 8917   1.543   0.837   0.251 -1.5590  0.7482 -0.0705
 2985TIP3   OH2 8918   0.410   6.066   5.556  0.1179 -0.1809  0.0053
 2985TIP3    H1 8919   0.483   6.126   5.566 -0.0192 -0.0375  0.1648
 2985TIP3    H2 8920   0.447   5.979   5.570  0.6316 -0.2770 -1.7199
 2986TIP3   OH2 8921   5.914   5.462   0.873  0.7557 -0.4825  0.5493
 2986TIP3    H1 8922   5.862   5.531   0.915  0.8650  0.0863 -0.2166
 2986TIP3    H2 8923   5.954   5.506   0.797  1.0730 -1.3167  0.2282
 2987TIP3   OH2 8924   3.798   0.145   2.981  0.5650  0.2093  0.6572
 2987TIP3    H1 8925   3.857   0.104   3.044 -0.2565 -3.1728 -0.5426
 2987TIP3    H2 8926   3.856   0.192   2.921  1.9128 -1.2471  0.7451
 2988TIP3   OH2 8927   5.621   5.893   4.001 -0.7800  0.4793 -0.3381
 2988TIP3    H1 8928   5.640   5.879   3.908 -0.0367 -1.4783  0.0464
 2988TIP3    H2 8929   5.615   5.988   4.011  3.9670  1.1356 -1.5162
 2989TIP3   OH2 8930   6.860   3.107   4.183 -0.2954 -0.6732  0.0546
 2989TIP3    H1 8931   6.940   3.055   4.180  0.1018 -0.0043 -1.4886
 2989TIP3    H2 8932   6.790   3.041   4.180  0.1930 -1.2123  0.2235
 2990TIP3   OH2 8933   4.483   5.312   4.243 -0.0821 -0.0244 -0.2185
 2990TIP3    H1 8934   4.569   5.333   4.279 -0.1090  1.9763 -1.1765
 2990TIP3    H2 8935   4.496   5.228   4.199  0.9555 -0.5407  1.0158
 2991TIP3   OH2 8936   2.818   3.146   4.224 -0.1679 -0.1754  0.0751
 2991TIP3    H1 8937   2.723   3.135   4.220 -0.0789 -2.7271  2.0499
 2991TIP3    H2 8938   2.848   3.124   4.136 -1.2675 -2.1412  0.1296
 2992TIP3   OH2 8939   6.115   4.406   2.900  0.3891 -0.3476 -0.0772
 2992TIP3    H1 8940   6.206   4.433   2.909 -0.0288  0.6064  1.6086
 2992TIP3    H2 8941   6.120   4.321   2.855  2.2143 -1.0977  1.3811
 2993TIP3   OH2 8942   1.243   2.447   5.553 -0.5634  0.5066  0.2276
 2993TIP3    H1 8943   1.231   2.367   5.604 -1.8294  0.4448 -0.1443
 2993TIP3    H2 8944   1.267   2.513   5.618  1.2291 -0.2983  0.4493
 2994TIP3   OH2 8945   3.672   3.797   4.419  0.1979  0.1734  0.5482
 2994TIP3    H1 8946   3.694   3.706   4.435  2.1001  0.5994  0.5768
 2994TIP3    H2 8947   3.619   3.823   4.494 -1.5655 -1.2579 -0.1436
 2995TIP3   OH2 8948   0.860   1.112   5.107  0.0054 -0.1904 -0.4997
 2995TIP3    H1 8949   0.810   1.134   5.186 -1.0382 -1.9775 -0.5963
 2995TIP3    H2 8950   0.820   1.166   5.038 -0.4297 -0.1113 -0.1899
 2996TIP3   OH2 8951   3.621   5.232   4.038  0.5371 -0.5902  0.1531
 2996TIP3    H1 8952   3.678   5.190   3.974 -0.2008  0.9455 -1.6347
 2996TIP3    H2 8953   3.629   5.326   4.018 -1.4502 -0.2371  0.8182
 2997TIP3   OH2 8954   3.292   0.076   3.281  0.3306 -0.3642  0.2698
 2997TIP3    H1 8955   3.213   0.113   3.241  0.7186  2.5300  1.9190
 2997TIP3    H2 8956   3.262  -0.003   3.325 -1.6003  0.4132  0.4616
 2998TIP3   OH2 8957   2.144   6.468   3.700  0.0552 -0.1371  0.0271
 2998TIP3    H1 8958   2.054   6.488   3.674  0.0220 -0.0447  0.2098
 2998TIP3    H2 8959   2.134   6.404   3.770  0.1969 -1.9189 -1.5140
 2999TIP3   OH2 8960   5.248   1.169   4.768  0.1734  0.2745 -0.1695
 2999TIP3    H1 8961   5.180   1.225   4.728 -2.0820 -1.3920  1.1066
 2999TIP3    H2 8962   5.239   1.185   4.862  0.3912 -1.2081  0.1238
 3000TIP3   OH2 8963   5.236   0.738   0.609 -0.0161 -0.7461 -0.0330
 3000TIP3    H1 8964   5.164   0.708   0.665 -1.3518 -1.3029 -1.9422
 3000TIP3    H2 8965   5.193   0.790   0.541  1.7509  1.4490  0.4378
 3001TIP3   OH2 8966   6.593   2.821   0.844 -0.5469 -0.1176 -0.3364
 3001TIP3    H1 8967   6.682   2.845   0.871 -0.7591  3.7407 -2.3720
 3001TIP3    H2 8968   6.603   2.738   0.797  1.3327 -1.5470  2.3072
 3002TIP3   OH2 8969   5.563   4.696   3.249 -0.3290  0.3858 -0.0119
 3002TIP3    H1 8970   5.582   4.667   3.159 -0.4105 -0.6619  0.2878
 3002TIP3    H2 8971   5.478   4.655   3.268  0.2032 -0.3025  0.9215
 3003TIP3   OH2 8972   6.220   6.197   3.531  0.1155  0.1208  0.6843
 3003TIP3    H1 8973   6.294   6.173   3.476  0.2510  1.2968  0.3293
 3003TIP3    H2 8974   6.254   6.190   3.620 -0.8414 -4.4537  0.9612
 3004TIP3   OH2 8975   6.242   0.591   4.075 -0.3821 -0.8706  0.2261
 3004TIP3    H1 8976   6.274   0.678   4.052 -2.6197  0.1120  0.5024
 3004TIP3    H2 8977   6.315   0.549   4.120  0.3780  1.3705  1.2386
 3005TIP3   OH2 8978   5.215   5.191   4.712  0.1106  0.7170  0.5904
 3005TIP3    H1 8979   5.291   5.248   4.728 -0.0590  1.2592 -0.4884
 3005TIP3    H2 8980   5.241   5.107   4.749  1.1929  0.9267  0.3558
 3006TIP3   OH2 8981   4.686   1.911   1.498  0.4426 -0.4418  0.1082
 3006TIP3    H1 8982   4.729   1.987   1.538  1.0041 -0.7806  0.1650
 3006TIP3    H2 8983   4.634   1.947   1.427  1.4016 -0.0847 -0.4273
 3007TIP3   OH2 8984   3.874   5.076   1.288  0.8344 -0.5286  0.4476
 3007TIP3    H1 8985   3.850   5.024   1.365 -0.4773 -2.7158 -1.3184
 3007TIP3    H2 8986   3.791   5.098   1.247  1.5229 -0.0510 -0.7459
 3008TIP3   OH2 8987   3.157   1.380   3.188  0.0369 -0.0685 -0.5309
 3008TIP3    H1 8988   3.227   1.329   3.229  0.1740  0.5078 -0.0205
 3008TIP3    H2 8989   3.202   1.453   3.146 -0.2573  0.3185 -0.1793
 3009TIP3   OH2 8990   2.934   3.983   1.592  0.2327 -0.0402 -0.9969
 3009TIP3    H1 8991   2.890   3.957   1.673  1.9404 -0.9095 -0.2985
 3009TIP3    H2 8992   2.873   4.044   1.550 -1.7533 -1.3974 -0.2453
 3010TIP3   OH2 8993   3.592   6.544   5.799 -0.1411  0.7476 -0.1181
 3010TIP3    H1 8994   3.662   6.511   5.742 -0.0828 -0.0873  0.4159
 3010TIP3    H2 8995   3.636   6.568   5.880 -0.6438 -1.3499  0.8434
 3011TIP3   OH2 8996   2.152   4.258   3.020  0.1690  0.3327 -0.1081
 3011TIP3    H1 8997   2.091   4.230   3.089 -0.0269  0.3779 -0.2627
 3011TIP3    H2 8998   2.133   4.200   2.947  3.9129 -3.4334  1.4769
 3012TIP3   OH2 8999   4.056   3.912   3.295 -0.0540 -0.0672  0.5576
 3012TIP3    H1 9000   4.142   3.909   3.254 -1.3642 -2.0716 -2.3769
 3012TIP3    H2 9001   4.037   4.006   3.302  1.3919  0.4003 -0.9896
 3013TIP3   OH2 9002   3.645   1.688   5.064 -0.0332  0.6132  0.1229
 3013TIP3    H1 9003   3.633   1.599   5.096  2.6448  0.4649  1.0124
 3013TIP3    H2 9004   3.566   1.707   5.013 -1.8265 -1.3071  1.9960
 3014TIP3   OH2 9005   5.214   1.641   0.291 -0.3233  0.4231 -0.1950
 3014TIP3    H1 9006   5.281   1.687   0.341 -0.3031 -0.6053  0.7789
 3014TIP3    H2 9007   5.249   1.637   0.202  0.0241  1.5601 -0.1221
 3015TIP3   OH2 9008   6.910   2.530   4.865 -0.2248  0.2367 -0.5855
 3015TIP3    H1 9009   6.890   2.500   4.776  0.6037  0.4624 -0.8582
 3015TIP3    H2 9010   6.825   2.550   4.903 -1.2419 -4.8061  0.5495
 3016TIP3   OH2 9011   4.601   6.027   4.807  0.5035  0.1824  0.0825
 3016TIP3    H1 9012   4.578   6.064   4.721 -1.7037 -0.4053  0.3828
 3016TIP3    H2 9013   4.521   6.033   4.858  1.1849 -1.4533  1.4177
 3017TIP3   OH2 9014   2.889   0.868   5.713  0.2484 -0.5617 -0.0952
 3017TIP3    H1 9015   2.952   0.817   5.762 -0.0895 -0.5232  0.3905
 3017TIP3    H2 9016   2.932   0.887   5.629  2.1025  1.9717  1.2739
 3018TIP3   OH2 9017   0.103   3.584   3.829 -0.2966  0.0168  0.9355
 3018TIP3    H1 9018   0.063   3.571   3.915 -2.0769 -0.3360  0.0956
 3018TIP3    H2 9019   0.070   3.668   3.798 -1.5197 -0.8835 -0.3326
 3019TIP3   OH2 9020   5.026   5.381   5.831  0.6506 -0.4884  0.2511
 3019TIP3    H1 9021   4.982   5.366   5.747 -1.8360 -0.3187  1.4225
 3019TIP3    H2 9022   5.023   5.476   5.842  3.3402 -0.2128 -0.5676
 3020TIP3   OH2 9023   2.208   2.748   2.578 -0.1129  0.4160 -0.3342
 3020TIP3    H1 9024   2.203   2.694   2.499 -1.0758 -0.9622  0.6181
 3020TIP3    H2 9025   2.270   2.701   2.635 -0.6583  0.5276  0.3589
 3021TIP3   OH2 9026   7.100   1.780   2.923 -0.0964 -0.5236 -0.3146
 3021TIP3    H1 9027   7.012   1.753   2.947 -0.2120 -1.5073 -1.7418
 3021TIP3    H2 9028   7.106   1.762   2.830  1.2881  0.4656 -0.4480
 3022TIP3   OH2 9029   3.141   6.473   5.749  0.4580  0.2026 -0.2746
 3022TIP3    H1 9030   3.089   6.395   5.725 -1.8420  1.0500  1.5422
 3022TIP3    H2 9031   3.220   6.437   5.789 -0.6521 -1.2631  0.7401
 3023TIP3   OH2 9032   4.264   3.234   0.985 -0.0380 -0.4004  0.4066
 3023TIP3    H1 9033   4.217   3.308   0.947  1.4033  1.0550  1.2776
 3023TIP3    H2 9034   4.332   3.213   0.921  1.0432  0.6486  1.1528
 3024TIP3   OH2 9035   4.808   0.749   0.593  0.3504 -0.0449 -0.3901
 3024TIP3    H1 9036   4.787   0.672   0.540 -2.4768 -1.9971  3.1325
 3024TIP3    H2 9037   4.762   0.821   0.549 -1.0470 -1.3604 -1.1806
 3025TIP3   OH2 9038   5.855   2.655   2.262 -0.1076 -0.4761 -0.3331
 3025TIP3    H1 9039   5.850   2.596   2.337  1.0665 -0.1683  0.0047
 3025TIP3    H2 9040   5.941   2.639   2.224  0.3464  1.1849 -0.0811
 3026TIP3   OH2 9041   4.085   0.644   4.680  0.4544 -0.6246  0.1727
 3026TIP3    H1 9042   4.030   0.567   4.692 -0.3409 -0.3750 -1.5688
 3026TIP3    H2 9043   4.141   0.624   4.605 -0.1350  0.6509 -0.6518
 3027TIP3   OH2 9044   6.638   3.409   2.735 -0.1496 -0.2475  0.3735
 3027TIP3    H1 9045   6.577   3.429   2.664  0.7376 -0.1448 -0.3769
 3027TIP3    H2 9046   6.716   3.460   2.714 -0.3200  0.8365  2.1308
 3028TIP3   OH2 9047   4.481   5.261   3.239  0.3119  0.0892 -0.3095
 3028TIP3    H1 9048   4.545   5.201   3.278  0.2067  0.3650  0.2967
 3028TIP3    H2 9049   4.513   5.275   3.149  0.8342 -0.1628 -0.1680
 3029TIP3   OH2 9050   0.637   6.557   4.149  0.4364  0.4228 -0.1471
 3029TIP3    H1 9051   0.675   6.477   4.185 -0.1887  0.2087  0.0454
 3029TIP3    H2 9052   0.590   6.597   4.222 -2.5501 -1.0462 -1.1229
 3030TIP3   OH2 9053   1.347   0.296   1.391  0.0574 -0.0610 -0.4823
 3030TIP3    H1 9054   1.293   0.235   1.441 -0.0791  0.5485  0.1365
 3030TIP3    H2 9055   1.291   0.373   1.380  0.1429 -0.1232 -1.4465
 3031TIP3   OH2 9056   6.005   1.817   4.492  0.5689  0.3488  0.0988
 3031TIP3    H1 9057   5.948   1.776   4.428 -0.5022 -0.1794  1.3518
 3031TIP3    H2 9058   5.946   1.866   4.549  1.0718 -1.7771  2.6245
 3032TIP3   OH2 9059   0.338   5.346   5.819 -0.6264  0.4341  0.0596
 3032TIP3    H1 9060   0.393   5.268   5.818 -0.0370  0.8288  0.8996
 3032TIP3    H2 9061   0.398   5.419   5.835 -1.3338  0.8970  0.7335
 3033TIP3   OH2 9062   0.698   3.560   5.555 -0.5812  0.3488  0.8619
 3033TIP3    H1 9063   0.763   3.535   5.488 -2.3794 -1.5227 -0.3262
 3033TIP3    H2 9064   0.621   3.506   5.534 -2.4171  2.2159  2.4059
 3034TIP3   OH2 9065   3.425   5.897   2.078  0.2691 -0.2580  0.1688
 3034TIP3    H1 9066   3.511   5.930   2.105  0.7221  0.1306 -1.6540
 3034TIP3    H2 9067   3.375   5.976   2.055 -0.0687 -0.5731 -0.1989
 3035TIP3   OH2 9068   2.871   0.303   3.731  0.5083 -0.4821  0.0269
 3035TIP3    H1 9069   2.901   0.392   3.712  0.8107  0.1575  3.0421
 3035TIP3    H2 9070   2.804   0.286   3.665 -0.7963  2.6685  0.3773
 3036TIP3   OH2 9071   1.494   6.447   4.895 -0.2035  0.1214  0.1742
 3036TIP3    H1 9072   1.459   6.362   4.871  0.2098 -0.1137  0.3914
 3036TIP3    H2 9073   1.548   6.430   4.972  0.6531  0.4077 -0.3465
 3037TIP3   OH2 9074   4.169   3.751   1.726 -0.4030  0.0880  0.4816
 3037TIP3    H1 9075   4.194   3.832   1.682  1.7839 -2.1405 -2.7720
 3037TIP3    H2 9076   4.079   3.735   1.698 -0.3440  0.6459 -0.0352
 3038TIP3   OH2 9077   4.062   6.103   3.580 -0.1134  0.4143  0.5155
 3038TIP3    H1 9078   3.998   6.111   3.650 -0.0002  3.8499  0.4225
 3038TIP3    H2 9079   4.129   6.169   3.601  1.1960 -0.1583 -1.5397
 3039TIP3   OH2 9080   4.178   4.672   2.163 -0.0758 -0.3577 -0.4769
 3039TIP3    H1 9081   4.131   4.692   2.245  0.1198 -0.6667 -0.2884
 3039TIP3    H2 9082   4.270   4.683   2.185 -0.0819  2.1535 -1.3430
 3040TIP3   OH2 9083   2.718   1.114   4.268  0.2538 -0.1517 -0.6501
 3040TIP3    H1 9084   2.747   1.097   4.178 -0.1491 -0.6149 -0.7019
 3040TIP3    H2 9085   2.626   1.086   4.269  0.1633  0.1444 -0.1756
 3041TIP3   OH2 9086   1.470   0.620   3.920  0.3390  0.1886 -0.1361
 3041TIP3    H1 9087   1.444   0.689   3.858 -3.1452  1.0386  1.9644
 3041TIP3    H2 9088   1.405   0.551   3.908  2.1058 -1.5338 -0.2426
 3042TIP3   OH2 9089   0.536   3.253   5.026 -0.3646 -0.3050  0.3689
 3042TIP3    H1 9090   0.618   3.205   5.026  0.3765  0.8750  1.9463
 3042TIP3    H2 9091   0.478   3.202   4.969  0.9877 -1.9400  0.3868
 3043TIP3   OH2 9092   5.398   4.673   1.118  0.2190  0.2163  0.1005
 3043TIP3    H1 9093   5.442   4.678   1.203  0.0286  1.8855  0.1268
 3043TIP3    H2 9094   5.308   4.647   1.138  0.3173  0.0703  0.3541
 3044TIP3   OH2 9095   5.203   3.853   2.883  0.2001 -0.1753 -0.6933
 3044TIP3    H1 9096   5.116   3.867   2.920  0.4353 -1.5714  0.4914
 3044TIP3    H2 9097   5.257   3.827   2.958  0.8787 -2.4219 -1.8463
 3045TIP3   OH2 9098   3.899   0.898   5.614 -0.4850 -0.2362  0.1850
 3045TIP3    H1 9099   3.830   0.964   5.611 -1.5994 -1.3726  0.2051
 3045TIP3    H2 9100   3.948   0.911   5.532 -0.6528  0.6239  0.2053
 3046TIP3   OH2 9101   7.182   1.296   3.220  0.0588  0.2507  0.1649
 3046TIP3    H1 9102   7.093   1.328   3.234  0.2876  2.1176 -2.0340
 3046TIP3    H2 9103   7.176   1.201   3.233 -2.8974 -0.0951 -2.4873
 3047TIP3   OH2 9104   6.485   5.852   0.874 -0.0402  0.2380 -0.3612
 3047TIP3    H1 9105   6.538   5.910   0.928 -0.0902 -0.0979  0.0549
 3047TIP3    H2 9106   6.544   5.779   0.852  0.3315  0.9162 -1.7111
 3048TIP3   OH2 9107   1.826   3.833   2.232  0.3229  0.2676  0.5305
 3048TIP3    H1 9108   1.831   3.739   2.214 -1.2686  0.2327  0.2076
 3048TIP3    H2 9109   1.739   3.859   2.204  0.8352  1.9158  0.3691
 3049TIP3   OH2 9110   6.075   1.565   0.057  0.0227 -0.3251  0.2739
 3049TIP3    H1 9111   6.086   1.503  -0.016 -0.8476  0.2527 -0.3710
 3049TIP3    H2 9112   6.114   1.646   0.025 -1.3382  0.2458 -0.0012
 3050TIP3   OH2 9113   0.599   6.455   2.505  0.2607  0.1170 -0.0561
 3050TIP3    H1 9114   0.526   6.489   2.452 -0.2311  0.0771  0.5931
 3050TIP3    H2 9115   0.677   6.495   2.466 -0.2872  1.9316  0.6063
 3051TIP3   OH2 9116   1.810   0.838   0.467  0.0414 -0.4116 -0.1947
 3051TIP3    H1 9117   1.860   0.828   0.386  0.0650 -1.4734 -0.0581
 3051TIP3    H2 9118   1.727   0.795   0.450  0.6686 -2.1641  0.8779
 3052TIP3   OH2 9119   4.340   5.306   1.562  0.3097 -0.7194  0.2402
 3052TIP3    H1 9120   4.264   5.337   1.611 -0.3018 -1.4129 -0.2591
 3052TIP3    H2 9121   4.412   5.309   1.625 -0.0551  0.2402  0.6319
 3053TIP3   OH2 9122   1.643   3.672   4.693 -0.0974  0.1702 -0.6509
 3053TIP3    H1 9123   1.663   3.607   4.761 -0.9702  0.1873 -0.3691
 3053TIP3    H2 9124   1.702   3.650   4.621 -0.0767 -0.6595 -0.3924
 3054TIP3   OH2 9125   2.313   3.772   0.760  0.3310  0.1722  0.1970
 3054TIP3    H1 9126   2.356   3.755   0.844  0.3194  1.1796  0.4159
 3054TIP3    H2 9127   2.344   3.859   0.734  2.1469 -1.0091 -1.9918
 3055TIP3   OH2 9128   3.937   4.718   1.134  0.0721  0.0184  0.2182
 3055TIP3    H1 9129   3.999   4.775   1.181 -2.0100  0.7771  2.2079
 3055TIP3    H2 9130   3.941   4.634   1.180 -0.7939  0.2648  0.7678
 3056TIP3   OH2 9131   0.439   1.999   3.292  0.0697 -0.3332  0.6365
 3056TIP3    H1 9132   0.350   2.029   3.275  0.3174 -0.1123 -0.3057
 3056TIP3    H2 9133   0.428   1.928   3.356 -0.9278 -1.3331 -0.5778
 3057TIP3   OH2 9134   5.064   3.768   3.426 -0.1366  0.0831  0.1257
 3057TIP3    H1 9135   5.124   3.843   3.432 -0.1528  0.3310 -2.0284
 3057TIP3    H2 9136   5.030   3.772   3.336 -0.0491 -2.5805 -0.1070
 3058TIP3   OH2 9137   4.563   1.363   0.091 -0.4009  0.1888 -0.1816
 3058TIP3    H1 9138   4.602   1.373   0.178  0.3934  1.8994 -0.6942
 3058TIP3    H2 9139   4.575   1.270   0.070  1.5802  0.2337  0.5355
 3059TIP3   OH2 9140   3.442   5.529   4.507 -0.5245 -0.3236  0.0818
 3059TIP3    H1 9141   3.477   5.521   4.596 -0.4835 -2.7524 -0.1021
 3059TIP3    H2 9142   3.347   5.519   4.517 -0.5531 -0.2649 -0.1259
 3060TIP3   OH2 9143   3.635   5.530   0.075  1.0217  0.5805  0.0915
 3060TIP3    H1 9144   3.710   5.584   0.102  0.3135  1.3771  0.5102
 3060TIP3    H2 9145   3.655   5.443   0.108  1.6216  0.8580  0.4760
 3061TIP3   OH2 9146   5.823   1.830   5.544  0.0196 -0.0600 -0.7573
 3061TIP3    H1 9147   5.891   1.799   5.603 -0.6226 -0.8609 -0.4245
 3061TIP3    H2 9148   5.742   1.790   5.576 -0.5772  0.6647 -1.3018
 3062TIP3   OH2 9149   1.473   3.271   5.136  0.3351 -0.0644 -0.0610
 3062TIP3    H1 9150   1.551   3.325   5.127  0.7843 -0.5516  0.8452
 3062TIP3    H2 9151   1.447   3.280   5.227 -0.8404  0.3005 -0.4021
 3063TIP3   OH2 9152   6.707   3.268   5.025  0.0082 -0.1302 -0.4286
 3063TIP3    H1 9153   6.631   3.317   4.995 -0.5210 -1.0997 -0.7132
 3063TIP3    H2 9154   6.673   3.182   5.048  0.8166 -0.1912  0.6418
 3064TIP3   OH2 9155   6.783   6.328   1.642 -0.0971 -0.0397 -0.4406
 3064TIP3    H1 9156   6.728   6.315   1.720  3.1181 -0.3065  2.0009
 3064TIP3    H2 9157   6.765   6.418   1.614 -1.0048  0.2163  0.8782
 3065TIP3   OH2 9158   2.725   2.894   2.960  0.5037  0.2563  0.2077
 3065TIP3    H1 9159   2.636   2.886   2.925 -0.3079  0.1265  2.1702
 3065TIP3    H2 9160   2.713   2.929   3.048  2.0419 -3.3091  2.0187
 3066TIP3   OH2 9161   4.149   2.238   3.345 -0.5173 -0.5136  0.8813
 3066TIP3    H1 9162   4.099   2.224   3.426 -0.2440 -1.7245  0.8590
 3066TIP3    H2 9163   4.140   2.156   3.297 -0.3283  0.0474 -0.1360
 3067TIP3   OH2 9164   1.740   5.211   3.716 -0.4607  0.5812  0.5581
 3067TIP3    H1 9165   1.666   5.251   3.762 -2.0413 -0.2017 -1.1724
 3067TIP3    H2 9166   1.743   5.121   3.748  1.2790  1.1792  2.3152
 3068TIP3   OH2 9167   6.225   3.405   2.026 -0.5434 -0.8412 -0.1357
 3068TIP3    H1 9168   6.271   3.444   1.952  0.1167 -1.0630  0.1489
 3068TIP3    H2 9169   6.281   3.332   2.053 -0.0149  0.1404  1.5114
 3069TIP3   OH2 9170   6.802   2.812   1.921 -0.2216 -0.4857 -0.6119
 3069TIP3    H1 9171   6.837   2.893   1.958 -3.4216  0.1393  1.3728
 3069TIP3    H2 9172   6.818   2.746   1.988  2.0532 -1.5552 -2.0730
 3070TIP3   OH2 9173   2.028   5.042   5.364  0.0980 -0.0836  0.4068
 3070TIP3    H1 9174   2.082   5.004   5.433 -0.6379 -0.3356  0.8495
 3070TIP3    H2 9175   2.058   4.999   5.284 -1.0132 -1.9468  0.9456
 3071TIP3   OH2 9176   6.174   3.783   5.016  0.2720 -0.0797 -0.6135
 3071TIP3    H1 9177   6.214   3.867   4.997 -0.4112  0.2280 -0.7126
 3071TIP3    H2 9178   6.187   3.731   4.936 -0.1554  0.2645 -0.9090
 3072TIP3   OH2 9179   0.853   3.633   1.604  0.2871 -0.2303 -0.4691
 3072TIP3    H1 9180   0.772   3.603   1.645  0.5544  0.5639  0.7101
 3072TIP3    H2 9181   0.845   3.729   1.604  1.0522 -0.1638 -0.7047
 3073TIP3   OH2 9182   6.164   5.474   1.559 -0.0592  0.2517 -0.0745
 3073TIP3    H1 9183   6.232   5.495   1.623  0.9610  0.1640 -1.0942
 3073TIP3    H2 9184   6.146   5.557   1.516 -1.9054  0.6507  1.3765
 3074TIP3   OH2 9185   6.362   5.952   2.154 -0.1075 -0.0647 -0.5292
 3074TIP3    H1 9186   6.446   5.906   2.146  0.3495  0.7122 -0.3291
 3074TIP3    H2 9187   6.358   6.009   2.077  0.1746  0.8709  0.1258
 3075TIP3   OH2 9188   6.686   4.388   2.113 -0.0856  0.5056 -0.1111
 3075TIP3    H1 9189   6.730   4.472   2.125  0.6719  0.0552  0.3685
 3075TIP3    H2 9190   6.594   4.406   2.130  0.3600  0.7815  2.3486
 3076TIP3   OH2 9191   2.145   0.347   3.703 -0.4153  0.0746  0.4846
 3076TIP3    H1 9192   2.090   0.269   3.710  0.2132 -0.5225 -0.9406
 3076TIP3    H2 9193   2.220   0.319   3.651 -0.6305  1.8691 -0.8723
 3077TIP3   OH2 9194   0.216   3.687   4.911 -0.2338 -0.3489  0.4521
 3077TIP3    H1 9195   0.243   3.596   4.917  0.5588 -0.1266  0.3741
 3077TIP3    H2 9196   0.125   3.683   4.881 -0.8317 -1.1518  2.2291
 3078TIP3   OH2 9197   6.191   0.405   3.831  0.0915  0.8710 -0.2542
 3078TIP3    H1 9198   6.211   0.428   3.922  3.1084 -0.5439 -0.4548
 3078TIP3    H2 9199   6.251   0.458   3.779  0.4202 -0.4298 -1.2369
 3079TIP3   OH2 9200   5.302   5.139   1.785  0.1732  0.7853  0.2047
 3079TIP3    H1 9201   5.286   5.123   1.692 -1.7001  0.7046  0.5041
 3079TIP3    H2 9202   5.274   5.230   1.798 -1.5474  0.1888  1.0457
 3080TIP3   OH2 9203   1.679   4.793   0.291 -0.2948  0.3653 -0.3625
 3080TIP3    H1 9204   1.760   4.744   0.274  1.1598  1.4627  2.5837
 3080TIP3    H2 9205   1.640   4.750   0.367 -3.4744 -1.0896 -2.6000
 3081TIP3   OH2 9206   2.280   2.152   5.487  0.1777  0.1279 -0.5952
 3081TIP3    H1 9207   2.334   2.218   5.443  0.4024  0.6978  0.5182
 3081TIP3    H2 9208   2.275   2.080   5.424  3.5152 -0.5987 -0.2139
 3082TIP3   OH2 9209   3.099   0.660   5.205  0.0423 -0.0506  0.1998
 3082TIP3    H1 9210   3.025   0.716   5.225  0.3275  0.0209  1.0748
 3082TIP3    H2 9211   3.173   0.720   5.197  0.7317 -0.4203  3.0133
 3083TIP3   OH2 9212   0.706   1.454   1.064  0.5092  0.2194 -0.3131
 3083TIP3    H1 9213   0.616   1.428   1.043 -0.2610  1.0465  1.7085
 3083TIP3    H2 9214   0.698   1.537   1.110  2.3131  0.2933 -0.0328
 3084TIP3   OH2 9215   4.342   6.389   2.765  0.1383  0.1521  0.2379
 3084TIP3    H1 9216   4.300   6.303   2.760  0.5652 -0.1429  1.4657
 3084TIP3    H2 9217   4.416   6.383   2.705  0.3344 -0.4429  0.5338
 3085TIP3   OH2 9218   3.050   1.151   0.818 -0.0272  0.5328 -0.4568
 3085TIP3    H1 9219   3.130   1.099   0.815 -0.3559 -0.7254  4.0751
 3085TIP3    H2 9220   3.079   1.241   0.829  0.9290  0.0482  1.5300
 3086TIP3   OH2 9221   4.291   0.275   4.242 -0.3178 -0.8301 -0.2578
 3086TIP3    H1 9222   4.330   0.188   4.239  1.7317 -0.0748  1.3989
 3086TIP3    H2 9223   4.352   0.331   4.193  0.1887  0.1931  1.4436
 3087TIP3   OH2 9224   5.397   3.480   2.759 -0.0524 -0.3336 -0.5971
 3087TIP3    H1 9225   5.306   3.463   2.781 -0.2330  0.9347 -0.2847
 3087TIP3    H2 9226   5.446   3.463   2.839  0.0536 -1.4458 -0.8874
 3088TIP3   OH2 9227   2.169   2.306   2.973 -0.4646 -0.2033 -0.1122
 3088TIP3    H1 9228   2.152   2.398   2.991 -0.5211 -0.2727  0.1951
 3088TIP3    H2 9229   2.103   2.281   2.908  1.0649  0.5986 -2.0675
 3089TIP3   OH2 9230   1.233   4.894   2.104  0.0687 -0.3956 -0.9799
 3089TIP3    H1 9231   1.182   4.936   2.035 -1.0608  2.2927  1.2745
 3089TIP3    H2 9232   1.303   4.956   2.124 -1.1891  0.2404  1.9629
 3090TIP3   OH2 9233   2.283   4.872   4.447 -0.5681 -0.3530 -0.1198
 3090TIP3    H1 9234   2.241   4.858   4.532  0.3201  0.3785  0.4474
 3090TIP3    H2 9235   2.328   4.956   4.455 -2.2732  0.8486 -2.0377
 3091TIP3   OH2 9236   3.029   4.036   4.856 -0.1856 -0.0816 -0.1509
 3091TIP3    H1 9237   2.993   4.064   4.772 -0.4152 -0.9198 -0.3454
 3091TIP3    H2 9238   3.120   4.066   4.855 -0.2938  0.2312 -0.5463
 3092TIP3   OH2 9239   2.793   6.206   3.973 -0.0870 -0.2492 -0.1408
 3092TIP3    H1 9240   2.787   6.111   3.968 -1.2435 -0.2634  0.9971
 3092TIP3    H2 9241   2.729   6.238   3.909 -1.0236 -0.2729  0.7584
 3093TIP3   OH2 9242   2.915   5.365   1.313 -0.1759 -0.3201  0.0889
 3093TIP3    H1 9243   2.933   5.344   1.221  1.1151 -0.1969  0.2934
 3093TIP3    H2 9244   2.989   5.326   1.361 -1.1640 -0.9560  1.1515
 3094TIP3   OH2 9245   6.496   6.744   4.923  0.3266 -0.8984 -0.0594
 3094TIP3    H1 9246   6.489   6.794   5.004 -1.2729  0.1924 -0.8171
 3094TIP3    H2 9247   6.589   6.745   4.902  0.6346 -0.3803  1.2678
 3095TIP3   OH2 9248   3.024   5.729   0.242  0.6193 -0.6593  0.2142
 3095TIP3    H1 9249   3.061   5.812   0.271 -0.2145  0.4438 -1.6866
 3095TIP3    H2 9250   3.075   5.706   0.164 -0.7472 -0.6243 -0.7262
 3096TIP3   OH2 9251   3.366   0.772  -0.009  0.2556  0.3702  0.4131
 3096TIP3    H1 9252   3.344   0.860  -0.039 -0.5618  0.1758  0.3916
 3096TIP3    H2 9253   3.322   0.764   0.076  1.2375  0.3603  0.9318
 3097TIP3   OH2 9254   6.340   6.394   5.504  0.2173  0.1501 -0.0787
 3097TIP3    H1 9255   6.338   6.450   5.581 -0.6765 -0.3854  0.3085
 3097TIP3    H2 9256   6.269   6.331   5.518  1.7434 -1.6772 -0.0473
 3098TIP3   OH2 9257   0.045   0.786   3.219  0.5562 -0.4433  0.0463
 3098TIP3    H1 9258   0.086   0.815   3.137 -0.8738  1.4371 -0.0735
 3098TIP3    H2 9259   0.112   0.733   3.262  0.9223 -2.5503 -2.8752
 3099TIP3   OH2 9260   1.185   3.979   2.582  0.0061 -0.5293 -0.0600
 3099TIP3    H1 9261   1.180   4.074   2.568  1.8434 -0.1095  1.5743
 3099TIP3    H2 9262   1.278   3.963   2.599 -0.2008 -2.7278 -0.7879
 3100TIP3   OH2 9263   2.730   5.449   4.304 -0.4096 -0.3521  0.8140
 3100TIP3    H1 9264   2.662   5.404   4.254  0.2537 -0.3975 -0.0910
 3100TIP3    H2 9265   2.769   5.380   4.358 -0.1597 -0.6336  0.2857
 3101TIP3   OH2 9266   1.605   4.679   1.075 -0.3790  0.2546  0.1758
 3101TIP3    H1 9267   1.565   4.661   1.160 -2.8368  0.2751 -0.8980
 3101TIP3    H2 9268   1.660   4.755   1.089 -0.1478 -0.2076  1.9071
 3102TIP3   OH2 9269   4.365   5.001   1.520  0.2481 -0.4437  0.3726
 3102TIP3    H1 9270   4.357   5.019   1.426  0.1642 -0.8736  0.2960
 3102TIP3    H2 9271   4.447   5.043   1.546  0.0035  0.1364  0.2190
 3103TIP3   OH2 9272   2.163   1.795   3.764  0.0220  0.2320 -0.0851
 3103TIP3    H1 9273   2.250   1.813   3.798  0.4609 -3.1074  0.9968
 3103TIP3    H2 9274   2.118   1.751   3.836 -1.2811 -1.3232 -1.7487
 3104TIP3   OH2 9275   3.576   4.273   0.519  0.4062 -0.1476  0.6516
 3104TIP3    H1 9276   3.558   4.182   0.495 -0.9958  0.2409  0.1038
 3104TIP3    H2 9277   3.645   4.267   0.585 -0.4327 -1.7064  1.4689
 3105TIP3   OH2 9278   5.735   2.707   1.094 -0.5543 -0.1188  0.1847
 3105TIP3    H1 9279   5.697   2.758   1.023 -1.3736 -0.7678  0.1369
 3105TIP3    H2 9280   5.784   2.637   1.050  1.1179  0.9567  0.2350
 3106TIP3   OH2 9281   0.084   2.215   0.164  0.1998  0.0010 -0.1205
 3106TIP3    H1 9282   0.038   2.279   0.218  0.3334 -1.0333  1.2718
 3106TIP3    H2 9283   0.015   2.155   0.135  0.4020 -0.5148  0.4611
 3107TIP3   OH2 9284   0.282   6.771   4.257 -0.1719 -0.6327 -0.2182
 3107TIP3    H1 9285   0.321   6.859   4.261 -0.2976 -0.5698 -0.3345
 3107TIP3    H2 9286   0.292   6.745   4.165 -0.7755 -0.4376 -0.3464
 3108TIP3   OH2 9287   2.197   6.226   2.533 -0.1316  0.1621 -0.6259
 3108TIP3    H1 9288   2.165   6.210   2.444  0.8725  1.3497 -1.2352
 3108TIP3    H2 9289   2.123   6.266   2.578 -0.5336 -0.1207 -1.0205
 3109TIP3   OH2 9290   1.365   3.672   3.437  0.2789  0.4928  0.4458
 3109TIP3    H1 9291   1.341   3.764   3.447 -0.2943  0.3006  0.8983
 3109TIP3    H2 9292   1.407   3.649   3.520 -1.9440 -0.3461  1.4198
 3110TIP3   OH2 9293  -0.005   5.043   2.194 -0.2482  0.7799  0.1618
 3110TIP3    H1 9294   0.024   5.102   2.263  0.4171 -2.2963  2.7706
 3110TIP3    H2 9295   0.073   4.992   2.172 -1.2693 -0.6275 -0.3445
 3111TIP3   OH2 9296   0.447   1.864   5.209  0.1670  0.5677  0.4878
 3111TIP3    H1 9297   0.361   1.901   5.192  0.1105  0.8756  1.3748
 3111TIP3    H2 9298   0.458   1.872   5.304  0.2858 -1.4075  0.6835
 3112TIP3   OH2 9299   5.428   6.708   3.541  0.7598  0.4022  0.4024
 3112TIP3    H1 9300   5.413   6.780   3.479 -2.0725 -0.0388  0.4294
 3112TIP3    H2 9301   5.500   6.659   3.503 -1.1832 -0.1569 -2.9714
 3113TIP3   OH2 9302   6.335   4.956   4.361 -0.5892 -0.2422 -0.7848
 3113TIP3    H1 9303   6.369   5.037   4.399  1.5230 -1.2697 -0.3387
 3113TIP3    H2 9304   6.274   4.921   4.427 -0.2034  0.1204 -0.2323
 3114TIP3   OH2 9305   1.326   6.414   0.211  0.0742  0.3331  0.3827
 3114TIP3    H1 9306   1.343   6.508   0.199  0.7529  0.1673  0.0216
 3114TIP3    H2 9307   1.283   6.387   0.130 -0.2778  0.3704  0.5581
 3115TIP3   OH2 9308   0.579   5.732   2.440  0.0622 -0.0482 -0.2624
 3115TIP3    H1 9309   0.559   5.639   2.443  0.7393 -0.2766 -1.8564
 3115TIP3    H2 9310   0.495   5.775   2.461 -0.8944 -1.0105 -1.8795
 3116TIP3   OH2 9311   3.104   5.987   4.824  0.1833 -0.3232 -0.3820
 3116TIP3    H1 9312   3.134   5.934   4.751  2.3339  0.7282 -0.3415
 3116TIP3    H2 9313   3.173   5.979   4.890  0.6561  2.4604 -0.3967
 3117TIP3   OH2 9314   1.793   2.114   2.410 -0.2541 -0.5723  0.2908
 3117TIP3    H1 9315   1.812   2.071   2.327 -0.9711 -0.1601 -0.1002
 3117TIP3    H2 9316   1.798   2.208   2.390  0.5313 -0.4618  0.9479
 3118TIP3   OH2 9317   3.557   1.821   1.490  0.4167 -0.3919  0.6046
 3118TIP3    H1 9318   3.489   1.755   1.506 -1.0116  1.2537  1.6957
 3118TIP3    H2 9319   3.581   1.810   1.398 -2.9601  0.3730 -0.4972
 3119TIP3   OH2 9320   0.638   3.373   0.584 -0.4130 -0.3256  0.7690
 3119TIP3    H1 9321   0.713   3.430   0.598  0.2199 -0.3621 -1.8449
 3119TIP3    H2 9322   0.573   3.428   0.540 -0.1543 -1.3138 -0.9510
 3120TIP3   OH2 9323   0.778   3.695   3.013  1.2304  0.0473 -0.1922
 3120TIP3    H1 9324   0.845   3.681   2.947  0.1272  0.7668 -1.5095
 3120TIP3    H2 9325   0.708   3.742   2.967 -0.1784 -0.6793  1.1289
 3121TIP3   OH2 9326   5.050   2.502   2.225  0.2207  0.5387 -0.0186
 3121TIP3    H1 9327   4.969   2.552   2.215  1.5332  2.4557 -1.7613
 3121TIP3    H2 9328   5.076   2.479   2.136  0.6183 -1.7902  0.6316
 3122TIP3   OH2 9329   5.696   2.185   5.009 -0.4243 -0.1782  0.3937
 3122TIP3    H1 9330   5.678   2.134   5.088  0.6559  0.4937  1.0980
 3122TIP3    H2 9331   5.723   2.271   5.042  0.7165 -0.1098 -0.6856
 3123TIP3   OH2 9332   0.783   6.404   4.364  0.5252  0.1461  0.1448
 3123TIP3    H1 9333   0.874   6.432   4.359 -0.3475  3.6080  0.4822
 3123TIP3    H2 9334   0.747   6.453   4.439 -1.9850  0.3378 -1.0647
 3124TIP3   OH2 9335   5.694   5.374   4.595  0.4760  0.6392 -0.3328
 3124TIP3    H1 9336   5.788   5.395   4.603  1.1012 -1.9407 -0.0286
 3124TIP3    H2 9337   5.671   5.401   4.506  1.0356  2.8760  0.1543
 3125TIP3   OH2 9338   6.982   1.174   5.371  0.4017 -0.3641 -0.6641
 3125TIP3    H1 9339   6.936   1.184   5.288  0.3742  0.3573 -0.5726
 3125TIP3    H2 9340   7.050   1.241   5.369  0.0915 -0.0072  0.0938
 3126TIP3   OH2 9341   0.492   5.671   1.321  0.4780 -0.0847 -0.3308
 3126TIP3    H1 9342   0.420   5.650   1.381 -0.5107 -1.8041 -2.0166
 3126TIP3    H2 9343   0.570   5.672   1.377 -0.4827 -1.0361  1.0860
 3127TIP3   OH2 9344   4.048   0.720   1.086  0.3867  0.2786  0.3818
 3127TIP3    H1 9345   4.037   0.708   0.991 -1.5858  0.4092  0.5565
 3127TIP3    H2 9346   4.030   0.812   1.101 -1.7755 -0.2192  1.1469
 3128TIP3   OH2 9347   4.060   1.412   3.793 -0.5883  0.3351  0.2100
 3128TIP3    H1 9348   4.082   1.465   3.870 -0.5786  0.6713 -0.0170
 3128TIP3    H2 9349   4.055   1.476   3.722 -1.4493  0.1402  0.0945
 3129TIP3   OH2 9350   6.233   5.841   0.375 -0.3709  0.3603 -0.0983
 3129TIP3    H1 9351   6.141   5.814   0.377  0.1776 -1.7312  2.4181
 3129TIP3    H2 9352   6.263   5.829   0.465  2.6836 -0.2068 -1.0853
 3130TIP3   OH2 9353   6.619   4.059   5.179  0.0980  0.0573 -0.2025
 3130TIP3    H1 9354   6.540   4.041   5.229 -0.1413 -0.9211 -0.9158
 3130TIP3    H2 9355   6.669   3.978   5.183  0.1429  0.0102 -1.4086
 3131TIP3   OH2 9356   0.972   6.471   2.584  0.2843  0.4375 -0.1921
 3131TIP3    H1 9357   0.952   6.511   2.500  1.2069  1.3100 -0.0131
 3131TIP3    H2 9358   0.961   6.377   2.569 -0.3329  0.6409 -1.0620
 3132TIP3   OH2 9359   2.274   5.027   1.310 -0.5056  0.1963  0.0500
 3132TIP3    H1 9360   2.323   5.014   1.392  0.5326  0.4710 -0.5166
 3132TIP3    H2 9361   2.326   5.089   1.260 -1.0708 -0.0668 -0.8887
 3133TIP3   OH2 9362   5.768   5.606   1.050 -0.3236 -0.5198  0.3206
 3133TIP3    H1 9363   5.821   5.671   1.004  1.4248  0.5263  3.5188
 3133TIP3    H2 9364   5.683   5.648   1.064  0.1182  0.2956  0.6001
 3134TIP3   OH2 9365   3.705   1.163   4.607  0.9452 -0.8013 -0.3905
 3134TIP3    H1 9366   3.796   1.164   4.578  1.5888 -2.7938  1.3104
 3134TIP3    H2 9367   3.708   1.203   4.694  0.5886 -2.6005  0.4993
 3135TIP3   OH2 9368   1.418   5.644   2.657 -0.3177  0.4569  0.3215
 3135TIP3    H1 9369   1.485   5.591   2.701  1.0394  0.4301 -1.6299
 3135TIP3    H2 9370   1.388   5.705   2.724  0.2454 -0.8277  1.7952
 3136TIP3   OH2 9371   4.127   3.737   5.535  0.0737 -0.0036  0.1845
 3136TIP3    H1 9372   4.171   3.673   5.591  0.2807  0.6104  0.7342
 3136TIP3    H2 9373   4.140   3.704   5.446 -3.5960 -3.1867  0.5206
 3137TIP3   OH2 9374   4.374   2.984   1.296  0.2167  0.2084 -0.0581
 3137TIP3    H1 9375   4.291   2.948   1.328  0.9768 -0.4466  1.2820
 3137TIP3    H2 9376   4.435   2.910   1.301  0.9175  0.7140 -0.9053
 3138TIP3   OH2 9377   4.761   0.377   2.705  0.1598 -0.4127 -0.5727
 3138TIP3    H1 9378   4.684   0.349   2.656 -1.1209  0.3643  0.9196
 3138TIP3    H2 9379   4.788   0.459   2.663  0.3064 -0.7886 -1.2220
 3139TIP3   OH2 9380   4.757   2.574   2.216 -0.2287  0.0645  0.3590
 3139TIP3    H1 9381   4.752   2.520   2.295  0.1471  1.6696  1.5319
 3139TIP3    H2 9382   4.703   2.651   2.236  1.7779  1.6562  0.0413
 3140TIP3   OH2 9383   6.718   2.490   3.139 -0.5114 -0.0102  0.6864
 3140TIP3    H1 9384   6.808   2.515   3.159 -0.2177 -0.8944  0.5147
 3140TIP3    H2 9385   6.706   2.405   3.182 -1.4152  0.3148  1.0964
 3141TIP3   OH2 9386   5.804   2.777   4.877  0.5687  0.0832 -0.0505
 3141TIP3    H1 9387   5.810   2.870   4.899  0.4974 -0.0679  0.6282
 3141TIP3    H2 9388   5.890   2.755   4.844  0.1363  0.7552 -1.7020
 3142TIP3   OH2 9389   3.213   0.797   1.943 -0.0032  1.0986  0.2785
 3142TIP3    H1 9390   3.301   0.817   1.911 -0.0805  0.3489 -0.4263
 3142TIP3    H2 9391   3.221   0.709   1.982 -0.6311  0.6468 -0.5877
 3143TIP3   OH2 9392   1.181   0.891   0.262  0.2387 -0.1476 -0.1934
 3143TIP3    H1 9393   1.206   0.882   0.354 -1.0769  1.7451  0.4042
 3143TIP3    H2 9394   1.227   0.969   0.231 -0.8607  0.3788 -0.5487
 3144TIP3   OH2 9395   3.823   5.796   1.753 -0.1243 -0.3240 -0.4400
 3144TIP3    H1 9396   3.832   5.820   1.845 -4.0991 -1.0742  0.2949
 3144TIP3    H2 9397   3.732   5.816   1.731  0.1532 -1.9268 -3.6786
 3145TIP3   OH2 9398   0.768   5.056   2.980 -0.5615  0.3463 -0.1346
 3145TIP3    H1 9399   0.728   4.969   2.969  0.8907 -0.8083  2.6795
 3145TIP3    H2 9400   0.840   5.057   2.918 -1.6937  0.3433 -1.5059
 3146TIP3   OH2 9401   0.279   3.402   2.618 -0.2027 -0.9579  0.2301
 3146TIP3    H1 9402   0.218   3.463   2.659 -2.0122 -1.3005 -1.7725
 3146TIP3    H2 9403   0.365   3.443   2.630 -1.3589  2.3485 -1.5075
 3147TIP3   OH2 9404   5.751   5.021   5.007 -0.0988  0.5715 -0.6336
 3147TIP3    H1 9405   5.720   4.932   4.994 -0.0397  0.5190 -0.4299
 3147TIP3    H2 9406   5.750   5.060   4.920 -2.2064  1.0641 -0.4398
 3148TIP3   OH2 9407   1.778   6.217   2.182  0.3667  0.2001 -0.2027
 3148TIP3    H1 9408   1.717   6.291   2.187 -0.6080 -0.6568  1.6366
 3148TIP3    H2 9409   1.724   6.144   2.151  0.2107 -0.7522  2.1688
 3149TIP3   OH2 9410   1.044   6.036   1.608  0.2895 -0.2014 -0.0880
 3149TIP3    H1 9411   1.068   5.996   1.524  0.3785  0.6338 -0.4688
 3149TIP3    H2 9412   1.062   6.129   1.597  0.9576 -0.1681  1.1029
 3150TIP3   OH2 9413   3.027   6.460   5.237  0.2184  0.2099 -0.2303
 3150TIP3    H1 9414   3.089   6.391   5.214 -1.4180 -1.0628 -1.0666
 3150TIP3    H2 9415   3.067   6.541   5.205  0.9294 -0.7201 -1.8126
 3151TIP3   OH2 9416   6.558   3.960   0.728 -0.2527 -0.1790 -0.2932
 3151TIP3    H1 9417   6.537   3.989   0.639 -2.9248  1.4880  0.7668
 3151TIP3    H2 9418   6.494   4.004   0.783  1.4649 -0.9784  2.5225
 3152TIP3   OH2 9419   7.104   0.660   1.157  0.0624 -0.6457 -0.0616
 3152TIP3    H1 9420   7.011   0.635   1.150 -0.2182  0.5373 -0.8837
 3152TIP3    H2 9421   7.118   0.673   1.251 -0.6612 -0.6413  0.0553
 3153TIP3   OH2 9422   7.034   6.090   2.949 -0.0529  0.2865  0.2147
 3153TIP3    H1 9423   7.100   6.044   2.896  0.3399  0.8134  0.2417
 3153TIP3    H2 9424   6.975   6.130   2.885  0.0986  0.4567  0.1811
 3154TIP3   OH2 9425   7.153   5.639   5.142 -0.1558 -0.2928 -0.1578
 3154TIP3    H1 9426   7.086   5.575   5.119 -0.1933  0.3278 -2.0011
 3154TIP3    H2 9427   7.121   5.721   5.105  1.2987  0.1489 -0.5060
 3155TIP3   OH2 9428   5.901   3.951   4.057 -0.6598 -0.3125 -0.3367
 3155TIP3    H1 9429   5.929   4.038   4.085  0.0530 -0.8069  0.5458
 3155TIP3    H2 9430   5.931   3.943   3.967 -0.9242  0.4330 -0.4972
 3156TIP3   OH2 9431   3.072   5.936   1.466  0.1545 -0.1398 -0.1966
 3156TIP3    H1 9432   3.003   5.870   1.454 -0.5375  0.4662  0.2919
 3156TIP3    H2 9433   3.099   5.925   1.557  1.0260 -0.6652 -0.5123
 3157TIP3   OH2 9434   4.956   3.332   5.090  0.5794 -0.7396  0.2318
 3157TIP3    H1 9435   4.893   3.302   5.024 -1.1849  1.0844  0.9749
 3157TIP3    H2 9436   5.041   3.310   5.053 -0.4106 -1.5625 -1.7389
 3158TIP3   OH2 9437   3.504   3.527   5.409  0.6181 -0.2823 -0.1196
 3158TIP3    H1 9438   3.409   3.537   5.399  0.5250  2.0468  1.8744
 3158TIP3    H2 9439   3.539   3.614   5.390  1.7957  0.2060  3.4646
 3159TIP3   OH2 9440   5.343   1.068   2.367  0.4619 -0.5994  0.0882
 3159TIP3    H1 9441   5.330   1.160   2.340 -0.3131 -0.5233  0.6745
 3159TIP3    H2 9442   5.256   1.030   2.361  1.0777 -1.8620 -2.0634
 3160TIP3   OH2 9443   5.539   4.180   2.699  0.3770 -0.3148  0.1702
 3160TIP3    H1 9444   5.489   4.148   2.625 -0.2662 -0.7227  0.7710
 3160TIP3    H2 9445   5.630   4.156   2.679  0.4105  0.7877 -1.1086
 3161TIP3   OH2 9446   5.094   2.447   2.774  0.4809 -0.0099  0.3316
 3161TIP3    H1 9447   5.076   2.353   2.768  0.0158  0.0878  0.2075
 3161TIP3    H2 9448   5.050   2.485   2.698 -0.0158  0.4142  0.8295
 3162TIP3   OH2 9449   7.084   6.422   5.565  0.3946  0.5758  0.0247
 3162TIP3    H1 9450   7.021   6.464   5.624  1.5387  2.2815  0.1135
 3162TIP3    H2 9451   7.104   6.338   5.606 -0.6332  0.6911  0.7954
 3163TIP3   OH2 9452   3.703   4.143   1.440  0.9761  0.2797  0.0409
 3163TIP3    H1 9453   3.666   4.059   1.413  0.6941  0.0820  1.0033
 3163TIP3    H2 9454   3.663   4.160   1.525  3.2901 -0.0803  1.2755
 3164TIP3   OH2 9455   1.377   5.869   4.063 -0.2749 -0.3928  0.4053
 3164TIP3    H1 9456   1.384   5.864   4.159 -0.1811 -1.4275  0.3564
 3164TIP3    H2 9457   1.321   5.796   4.039  1.0328 -1.1543 -0.4587
 3165TIP3   OH2 9458   0.815   0.331   3.997  0.0848  0.5106 -0.1291
 3165TIP3    H1 9459   0.745   0.276   3.963 -0.7038  1.9519 -0.9191
 3165TIP3    H2 9460   0.805   0.326   4.092  0.1971 -0.8665 -0.1588
 3166TIP3   OH2 9461   3.655   4.633   1.763  0.1227 -0.1674 -0.0190
 3166TIP3    H1 9462   3.736   4.681   1.745 -0.4988  0.7776 -0.3929
 3166TIP3    H2 9463   3.599   4.653   1.689 -0.3797 -1.0118  0.1202
 3167TIP3   OH2 9464   2.864   4.330   3.326 -0.0306 -0.7618  0.4070
 3167TIP3    H1 9465   2.868   4.264   3.257 -1.7992  0.3737 -0.8777
 3167TIP3    H2 9466   2.805   4.293   3.392 -0.0341 -0.9737  0.2856
 3168TIP3   OH2 9467   1.363   1.476   3.997  0.1756  0.2045  0.0161
 3168TIP3    H1 9468   1.305   1.403   3.977  0.8499  0.0855 -1.6275
 3168TIP3    H2 9469   1.401   1.501   3.913 -0.2422  2.6354  0.4666
 3169TIP3   OH2 9470   2.765   4.222   0.408  0.2921  0.2785 -0.4359
 3169TIP3    H1 9471   2.843   4.167   0.399  0.2367 -0.0460  0.8608
 3169TIP3    H2 9472   2.758   4.267   0.324  1.2733 -0.4726 -0.9454
 3170TIP3   OH2 9473   3.081   4.531   3.773 -0.3913 -0.1865  0.0462
 3170TIP3    H1 9474   3.001   4.566   3.813 -1.1336 -1.7248 -0.0297
 3170TIP3    H2 9475   3.092   4.445   3.812  0.5231 -0.5166 -0.8919
 3171TIP3   OH2 9476   4.920   2.239   2.663 -0.1174  0.6153  0.3360
 3171TIP3    H1 9477   4.965   2.175   2.719 -0.1949  0.8278  0.6491
 3171TIP3    H2 9478   4.981   2.257   2.592  0.4050  1.1003  0.8995
 3172TIP3   OH2 9479   4.218   1.438   0.993  0.1412  0.2446  0.5886
 3172TIP3    H1 9480   4.314   1.446   0.993  0.0984  0.8932 -0.5297
 3172TIP3    H2 9481   4.202   1.344   0.986  0.7008  0.1864  0.0277
 3173TIP3   OH2 9482   3.374   6.734   0.454 -0.2316  0.0561  0.1266
 3173TIP3    H1 9483   3.431   6.674   0.502  0.8540  0.1980 -0.9492
 3173TIP3    H2 9484   3.432   6.799   0.417 -0.9221 -0.3786 -1.8753
 3174TIP3   OH2 9485   0.072   0.332   2.855  0.6343  0.5562  0.0877
 3174TIP3    H1 9486   0.128   0.336   2.777  0.8423  0.8654  0.2525
 3174TIP3    H2 9487   0.133   0.325   2.928  0.4159 -1.3390  0.1420
 3175TIP3   OH2 9488   3.265   5.604   3.737 -0.0051  0.2565  0.0620
 3175TIP3    H1 9489   3.355   5.570   3.744 -0.1788 -0.6195 -1.5749
 3175TIP3    H2 9490   3.231   5.600   3.826  1.1363 -0.6688  0.4832
 3176TIP3   OH2 9491   6.602   1.239   5.206 -0.1758  1.0442  0.2171
 3176TIP3    H1 9492   6.556   1.265   5.126 -0.8467  2.4697  1.0188
 3176TIP3    H2 9493   6.692   1.224   5.179 -0.5434  0.8245 -0.9250
 3177TIP3   OH2 9494   5.775   3.983   5.655 -0.0541  0.2418  0.2670
 3177TIP3    H1 9495   5.768   4.024   5.742 -0.1494  0.0479  0.3509
 3177TIP3    H2 9496   5.702   3.921   5.652  1.1262 -1.2138  0.8359
 3178TIP3   OH2 9497   1.155   5.890   5.614  0.2869 -0.6024  0.3439
 3178TIP3    H1 9498   1.086   5.830   5.587  0.9710 -1.6196  0.7619
 3178TIP3    H2 9499   1.110   5.962   5.658 -0.4788 -1.3497  0.7958
 3179TIP3   OH2 9500   6.674   3.136   3.107 -0.7500  0.1851 -0.3573
 3179TIP3    H1 9501   6.652   3.084   3.030 -0.6772  2.4384 -1.9979
 3179TIP3    H2 9502   6.662   3.227   3.079  1.9907  1.2119  1.4232
 3180TIP3   OH2 9503   4.295   5.918   2.185 -0.2795  0.8577 -0.2738
 3180TIP3    H1 9504   4.389   5.926   2.170 -0.4799  0.4925 -1.8774
 3180TIP3    H2 9505   4.288   5.894   2.277  1.3189 -1.1503 -0.6033
 3181TIP3   OH2 9506   1.450   6.772   1.278 -0.1218 -0.2787 -0.2716
 3181TIP3    H1 9507   1.481   6.694   1.231  0.7279 -0.7013  0.9281
 3181TIP3    H2 9508   1.373   6.742   1.326  0.6052 -0.5964  0.7366
 3182TIP3   OH2 9509   5.964   6.472   5.260  0.2154  0.3294 -0.0305
 3182TIP3    H1 9510   6.022   6.400   5.286 -1.3578 -1.1492 -0.4410
 3182TIP3    H2 9511   5.893   6.429   5.212 -1.7720  1.9123  1.3425
 3183TIP3   OH2 9512   0.325   1.596   4.271  0.0588 -0.0715  0.5214
 3183TIP3    H1 9513   0.359   1.529   4.212 -0.9484  1.4383 -1.9085
 3183TIP3    H2 9514   0.232   1.577   4.279  0.0430  0.1920  1.0314
 3184TIP3   OH2 9515   0.715   1.276   3.509  0.0167  0.3437  0.2288
 3184TIP3    H1 9516   0.650   1.305   3.445  1.1776  1.2898 -0.5586
 3184TIP3    H2 9517   0.670   1.284   3.593 -0.0354  3.7514 -0.0007
 3185TIP3   OH2 9518   2.920   5.699   5.405  0.8513  0.3474  0.2746
 3185TIP3    H1 9519   2.908   5.605   5.392  2.2996  0.2006 -0.2037
 3185TIP3    H2 9520   3.014   5.712   5.398  0.5610  2.0627 -1.3185
 3186TIP3   OH2 9521   5.051   5.301   0.981 -0.0012 -0.3092  0.1190
 3186TIP3    H1 9522   4.973   5.348   1.011  0.7397  0.5053  0.8019
 3186TIP3    H2 9523   5.108   5.369   0.945  0.8773 -0.7386  0.6658
 3187TIP3   OH2 9524   1.279   5.530   1.476  0.3033 -0.2924 -0.2545
 3187TIP3    H1 9525   1.285   5.596   1.545  1.1375  0.6592 -1.2072
 3187TIP3    H2 9526   1.232   5.457   1.517 -2.8000  1.7417  0.1786
 3188TIP3   OH2 9527   3.073   0.158   3.866 -0.3809  0.4629  0.0794
 3188TIP3    H1 9528   3.006   0.210   3.821  0.4965  0.5204 -1.2134
 3188TIP3    H2 9529   3.085   0.201   3.951  0.3070  2.3782 -0.9365
 3189TIP3   OH2 9530   6.517   2.715   0.313  0.6658  0.0085  0.0134
 3189TIP3    H1 9531   6.611   2.696   0.306  0.2742 -1.6962 -1.2697
 3189TIP3    H2 9532   6.484   2.706   0.224 -1.1228 -1.9519  0.7815
 3190TIP3   OH2 9533   6.822   5.751   5.371  0.3437  0.2531 -0.3913
 3190TIP3    H1 9534   6.741   5.740   5.320 -2.3481  0.7309  3.3727
 3190TIP3    H2 9535   6.881   5.684   5.337 -2.6749 -2.1142 -1.4684
 3191TIP3   OH2 9536   4.276   1.331   0.526  0.4385 -0.4270  0.4243
 3191TIP3    H1 9537   4.207   1.297   0.583 -1.7089  2.3910 -0.2570
 3191TIP3    H2 9538   4.271   1.276   0.448 -1.1177 -0.2443  0.3619
 3192TIP3   OH2 9539   4.395   6.039   3.509  0.8684  0.0552  0.0604
 3192TIP3    H1 9540   4.385   6.008   3.599 -0.2699  0.3969  0.0647
 3192TIP3    H2 9541   4.363   6.129   3.511  0.2996 -0.1190 -0.7972
 3193TIP3   OH2 9542   2.439   3.018   3.084 -0.4466  0.0459 -0.0847
 3193TIP3    H1 9543   2.423   2.966   3.163 -0.2478  0.1052 -0.0029
 3193TIP3    H2 9544   2.511   3.077   3.109 -0.5869  0.2732 -0.2145
 3194TIP3   OH2 9545   1.665   6.113   1.426 -0.2776  0.0647  0.3728
 3194TIP3    H1 9546   1.573   6.100   1.448 -0.7474  0.3757 -1.2611
 3194TIP3    H2 9547   1.685   6.042   1.364  0.2330  0.7155 -0.2172
 3195TIP3   OH2 9548   7.226   2.957   3.093 -0.3163 -0.4105  0.6219
 3195TIP3    H1 9549   7.146   3.008   3.108 -0.3008 -0.7283  1.8971
 3195TIP3    H2 9550   7.231   2.948   2.998 -0.0995  2.3158  0.3038
 3196TIP3   OH2 9551   5.399   5.667   5.609 -0.8149  0.4465 -0.1168
 3196TIP3    H1 9552   5.376   5.747   5.562  0.2725  1.9182  1.7221
 3196TIP3    H2 9553   5.488   5.648   5.582 -0.7165  0.4378  0.2119
 3197TIP3   OH2 9554   5.367   0.428   1.612  0.1633 -0.6316  0.1227
 3197TIP3    H1 9555   5.280   0.435   1.573  0.2055 -2.2164 -0.3462
 3197TIP3    H2 9556   5.350   0.407   1.704  0.0187 -1.4512 -0.0772
 3198TIP3   OH2 9557   2.436   2.305   1.634 -0.1601 -0.7022  0.1919
 3198TIP3    H1 9558   2.487   2.267   1.562  0.7009 -1.1156  1.0037
 3198TIP3    H2 9559   2.394   2.382   1.595  0.5722 -0.7208 -0.6695
 3199TIP3   OH2 9560   1.804   3.115   2.753  0.6626  0.3257 -0.1689
 3199TIP3    H1 9561   1.813   3.207   2.728 -0.0527  0.7526  1.0215
 3199TIP3    H2 9562   1.862   3.068   2.693 -0.7296  1.2622 -2.3865
 3200TIP3   OH2 9563   4.762   3.999   5.510 -0.3270 -0.5100  0.5836
 3200TIP3    H1 9564   4.789   3.908   5.514 -1.0701 -0.7331  0.5681
 3200TIP3    H2 9565   4.667   3.998   5.526 -1.0604 -0.1092 -2.9725
 3201TIP3   OH2 9566   6.420   3.880   1.553 -0.0207  0.1481  0.6139
 3201TIP3    H1 9567   6.416   3.889   1.648  0.3739  1.0055  0.5504
 3201TIP3    H2 9568   6.362   3.806   1.534  0.3956 -0.4421  1.5756
 3202TIP3   OH2 9569   4.205   1.357   5.680  1.0646  0.1082 -0.4695
 3202TIP3    H1 9570   4.262   1.338   5.605  0.0443  0.3625 -1.3428
 3202TIP3    H2 9571   4.149   1.428   5.650  0.9948  0.5955  0.7500
 3203TIP3   OH2 9572   6.993   1.255   1.439  0.1975 -0.0607  0.2811
 3203TIP3    H1 9573   6.950   1.176   1.471 -0.7659  0.2055 -0.2865
 3203TIP3    H2 9574   7.026   1.298   1.517  0.1758 -0.7120  0.6566
 3204TIP3   OH2 9575   4.451   5.400   1.099 -0.3541 -0.1289  0.5817
 3204TIP3    H1 9576   4.510   5.475   1.100 -1.7573  1.0945 -1.1050
 3204TIP3    H2 9577   4.389   5.416   1.170  0.4796 -0.6952  1.4493
 3205TIP3   OH2 9578   5.492   4.911   3.039  0.0514  0.0901 -0.2924
 3205TIP3    H1 9579   5.497   4.860   3.120 -0.0400  0.5052 -0.0245
 3205TIP3    H2 9580   5.405   4.891   3.004  0.7015 -1.4080 -1.1753
 3206TIP3   OH2 9581   4.807   6.401   1.422 -0.3552 -0.4555  0.2944
 3206TIP3    H1 9582   4.868   6.427   1.492 -0.6923  1.9824 -0.2089
 3206TIP3    H2 9583   4.721   6.411   1.461 -0.5087 -0.4554 -0.0414
 3207TIP3   OH2 9584   1.517   5.955   3.787  0.0089 -0.2605  0.6799
 3207TIP3    H1 9585   1.473   5.982   3.706  0.3482  0.7681  0.8254
 3207TIP3    H2 9586   1.493   6.022   3.851  2.0832  0.5705  0.6578
 3208TIP3   OH2 9587   1.309   2.424   3.821  0.1095 -0.0753  0.2102
 3208TIP3    H1 9588   1.245   2.494   3.809  1.0010  0.4514 -1.9159
 3208TIP3    H2 9589   1.257   2.347   3.845 -0.9981  0.9864  1.3938
 3209TIP3   OH2 9590   1.258   0.322   4.430 -0.3752 -0.1579  0.6503
 3209TIP3    H1 9591   1.346   0.324   4.467 -0.2084 -0.0062  0.2544
 3209TIP3    H2 9592   1.227   0.233   4.446 -0.3367 -0.0692  1.2225
 3210TIP3   OH2 9593   1.218   4.112   1.793  0.1337 -0.2041  0.6653
 3210TIP3    H1 9594   1.285   4.114   1.725  0.8049 -1.5768  1.2479
 3210TIP3    H2 9595   1.230   4.027   1.836 -1.3690 -0.0720  1.4009
 3211TIP3   OH2 9596   5.002   2.890   0.483 -0.0440 -0.0507 -0.0527
 3211TIP3    H1 9597   5.086   2.936   0.490  0.1142 -0.3883  0.2698
 3211TIP3    H2 9598   4.940   2.959   0.460  0.0996  0.4259  0.9615
 3212TIP3   OH2 9599   1.113   1.220   0.817  0.2227 -0.2353  0.0741
 3212TIP3    H1 9600   1.018   1.210   0.817  0.2695 -0.8510  1.2118
 3212TIP3    H2 9601   1.134   1.255   0.903  1.0523 -0.3729 -0.0581
 3213TIP3   OH2 9602   0.765   5.668   4.228  0.1841 -0.0012 -0.0392
 3213TIP3    H1 9603   0.740   5.580   4.202 -1.2585  0.1432  0.7448
 3213TIP3    H2 9604   0.714   5.685   4.307  1.7478  0.8932  0.8324
 3214TIP3   OH2 9605   6.786   4.050   2.176 -0.3142  0.0860  0.2498
 3214TIP3    H1 9606   6.821   4.024   2.261 -1.6975  0.5223  0.9829
 3214TIP3    H2 9607   6.791   4.145   2.176 -1.4210  0.1597  0.3655
 3215TIP3   OH2 9608   0.323   0.966   1.681  0.2837 -0.2543 -0.1531
 3215TIP3    H1 9609   0.345   1.003   1.595  0.5053  0.3618  0.1597
 3215TIP3    H2 9610   0.227   0.965   1.683  0.2655  0.7775  0.0195
 3216TIP3   OH2 9611   5.742   1.639   5.868 -0.3610 -0.4217  0.1678
 3216TIP3    H1 9612   5.707   1.583   5.798  0.8541 -1.2699  0.1954
 3216TIP3    H2 9613   5.763   1.578   5.939  0.9116  0.0732  0.2413
 3217TIP3   OH2 9614   2.255   1.062   4.529  0.2710 -0.0414  0.1447
 3217TIP3    H1 9615   2.172   1.017   4.543 -1.3353  2.7448  0.2741
 3217TIP3    H2 9616   2.280   1.095   4.615  0.0133  1.4639 -0.3197
 3218TIP3   OH2 9617   6.743   2.895   2.722 -0.1422 -0.8084 -0.2762
 3218TIP3    H1 9618   6.779   2.930   2.640 -1.8211  2.0458  0.0655
 3218TIP3    H2 9619   6.820   2.869   2.772  1.0586 -0.6058 -1.9145
 3219TIP3   OH2 9620   1.491   0.311   3.547 -0.4233 -0.0692  0.1077
 3219TIP3    H1 9621   1.537   0.312   3.632 -0.1709  1.1423 -0.0161
 3219TIP3    H2 9622   1.537   0.377   3.495  0.0734 -1.5143 -1.3521
 3220TIP3   OH2 9623   0.974   6.566   0.598  0.1263 -0.1471  0.1085
 3220TIP3    H1 9624   0.973   6.555   0.503  0.7525 -2.5186  0.3253
 3220TIP3    H2 9625   1.017   6.651   0.612 -2.4246  1.5828 -1.7471
 3221TIP3   OH2 9626   0.586   5.760   4.609  0.0626  0.6398 -0.0784
 3221TIP3    H1 9627   0.577   5.776   4.515 -0.9751  0.2513 -0.0519
 3221TIP3    H2 9628   0.497   5.749   4.641  0.4272  0.3337  0.8816
 3222TIP3   OH2 9629   6.040   2.286   2.849 -0.1878 -0.1445 -0.7280
 3222TIP3    H1 9630   5.965   2.245   2.893  0.2006 -0.4013 -0.2859
 3222TIP3    H2 9631   6.102   2.304   2.920  0.9990 -1.7147 -1.2942
 3223TIP3   OH2 9632   5.842   5.968   4.411 -0.2942 -0.3573 -0.3122
 3223TIP3    H1 9633   5.761   5.932   4.447 -0.0692 -1.6655 -1.0798
 3223TIP3    H2 9634   5.867   5.908   4.341  2.5502 -1.2759  1.3366
 3224TIP3   OH2 9635   3.532   5.610   4.765 -0.3645  0.3618  0.5084
 3224TIP3    H1 9636   3.451   5.606   4.816 -1.4902  1.9844 -1.0180
 3224TIP3    H2 9637   3.578   5.688   4.798 -0.2357  0.3976  0.2493
 3225TIP3   OH2 9638   6.525   0.144   3.257 -0.1252 -0.1144  0.5842
 3225TIP3    H1 9639   6.478   0.181   3.182  0.4468 -0.3316  0.1143
 3225TIP3    H2 9640   6.529   0.216   3.320  0.3356  0.4202 -0.0338
 3226TIP3   OH2 9641   5.992   2.552   5.414 -0.2511  0.3251 -0.4966
 3226TIP3    H1 9642   6.086   2.573   5.412 -0.3966  0.9727 -1.2306
 3226TIP3    H2 9643   5.988   2.460   5.389  0.3152 -0.2670  1.4806
 3227TIP3   OH2 9644   1.166   2.287   1.170  0.1364 -0.4106  0.6190
 3227TIP3    H1 9645   1.119   2.367   1.146 -0.1799 -0.4885  0.9782
 3227TIP3    H2 9646   1.201   2.303   1.257  0.9880 -0.2668  0.2678
 3228TIP3   OH2 9647   2.264   6.660   5.294  0.2594 -0.2437  0.7710
 3228TIP3    H1 9648   2.298   6.749   5.298 -0.3208 -0.0140  0.8212
 3228TIP3    H2 9649   2.319   6.610   5.354  1.2105 -0.1404  0.0045
 3229TIP3   OH2 9650   6.090   1.615   2.404  0.0498 -0.1651  0.1461
 3229TIP3    H1 9651   6.180   1.617   2.438  0.1041  0.3846 -0.0180
 3229TIP3    H2 9652   6.037   1.654   2.473  0.2030  1.2411 -0.4900
 3230TIP3   OH2 9653   3.413   5.325   2.708  0.1877  0.2553  0.1630
 3230TIP3    H1 9654   3.402   5.230   2.708 -0.5355  0.3259 -0.0170
 3230TIP3    H2 9655   3.324   5.359   2.695  0.4301  0.9560  0.2805
 3231TIP3   OH2 9656   5.332   2.282   2.588 -0.4265 -0.0799  0.3246
 3231TIP3    H1 9657   5.334   2.370   2.549  2.5367 -0.0246  0.4063
 3231TIP3    H2 9658   5.336   2.298   2.682  1.1754 -0.2555  0.3129
 3232TIP3   OH2 9659   6.300   1.702   5.640  0.2086  0.3601 -0.2262
 3232TIP3    H1 9660   6.366   1.752   5.690  0.0859  1.4278 -1.0955
 3232TIP3    H2 9661   6.325   1.611   5.652  0.7547  0.6473  0.9873
 3233TIP3   OH2 9662   4.771   5.730   5.710  0.1704 -0.3593 -0.5953
 3233TIP3    H1 9663   4.865   5.738   5.722  0.0247 -0.8915  1.1950
 3233TIP3    H2 9664   4.733   5.784   5.780 -0.8671  0.3464 -1.6658
 3234TIP3   OH2 9665   2.023   6.125   3.559 -0.4416  0.3360  0.3463
 3234TIP3    H1 9666   2.115   6.147   3.574 -0.3660  0.0221  0.3502
 3234TIP3    H2 9667   2.007   6.151   3.468 -0.2974  0.2303  0.2889
 3235TIP3   OH2 9668   5.822   0.741   1.186 -0.0777 -0.0544 -0.3046
 3235TIP3    H1 9669   5.838   0.696   1.103  0.8377 -1.1277  0.4098
 3235TIP3    H2 9670   5.851   0.831   1.171 -1.1209  0.1166 -1.5068
 3236TIP3   OH2 9671   5.299   1.323   3.071  0.1965 -0.3424  0.7750
 3236TIP3    H1 9672   5.337   1.283   3.149  2.5430 -4.1331 -1.9111
 3236TIP3    H2 9673   5.236   1.258   3.039  1.6409 -0.5499 -2.0277
 3237TIP3   OH2 9674   5.180   1.297   1.074  0.0808  0.1081 -0.5251
 3237TIP3    H1 9675   5.252   1.360   1.075  0.5165 -0.3827  0.5155
 3237TIP3    H2 9676   5.128   1.321   0.997  1.2403  0.5942 -1.1892
 3238TIP3   OH2 9677   0.143   4.806   4.254 -0.3500  0.5663 -0.1093
 3238TIP3    H1 9678   0.059   4.853   4.255  1.6660  4.6857  1.1108
 3238TIP3    H2 9679   0.191   4.843   4.328  2.1226 -2.6460  0.1089
 3239TIP3   OH2 9680   1.791   1.653   2.539 -0.4052  0.0381 -0.2784
 3239TIP3    H1 9681   1.805   1.663   2.633  2.4569  1.7850 -0.7768
 3239TIP3    H2 9682   1.747   1.734   2.512  0.5127  0.4151 -0.6901
 3240TIP3   OH2 9683   4.012   6.423   2.023  0.3536  0.0749  0.4247
 3240TIP3    H1 9684   4.096   6.384   2.047 -0.1599 -1.6904 -0.4889
 3240TIP3    H2 9685   4.035   6.509   1.988  1.7802 -0.4009  0.1355
 3241TIP3   OH2 9686   1.985   5.304   3.131  0.2970  0.0349  0.0414
 3241TIP3    H1 9687   2.071   5.324   3.169  0.2764  2.4699 -1.0054
 3241TIP3    H2 9688   1.946   5.389   3.114 -1.7114 -1.0065 -0.9201
 3242TIP3   OH2 9689   6.350   2.989   1.307 -0.2482 -0.1668  0.2019
 3242TIP3    H1 9690   6.360   2.934   1.384 -1.1549 -1.4341 -0.5387
 3242TIP3    H2 9691   6.439   3.000   1.273  0.0489 -0.3521  0.9182
 3243TIP3   OH2 9692   5.368   4.326   4.426 -0.2503  0.1150 -0.2069
 3243TIP3    H1 9693   5.428   4.332   4.500  1.1064  1.3040 -1.3318
 3243TIP3    H2 9694   5.328   4.412   4.420 -0.0291  0.1741 -1.0790
 3244TIP3   OH2 9695   2.074   4.943   5.631 -0.3959  0.2027  0.1913
 3244TIP3    H1 9696   2.064   4.848   5.642 -1.1084 -0.0495 -2.1219
 3244TIP3    H2 9697   2.007   4.981   5.687  1.7299 -0.4331  3.4473
 3245TIP3   OH2 9698   1.611   6.274   5.880  0.2820  0.0833  0.0438
 3245TIP3    H1 9699   1.598   6.259   5.786 -0.5628 -0.1694  0.1940
 3245TIP3    H2 9700   1.676   6.208   5.905  2.2567  1.6109 -0.7950
 3246TIP3   OH2 9701   4.850   5.344   5.629  0.3181  0.5079 -0.3435
 3246TIP3    H1 9702   4.766   5.366   5.590 -0.0060 -1.7376 -1.0803
 3246TIP3    H2 9703   4.908   5.330   5.554  1.2390  1.5455  0.1453
 3247TIP3   OH2 9704   1.187   3.121   2.409  0.4519  0.2797 -0.5142
 3247TIP3    H1 9705   1.261   3.144   2.466  0.9164 -2.0922 -0.0511
 3247TIP3    H2 9706   1.199   3.174   2.331  1.8675  0.9550  0.1264
 3248TIP3   OH2 9707   4.292   1.507   3.109  0.0746 -0.0346 -0.0903
 3248TIP3    H1 9708   4.333   1.421   3.114  0.5331  0.1486 -0.7362
 3248TIP3    H2 9709   4.364   1.569   3.097 -0.3892  0.2524 -1.6389
 3249TIP3   OH2 9710   1.882   5.351   4.620 -0.2087 -0.2082 -0.0343
 3249TIP3    H1 9711   1.824   5.374   4.547 -2.3811  0.7745  1.8489
 3249TIP3    H2 9712   1.834   5.282   4.667 -0.0963  0.8991  1.7999
 3250TIP3   OH2 9713   1.349   0.599   5.345 -0.8413 -0.1907  0.4053
 3250TIP3    H1 9714   1.286   0.670   5.334 -1.0639 -0.0227  2.3906
 3250TIP3    H2 9715   1.429   0.643   5.373 -0.8454 -0.6639  1.1940
 3251TIP3   OH2 9716   2.480   4.501   5.766  0.0595 -0.1021 -0.0829
 3251TIP3    H1 9717   2.484   4.414   5.807  2.5625  0.2135  0.5477
 3251TIP3    H2 9718   2.569   4.515   5.733 -0.6547  1.6843 -1.3664
 3252TIP3   OH2 9719   2.851   0.739   4.162 -0.2326  0.5907 -0.4408
 3252TIP3    H1 9720   2.938   0.718   4.196 -0.8393 -1.4102  0.0134
 3252TIP3    H2 9721   2.810   0.790   4.232 -0.3092 -0.7112  0.5061
 3253TIP3   OH2 9722   3.685   6.151   0.581  0.0228  0.5418  0.8033
 3253TIP3    H1 9723   3.738   6.207   0.637  2.4413 -1.0625  0.2491
 3253TIP3    H2 9724   3.681   6.198   0.497  2.4130 -0.2188  0.2004
 3254TIP3   OH2 9725   1.453   2.474   0.719 -0.3203  0.2478  0.0159
 3254TIP3    H1 9726   1.381   2.458   0.780 -1.1179  0.8595 -0.7524
 3254TIP3    H2 9727   1.429   2.428   0.639  0.3576  0.0886 -0.1080
 3255TIP3   OH2 9728   2.052   0.950   3.210  0.4381  0.0379  0.2061
 3255TIP3    H1 9729   2.092   1.037   3.212 -0.1827  0.3337  2.9296
 3255TIP3    H2 9730   2.125   0.889   3.223  1.2118 -0.1649 -3.6384
 3256TIP3   OH2 9731   1.495   4.745   5.561  0.0850 -0.7432  0.2001
 3256TIP3    H1 9732   1.515   4.827   5.514 -1.0300 -0.5397  0.0691
 3256TIP3    H2 9733   1.566   4.686   5.535  1.4977  0.4743  1.0835
 3257TIP3   OH2 9734   1.634   1.226   4.789  0.7284  0.1543 -0.4579
 3257TIP3    H1 9735   1.594   1.305   4.753 -0.1334 -0.5747 -1.1570
 3257TIP3    H2 9736   1.711   1.257   4.836  0.9469  1.3090 -1.5363
 3258TIP3   OH2 9737   0.167   3.629   0.995 -0.5002 -0.0334 -0.1053
 3258TIP3    H1 9738   0.209   3.651   1.079 -2.3120  0.7357  0.6660
 3258TIP3    H2 9739   0.106   3.559   1.017 -1.8119  0.9355 -0.4901
 3259TIP3   OH2 9740   5.337   2.199   1.748 -0.0717 -0.6148 -0.2520
 3259TIP3    H1 9741   5.393   2.158   1.814  0.0070 -0.3920 -0.1809
 3259TIP3    H2 9742   5.347   2.145   1.670  1.6785  0.4624 -0.8286
 3260TIP3   OH2 9743   4.131   1.025   1.326  0.6395  0.3050  0.0404
 3260TIP3    H1 9744   4.226   1.042   1.325  0.7426 -0.2381  0.4123
 3260TIP3    H2 9745   4.119   0.962   1.397  0.1678 -0.6718 -0.8998
 3261TIP3   OH2 9746   3.903   2.172   2.112 -0.3253 -0.0455 -0.5991
 3261TIP3    H1 9747   3.958   2.094   2.110  0.1222  0.2819 -1.3253
 3261TIP3    H2 9748   3.819   2.144   2.078 -0.2526 -0.2749 -0.5880
 3262TIP3   OH2 9749   4.717   1.247   5.329 -0.5401 -0.6148 -0.0602
 3262TIP3    H1 9750   4.796   1.209   5.365 -2.0819 -2.0872  1.9555
 3262TIP3    H2 9751   4.708   1.332   5.374 -0.4401 -0.7255  0.1676
 3263TIP3   OH2 9752   6.755   6.699   4.880  0.1057  0.1556 -0.3809
 3263TIP3    H1 9753   6.793   6.726   4.964 -1.0532 -1.1187  0.5889
 3263TIP3    H2 9754   6.759   6.604   4.881 -1.9011  0.0115 -0.7826
 3264TIP3   OH2 9755   1.757   4.514   1.485 -0.2023 -0.1208 -0.1196
 3264TIP3    H1 9756   1.832   4.477   1.438 -0.1325 -1.3512  0.9194
 3264TIP3    H2 9757   1.696   4.441   1.495 -0.0175 -0.0401  2.0783
 3265TIP3   OH2 9758   5.340   6.295   3.709 -0.0428 -0.1020 -0.1802
 3265TIP3    H1 9759   5.350   6.377   3.758  0.1987  0.1580 -0.6567
 3265TIP3    H2 9760   5.359   6.319   3.619 -2.6536 -0.0684 -0.8045
 3266TIP3   OH2 9761   3.344   0.593   3.013 -0.1156  0.1767 -0.0814
 3266TIP3    H1 9762   3.336   0.544   3.095  0.7829 -1.2504 -0.8071
 3266TIP3    H2 9763   3.254   0.608   2.985 -0.4354 -1.5290 -0.0771
 3267TIP3   OH2 9764   4.659   4.053   3.110  0.1421  0.0838 -0.3187
 3267TIP3    H1 9765   4.666   4.146   3.088  2.1347  0.3628  1.2577
 3267TIP3    H2 9766   4.741   4.014   3.079  0.1239 -0.7798  0.6629
 3268TIP3   OH2 9767   6.329   5.850   2.672  0.1533  0.0572  0.0392
 3268TIP3    H1 9768   6.289   5.791   2.736  1.5102  0.8364  1.6888
 3268TIP3    H2 9769   6.346   5.930   2.721  1.4721  0.6007 -1.2374
 3269TIP3   OH2 9770   5.456   3.217   1.288  0.0485 -0.0755  0.2819
 3269TIP3    H1 9771   5.422   3.240   1.201 -0.1610 -0.4687  0.2571
 3269TIP3    H2 9772   5.547   3.190   1.272  0.0581 -0.0014  0.2089
 3270TIP3   OH2 9773   5.262   5.093   3.421  0.3998 -0.3434 -0.5065
 3270TIP3    H1 9774   5.349   5.081   3.382  0.9416  1.0415  0.1967
 3270TIP3    H2 9775   5.251   5.188   3.426  0.1142 -0.4513  2.1523
 3271TIP3   OH2 9776   2.110   1.012   5.329  0.5097 -0.3125  0.3646
 3271TIP3    H1 9777   2.139   1.017   5.239 -0.9244 -0.3607 -0.1353
 3271TIP3    H2 9778   2.014   1.008   5.323  0.3386  0.5529  1.9116
 3272TIP3   OH2 9779   5.464   1.738   1.784  0.2133  0.6135  0.3073
 3272TIP3    H1 9780   5.507   1.682   1.719 -1.0737  1.8990 -1.7662
 3272TIP3    H2 9781   5.490   1.702   1.868  1.6208 -1.4020 -0.9181
 3273TIP3   OH2 9782   2.950   2.480   2.952  0.2507 -0.0574 -0.1554
 3273TIP3    H1 9783   2.879   2.537   2.924  0.2984 -0.6990 -1.6669
 3273TIP3    H2 9784   3.018   2.539   2.984 -0.3087  0.6370 -0.2343
 3274TIP3   OH2 9785   3.660   6.770   3.167  0.5372  0.3837  0.2512
 3274TIP3    H1 9786   3.569   6.742   3.173  1.1024 -1.2864  1.7586
 3274TIP3    H2 9787   3.675   6.821   3.247  1.2236 -0.3261  0.5852
 3275TIP3   OH2 9788   0.605   0.438   4.597  0.0676 -0.4002 -0.2595
 3275TIP3    H1 9789   0.546   0.405   4.664  0.8666 -0.7170  0.3044
 3275TIP3    H2 9790   0.691   0.436   4.638  0.3158  1.2233 -0.6291
 3276TIP3   OH2 9791   7.120   3.750   0.729  0.5701 -0.0748 -0.6190
 3276TIP3    H1 9792   7.048   3.705   0.774  1.7366 -0.7839  0.6158
 3276TIP3    H2 9793   7.080   3.830   0.693 -0.4789  0.4702  1.5801
 3277TIP3   OH2 9794   0.269   2.441   5.252  0.1327  0.8235  0.4553
 3277TIP3    H1 9795   0.174   2.456   5.250 -0.0221 -0.1471 -0.4739
 3277TIP3    H2 9796   0.305   2.510   5.196 -0.1655  0.3757 -0.3061
 3278TIP3   OH2 9797   3.144   6.119   4.028  0.5682  0.4244  0.2193
 3278TIP3    H1 9798   3.100   6.077   3.953 -1.0000 -0.1800  1.4217
 3278TIP3    H2 9799   3.180   6.047   4.079  2.5755  0.8914 -0.4575
 3279TIP3   OH2 9800   1.865   3.447   5.833 -0.0482  0.3465  0.6818
 3279TIP3    H1 9801   1.796   3.396   5.790 -0.2018 -0.2431  1.6085
 3279TIP3    H2 9802   1.863   3.532   5.789 -1.5024  0.4108  0.8337
 3280TIP3   OH2 9803   1.072   2.136   4.989 -0.1121 -0.0720 -0.0265
 3280TIP3    H1 9804   1.001   2.179   5.037  0.8032  0.8115  0.6068
 3280TIP3    H2 9805   1.139   2.120   5.056  0.5101 -0.3688 -0.7075
 3281TIP3   OH2 9806   6.435   0.855   5.567  0.0228  0.1696 -0.1893
 3281TIP3    H1 9807   6.512   0.910   5.582 -0.0451  0.4165 -0.7199
 3281TIP3    H2 9808   6.418   0.815   5.652  0.4739  0.4529  0.0421
 3282TIP3   OH2 9809   5.560   5.631   1.357 -0.2441  0.3477  0.4200
 3282TIP3    H1 9810   5.496   5.686   1.401 -3.3794 -2.3516 -0.3468
 3282TIP3    H2 9811   5.552   5.652   1.264 -0.8100 -0.6964  0.2157
 3283TIP3   OH2 9812   1.988   3.549   3.403  0.0663 -0.1053 -0.2158
 3283TIP3    H1 9813   2.052   3.616   3.381 -0.4644  0.2220 -0.7981
 3283TIP3    H2 9814   1.916   3.564   3.342 -0.1048 -1.1409 -0.2888
 3284TIP3   OH2 9815   2.621   6.289   3.740  0.1376  0.3491  0.4133
 3284TIP3    H1 9816   2.609   6.384   3.743 -2.1318  0.2088 -1.2234
 3284TIP3    H2 9817   2.570   6.261   3.663  0.8354 -2.1885  0.7728
 3285TIP3   OH2 9818   0.801   3.711   5.798  0.1376  0.0434  0.4091
 3285TIP3    H1 9819   0.768   3.665   5.720 -0.5360 -1.5631  1.6032
 3285TIP3    H2 9820   0.730   3.771   5.822  0.7986  1.3891 -0.8303
 3286TIP3   OH2 9821   1.824   6.687   1.880  0.2905  0.1654  0.3446
 3286TIP3    H1 9822   1.784   6.733   1.806  1.9036 -0.9968 -1.3245
 3286TIP3    H2 9823   1.751   6.640   1.921 -0.4869  0.0822 -1.0803
 3287TIP3   OH2 9824   6.304   3.398   3.584 -0.2791  0.3422 -0.2324
 3287TIP3    H1 9825   6.346   3.340   3.647 -0.9410 -1.4716 -1.3690
 3287TIP3    H2 9826   6.258   3.339   3.524  0.6969  1.9353 -2.6959
 3288TIP3   OH2 9827   4.245   3.500   0.866  0.6634 -0.0269 -0.0623
 3288TIP3    H1 9828   4.311   3.507   0.797  2.3843 -0.7009  1.4136
 3288TIP3    H2 9829   4.273   3.564   0.931 -1.3322  1.1010 -0.2597
 3289TIP3   OH2 9830   1.195   5.415   3.869 -0.0219  0.1488 -0.6958
 3289TIP3    H1 9831   1.178   5.351   3.800  1.8055  2.7106 -3.8089
 3289TIP3    H2 9832   1.146   5.493   3.843 -1.0582  0.6067  2.1992
 3290TIP3   OH2 9833   4.385   1.631   2.517 -0.2519 -0.3488  0.1475
 3290TIP3    H1 9834   4.454   1.592   2.571  0.1909 -0.3100 -0.3737
 3290TIP3    H2 9835   4.412   1.612   2.427 -1.2617 -0.8865 -0.0528
 3291TIP3   OH2 9836   4.472   0.436   0.893  0.2164  0.6471 -0.7064
 3291TIP3    H1 9837   4.524   0.412   0.817  0.1894  0.9007 -0.8040
 3291TIP3    H2 9838   4.537   0.458   0.960  0.3192 -1.6899  0.0674
 3292TIP3   OH2 9839   5.614   4.482   0.339 -0.0276 -0.4358 -0.9739
 3292TIP3    H1 9840   5.673   4.490   0.414 -1.4174 -3.0374  0.5619
 3292TIP3    H2 9841   5.536   4.532   0.364  0.5025  0.9157 -1.9110
 3293TIP3   OH2 9842   1.318   5.845   1.056 -0.3309  0.3595 -0.1807
 3293TIP3    H1 9843   1.365   5.920   1.019  0.6846  1.1146  2.4490
 3293TIP3    H2 9844   1.378   5.772   1.046 -0.8255  0.1186 -1.6309
 3294TIP3   OH2 9845   2.865   1.890   1.013  0.1777 -0.6287 -0.4201
 3294TIP3    H1 9846   2.829   1.974   1.042 -1.0602 -1.6473  1.2230
 3294TIP3    H2 9847   2.806   1.862   0.943  0.3521 -0.3102 -0.6940
 3295TIP3   OH2 9848   5.866   3.423   0.415 -0.1965 -0.0771 -0.2774
 3295TIP3    H1 9849   5.840   3.334   0.438 -0.4237 -0.0623 -0.4755
 3295TIP3    H2 9850   5.821   3.441   0.333 -0.0088  0.1564 -0.3308
 3296TIP3   OH2 9851   3.084   1.969   2.578  0.6062  0.2312  0.0982
 3296TIP3    H1 9852   3.015   1.958   2.513  1.0164 -0.2895 -0.2526
 3296TIP3    H2 9853   3.040   2.010   2.653  0.0469  0.4482 -0.3468
 3297TIP3   OH2 9854   1.531   1.723   1.433  0.0977  0.0008 -0.3873
 3297TIP3    H1 9855   1.453   1.725   1.488 -0.7211 -0.1967 -1.4989
 3297TIP3    H2 9856   1.504   1.766   1.352  0.7678 -1.1725 -1.2600
 3298TIP3   OH2 9857   3.634   2.977   1.333  0.3073 -0.3526 -0.4388
 3298TIP3    H1 9858   3.662   2.938   1.415 -0.4100  0.2629  0.1119
 3298TIP3    H2 9859   3.710   3.026   1.301  0.0529  0.8923  0.7792
 3299TIP3   OH2 9860   6.185   5.471   1.266 -0.1351  0.1617 -0.0177
 3299TIP3    H1 9861   6.208   5.552   1.221 -0.0945  0.2516  0.1670
 3299TIP3    H2 9862   6.260   5.454   1.324 -1.0704  1.1180  1.5305
 3300TIP3   OH2 9863   5.543   2.768   4.704 -0.0880  0.5098  0.7533
 3300TIP3    H1 9864   5.627   2.742   4.665 -0.6620  0.3488 -0.4272
 3300TIP3    H2 9865   5.538   2.717   4.785  0.4478 -0.3318  0.2731
 3301TIP3   OH2 9866   6.181   0.809   1.704  0.3143 -0.3562  0.1804
 3301TIP3    H1 9867   6.183   0.809   1.608 -0.2322 -0.5235  0.1692
 3301TIP3    H2 9868   6.231   0.731   1.729 -0.6203 -1.0153  0.0073
 3302TIP3   OH2 9869   1.553   4.785   2.266  0.5692 -0.3134 -0.6526
 3302TIP3    H1 9870   1.472   4.734   2.267  0.4590 -0.1541 -1.1938
 3302TIP3    H2 9871   1.570   4.805   2.359 -0.1542 -0.1225 -0.5522
 3303TIP3   OH2 9872   5.888   2.928   3.741 -0.3453 -0.2789  0.2012
 3303TIP3    H1 9873   5.819   2.986   3.710 -0.5071 -0.1835  0.7318
 3303TIP3    H2 9874   5.965   2.951   3.688 -0.5040  0.1707  0.1645
 3304TIP3   OH2 9875   0.185   2.518   3.012 -0.3297 -0.4619 -0.0268
 3304TIP3    H1 9876   0.222   2.597   2.972 -0.1550  0.7160  2.2977
 3304TIP3    H2 9877   0.119   2.489   2.950 -0.2348  1.3828 -1.0699
 3305TIP3   OH2 9878   4.165   6.026   4.084  0.4199 -0.5572 -0.0208
 3305TIP3    H1 9879   4.094   6.002   4.025  0.1459  2.2432 -0.9637
 3305TIP3    H2 9880   4.123   6.040   4.169 -0.2564  1.3274 -0.6325
 3306TIP3   OH2 9881   1.637   1.982   3.119 -0.6623  0.3089 -0.1455
 3306TIP3    H1 9882   1.591   2.049   3.170  1.1845  2.5136 -1.2284
 3306TIP3    H2 9883   1.713   1.959   3.173 -0.8092 -0.3180 -0.1888
 3307TIP3   OH2 9884   1.085   1.378   2.453  0.0217  0.4564 -0.3161
 3307TIP3    H1 9885   1.172   1.410   2.428  0.9272 -0.8014  1.0175
 3307TIP3    H2 9886   1.056   1.325   2.379  0.3233  1.0222 -0.8416
 3308TIP3   OH2 9887   2.251   1.210   3.623  0.1179  0.0754 -0.4987
 3308TIP3    H1 9888   2.332   1.252   3.652 -0.8766  1.9577 -0.2899
 3308TIP3    H2 9889   2.221   1.160   3.699  0.4297  0.4022 -0.1550
 3309TIP3   OH2 9890   2.508   1.633   0.237  0.6766 -0.3476  0.1940
 3309TIP3    H1 9891   2.477   1.702   0.178  0.1936  0.7715  1.6961
 3309TIP3    H2 9892   2.580   1.592   0.189  1.0319  1.2464 -0.7271
 3310TIP3   OH2 9893   2.878   2.714   0.256 -0.1655 -0.2626  0.2990
 3310TIP3    H1 9894   2.973   2.705   0.260 -0.3043 -1.6102  1.0102
 3310TIP3    H2 9895   2.863   2.809   0.251  1.2045 -0.0374  0.1509
 3311TIP3   OH2 9896   2.822   1.559   5.843  0.3378  0.0763 -0.3589
 3311TIP3    H1 9897   2.852   1.529   5.928 -1.2061 -0.9903 -0.1444
 3311TIP3    H2 9898   2.884   1.521   5.780  0.4469 -0.6560  0.1790
 3312TIP3   OH2 9899  -0.013   4.672   3.742  0.0529  0.1949 -0.0293
 3312TIP3    H1 9900   0.046   4.733   3.787  2.2238  0.5362 -2.9590
 3312TIP3    H2 9901   0.027   4.586   3.754  1.1188  0.3885 -1.7794
 3313TIP3   OH2 9902   0.915   5.656   0.084 -0.1476 -0.3805 -0.1442
 3313TIP3    H1 9903   0.932   5.581   0.027  1.3834 -0.7514  0.7416
 3313TIP3    H2 9904   0.880   5.618   0.165  0.0862 -0.0993  0.0934
 3314TIP3   OH2 9905   2.635   1.678   1.190  0.1059 -0.2937  0.1822
 3314TIP3    H1 9906   2.656   1.687   1.283 -0.5982 -1.0018  0.4285
 3314TIP3    H2 9907   2.671   1.757   1.149  1.0067 -0.2935  0.9447
 3315TIP3   OH2 9908   0.959   4.365   0.069 -0.2561  0.0797 -0.0037
 3315TIP3    H1 9909   0.971   4.417   0.149  0.3074  0.5710 -0.3995
 3315TIP3    H2 9910   0.968   4.274   0.098  2.3580  0.3089  0.1221
 3316TIP3   OH2 9911   1.080   2.528   2.521 -0.2974 -0.3911  0.8330
 3316TIP3    H1 9912   1.006   2.468   2.529  0.6711 -1.5990  1.0136
 3316TIP3    H2 9913   1.076   2.559   2.431 -0.0208 -1.8082  0.3147
 3317TIP3   OH2 9914   6.664   5.871   3.142  0.0017 -0.4530 -0.7962
 3317TIP3    H1 9915   6.735   5.857   3.079 -0.0176  0.5773 -1.0677
 3317TIP3    H2 9916   6.642   5.963   3.132  0.2306 -0.1871  0.9702
 3318TIP3   OH2 9917   2.213   6.574   1.326  0.3254 -0.7176  0.4034
 3318TIP3    H1 9918   2.211   6.577   1.422  1.5252 -0.4131  0.4347
 3318TIP3    H2 9919   2.289   6.520   1.306  0.6322 -0.0048 -0.3803
 3319TIP3   OH2 9920   6.169   1.662   1.200 -0.1152  0.7462 -0.3256
 3319TIP3    H1 9921   6.122   1.604   1.139 -0.1993  0.6988 -0.2161
 3319TIP3    H2 9922   6.172   1.612   1.282  0.8589  0.3964 -0.5603
 3320TIP3   OH2 9923   0.407   0.691   2.520 -0.2902  0.2459 -0.0922
 3320TIP3    H1 9924   0.490   0.735   2.538  0.4676 -0.3614 -1.8851
 3320TIP3    H2 9925   0.432   0.613   2.471 -1.8456 -0.6446  0.4764
 3321TIP3   OH2 9926   3.627   1.089   2.178  0.1719  0.4285  0.0922
 3321TIP3    H1 9927   3.650   1.079   2.086 -1.0548  1.0071 -0.3010
 3321TIP3    H2 9928   3.633   1.183   2.194  0.3130  0.3371  0.5844
 3322TIP3   OH2 9929   3.487   1.299   4.492 -0.1026 -0.0655 -0.0879
 3322TIP3    H1 9930   3.428   1.224   4.500 -1.4310  0.8694 -0.9005
 3322TIP3    H2 9931   3.567   1.271   4.537 -1.8669 -0.5513  2.9696
 3323TIP3   OH2 9932   5.757   6.505   4.128  0.1141 -0.0029 -0.2778
 3323TIP3    H1 9933   5.789   6.580   4.078  0.0358  0.0794 -0.2063
 3323TIP3    H2 9934   5.676   6.480   4.084 -0.1492  0.3004  0.0218
 3324TIP3   OH2 9935   1.550   1.077   0.608  0.1369 -0.0872 -0.1346
 3324TIP3    H1 9936   1.479   1.012   0.610  1.9752 -2.2452 -0.1015
 3324TIP3    H2 9937   1.559   1.099   0.515 -1.1299  0.9079 -0.0430
 3325TIP3   OH2 9938   5.587   0.844   5.126 -0.7413  0.5773 -0.2711
 3325TIP3    H1 9939   5.556   0.900   5.197  3.0060  3.5606 -0.6468
 3325TIP3    H2 9940   5.577   0.897   5.047  1.2428  0.0813 -0.9297
 3326TIP3   OH2 9941   7.153   4.911   1.187  0.9416  0.2990 -0.2951
 3326TIP3    H1 9942   7.207   4.857   1.244  1.4184  0.5794 -0.4724
 3326TIP3    H2 9943   7.091   4.850   1.147  0.3662  0.1539  0.7789
 3327TIP3   OH2 9944   4.863   6.776   1.058 -0.3016 -0.3773  0.4034
 3327TIP3    H1 9945   4.769   6.771   1.074 -0.4196 -2.3210 -0.5798
 3327TIP3    H2 9946   4.903   6.727   1.130  0.0101  0.7939  1.0456
 3328TIP3   OH2 9947   6.548   5.581   2.216  0.1402 -0.2286  0.8134
 3328TIP3    H1 9948   6.474   5.547   2.167 -0.4212 -0.5683  1.8574
 3328TIP3    H2 9949   6.532   5.676   2.221  0.4535 -0.1200 -0.0412
 3329TIP3   OH2 9950   6.726   5.245   2.051 -0.3419  0.1821  0.0130
 3329TIP3    H1 9951   6.810   5.208   2.080 -0.4583  1.1367  1.7377
 3329TIP3    H2 9952   6.661   5.184   2.085 -0.3861  0.0967 -0.2288
 3330TIP3   OH2 9953   3.789   2.473   1.973  0.2680 -0.3914 -0.5044
 3330TIP3    H1 9954   3.862   2.423   1.937 -1.7294 -2.7285 -1.5861
 3330TIP3    H2 9955   3.811   2.485   2.066  2.3595 -0.2368 -0.9686
 3331TIP3   OH2 9956   0.959   5.162   4.206 -0.1648  0.1508  0.0256
 3331TIP3    H1 9957   1.011   5.086   4.178 -2.3261 -0.9338 -1.3327
 3331TIP3    H2 9958   0.940   5.146   4.298  1.2041  0.1895  0.3383
 3332TIP3   OH2 9959   3.587   0.489   1.393 -0.0678 -0.0180  0.0661
 3332TIP3    H1 9960   3.638   0.464   1.316  0.0267 -1.6757  0.6171
 3332TIP3    H2 9961   3.551   0.575   1.372 -0.5191 -0.6807 -2.0542
 3333TIP3   OH2 9962   2.870   3.509   0.283 -0.1709 -0.0134  0.2229
 3333TIP3    H1 9963   2.898   3.586   0.234  0.0886 -0.2537 -0.0054
 3333TIP3    H2 9964   2.779   3.528   0.306 -0.4823 -0.1544 -0.8585
 3334TIP3   OH2 9965   5.144   4.279   4.685  0.4536 -0.7480  0.6776
 3334TIP3    H1 9966   5.157   4.372   4.704  0.9270 -0.7108  0.1785
 3334TIP3    H2 9967   5.148   4.273   4.590 -0.4336 -1.1607  0.6599
 3335TIP3   OH2 9968   5.416   5.356   0.262  0.5247  0.3728  0.2050
 3335TIP3    H1 9969   5.363   5.435   0.271  0.0646  0.1797 -0.6833
 3335TIP3    H2 9970   5.353   5.284   0.267  0.6542  0.1453 -1.0634
 3336TIP3   OH2 9971   3.852   6.743   1.219 -0.4285 -0.2366  0.1302
 3336TIP3    H1 9972   3.854   6.652   1.251 -2.3166 -0.6798 -0.8922
 3336TIP3    H2 9973   3.842   6.735   1.124 -0.5991  1.0600  0.0207
 3337TIP3   OH2 9974   6.436   1.426   3.974 -0.8259 -0.5249 -0.7809
 3337TIP3    H1 9975   6.490   1.504   3.988  0.5997 -1.4261 -1.0691
 3337TIP3    H2 9976   6.350   1.451   4.007  0.6108 -0.2584  3.3716
 3338TIP3   OH2 9977   0.675   1.904   1.638 -0.2470 -0.4950 -0.0657
 3338TIP3    H1 9978   0.621   1.925   1.562  1.4673 -1.1064 -1.5341
 3338TIP3    H2 9979   0.751   1.859   1.601  0.4128 -1.2528  2.0855
 3339TIP3   OH2 9980   6.497   4.901   2.503  0.1716 -0.1932  0.2003
 3339TIP3    H1 9981   6.474   4.974   2.559  1.6222  0.1962  0.3039
 3339TIP3    H2 9982   6.474   4.823   2.554  0.8557  0.1624  1.0724
 3340TIP3   OH2 9983   3.275   0.186   5.447  0.0857  0.0354 -0.3335
 3340TIP3    H1 9984   3.362   0.184   5.407  1.2505  1.0491  1.9715
 3340TIP3    H2 9985   3.259   0.279   5.463 -1.9908 -0.0090 -1.7604
 3341TIP3   OH2 9986   6.818   5.429   4.190 -0.2947 -0.2711 -0.4649
 3341TIP3    H1 9987   6.871   5.371   4.135  0.3508  0.1123 -0.2524
 3341TIP3    H2 9988   6.881   5.474   4.246 -0.8847 -0.1288  0.0982
 3342TIP3   OH2 9989   0.913   2.210   1.366 -0.3493  0.0650 -0.2155
 3342TIP3    H1 9990   0.949   2.298   1.361  0.2015 -0.1673 -0.4222
 3342TIP3    H2 9991   0.827   2.216   1.324 -0.6408  0.6655  0.4544
 3343TIP3   OH2 9992   7.196   4.525   2.234  0.0837  0.2556 -0.1640
 3343TIP3    H1 9993   7.218   4.584   2.306 -2.1540  0.1255  0.7052
 3343TIP3    H2 9994   7.205   4.578   2.155 -0.4138  1.3264  0.4837
 3344TIP3   OH2 9995   5.697   6.356   2.708  0.2854  0.2971  0.1585
 3344TIP3    H1 9996   5.670   6.424   2.646 -0.3157  1.0416  1.2059
 3344TIP3    H2 9997   5.620   6.340   2.762  0.3997 -1.2682 -0.0795
 3345TIP3   OH2 9998   5.930   2.621   1.626 -0.4190 -0.0591  0.1060
 3345TIP3    H1 9999   5.991   2.548   1.630 -0.9220 -0.4668  3.2090
 3345TIP3    H210000   5.852   2.586   1.583  0.1311 -0.6793 -0.3980
 3346TIP3   OH210001   6.733   3.518   3.943  0.3574 -0.1511 -0.2599
 3346TIP3    H110002   6.765   3.595   3.896 -0.1271  0.2980  0.1324
 3346TIP3    H210003   6.796   3.449   3.922 -0.4256 -0.2856 -2.4648
 3347TIP3   OH210004   4.781   6.766   3.526 -0.4664 -0.3604  0.2696
 3347TIP3    H110005   4.806   6.681   3.560 -0.0405 -0.5977 -0.5808
 3347TIP3    H210006   4.782   6.755   3.431 -0.7422  0.4959  0.1538
 3348TIP3   OH210007   2.325   6.428   4.813  0.3316 -0.2333 -0.6033
 3348TIP3    H110008   2.255   6.492   4.797 -0.6217 -1.1028 -0.0475
 3348TIP3    H210009   2.279   6.344   4.817  1.5324 -0.9337 -1.0926
 3349TIP3   OH210010   4.587   2.390   0.866 -0.2216 -0.5434 -0.2798
 3349TIP3    H110011   4.638   2.368   0.944 -0.1266 -0.0939 -0.2129
 3349TIP3    H210012   4.649   2.438   0.810 -0.1781 -1.1877 -0.7974
 3350TIP3   OH210013   3.877   3.744   0.371  0.2716 -0.8823  0.0862
 3350TIP3    H110014   3.889   3.650   0.359 -2.2516 -0.9857 -3.2748
 3350TIP3    H210015   3.785   3.760   0.346  0.3959  2.4016  1.1670
 3351TIP3   OH210016   1.916   4.822   1.798  1.1069  0.3141  0.2160
 3351TIP3    H110017   1.981   4.844   1.865  2.1502  1.8274 -1.2003
 3351TIP3    H210018   1.834   4.857   1.833  1.1207 -1.1018  1.7693
 3352TIP3   OH210019   6.599   1.893   4.615  0.0875 -0.0216 -0.9425
 3352TIP3    H110020   6.622   1.893   4.707  1.3117 -0.0632 -1.2339
 3352TIP3    H210021   6.672   1.936   4.571 -0.8372  0.7157 -1.8148
 3353TIP3   OH210022   5.611   5.187   0.632 -0.2922  0.3784  0.0814
 3353TIP3    H110023   5.549   5.152   0.696  0.2914 -0.7188  0.0773
 3353TIP3    H210024   5.687   5.213   0.684  0.1117 -0.3481 -0.1349
 3354TIP3   OH210025   6.305   3.542   4.423  0.3648  0.3642  0.1816
 3354TIP3    H110026   6.369   3.608   4.394  2.1117 -0.8341  1.1005
 3354TIP3    H210027   6.289   3.488   4.345  2.4414 -0.8087  0.4847
 3355TIP3   OH210028   1.916   2.014   3.961 -0.7696 -0.3780 -1.0395
 3355TIP3    H110029   1.949   2.083   3.903  0.9695 -0.2774 -0.0200
 3355TIP3    H210030   1.993   1.988   4.012 -2.3376  0.0649  1.7518
 3356TIP3   OH210031   6.977   3.008   3.422  0.2082  0.6968 -0.1155
 3356TIP3    H110032   6.951   2.920   3.397  1.7233 -0.0088  0.6678
 3356TIP3    H210033   6.938   3.022   3.508  1.9954 -0.2354  0.9114
 3357TIP3   OH210034   5.091   0.963   2.367 -0.4731  0.1021  0.6659
 3357TIP3    H110035   5.139   0.891   2.408  0.8383  0.5867  0.0268
 3357TIP3    H210036   5.021   0.921   2.319 -0.7443 -0.6251  1.6642
 3358TIP3   OH210037   2.286   1.674   4.847 -0.3048 -0.1718  0.2435
 3358TIP3    H110038   2.339   1.714   4.778  0.0751 -0.7131  0.2137
 3358TIP3    H210039   2.214   1.736   4.861 -0.8333 -0.4086 -1.1899
 3359TIP3   OH210040   3.587   1.171   3.140 -0.4879 -0.4010 -0.5367
 3359TIP3    H110041   3.533   1.195   3.216 -0.3334 -0.3529 -0.4418
 3359TIP3    H210042   3.575   1.076   3.132 -0.1310 -0.4812 -0.1601
 3360TIP3   OH210043   0.579   6.030   0.220 -0.2077  0.4673  0.1928
 3360TIP3    H110044   0.609   5.944   0.190 -0.8201  0.0510  0.7617
 3360TIP3    H210045   0.638   6.092   0.177  0.6964 -0.2738  0.3480
 3361TIP3   OH210046   1.307   4.193   5.756 -0.3173  0.1569 -0.2662
 3361TIP3    H110047   1.333   4.106   5.726 -1.4122  0.1996 -1.4190
 3361TIP3    H210048   1.239   4.221   5.695  1.2289  2.5851 -1.0364
 3362TIP3   OH210049   4.476   5.050   2.268  0.1976 -0.1259  0.1694
 3362TIP3    H110050   4.558   5.076   2.227  0.1105 -0.5220 -0.2592
 3362TIP3    H210051   4.409   5.076   2.205  0.1016 -1.3000 -0.2308
 3363TIP3   OH210052   2.547   3.454   2.186  0.0760  0.4536  0.0955
 3363TIP3    H110053   2.630   3.430   2.228 -1.9434 -1.8684  3.2939
 3363TIP3    H210054   2.515   3.373   2.147 -2.2591  0.2008  2.2040
 3364TIP3   OH210055   4.423   4.462   3.879 -0.0595  0.3468  0.1796
 3364TIP3    H110056   4.377   4.485   3.799  0.5906 -0.0638 -0.3202
 3364TIP3    H210057   4.512   4.441   3.851  0.0401 -0.3049  0.9380
 3365TIP3   OH210058   2.762   0.546   1.772 -0.0445  0.0290  0.2962
 3365TIP3    H110059   2.814   0.514   1.697 -0.0444  0.8087 -0.0404
 3365TIP3    H210060   2.697   0.476   1.786 -0.7219  0.3284 -1.1178
 3366TIP3   OH210061   1.937   0.815   3.631 -0.5745  0.3893 -0.2719
 3366TIP3    H110062   1.914   0.860   3.550 -1.7564 -0.4985 -0.4629
 3366TIP3    H210063   1.857   0.770   3.657 -0.3975  1.1218  1.7205
 3367TIP3   OH210064   2.523   5.355   5.128 -0.6886  0.1052  0.1077
 3367TIP3    H110065   2.447   5.376   5.181 -0.4654  2.9115 -0.5315
 3367TIP3    H210066   2.587   5.423   5.149  1.3511 -1.6360 -0.0487
 3368TIP3   OH210067   0.746   2.067   1.085 -0.5979  0.1646 -0.0091
 3368TIP3    H110068   0.682   2.115   1.138  0.1782 -1.2229  2.3655
 3368TIP3    H210069   0.718   1.976   1.090 -0.2232 -0.0637 -1.6627
 3369TIP3   OH210070   2.210   0.612   4.338 -0.2065  0.2744 -0.2407
 3369TIP3    H110071   2.186   0.702   4.361  1.1293  0.4777  0.4735
 3369TIP3    H210072   2.149   0.588   4.268 -1.1911  1.4006  0.1950
 3370TIP3   OH210073   4.272   4.628   1.390  0.1701  0.1407 -0.3890
 3370TIP3    H110074   4.214   4.704   1.383 -0.8918 -0.5820  0.3373
 3370TIP3    H210075   4.225   4.567   1.446  1.1787 -0.9088 -0.6526
 3371TIP3   OH210076   4.638   2.612   0.126 -0.1134 -0.3932 -0.1261
 3371TIP3    H110077   4.607   2.622   0.216  0.4254 -1.1234  0.1502
 3371TIP3    H210078   4.720   2.662   0.123  0.0760 -0.6977 -0.0941
 3372TIP3   OH210079   2.600   2.058   1.826  0.7010  0.1626 -0.6109
 3372TIP3    H110080   2.577   2.151   1.829  1.1264  0.2534  0.4700
 3372TIP3    H210081   2.693   2.057   1.803  1.3278  0.1560  1.6820
 3373TIP3   OH210082   5.289   6.502   3.883  0.1915 -0.3701 -0.2601
 3373TIP3    H110083   5.214   6.446   3.905  0.8592 -0.0840  3.3999
 3373TIP3    H210084   5.257   6.591   3.899  1.0334 -0.1935  0.5346
 3374TIP3   OH210085   5.436   3.116   4.123 -0.0311 -0.4367  0.1777
 3374TIP3    H110086   5.367   3.091   4.062 -0.0885  1.6341 -0.6952
 3374TIP3    H210087   5.399   3.190   4.172  2.0374  1.8765 -1.4853
 3375TIP3   OH210088   2.998   3.346   0.474 -0.2373 -0.3083  0.6907
 3375TIP3    H110089   2.954   3.415   0.425 -1.7716 -0.8478  1.2657
 3375TIP3    H210090   2.981   3.366   0.566  1.2527 -0.2016  0.9740
 3376TIP3   OH210091   6.683   0.833   1.543 -0.3043  0.2603  0.1407
 3376TIP3    H110092   6.764   0.879   1.522  0.2768  0.0103  1.6992
 3376TIP3    H210093   6.710   0.742   1.558 -0.7815  0.2638  1.1073
 3377TIP3   OH210094   0.200   1.836   2.525  0.2404  0.1477  0.1996
 3377TIP3    H110095   0.162   1.749   2.518 -0.3270  0.3698  0.4554
 3377TIP3    H210096   0.185   1.861   2.617  0.4886  0.4710  0.1535
 3378TIP3   OH210097   4.293   3.197   3.166 -0.2296  0.0929  0.2253
 3378TIP3    H110098   4.241   3.219   3.244 -1.4656  0.6578 -0.7144
 3378TIP3    H210099   4.233   3.147   3.111  0.6708 -0.4047 -0.3217
 3379TIP3   OH210100   3.184   0.713   1.207 -0.1854 -0.6102 -0.3056
 3379TIP3    H110101   3.158   0.675   1.291 -0.8709  2.6232  1.0828
 3379TIP3    H210102   3.278   0.697   1.202  0.0341 -0.1177  1.5285
 3380TIP3   OH210103   6.301   1.476   5.196  0.5534 -0.1208 -0.2911
 3380TIP3    H110104   6.281   1.418   5.269  2.0047  0.0513  0.2808
 3380TIP3    H210105   6.288   1.422   5.118  1.1293 -0.9947  0.1974
 3381TIP3   OH210106   6.464   2.909   1.879  0.2669  0.8943  0.6517
 3381TIP3    H110107   6.560   2.915   1.886  0.5180 -0.3152 -0.9226
 3381TIP3    H210108   6.441   2.832   1.930  0.6480 -0.9313 -1.7144
 3382TIP3   OH210109   4.637   1.084   1.356  0.2477  0.7256 -0.0688
 3382TIP3    H110110   4.717   1.115   1.397  0.6477 -0.6372  0.2154
 3382TIP3    H210111   4.616   1.151   1.290  1.7891  0.9300 -0.3734
 3383TIP3   OH210112   6.268   3.325   5.518 -0.2002  0.9260 -0.3334
 3383TIP3    H110113   6.294   3.239   5.486  0.5001  0.0496  2.3218
 3383TIP3    H210114   6.175   3.315   5.540 -0.0730  0.7602  0.1506
 3384TIP3   OH210115   3.786   1.748   1.676  0.3056  0.1118  0.0008
 3384TIP3    H110116   3.703   1.754   1.629 -0.3716 -0.9217  1.0189
 3384TIP3    H210117   3.853   1.744   1.607 -0.4633  1.0763 -0.8263
 3385TIP3   OH210118   0.682   6.578   4.619 -0.3722  0.2144  0.6588
 3385TIP3    H110119   0.610   6.515   4.613  0.4758 -0.6910 -0.4645
 3385TIP3    H210120   0.730   6.552   4.697 -0.7651  0.2782  0.9238
 3386TIP3   OH210121   3.001   1.625   1.508  0.2771  0.5402 -0.0500
 3386TIP3    H110122   2.909   1.630   1.480  0.9440 -0.3347 -2.7039
 3386TIP3    H210123   3.000   1.563   1.581 -1.0323 -1.1684 -1.4144
 3387TIP3   OH210124   4.646   6.380   4.783  0.3337  0.0809  0.6126
 3387TIP3    H110125   4.558   6.344   4.773  0.3810 -0.3516  1.6737
 3387TIP3    H210126   4.633   6.475   4.785 -0.0708  0.0323  0.4261
 3388TIP3   OH210127   4.960   5.310   1.743  0.1949 -0.1574 -0.2276
 3388TIP3    H110128   5.033   5.356   1.785 -1.3514  2.2830 -0.0040
 3388TIP3    H210129   4.948   5.354   1.659 -0.9149 -0.6019 -0.3229
 3389TIP3   OH210130   6.698   0.927   2.684 -0.0498 -0.1881 -0.3468
 3389TIP3    H110131   6.603   0.921   2.679 -0.0628  0.4259 -1.2071
 3389TIP3    H210132   6.726   0.844   2.721 -0.9666 -0.0915  0.5875
 3390TIP3   OH210133   3.642   3.995   3.207 -0.2420  0.0075 -0.2492
 3390TIP3    H110134   3.551   3.998   3.177 -0.3485  0.4180  0.1006
 3390TIP3    H210135   3.675   3.912   3.174 -0.8541 -0.3231 -0.0650
 3391TIP3   OH210136   6.441   5.345   1.256  0.3155  0.3673  0.3271
 3391TIP3    H110137   6.481   5.323   1.339 -1.6158  0.8398  1.4432
 3391TIP3    H210138   6.506   5.399   1.211  0.9560  1.0442  1.9982
 3392TIP3   OH210139   4.637   0.583   4.024 -0.0679  0.1687 -0.3265
 3392TIP3    H110140   4.725   0.547   4.034  0.1563  0.9437  0.7053
 3392TIP3    H210141   4.629   0.645   4.097 -1.6679 -0.2876 -0.0832
 3393TIP3   OH210142   6.072   4.784   0.407  0.1479 -0.1987 -0.1195
 3393TIP3    H110143   6.055   4.867   0.363 -1.5415  0.3874  1.5353
 3393TIP3    H210144   6.086   4.807   0.499 -0.4409 -1.7375  0.3989
 3394TIP3   OH210145   5.530   6.231   2.030  0.3163 -0.4961 -0.0887
 3394TIP3    H110146   5.540   6.165   2.098  1.1513 -0.8441 -0.5334
 3394TIP3    H210147   5.595   6.207   1.964 -0.9209 -0.5563 -1.3191
 3395TIP3   OH210148   1.230   2.220   5.708  0.0920 -0.1441  0.7740
 3395TIP3    H110149   1.246   2.199   5.800  1.0622  1.5478  1.0371
 3395TIP3    H210150   1.135   2.227   5.701 -0.1572 -2.4110  1.1149
 3396TIP3   OH210151   1.853   3.898   4.561 -0.2255  0.0940 -0.3434
 3396TIP3    H110152   1.763   3.925   4.581 -1.4211 -3.2975 -0.4819
 3396TIP3    H210153   1.884   3.858   4.643  0.3284 -0.7025 -0.9318
 3397TIP3   OH210154   5.352   3.931   2.168  0.5110 -0.3038 -0.0502
 3397TIP3    H110155   5.317   3.912   2.255 -1.2804  1.6441 -0.2822
 3397TIP3    H210156   5.415   4.001   2.182 -0.7320  0.9285 -0.4258
 3398TIP3   OH210157   5.488   2.034   1.930  0.4397 -0.1935 -0.0198
 3398TIP3    H110158   5.566   2.090   1.925 -0.4258  1.0012 -0.6332
 3398TIP3    H210159   5.522   1.950   1.960  1.7732  0.6661  1.0403
 3399TIP3   OH210160   0.314   2.553   3.693 -0.1730 -0.5106  0.6873
 3399TIP3    H110161   0.365   2.475   3.670  1.6448  0.4701  1.1954
 3399TIP3    H210162   0.228   2.538   3.653  1.0249 -1.4541 -1.7487
 3400TIP3   OH210163   5.466   3.861   5.120  0.8883 -0.1904 -0.4466
 3400TIP3    H110164   5.448   3.952   5.141 -3.3547 -0.5602 -1.5942
 3400TIP3    H210165   5.438   3.851   5.029  2.1439 -2.4651 -0.6639
 3401TIP3   OH210166   2.293   1.839   4.277  0.0909  0.2318  0.2904
 3401TIP3    H110167   2.272   1.881   4.194  1.8652  0.9879  0.1669
 3401TIP3    H210168   2.258   1.751   4.270 -1.9741  1.0444 -0.2555
 3402TIP3   OH210169   4.456   0.672   1.530 -0.3924  0.7717 -0.3063
 3402TIP3    H110170   4.496   0.697   1.612 -0.3255  1.1188 -0.4438
 3402TIP3    H210171   4.408   0.592   1.550  0.4081  0.3172 -0.1535
 3403TIP3   OH210172   3.937   5.895   2.763  0.1123  0.3601 -0.2714
 3403TIP3    H110173   3.930   5.970   2.821  0.2765 -0.1848  0.4695
 3403TIP3    H210174   3.846   5.867   2.750  0.0645  0.5745 -0.3993
 3404TIP3   OH210175   2.874   4.789   3.049  0.5549  0.6687  0.3029
 3404TIP3    H110176   2.908   4.729   2.982 -1.5242 -0.0026 -0.2160
 3404TIP3    H210177   2.947   4.848   3.068  0.8848  1.7115 -3.5044
 3405TIP3   OH210178   4.322   2.931   3.686  0.4724 -0.1811 -0.7484
 3405TIP3    H110179   4.360   3.013   3.653 -0.6354  0.6245 -0.1104
 3405TIP3    H210180   4.369   2.914   3.768  0.6300 -0.1231 -0.8267
 3406TIP3   OH210181   7.224   6.537   2.455  0.3018 -0.1715  0.5179
 3406TIP3    H110182   7.163   6.533   2.381  0.1279 -1.0416  0.6960
 3406TIP3    H210183   7.186   6.479   2.521  1.4208 -0.8997  0.5534
 3407TIP3   OH210184   1.302   1.519   3.113  0.5736 -0.3457 -0.3227
 3407TIP3    H110185   1.236   1.573   3.157 -1.2382 -1.1506 -1.9409
 3407TIP3    H210186   1.385   1.556   3.142 -0.5240  3.6313 -1.6385
 3408TIP3   OH210187   1.285   4.514   0.682 -0.2661 -0.0402 -0.2386
 3408TIP3    H110188   1.288   4.609   0.672 -0.2669 -0.0819 -0.6517
 3408TIP3    H210189   1.299   4.499   0.776  1.5149  0.2962 -0.4063
 3409TIP3   OH210190   1.850   5.687   5.282 -0.0525  0.1704  0.4550
 3409TIP3    H110191   1.812   5.771   5.308  0.1447  1.2180 -2.3664
 3409TIP3    H210192   1.785   5.648   5.224  0.6494 -0.8058  0.3070
 3410TIP3   OH210193   6.793   5.548   2.097 -0.0865  0.3595  0.2701
 3410TIP3    H110194   6.789   5.453   2.080  0.6536  0.4193 -0.2978
 3410TIP3    H210195   6.716   5.566   2.150 -0.5295 -0.4772 -0.0694
 3411TIP3   OH210196   3.503   3.841   5.444  0.2735 -0.2714  0.0624
 3411TIP3    H110197   3.427   3.794   5.479  0.6834 -2.3667 -1.6707
 3411TIP3    H210198   3.502   3.925   5.490 -1.8369 -1.0675  1.6383
 3412TIP3   OH210199   1.910   4.325   1.314  0.1702  0.0009  0.2491
 3412TIP3    H110200   1.945   4.239   1.336 -1.5116 -0.2495  2.3345
 3412TIP3    H210201   1.843   4.308   1.247 -0.7166 -0.4537  1.2331
 3413TIP3   OH210202   3.798   1.650   3.567  0.2249 -0.8559  0.0402
 3413TIP3    H110203   3.893   1.655   3.582 -0.0060  0.5007  1.2870
 3413TIP3    H210204   3.764   1.734   3.598 -1.4182 -1.3754 -0.2342
 3414TIP3   OH210205   0.390   1.806   3.515 -0.3775  0.3977 -0.2302
 3414TIP3    H110206   0.416   1.879   3.572 -2.2999  1.2036 -0.2970
 3414TIP3    H210207   0.362   1.738   3.576 -0.3406  0.4255 -0.1816
 3415TIP3   OH210208   1.273   5.526   4.942 -0.4717 -0.1486 -0.0414
 3415TIP3    H110209   1.278   5.621   4.949  0.4438 -0.3067  2.6685
 3415TIP3    H210210   1.339   5.504   4.875  1.9060  0.9757  1.7683
 3416TIP3   OH210211   2.845   3.930   5.731 -0.6575 -0.5057 -0.1553
 3416TIP3    H110212   2.811   3.861   5.674 -0.3219  0.0762 -1.0768
 3416TIP3    H210213   2.928   3.956   5.691 -1.6906  1.7923 -0.9650
 3417TIP3   OH210214   6.656   2.413   3.592  0.3404  0.5099  0.3291
 3417TIP3    H110215   6.743   2.453   3.603 -0.0793  1.3786  0.5257
 3417TIP3    H210216   6.603   2.481   3.551  0.1520 -0.5292 -1.2603
 3418TIP3   OH210217   1.125   6.065   2.585 -0.3974 -0.8497 -0.1140
 3418TIP3    H110218   1.171   6.147   2.603 -0.5477 -0.5974 -0.8593
 3418TIP3    H210219   1.037   6.093   2.558 -0.9545 -1.3124  1.1307
 3419TIP3   OH210220   1.383   0.123   5.154 -0.3570 -0.3379  0.3563
 3419TIP3    H110221   1.403   0.205   5.109 -0.6459  0.0928  0.9917
 3419TIP3    H210222   1.390   0.056   5.086  1.6030 -0.0224  0.2037
 3420TIP3   OH210223   5.336   2.565   2.546 -0.4489  0.3321  0.4855
 3420TIP3    H110224   5.395   2.615   2.490 -0.4152 -0.2998 -0.0556
 3420TIP3    H210225   5.317   2.624   2.619  1.0599  0.4608  0.8173
 3421TIP3   OH210226   0.467   1.410   2.444  0.2465  0.1278 -0.0381
 3421TIP3    H110227   0.458   1.319   2.472  1.6224  0.3528  1.2719
 3421TIP3    H210228   0.447   1.461   2.522 -3.8230  1.1980 -1.4987
 3422TIP3   OH210229   3.517   0.990   1.402 -0.4960  0.2250  0.0521
 3422TIP3    H110230   3.454   1.061   1.390 -0.9567 -0.3505 -1.1275
 3422TIP3    H210231   3.597   1.034   1.431 -1.4051  0.9679  1.5644
 3423TIP3   OH210232   3.999   0.739   2.403  0.4607 -0.1767  0.0877
 3423TIP3    H110233   3.953   0.813   2.363  2.0609  0.1688 -1.2116
 3423TIP3    H210234   4.074   0.779   2.449  1.6778 -0.9899 -1.1211
 3424TIP3   OH210235   3.549   5.631   3.674  0.0591 -0.2000 -0.5449
 3424TIP3    H110236   3.565   5.536   3.677  0.5424 -0.1417 -1.1433
 3424TIP3    H210237   3.559   5.660   3.765  3.9152 -0.0889 -0.8728
 3425TIP3   OH210238   4.122   5.832   1.986  0.7160 -0.6589 -0.1361
 3425TIP3    H110239   4.159   5.832   2.074 -1.0801 -1.0057  0.6597
 3425TIP3    H210240   4.135   5.922   1.955  1.0722 -0.4438  0.6008
 3426TIP3   OH210241   3.622   0.440   3.560 -0.2222  0.0418 -0.2352
 3426TIP3    H110242   3.576   0.524   3.554 -0.8374 -0.1848  0.9133
 3426TIP3    H210243   3.555   0.377   3.586  0.3474 -0.6901 -0.4925
 3427TIP3   OH210244   4.785   5.392   0.805 -0.0596 -1.2089 -0.2699
 3427TIP3    H110245   4.727   5.328   0.846 -0.8081  0.5339  1.5130
 3427TIP3    H210246   4.838   5.426   0.877  1.1964 -0.7040 -1.3922
 3428TIP3   OH210247   5.611   3.549   2.587  0.4399 -0.0709  0.3381
 3428TIP3    H110248   5.527   3.539   2.631  0.3542 -2.3897 -0.2496
 3428TIP3    H210249   5.671   3.494   2.638  0.9166 -0.7471 -0.9209
 3429TIP3   OH210250   2.486   4.573   2.627  0.0572 -0.2478  0.3611
 3429TIP3    H110251   2.430   4.571   2.704 -0.7136  0.1340 -0.1819
 3429TIP3    H210252   2.506   4.665   2.614 -1.4450 -0.0648 -1.0312
 3430TIP3   OH210253   3.287   6.685   0.885  0.2589 -0.3285 -0.3841
 3430TIP3    H110254   3.327   6.632   0.817 -0.9686 -3.2078  0.9575
 3430TIP3    H210255   3.330   6.657   0.966  0.1793  1.4217  0.3220
 3431TIP3   OH210256   5.682   3.016   1.325 -0.1950 -0.2498 -0.3437
 3431TIP3    H110257   5.672   3.043   1.416 -3.1355  0.5192 -0.8138
 3431TIP3    H210258   5.718   2.928   1.330  0.5255  0.0974  1.4885
 3432TIP3   OH210259   7.174   1.047   0.205 -0.4140  0.0616  0.7432
 3432TIP3    H110260   7.261   1.008   0.218 -0.6729  0.0829  2.8920
 3432TIP3    H210261   7.118   0.974   0.179  0.3467  0.1794 -1.4648
 3433TIP3   OH210262   3.716   6.629   3.757  0.0222 -0.4840 -0.6512
 3433TIP3    H110263   3.805   6.664   3.757 -0.0561 -0.2867 -0.6950
 3433TIP3    H210264   3.722   6.551   3.812 -0.2960  0.8591  1.4183
 3434TIP3   OH210265   6.519   3.212   3.526  0.7026 -0.3319  0.3995
 3434TIP3    H110266   6.535   3.217   3.620 -1.6454  0.3038  0.8363
 3434TIP3    H210267   6.571   3.284   3.489  0.6562  0.2291  1.3929
 3435TIP3   OH210268   0.019   1.189   2.791  0.2033  0.1868  0.3617
 3435TIP3    H110269   0.034   1.189   2.697  1.0669 -1.2494  0.4603
 3435TIP3    H210270   0.088   1.246   2.826 -0.1038  0.7028  0.1404
 3436TIP3   OH210271   6.452   2.367   1.333 -0.2356 -0.1231  0.3098
 3436TIP3    H110272   6.513   2.310   1.287  1.1636  0.3995  1.4462
 3436TIP3    H210273   6.403   2.411   1.263  2.3805  1.2786 -0.7929
 3437TIP3   OH210274   5.328   4.844   4.220  0.1247  0.3482  0.2705
 3437TIP3    H110275   5.372   4.928   4.235 -0.0884  0.1551  2.2340
 3437TIP3    H210276   5.251   4.847   4.276 -0.6179 -0.6319 -0.6599
 3438TIP3   OH210277   1.994   1.247   3.158 -0.8177  0.3005 -0.0208
 3438TIP3    H110278   2.015   1.285   3.243 -2.0269  3.0734 -0.8715
 3438TIP3    H210279   1.914   1.291   3.130 -0.3151 -0.3159 -2.7221
 3439TIP3   OH210280   4.908   4.569   2.122 -0.0485 -0.7301 -0.1463
 3439TIP3    H110281   4.862   4.632   2.177  0.4345 -0.3218 -0.1997
 3439TIP3    H210282   4.989   4.550   2.171  0.3336 -0.4469 -0.6637
 3440TIP3   OH210283   6.732   1.723   0.805  0.4261 -0.4745 -0.0724
 3440TIP3    H110284   6.719   1.642   0.755 -2.0547 -0.6378  0.6884
 3440TIP3    H210285   6.695   1.792   0.749 -0.7454 -0.4140  0.7403
 3441TIP3   OH210286   5.389   0.678   1.928 -0.3861 -0.2073 -0.0848
 3441TIP3    H110287   5.368   0.588   1.903  0.2075 -0.3532 -0.0606
 3441TIP3    H210288   5.475   0.695   1.890 -0.3077  0.2120  0.2652
 3442TIP3   OH210289   4.146   5.159   0.975  1.1249  0.2704 -0.3718
 3442TIP3    H110290   4.102   5.097   0.918  0.5125  0.6904 -0.3630
 3442TIP3    H210291   4.228   5.115   0.999  0.1066 -1.1260  0.7491
 3443TIP3   OH210292   6.082   3.613   0.369  0.0497  0.0541 -0.0924
 3443TIP3    H110293   6.080   3.671   0.445  0.1062 -0.0427 -0.0168
 3443TIP3    H210294   6.031   3.536   0.397 -1.2346  0.6675 -0.6826
 3444TIP3   OH210295   7.052   3.232   4.560  0.3398  0.7282 -0.1769
 3444TIP3    H110296   7.001   3.221   4.640  0.1613 -1.6775 -0.5484
 3444TIP3    H210297   7.096   3.316   4.571 -1.7565  1.7492  1.2394
 3445TIP3   OH210298   2.275   6.572   2.713 -0.0900 -0.4264 -0.3596
 3445TIP3    H110299   2.208   6.520   2.758  0.9430 -2.4229 -0.9609
 3445TIP3    H210300   2.354   6.559   2.766  0.1157  0.8675 -0.3325
 3446TIP3   OH210301   5.594   3.866   3.974  0.5842  0.1802  0.4479
 3446TIP3    H110302   5.663   3.892   4.035  0.3818  1.1332  0.2828
 3446TIP3    H210303   5.589   3.937   3.911 -0.3356 -0.0181  0.2740
 3447TIP3   OH210304   1.418   3.548   3.200 -0.0581  0.0294 -0.3432
 3447TIP3    H110305   1.454   3.628   3.163  1.1805 -0.7987 -0.9905
 3447TIP3    H210306   1.404   3.569   3.293  1.3072  0.6631 -0.2544
 3448TIP3   OH210307   2.050   1.689   4.006 -0.0942  0.2802  0.1243
 3448TIP3    H110308   2.064   1.598   4.031 -1.5874  0.1429  0.5642
 3448TIP3    H210309   2.011   1.729   4.083 -1.4892  0.7362 -0.7839
 3449TIP3   OH210310   4.484   3.198   0.842 -0.3636  0.2422  0.3433
 3449TIP3    H110311   4.499   3.290   0.817 -0.4391  0.1287 -0.1289
 3449TIP3    H210312   4.487   3.150   0.759 -0.7756 -0.1229  0.5370
 3450TIP3   OH210313   3.049   4.370   5.296  0.4602  0.0661 -0.0991
 3450TIP3    H110314   2.986   4.408   5.234 -1.5875 -1.6582  0.7579
 3450TIP3    H210315   3.093   4.301   5.246  2.3016  1.7523 -0.9133
 3451TIP3   OH210316   0.139   0.356   5.854  0.9333  0.2796  0.6070
 3451TIP3    H110317   0.226   0.365   5.815  1.5225 -1.4469  1.4361
 3451TIP3    H210318   0.081   0.337   5.780  1.1431  1.8042  0.0005
 3452TIP3   OH210319   7.151   1.208   3.529  0.4312  0.4403 -0.2594
 3452TIP3    H110320   7.079   1.154   3.496  1.4671 -1.5527  0.5386
 3452TIP3    H210321   7.111   1.293   3.547 -1.3864 -0.1644 -1.1921
 3453TIP3   OH210322   1.406   0.184   2.732 -0.0424  0.1761  0.1984
 3453TIP3    H110323   1.347   0.116   2.701 -1.3779  0.8085  1.2712
 3453TIP3    H210324   1.493   0.142   2.732 -0.8262 -1.5372  0.8613
 3454TIP3   OH210325   3.078   2.986   1.063 -0.4011  0.0811  0.1034
 3454TIP3    H110326   3.135   2.909   1.062 -1.2466 -0.5524  0.0367
 3454TIP3    H210327   3.068   3.009   0.971 -1.4254 -0.7008  0.0037
 3455TIP3   OH210328   6.584   4.660   1.019 -0.1311 -0.1894 -0.0016
 3455TIP3    H110329   6.628   4.739   1.051  2.3847 -2.3225  2.2993
 3455TIP3    H210330   6.636   4.633   0.943  0.4882 -0.8425  0.6350
 3456TIP3   OH210331   0.689   3.846   0.303  0.0015 -0.2781 -0.5115
 3456TIP3    H110332   0.615   3.825   0.361  0.1360 -0.2331 -0.3218
 3456TIP3    H210333   0.679   3.939   0.283 -0.8368 -0.5969 -1.6981
 3457TIP3   OH210334   3.971   3.478   0.978  0.3432  0.2430  0.3527
 3457TIP3    H110335   4.035   3.545   0.952 -0.8416  1.3421  0.1569
 3457TIP3    H210336   3.887   3.525   0.981 -0.8154 -1.5626 -1.3033
 3458TIP3   OH210337   4.980   1.507   4.785 -0.3698  0.6583 -0.6967
 3458TIP3    H110338   4.968   1.413   4.772  0.7784  0.2288  0.9398
 3458TIP3    H210339   4.947   1.523   4.874  2.1141  1.1738  0.2322
 3459TIP3   OH210340   6.861   4.855   3.614  0.1317 -0.5377 -0.1337
 3459TIP3    H110341   6.798   4.915   3.574 -2.6318 -3.0265  0.1345
 3459TIP3    H210342   6.856   4.875   3.708  0.3107 -0.2341 -0.1876
 3460TIP3   OH210343   6.916   3.490   0.226 -0.2120 -0.3013 -0.1171
 3460TIP3    H110344   6.824   3.481   0.252 -0.7270  0.4192 -1.5819
 3460TIP3    H210345   6.913   3.544   0.146  1.4354 -0.7953 -0.5419
 3461TIP3   OH210346   1.186   0.542   5.617 -0.3313 -0.1478  0.0959
 3461TIP3    H110347   1.151   0.559   5.704 -0.1564 -0.4726  0.2312
 3461TIP3    H210348   1.230   0.623   5.592  0.1516 -0.2598  0.5703
 3462TIP3   OH210349   1.395   1.934   3.832 -0.1084  0.3805  0.1106
 3462TIP3    H110350   1.378   1.933   3.926  0.7321  0.6880  0.2728
 3462TIP3    H210351   1.449   1.857   3.816 -3.1383 -1.7552 -0.7326
 3463TIP3   OH210352   2.873   3.567   2.021 -0.1103 -0.2530 -0.3293
 3463TIP3    H110353   2.895   3.601   2.107  1.2830  2.8819 -1.7451
 3463TIP3    H210354   2.870   3.472   2.032  2.6070 -0.1734  2.6262
 3464TIP3   OH210355   5.299   3.677   1.436  0.2621 -0.3227 -0.4124
 3464TIP3    H110356   5.358   3.621   1.486  2.1951  3.4550  2.0914
 3464TIP3    H210357   5.211   3.652   1.464  1.1973  0.6970  4.2947
 3465TIP3   OH210358   1.117   6.420   3.457 -0.0391  0.4849  0.6875
 3465TIP3    H110359   1.128   6.485   3.526 -0.4323  0.1366  1.0848
 3465TIP3    H210360   1.206   6.394   3.433  0.1000  0.6387  1.0347
 3466TIP3   OH210361   0.341   3.954   1.399  0.0514 -0.4208  0.0733
 3466TIP3    H110362   0.307   4.024   1.455 -0.8541 -0.1247 -0.8276
 3466TIP3    H210363   0.374   3.998   1.321  1.5012 -0.8111  0.4248
 3467TIP3   OH210364   3.863   4.193   4.224  0.1758 -0.3399  0.1683
 3467TIP3    H110365   3.788   4.183   4.165  0.6181 -2.7335 -0.0735
 3467TIP3    H210366   3.925   4.127   4.195  2.1068  1.0773  0.8561
 3468TIP3   OH210367   3.378   4.102   3.676  0.3971  0.2294  0.3760
 3468TIP3    H110368   3.381   4.046   3.754  2.1514  2.8909  2.4094
 3468TIP3    H210369   3.440   4.061   3.616  2.3717  0.3376  2.1850
 3469TIP3   OH210370   4.694   6.679   3.232  0.2728  0.0469  0.3528
 3469TIP3    H110371   4.737   6.593   3.232 -2.1616 -1.2640  0.5669
 3469TIP3    H210372   4.665   6.691   3.141 -1.4559 -0.5555  0.7690
 3470TIP3   OH210373   3.714   5.851   3.548 -0.0184  0.0047 -0.5960
 3470TIP3    H110374   3.622   5.842   3.524  0.1624  1.3578 -1.9930
 3470TIP3    H210375   3.751   5.764   3.536 -0.8779 -0.2908 -1.2011
 3471TIP3   OH210376   4.521   3.186   1.453 -0.2437 -0.4358 -0.2330
 3471TIP3    H110377   4.458   3.136   1.402  0.0846  0.8903 -2.0508
 3471TIP3    H210378   4.549   3.126   1.522 -1.2931 -2.0468 -1.1339
 3472TIP3   OH210379   7.032   2.187   3.241 -0.6749  0.6570  0.0474
 3472TIP3    H110380   7.016   2.140   3.160 -0.5682  0.2195  0.2794
 3472TIP3    H210381   7.036   2.279   3.214  0.9089  0.4092 -0.6876
 3473TIP3   OH210382   1.041   5.043   5.746 -0.2018  0.1163 -0.4751
 3473TIP3    H110383   1.067   5.077   5.831 -0.2599 -0.0706 -0.3830
 3473TIP3    H210384   1.020   4.951   5.762  1.5399 -0.4143 -1.0330
 3474TIP3   OH210385   2.498   5.850   0.852  0.0515 -0.0994  0.1273
 3474TIP3    H110386   2.526   5.915   0.789  0.3781 -0.0699  0.3023
 3474TIP3    H210387   2.569   5.845   0.915 -0.0834 -0.4409  0.2555
 3475TIP3   OH210388   6.319   0.896   0.358 -0.2961 -0.0947 -0.5700
 3475TIP3    H110389   6.282   0.890   0.270  1.4276 -0.4127 -1.3232
 3475TIP3    H210390   6.413   0.879   0.345 -0.1694 -1.2839  1.4803
 3476TIP3   OH210391   3.133   1.818   4.970  0.9886  0.3342 -0.0452
 3476TIP3    H110392   3.100   1.883   4.908 -0.9552 -0.6592 -0.1383
 3476TIP3    H210393   3.146   1.867   5.051 -1.3128  0.7504  0.1512
 3477TIP3   OH210394   5.629   0.753   1.638 -0.4453  0.5805 -0.0904
 3477TIP3    H110395   5.591   0.837   1.613  1.6776  1.2632 -1.3028
 3477TIP3    H210396   5.651   0.711   1.555  0.1108 -0.3949  0.5296
 3478TIP3   OH210397   0.867   5.594   1.261 -0.2087 -0.2148 -0.0418
 3478TIP3    H110398   0.858   5.637   1.176  0.7650  0.0209 -0.0306
 3478TIP3    H210399   0.864   5.666   1.324  1.6701 -0.1096 -0.0363
 3479TIP3   OH210400   3.897   1.465   4.862 -0.0851  0.2802 -0.7075
 3479TIP3    H110401   3.974   1.486   4.810  0.2471 -4.4045 -2.5751
 3479TIP3    H210402   3.823   1.492   4.807  0.1799  1.5785 -0.4607
 3480TIP3   OH210403   5.838   0.865   4.818 -0.0697  0.1446 -0.2198
 3480TIP3    H110404   5.752   0.898   4.843  0.1716  0.9981 -0.4595
 3480TIP3    H210405   5.840   0.875   4.723 -0.1399 -0.9768 -0.3546
 3481TIP3   OH210406   5.574   2.202   3.352  0.0602  0.6144  0.1097
 3481TIP3    H110407   5.508   2.201   3.422 -1.2290  1.1989 -1.0597
 3481TIP3    H210408   5.650   2.245   3.391 -0.4899  0.5843  1.2586
 3482TIP3   OH210409   3.522   6.444   2.172 -0.1247  0.4036  0.5034
 3482TIP3    H110410   3.504   6.449   2.078 -0.1337 -1.3051  0.3870
 3482TIP3    H210411   3.617   6.433   2.178 -0.3864 -2.8652  0.4521
 3483TIP3   OH210412   6.759   2.483   1.298  0.0798 -0.0916  0.5252
 3483TIP3    H110413   6.727   2.456   1.383  1.2443  2.0897  1.7487
 3483TIP3    H210414   6.713   2.565   1.279  0.6104  0.0099 -0.4294
 3484TIP3   OH210415   1.045   5.613   5.061 -0.5668  0.0558  0.2380
 3484TIP3    H110416   0.956   5.609   5.027 -1.2949  0.7068  1.9750
 3484TIP3    H210417   1.100   5.583   4.988 -2.3254 -2.2517 -0.2347
 3485TIP3   OH210418   3.282   3.518   5.714 -0.4361 -0.2764 -0.2654
 3485TIP3    H110419   3.187   3.522   5.725 -0.3667  0.4632  0.1304
 3485TIP3    H210420   3.301   3.581   5.644 -0.1188  0.4928  0.4957
 3486TIP3   OH210421   1.569   2.086   1.702  0.0025  0.8283  0.4351
 3486TIP3    H110422   1.473   2.085   1.705  0.0116  1.5762  1.9660
 3486TIP3    H210423   1.596   2.057   1.789  1.1012  2.9298  0.8607
 3487TIP3   OH210424   6.839   0.646   0.959 -0.3108 -0.2094  0.5778
 3487TIP3    H110425   6.746   0.664   0.971 -0.4594 -0.3116 -0.3506
 3487TIP3    H210426   6.858   0.574   1.018 -1.2982 -1.5389 -0.6764
 3488TIP3   OH210427   5.215   1.291   3.504  0.3931  0.8910 -0.4987
 3488TIP3    H110428   5.169   1.266   3.424  1.1033  2.3387 -1.4021
 3488TIP3    H210429   5.298   1.243   3.499  0.2434  0.6187 -0.3902
 3489TIP3   OH210430   2.418   6.694   3.971  0.4964 -0.2592 -0.2709
 3489TIP3    H110431   2.368   6.720   4.048  0.8498  0.6044 -0.3188
 3489TIP3    H210432   2.480   6.629   4.002  0.1025 -0.5025  0.0114
 3490TIP3   OH210433   1.106   5.902   4.244  0.1846 -0.0480  0.6458
 3490TIP3    H110434   1.116   5.958   4.167  0.0173  0.6334  1.1087
 3490TIP3    H210435   1.125   5.814   4.213  1.8118  0.4336  0.2126
 3491TIP3   OH210436   1.137   1.511   1.441  0.2608  0.3956  0.0254
 3491TIP3    H110437   1.226   1.477   1.442  1.3302  2.9342 -0.6893
 3491TIP3    H210438   1.123   1.546   1.529 -1.5348 -3.2846  1.3770
 3492TIP3   OH210439   1.594   1.689   3.072  0.1019 -0.0003 -0.1022
 3492TIP3    H110440   1.552   1.757   3.020  2.9872  0.6898 -1.7706
 3492TIP3    H210441   1.561   1.702   3.161 -0.5611  2.6105 -0.6476
 3493TIP3   OH210442   3.249   6.221   4.712  0.0865  0.0274  0.4631
 3493TIP3    H110443   3.164   6.236   4.672  0.1518  0.7524  0.5730
 3493TIP3    H210444   3.240   6.138   4.759  0.2822 -1.3253 -1.7476
 3494TIP3   OH210445   6.419   0.015   1.441  0.1847 -0.7445 -0.2296
 3494TIP3    H110446   6.400   0.039   1.350 -1.7480  0.4533  0.4274
 3494TIP3    H210447   6.333  -0.003   1.479  0.8244 -0.0610  1.6650
 3495TIP3   OH210448   1.799   2.151   3.656 -0.7992  0.9719 -0.1528
 3495TIP3    H110449   1.875   2.093   3.666 -0.5817  0.6103 -3.0295
 3495TIP3    H210450   1.724   2.096   3.676 -0.5538 -0.2380 -2.2658
 3496TIP3   OH210451   6.403   0.632   1.723  0.0986 -0.1879  0.5785
 3496TIP3    H110452   6.399   0.591   1.637 -0.4336  0.0434  0.4878
 3496TIP3    H210453   6.388   0.559   1.784 -1.9426 -0.0066  0.3802
 3497TIP3   OH210454   0.929   4.620   5.140  0.0342 -0.3494 -0.4835
 3497TIP3    H110455   0.837   4.602   5.119 -0.5510  1.1976  0.5468
 3497TIP3    H210456   0.973   4.621   5.055 -1.3650  1.1310 -1.2517
 3498TIP3   OH210457   7.123   5.848   1.822 -0.0348 -0.5823  0.1943
 3498TIP3    H110458   7.132   5.767   1.771  0.9079  0.5845 -1.5763
 3498TIP3    H210459   7.079   5.909   1.763 -0.5257  0.2985  1.4299
 3499TIP3   OH210460   4.889   2.216   0.641 -0.6504  0.0132  0.0990
 3499TIP3    H110461   4.968   2.254   0.603 -0.7462 -0.6149 -0.7634
 3499TIP3    H210462   4.882   2.130   0.600 -1.2798 -0.3055  0.8568
 3500TIP3   OH210463   5.930   0.826   0.249  0.4050  0.3525  0.2765
 3500TIP3    H110464   5.954   0.865   0.333 -0.6509 -0.7077  1.1163
 3500TIP3    H210465   5.896   0.899   0.197  1.2695  1.0570  0.6731
 3501TIP3   OH210466   4.695   2.897   0.715  0.5785  0.1411  0.1450
 3501TIP3    H110467   4.766   2.953   0.745 -0.1585  1.0524  0.2669
 3501TIP3    H210468   4.719   2.809   0.743  1.9013  0.3425 -0.3020
 3502TIP3   OH210469   0.033   2.768   0.863 -0.2302 -0.4403 -0.6236
 3502TIP3    H110470   0.123   2.736   0.872 -0.2406 -0.0285  1.4728
 3502TIP3    H210471   0.032   2.851   0.910 -1.3378  0.3582 -1.9912
 3503TIP3   OH210472   6.447   0.204   1.974  0.2638  0.0135  0.2176
 3503TIP3    H110473   6.522   0.233   2.027  0.0199  1.8126 -0.3344
 3503TIP3    H210474   6.486   0.160   1.899  0.6938 -0.5513  0.7616
 3504TIP3   OH210475   6.110   3.310   3.349 -0.6780 -0.0624 -0.1251
 3504TIP3    H110476   6.084   3.399   3.325 -0.0509  0.3618  0.7210
 3504TIP3    H210477   6.029   3.260   3.346 -1.2445  0.7897  0.4827
 3505TIP3   OH210478   7.005   4.548   2.771  0.3677  0.1155 -0.2261
 3505TIP3    H110479   7.080   4.573   2.826  0.5252 -0.0542 -0.3641
 3505TIP3    H210480   7.038   4.477   2.716  0.2591  0.4139 -0.6735
 3506TIP3   OH210481   3.726   3.347   1.978  0.4223 -0.3585  0.1935
 3506TIP3    H110482   3.778   3.406   1.924  0.6317  0.2630  1.0536
 3506TIP3    H210483   3.790   3.299   2.031  0.2222 -0.9969 -0.1267
 3507TIP3   OH210484   2.787   4.951   5.582 -0.0034  0.0460 -0.0131
 3507TIP3    H110485   2.715   5.005   5.550  0.3319  0.0334 -0.8398
 3507TIP3    H210486   2.862   4.977   5.527  0.4158 -0.5004  0.2939
 3508TIP3   OH210487   4.205   0.306   5.069 -0.6289 -0.1548  0.8768
 3508TIP3    H110488   4.145   0.315   4.995  0.7518  0.9063 -0.1671
 3508TIP3    H210489   4.179   0.224   5.111 -0.6805 -1.4310 -1.5019
 3509TIP3   OH210490   0.410   5.860   0.756 -0.1426 -0.1960  0.1751
 3509TIP3    H110491   0.418   5.781   0.809  1.6079 -1.2478 -1.5455
 3509TIP3    H210492   0.472   5.922   0.796 -0.1878 -0.3268  0.4498
 3510TIP3   OH210493   7.177   2.174   4.820 -0.1160  0.6068 -0.5545
 3510TIP3    H110494   7.238   2.231   4.866  1.0534 -0.7526 -0.3566
 3510TIP3    H210495   7.128   2.232   4.761  1.2696  1.7489 -0.6099
 3511TIP3   OH210496   6.631   2.593   4.049  0.0153 -0.4660 -0.7467
 3511TIP3    H110497   6.665   2.672   4.091  1.3147 -1.1835 -0.3723
 3511TIP3    H210498   6.709   2.545   4.022 -0.5959 -2.7605  1.1942
 3512TIP3   OH210499   0.436   6.440   4.584  0.5670  0.4196 -0.6350
 3512TIP3    H110500   0.430   6.390   4.503 -0.0556 -0.6007  0.0211
 3512TIP3    H210501   0.351   6.481   4.594  0.7335  0.7703 -0.6358
 3513TIP3   OH210502   2.059   2.522   0.433 -0.1139 -0.2902  0.0801
 3513TIP3    H110503   2.108   2.582   0.489  0.5609  0.8103 -1.6316
 3513TIP3    H210504   2.096   2.436   0.452  1.8535  0.3963 -0.4608
 3514TIP3   OH210505   5.103   6.223   0.914 -0.0307  0.1669 -1.0543
 3514TIP3    H110506   5.030   6.174   0.875 -0.3421 -1.8061  1.7461
 3514TIP3    H210507   5.062   6.280   0.979  0.7901  0.5979 -0.9023
 3515TIP3   OH210508   4.867   2.676   3.589  0.0831 -0.3350  0.5119
 3515TIP3    H110509   4.790   2.695   3.643 -0.6346  0.2936 -0.6843
 3515TIP3    H210510   4.902   2.762   3.566 -0.1126 -0.5567 -0.6777
 3516TIP3   OH210511   3.904   1.756   1.388  0.2859  0.8646 -0.0561
 3516TIP3    H110512   3.847   1.707   1.329  0.1269  3.0602 -1.8230
 3516TIP3    H210513   3.988   1.710   1.384 -0.6176 -0.9452  0.6639
 3517TIP3   OH210514   4.933   4.757   3.120  0.3735  0.3825 -0.4412
 3517TIP3    H110515   4.995   4.829   3.129  1.0453 -0.4014  1.9889
 3517TIP3    H210516   4.861   4.794   3.069  0.7997  2.7110  0.5098
 3518TIP3   OH210517   4.286   4.260   0.457  0.3498 -0.3625  0.1853
 3518TIP3    H110518   4.283   4.324   0.527 -1.4115 -0.9149  0.6638
 3518TIP3    H210519   4.276   4.311   0.377  0.3552  0.0815  0.4668
 3519TIP3   OH210520   2.862   0.657   0.246 -0.3256 -0.0550 -0.7145
 3519TIP3    H110521   2.780   0.694   0.215 -1.1880 -0.4047  1.0363
 3519TIP3    H210522   2.919   0.733   0.259 -0.3112  0.1789 -2.0445
 3520TIP3   OH210523   3.583   5.109   2.475 -0.2148 -0.0687 -0.0841
 3520TIP3    H110524   3.557   5.078   2.561  0.9635 -2.2138 -0.4177
 3520TIP3    H210525   3.502   5.143   2.436 -0.8559  0.5066  1.6514
 3521TIP3   OH210526   5.347   1.898   3.564 -0.2107  0.6670  0.0444
 3521TIP3    H110527   5.354   1.805   3.540 -1.0208  1.0305 -1.8227
 3521TIP3    H210528   5.437   1.929   3.567  0.0082  0.5278 -2.6052
 3522TIP3   OH210529   4.086   0.032   4.803 -0.0285  0.2191  0.3838
 3522TIP3    H110530   4.178   0.006   4.808 -0.2146 -0.2722  1.4890
 3522TIP3    H210531   4.088   0.128   4.808  0.4797  0.2905 -0.7917
 3523TIP3   OH210532   5.033   2.862   2.704  0.5821 -0.2155  0.4605
 3523TIP3    H110533   4.995   2.795   2.648  1.4215  1.5884 -2.4764
 3523TIP3    H210534   4.959   2.916   2.730  0.2777 -0.6355  0.4778
 3524TIP3   OH210535   4.507   3.042   1.058  0.2649 -0.5873 -0.3128
 3524TIP3    H110536   4.442   3.067   1.123 -0.2647 -0.1216 -1.0128
 3524TIP3    H210537   4.492   3.100   0.984 -0.7312 -2.6239 -1.8274
 3525TIP3   OH210538   5.533   3.607   3.870 -0.5392 -0.1092 -0.2736
 3525TIP3    H110539   5.473   3.602   3.795 -1.1848 -1.4003  0.2979
 3525TIP3    H210540   5.530   3.698   3.897  1.2389  0.8972 -3.0106
 3526TIP3   OH210541   3.740   0.526   2.377  0.1067  0.0039 -0.3400
 3526TIP3    H110542   3.738   0.580   2.299  0.9132  0.5894  0.0340
 3526TIP3    H210543   3.683   0.452   2.357  1.3096 -0.5265 -1.9570
 3527TIP3   OH210544   5.506   1.335   0.686  0.4362 -0.2472 -0.1765
 3527TIP3    H110545   5.458   1.356   0.606  0.4039 -0.7110 -0.2811
 3527TIP3    H210546   5.456   1.264   0.727 -1.1528  1.8268  1.7303
 3528TIP3   OH210547   4.682   1.707   2.652  0.1173  0.1596  0.2675
 3528TIP3    H110548   4.718   1.756   2.725 -2.0187  0.3080  1.2998
 3528TIP3    H210549   4.642   1.773   2.596 -1.1304 -0.2027  0.6958
 3529TIP3   OH210550   6.433   3.831   4.106  0.1189  0.0061 -0.9095
 3529TIP3    H110551   6.381   3.838   4.186  0.2209  0.0975 -0.8515
 3529TIP3    H210552   6.432   3.737   4.086  0.2228 -0.0374 -0.7144
 3530TIP3   OH210553   4.395   4.372   0.099  1.1097 -0.2477 -0.0290
 3530TIP3    H110554   4.425   4.301   0.041  1.1489  0.9938 -1.5977
 3530TIP3    H210555   4.429   4.452   0.058 -1.7917  1.0050 -0.2518
 3531TIP3   OH210556   1.413   0.313   5.411  0.1350  0.2738  0.2434
 3531TIP3    H110557   1.460   0.332   5.493  1.1134  0.9952 -0.4581
 3531TIP3    H210558   1.476   0.263   5.359 -0.0021  0.9340 -0.5695
 3532TIP3   OH210559   4.603   0.012   4.501 -0.3364  0.2112 -0.0488
 3532TIP3    H110560   4.669   0.078   4.521 -0.3816  0.2053  0.1217
 3532TIP3    H210561   4.628  -0.023   4.415  1.0944 -1.2821  0.9157
 3533TIP3   OH210562   1.963   5.128   4.413  0.2745  0.0351 -0.4998
 3533TIP3    H110563   1.871   5.152   4.416 -0.3206 -2.1784  0.0570
 3533TIP3    H210564   1.971   5.071   4.336  0.8922 -0.8122  0.1733
 3534TIP3   OH210565   2.241   2.634   4.252  0.1068  0.0567  0.5308
 3534TIP3    H110566   2.283   2.566   4.200  1.6870 -0.2856  2.1684
 3534TIP3    H210567   2.313   2.684   4.290 -1.0075  2.1012  0.1526
 3535TIP3   OH210568   7.081   5.990   0.076 -0.3509 -0.1726 -0.0684
 3535TIP3    H110569   7.035   5.921   0.029 -0.6638 -0.7526  1.0621
 3535TIP3    H210570   7.141   5.945   0.135  1.2333  0.5655 -1.0240
 3536TIP3   OH210571   0.258   6.363   0.591 -0.4006  0.0766  0.1354
 3536TIP3    H110572   0.308   6.284   0.612 -1.5322 -0.1955  1.9356
 3536TIP3    H210573   0.262   6.368   0.495  1.6721 -0.8193  0.1105
 3537TIP3   OH210574   0.290   5.395   0.798  0.3194 -0.2322 -0.7804
 3537TIP3    H110575   0.362   5.368   0.855  1.1454  0.0229 -1.6775
 3537TIP3    H210576   0.215   5.342   0.826  0.8512 -0.5039  0.1606
 3538TIP3   OH210577   0.086   5.735   5.355 -0.1281 -0.3827 -0.4156
 3538TIP3    H110578   0.016   5.764   5.414  0.0338  1.8604 -1.2164
 3538TIP3    H210579   0.040   5.690   5.284 -0.3697 -2.5243  1.0253
 3539TIP3   OH210580   7.086   3.875   0.133 -0.3290 -0.0361 -0.2312
 3539TIP3    H110581   7.083   3.845   0.224 -2.0113  1.6548  0.3232
 3539TIP3    H210582   7.123   3.801   0.085 -0.5367 -1.4236  1.6352
 3540TIP3   OH210583   0.473   0.424   2.887 -0.2959 -0.4498  0.0264
 3540TIP3    H110584   0.427   0.435   2.804  0.1692  1.2276 -0.0581
 3540TIP3    H210585   0.566   0.435   2.865 -0.1042 -0.7230  0.6581
 3541TIP3   OH210586   3.675   6.635   4.493  0.7140  0.1229 -0.5817
 3541TIP3    H110587   3.721   6.604   4.571 -0.2321 -2.2182 -0.8712
 3541TIP3    H210588   3.744   6.654   4.430  1.4819  1.8231  0.6697
 3542TIP3   OH210589   6.027   3.688   4.695 -0.0700 -0.3045  0.3789
 3542TIP3    H110590   6.050   3.608   4.742 -0.6801 -0.7971 -0.1594
 3542TIP3    H210591   6.012   3.661   4.605 -0.4049  0.3953  0.2133
 3543TIP3   OH210592   3.712   3.687   3.371 -0.0228  0.4541 -0.0589
 3543TIP3    H110593   3.806   3.674   3.386  0.3251  2.1116 -0.6332
 3543TIP3    H210594   3.676   3.705   3.458  0.2867  0.3058  0.0993
 3544TIP3   OH210595   3.179   6.260   1.111  0.0445 -0.3325  0.0874
 3544TIP3    H110596   3.144   6.338   1.153 -1.7400 -0.7410 -0.5506
 3544TIP3    H210597   3.109   6.195   1.120 -0.3638 -0.5241 -3.2274
 3545TIP3   OH210598   1.090   0.895   4.153  0.6144  0.4080  0.3206
 3545TIP3    H110599   1.084   0.800   4.142 -0.9046  0.5340 -0.1336
 3545TIP3    H210600   1.080   0.931   4.065  0.1572  1.0291  0.6224
 3546TIP3   OH210601   0.803   1.456   0.513 -0.6636 -0.0929 -0.0739
 3546TIP3    H110602   0.774   1.540   0.478  2.1013  1.0356  0.1554
 3546TIP3    H210603   0.884   1.436   0.466 -0.9654 -2.4151  0.2472
 3547TIP3   OH210604   4.674   5.110   0.813 -0.0261  0.2033  0.0572
 3547TIP3    H110605   4.657   5.144   0.725 -1.5249  0.9177  0.5811
 3547TIP3    H210606   4.668   5.015   0.804  0.6234  0.2294 -0.7508
 3548TIP3   OH210607   0.793   1.920   0.316 -0.0737  0.0992  0.0858
 3548TIP3    H110608   0.753   1.923   0.229 -0.8815  0.2445  0.4503
 3548TIP3    H210609   0.767   2.002   0.357  0.7309  0.2613  0.2877
 3549TIP3   OH210610   3.821   4.197   3.772 -0.1737 -0.2119  0.5434
 3549TIP3    H110611   3.890   4.142   3.807  0.8287  0.7026  0.0602
 3549TIP3    H210612   3.833   4.194   3.677 -1.9940 -1.5552  0.3145
 3550TIP3   OH210613   0.286   0.240   2.489  0.0876  0.0998  0.1877
 3550TIP3    H110614   0.283   0.160   2.436 -0.6053 -0.8225  1.5502
 3550TIP3    H210615   0.354   0.294   2.448 -0.1078 -0.7592 -1.3428
 3551TIP3   OH210616   1.173   5.669   4.036 -0.2847  0.3971 -0.4002
 3551TIP3    H110617   1.128   5.592   4.069  0.1392 -0.2355 -1.2743
 3551TIP3    H210618   1.149   5.674   3.944  3.4216 -1.5454 -1.6937
 3552TIP3   OH210619   6.370   5.400   2.092  0.0141  0.2222 -0.3340
 3552TIP3    H110620   6.285   5.423   2.053 -0.7051 -0.6873  0.6390
 3552TIP3    H210621   6.406   5.334   2.034 -1.4294 -1.7438  0.8828
 3553TIP3   OH210622   4.772   4.355   3.344  0.0150  0.6159 -0.0606
 3553TIP3    H110623   4.729   4.345   3.259 -2.4498  0.3401  1.1392
 3553TIP3    H210624   4.848   4.410   3.325 -1.3679  1.9835 -2.2051
 3554TIP3   OH210625   5.870   0.876   3.537 -0.2025  0.1069  0.5160
 3554TIP3    H110626   5.866   0.806   3.602 -1.8875  2.5461  3.3005
 3554TIP3    H210627   5.940   0.849   3.477 -0.3233 -3.5485  1.7818
 3555TIP3   OH210628   6.795   0.262   3.086 -0.2318  0.2292 -0.1154
 3555TIP3    H110629   6.829   0.176   3.110 -2.5223 -0.8886 -0.6542
 3555TIP3    H210630   6.840   0.283   3.004 -0.9777 -1.3416 -0.9771
 3556TIP3   OH210631   5.205   3.180   0.350  0.3229  0.1846 -0.8660
 3556TIP3    H110632   5.221   3.089   0.325 -0.2087 -0.7515  1.7755
 3556TIP3    H210633   5.279   3.202   0.408 -0.8028  0.5249  0.5006
 3557TIP3   OH210634   2.912   4.599   4.008 -0.7555  0.4437 -0.0262
 3557TIP3    H110635   2.947   4.537   4.072  0.9573  2.3233  0.9712
 3557TIP3    H210636   2.922   4.685   4.049 -2.1908  1.4916 -1.7148
 3558TIP3   OH210637   4.272   5.166   3.393  0.1176  0.4518  0.0073
 3558TIP3    H110638   4.352   5.131   3.356  0.2312  2.1734 -1.5354
 3558TIP3    H210639   4.285   5.261   3.395 -1.8093  0.7760 -0.1645
 3559TIP3   OH210640   5.455   3.722   0.957  0.2949  0.0881  0.5218
 3559TIP3    H110641   5.399   3.791   0.990 -1.2375 -0.4956 -0.7195
 3559TIP3    H210642   5.404   3.642   0.967  1.7276 -0.7829  1.2263
 3560TIP3   OH210643   2.167   3.390   4.029 -0.1097 -1.0282  0.3792
 3560TIP3    H110644   2.168   3.342   4.111  1.7270 -1.1886  0.3012
 3560TIP3    H210645   2.228   3.462   4.042 -0.1311 -0.7942 -0.6989
 3561TIP3   OH210646   4.100   2.355   2.815  0.0760 -0.4076 -0.0963
 3561TIP3    H110647   4.191   2.373   2.792 -0.1221  1.1322  0.1569
 3561TIP3    H210648   4.100   2.353   2.911 -0.5151  2.2099  0.0462
 3562TIP3   OH210649   2.592   0.405   4.428 -0.0664 -0.5211 -0.0911
 3562TIP3    H110650   2.544   0.474   4.381 -2.8325 -0.4308  2.5182
 3562TIP3    H210651   2.611   0.444   4.513  1.2826 -1.9165  0.2837
 3563TIP3   OH210652   2.469   5.962   2.437  0.4668  0.1367 -0.2740
 3563TIP3    H110653   2.539   5.901   2.414  0.7164  0.1504  0.4221
 3563TIP3    H210654   2.497   6.045   2.398 -0.4145 -0.4058 -2.1882
 3564TIP3   OH210655   0.239   3.266   4.844  1.0485 -0.3681 -0.2120
 3564TIP3    H110656   0.224   3.299   4.933  0.9882  0.9079 -0.6634
 3564TIP3    H210657   0.216   3.173   4.848  4.9009 -1.4424  2.0887
 3565TIP3   OH210658   2.200   4.058   5.069 -0.7102  0.0523  0.3912
 3565TIP3    H110659   2.292   4.081   5.064 -1.0255  1.3401 -0.0488
 3565TIP3    H210660   2.176   4.034   4.979 -0.4743 -1.7966  0.7777
 3566TIP3   OH210661   5.709   6.364   1.063  0.1374 -0.1104 -0.5110
 3566TIP3    H110662   5.749   6.421   0.998  1.4885 -0.5479 -0.0979
 3566TIP3    H210663   5.770   6.366   1.137 -0.9493 -0.2723  0.4264
 3567TIP3   OH210664   5.891   2.831   4.395  0.2094 -0.4475 -0.1071
 3567TIP3    H110665   5.853   2.758   4.445  1.1029  0.3487  1.8406
 3567TIP3    H210666   5.982   2.836   4.426 -0.0291  1.9358  0.4003
 3568TIP3   OH210667   1.865   2.724   3.542  0.1033 -0.5412 -0.5239
 3568TIP3    H110668   1.902   2.794   3.597 -1.2340 -0.8451  0.8199
 3568TIP3    H210669   1.792   2.690   3.593 -0.4507 -1.6518 -2.0070
 3569TIP3   OH210670   3.204   6.294   3.294 -0.3526 -0.3682 -0.7387
 3569TIP3    H110671   3.293   6.270   3.320 -0.4188 -0.5876 -0.7153
 3569TIP3    H210672   3.206   6.390   3.289 -0.2816 -0.3384 -0.1453
 3570TIP3   OH210673   2.150   6.808   2.151  0.5759  0.0471 -0.4380
 3570TIP3    H110674   2.220   6.782   2.211 -0.8114 -1.3294  0.6971
 3570TIP3    H210675   2.154   6.743   2.081  2.3210  1.7719 -2.0280
 3571TIP3   OH210676   0.834   2.701   5.444 -0.1784 -0.0948  0.5106
 3571TIP3    H110677   0.824   2.748   5.527  0.4827  1.0002 -0.0041
 3571TIP3    H210678   0.906   2.641   5.458 -1.3382 -1.3509  1.3297
 3572TIP3   OH210679   4.131   1.815   0.211 -0.0882 -0.3425  0.0475
 3572TIP3    H110680   4.196   1.811   0.141 -0.6461 -0.8703 -0.4549
 3572TIP3    H210681   4.181   1.801   0.291  0.9476  2.6208  0.0207
 3573TIP3   OH210682   5.546   3.628   0.709  0.0432  0.4258 -0.4970
 3573TIP3    H110683   5.546   3.695   0.777  0.7038  0.1988 -0.2655
 3573TIP3    H210684   5.626   3.644   0.659  1.4219 -1.5115  0.9271
 3574TIP3   OH210685   5.595   1.714   5.623 -0.3913 -0.2872  0.0594
 3574TIP3    H110686   5.591   1.632   5.673 -1.1113 -0.6531 -0.5840
 3574TIP3    H210687   5.503   1.736   5.606 -0.2339  0.9094  0.6191
 3575TIP3   OH210688   7.233   1.698   0.657  0.1089 -0.0146 -0.3165
 3575TIP3    H110689   7.141   1.675   0.646 -0.5139  2.0065  0.1232
 3575TIP3    H210690   7.252   1.757   0.584  1.1025 -0.4870 -0.4621
 3576TIP3   OH210691   3.282   1.525   4.780 -0.8051  0.2327  0.8972
 3576TIP3    H110692   3.347   1.586   4.816  0.1390 -0.0984 -0.1747
 3576TIP3    H210693   3.289   1.447   4.835  1.2402 -0.6011 -0.4327
 3577TIP3   OH210694   1.977   6.280   2.355 -0.4661  0.1474 -0.4859
 3577TIP3    H110695   1.949   6.283   2.446 -0.2681 -0.0538 -0.4182
 3577TIP3    H210696   1.914   6.222   2.312  1.2757 -2.4557  0.1899
 3578TIP3   OH210697   3.081   4.318   1.931  0.0190 -0.2818 -0.0248
 3578TIP3    H110698   3.028   4.240   1.946  0.9838 -0.9786 -0.1694
 3578TIP3    H210699   3.017   4.389   1.923 -0.8201 -0.8036  1.5110
 3579TIP3   OH210700   4.225   6.283   3.061  0.3918  0.3338 -0.2419
 3579TIP3    H110701   4.304   6.266   3.112  0.6570  1.5254 -0.2193
 3579TIP3    H210702   4.159   6.225   3.099  0.7417  0.7586  1.0789
 3580TIP3   OH210703   6.727   5.656   3.306  0.3473  0.4481  0.1813
 3580TIP3    H110704   6.685   5.720   3.249  0.7530  1.6429  1.1749
 3580TIP3    H210705   6.775   5.599   3.246  0.9811  1.8242 -0.6680
 3581TIP3   OH210706   1.698   6.586   1.111 -0.1255 -0.1626 -0.0930
 3581TIP3    H110707   1.739   6.551   1.190 -2.9038 -2.7880  0.3519
 3581TIP3    H210708   1.705   6.516   1.046  0.4185  1.2284 -1.6271
 3582TIP3   OH210709   3.415   2.812   4.212  0.2388  0.2786  0.1858
 3582TIP3    H110710   3.506   2.796   4.239  0.2035 -0.8725 -0.3478
 3582TIP3    H210711   3.422   2.845   4.123  0.1105 -0.5620 -0.1477
 3583TIP3   OH210712   3.894   5.499   2.999 -0.8652 -0.0590  0.5359
 3583TIP3    H110713   3.804   5.523   3.018 -1.8608 -2.0839 -1.2290
 3583TIP3    H210714   3.912   5.425   3.058 -0.4101  0.2099  0.7433
 3584TIP3   OH210715   2.098   3.021   3.362  0.2814 -0.2575  0.6503
 3584TIP3    H110716   2.098   2.950   3.297 -2.8968  0.4078 -0.2716
 3584TIP3    H210717   2.050   2.985   3.437 -1.5763  0.8944  0.0748
 3585TIP3   OH210718   0.582   1.989   0.086  0.0430 -0.3106 -0.0282
 3585TIP3    H110719   0.541   1.980  -0.000 -0.8987  0.2606  0.3419
 3585TIP3    H210720   0.534   1.928   0.142  1.0677 -1.1492 -0.0262
 3586TIP3   OH210721   5.011   0.101   0.614  0.0993 -0.6574 -0.0762
 3586TIP3    H110722   4.981   0.051   0.690  0.8999  0.2004  0.8334
 3586TIP3    H210723   5.107   0.099   0.620  0.2538 -1.7333 -1.8561
 3587TIP3   OH210724   5.545   3.140   1.852 -0.1725  0.1827 -0.4439
 3587TIP3    H110725   5.528   3.107   1.940  1.0645 -1.0706 -0.6433
 3587TIP3    H210726   5.468   3.194   1.831 -2.3632 -2.5878 -0.1252
 3588TIP3   OH210727   5.246   3.929   0.503 -0.5678  0.0744 -0.6201
 3588TIP3    H110728   5.206   4.011   0.530 -1.4856 -0.5490 -0.0090
 3588TIP3    H210729   5.264   3.883   0.586 -1.9551 -1.1979 -0.9896
 3589TIP3   OH210730   1.851   0.581   1.784 -0.3438 -0.3186 -0.4647
 3589TIP3    H110731   1.868   0.504   1.839 -0.0503  0.1624  0.1287
 3589TIP3    H210732   1.938   0.608   1.754 -0.4044  0.0768 -0.2757
 3590TIP3   OH210733   3.264   0.904   4.537 -0.5381 -0.4566 -0.1374
 3590TIP3    H110734   3.230   0.920   4.449 -1.0918 -2.6333 -0.3835
 3590TIP3    H210735   3.336   0.842   4.523 -1.4149 -1.7970  1.0014
 3591TIP3   OH210736   0.073   4.794   0.182  0.1001 -0.3170  0.0032
 3591TIP3    H110737  -0.015   4.759   0.193  0.3146 -1.0780 -0.6296
 3591TIP3    H210738   0.120   4.726   0.134  0.2795  1.2271 -2.1074
 3592TIP3   OH210739   3.912   5.514   4.540 -0.5266  0.0037  0.2862
 3592TIP3    H110740   3.841   5.551   4.488 -1.5895 -2.0241  0.1788
 3592TIP3    H210741   3.868   5.467   4.611  0.5507 -2.7475 -0.7496
 3593TIP3   OH210742   1.686   1.838   4.002 -0.1344  0.4682  0.2910
 3593TIP3    H110743   1.608   1.891   3.987 -1.3442 -1.5481 -0.9188
 3593TIP3    H210744   1.758   1.892   3.970 -1.3109  1.3676 -0.9325
 3594TIP3   OH210745   0.946   1.480   0.912 -0.1325  0.8026  0.3716
 3594TIP3    H110746   1.014   1.505   0.974 -0.8286  0.4269  1.3179
 3594TIP3    H210747   0.866   1.478   0.964 -0.5756 -0.4885 -0.3085
 3595TIP3   OH210748   0.191   2.846   4.270  0.1409  0.6823  0.5532
 3595TIP3    H110749   0.244   2.766   4.273  1.0570  1.2579  0.0684
 3595TIP3    H210750   0.146   2.848   4.354 -0.5324 -0.7557  0.2714
 3596TIP3   OH210751   2.473   4.840   5.834 -0.0592 -0.1068  0.0230
 3596TIP3    H110752   2.396   4.793   5.867 -0.7009  0.1545 -1.0796
 3596TIP3    H210753   2.443   4.882   5.754  2.1127 -2.9321 -2.5385
 3597TIP3   OH210754   3.132   2.076   5.098 -0.4475  0.2237 -0.9288
 3597TIP3    H110755   3.206   2.085   5.038  0.4965 -1.4627 -0.0627
 3597TIP3    H210756   3.138   2.153   5.154  0.8599 -0.0507 -0.6604
 3598TIP3   OH210757   3.719   2.900   3.566  0.1152  0.0489  0.1131
 3598TIP3    H110758   3.663   2.847   3.623  0.5676 -1.2117 -0.5690
 3598TIP3    H210759   3.771   2.953   3.627  0.5035 -1.1798  0.8990
 3599TIP3   OH210760   4.778   6.597   5.010 -0.3194  0.0308  0.1909
 3599TIP3    H110761   4.736   6.518   5.043 -0.7910 -0.6364 -1.8530
 3599TIP3    H210762   4.860   6.566   4.971  0.6125  0.9002  1.3955
 3600TIP3   OH210763   0.048   2.989   2.043 -0.2898 -0.4038 -0.0302
 3600TIP3    H110764   0.021   2.900   2.069  0.7120 -0.3890  1.1646
 3600TIP3    H210765   0.133   2.978   2.002 -0.3936 -0.0498 -0.3447
 3601TIP3   OH210766   1.236   3.668   4.321  0.4971 -0.4335  0.2765
 3601TIP3    H110767   1.293   3.666   4.244  0.2123  0.8757  0.0074
 3601TIP3    H210768   1.193   3.583   4.322 -1.2957  0.3119 -2.4064
 3602TIP3   OH210769   1.697   6.281   3.459 -0.7255  0.4387 -0.0491
 3602TIP3    H110770   1.758   6.317   3.524 -1.1940  1.6769 -0.2731
 3602TIP3    H210771   1.610   6.293   3.497 -0.9585  0.5083 -0.5866
 3603TIP3   OH210772   3.376   2.068   1.528 -0.4356 -0.4977  0.4330
 3603TIP3    H110773   3.321   2.007   1.478 -0.4156 -0.5493  0.4745
 3603TIP3    H210774   3.364   2.044   1.619 -0.6157 -0.2833  0.4663
 3604TIP3   OH210775   3.759   1.107   1.944  0.2388  0.3310  0.3287
 3604TIP3    H110776   3.715   1.158   1.876 -0.9244  0.6961  1.3267
 3604TIP3    H210777   3.836   1.159   1.967  0.7919  0.0789 -0.8642
 3605TIP3   OH210778   6.814   4.264   3.342  0.1092  0.4318 -0.3396
 3605TIP3    H110779   6.880   4.322   3.305  0.1753  0.6491  0.1071
 3605TIP3    H210780   6.823   4.182   3.293  0.4549  0.5838 -0.5329
 3606TIP3   OH210781   5.410   2.593   5.129 -0.2533 -0.6119 -0.7117
 3606TIP3    H110782   5.476   2.662   5.137 -0.4867 -0.5489  1.1587
 3606TIP3    H210783   5.369   2.609   5.044 -2.1274  3.2879  0.7093
 3607TIP3   OH210784   6.250   3.611   3.732 -0.0769  0.2416  0.3930
 3607TIP3    H110785   6.183   3.652   3.676  1.3276  0.4452 -1.2241
 3607TIP3    H210786   6.265   3.525   3.692  0.0167 -0.1522  1.2563
 3608TIP3   OH210787   0.479   5.738   0.375  0.1929 -0.2040 -0.3878
 3608TIP3    H110788   0.496   5.660   0.428  0.0283 -0.8454 -1.2608
 3608TIP3    H210789   0.426   5.794   0.432 -1.7059 -1.7497 -0.5445
 3609TIP3   OH210790   0.103   3.261   1.844 -0.4236 -0.5485 -0.3791
 3609TIP3    H110791   0.072   3.274   1.933  1.2673 -0.1288  0.1834
 3609TIP3    H210792   0.061   3.179   1.816 -0.2980 -1.1624  1.1211
 3610TIP3   OH210793   3.562   5.249   0.679  0.3118  0.0149  0.3450
 3610TIP3    H110794   3.483   5.278   0.723 -1.7406 -2.9300 -1.0747
 3610TIP3    H210795   3.589   5.324   0.626  0.5121  2.2081  3.3381
 3611TIP3   OH210796   4.643   1.810   4.838  0.1665  0.2812  0.5284
 3611TIP3    H110797   4.558   1.854   4.834  0.4153  0.7712  0.5158
 3611TIP3    H210798   4.626   1.722   4.804 -0.1819  0.6167 -0.1811
 3612TIP3   OH210799   2.634   0.884   1.090 -0.3077  0.0108 -0.0225
 3612TIP3    H110800   2.708   0.922   1.043 -0.0288  2.3267  2.0768
 3612TIP3    H210801   2.563   0.947   1.078 -0.2254  0.6846  2.5231
 3613TIP3   OH210802   3.248   6.460   4.326 -0.1280  0.0794  0.0172
 3613TIP3    H110803   3.185   6.473   4.397 -1.9161 -0.8076 -1.3214
 3613TIP3    H210804   3.222   6.524   4.259 -1.4072 -2.0633 -1.6657
 3614TIP3   OH210805   6.287   6.527   3.103 -0.6460  0.6012 -0.2234
 3614TIP3    H110806   6.269   6.481   3.185  0.4352 -0.4330 -0.5332
 3614TIP3    H210807   6.357   6.589   3.126  0.8788 -0.8657 -0.6726
 3615TIP3   OH210808   6.685   2.314   5.371  0.2858 -0.0469 -0.0958
 3615TIP3    H110809   6.730   2.398   5.382  0.5307 -0.1414 -0.3682
 3615TIP3    H210810   6.628   2.327   5.296 -1.1393  0.4902  1.0189
 3616TIP3   OH210811   1.778   5.371   1.785 -0.5692 -0.4118 -0.2018
 3616TIP3    H110812   1.831   5.441   1.748  0.3384 -0.3015  1.2141
 3616TIP3    H210813   1.690   5.388   1.752  0.4330 -1.5284 -3.9069
 3617TIP3   OH210814   4.789   1.262  -0.020  0.0819  0.4216 -0.1277
 3617TIP3    H110815   4.718   1.322   0.000 -0.8090 -0.1861 -1.3753
 3617TIP3    H210816   4.765   1.181   0.024  0.8689  0.6896  0.8501
 3618TIP3   OH210817   4.961   3.713   5.808 -0.4177  0.2576  0.1363
 3618TIP3    H110818   5.045   3.715   5.762 -0.9477  0.4500 -0.8498
 3618TIP3    H210819   4.979   3.755   5.892  0.5285  0.0777  0.0378
 3619TIP3   OH210820   0.358   6.083   4.173 -0.5086 -0.9674 -0.2526
 3619TIP3    H110821   0.311   6.000   4.176 -0.9856 -0.6942 -0.1193
 3619TIP3    H210822   0.360   6.106   4.080  1.2110 -2.0105 -0.5356
 3620TIP3   OH210823   2.424   2.779   4.913  0.0203  0.3359  0.7930
 3620TIP3    H110824   2.489   2.718   4.948  0.2530  0.7165  1.0180
 3620TIP3    H210825   2.347   2.724   4.896  1.0824 -0.5629 -1.5385
 3621TIP3   OH210826   4.255   6.592   5.847  0.2237 -0.0171 -0.4825
 3621TIP3    H110827   4.162   6.591   5.825  0.2627  1.2439 -0.7829
 3621TIP3    H210828   4.298   6.633   5.771  0.9244  0.1629 -0.0041
 3622TIP3   OH210829   3.413   1.650   5.690  0.1574 -0.2853  0.5973
 3622TIP3    H110830   3.361   1.727   5.666 -3.1207 -2.1659  0.9591
 3622TIP3    H210831   3.402   1.590   5.617  0.8202 -1.2359  1.2614
 3623TIP3   OH210832   3.445   2.585   3.564  0.0161 -0.7623 -0.6697
 3623TIP3    H110833   3.360   2.628   3.564  0.8830  1.0469 -0.9999
 3623TIP3    H210834   3.448   2.539   3.480  0.3071  1.2488 -1.8280
 3624TIP3   OH210835   1.189   1.021   5.744  0.1672  0.1531  0.2506
 3624TIP3    H110836   1.096   1.044   5.755  0.0956  1.4064 -2.2377
 3624TIP3    H210837   1.226   1.032   5.831 -2.0805 -0.8240  1.4214
 3625TIP3   OH210838   3.300   2.510   1.302  0.4496 -0.1288 -0.1624
 3625TIP3    H110839   3.231   2.567   1.336 -1.6670 -3.0130  0.8239
 3625TIP3    H210840   3.268   2.483   1.216  0.2777 -1.4548  0.2866
 3626TIP3   OH210841   6.512   3.649   4.964 -0.1788  0.8195 -0.5423
 3626TIP3    H110842   6.604   3.649   4.936 -0.0041  0.2670 -0.0026
 3626TIP3    H210843   6.462   3.650   4.882  0.2976  1.7713 -0.8374
 3627TIP3   OH210844   7.128  -0.002   4.341 -0.3163 -0.1503  0.5075
 3627TIP3    H110845   7.158   0.084   4.312  0.2831 -1.1119 -2.0029
 3627TIP3    H210846   7.141  -0.002   4.436 -1.9088  3.0955  0.8549
 3628TIP3   OH210847   5.851   5.823   4.725 -0.0969  0.4036 -0.5505
 3628TIP3    H110848   5.770   5.868   4.701 -0.5119  0.2940  0.5739
 3628TIP3    H210849   5.838   5.797   4.816  1.1152  0.1822 -0.4197
 3629TIP3   OH210850   3.809   1.571   2.364 -0.9594 -0.5179  0.2910
 3629TIP3    H110851   3.735   1.510   2.361 -0.2086 -1.4364 -1.4432
 3629TIP3    H210852   3.776   1.652   2.325 -0.4690 -1.7459 -3.0301
 3630TIP3   OH210853   2.412   5.770   3.222  0.1121 -0.2611  0.3564
 3630TIP3    H110854   2.400   5.731   3.308 -0.0191  0.6970  0.7830
 3630TIP3    H210855   2.329   5.755   3.177  0.2508 -0.9413  0.3131
 3631TIP3   OH210856   5.258   6.465   5.123 -0.0037  0.7295 -0.0080
 3631TIP3    H110857   5.268   6.442   5.031  0.4075  0.0759  0.1869
 3631TIP3    H210858   5.313   6.543   5.135 -0.7526  1.3438 -0.4997
 3632TIP3   OH210859   4.316   0.218   5.588 -0.0923 -0.0117 -0.3801
 3632TIP3    H110860   4.392   0.191   5.536 -0.5536 -0.3231 -0.8964
 3632TIP3    H210861   4.318   0.314   5.584 -0.2007 -0.0382 -1.0787
 3633TIP3   OH210862   4.726   1.498   5.434  0.0639 -0.4150 -0.2795
 3633TIP3    H110863   4.660   1.510   5.502 -0.1283  0.7242 -0.6466
 3633TIP3    H210864   4.806   1.536   5.471  0.6862 -2.2413  0.3681
 3634TIP3   OH210865   0.909   6.507   1.955 -0.0757  0.2113  0.1969
 3634TIP3    H110866   0.877   6.553   2.033  0.4003 -0.7740  0.9858
 3634TIP3    H210867   0.855   6.429   1.949 -0.9673  0.8781 -1.2198
 3635TIP3   OH210868   6.057   4.672   4.381  0.2019 -0.0630  0.0798
 3635TIP3    H110869   6.090   4.627   4.459 -0.7404  0.1507  0.6164
 3635TIP3    H210870   5.976   4.713   4.409  0.1419  0.5075 -0.8709
 3636TIP3   OH210871   6.698   2.193   0.586  0.5017 -0.1213 -0.1209
 3636TIP3    H110872   6.774   2.211   0.531  0.6682  2.8311  0.8993
 3636TIP3    H210873   6.627   2.243   0.546  0.1542  0.4920  1.2081
 3637TIP3   OH210874   4.504   5.070   4.082  0.4267  0.2013 -0.5498
 3637TIP3    H110875   4.498   4.990   4.028  0.7154  1.7190 -2.9824
 3637TIP3    H210876   4.598   5.087   4.090  0.3895  0.0036  0.4958
 3638TIP3   OH210877   7.152   0.658   4.116  0.1347  0.2335 -0.0875
 3638TIP3    H110878   7.093   0.730   4.092 -0.5699 -0.4406 -0.4224
 3638TIP3    H210879   7.233   0.701   4.143 -0.1659  1.1399 -0.5927
 3639TIP3   OH210880   6.654   4.826   5.575  0.3156 -0.2695  0.1305
 3639TIP3    H110881   6.617   4.800   5.659 -0.8901 -2.5299 -0.9866
 3639TIP3    H210882   6.747   4.840   5.592  0.5019 -2.6073  1.5412
 3640TIP3   OH210883   2.971   5.286   0.792  0.0649 -0.4883 -0.5128
 3640TIP3    H110884   3.025   5.333   0.728 -0.6374 -0.8759 -1.4176
 3640TIP3    H210885   2.889   5.268   0.746 -0.2907 -1.1743  0.3516
 3641TIP3   OH210886   4.568   4.204   4.098  0.5475  0.4509  0.2901
 3641TIP3    H110887   4.501   4.270   4.118  1.9601  1.2482  2.7202
 3641TIP3    H210888   4.634   4.216   4.165  2.8610 -0.7430 -1.6319
 3642TIP3   OH210889   3.735   5.514   1.237  0.1340 -0.4910  0.1916
 3642TIP3    H110890   3.666   5.535   1.173 -1.8644 -1.8727  1.7481
 3642TIP3    H210891   3.809   5.487   1.184  0.2543  2.8538 -1.6416
 3643TIP3   OH210892   5.239   2.917   0.747  0.3690  0.3212 -0.1595
 3643TIP3    H110893   5.290   2.857   0.802 -0.5700 -1.5102 -1.1911
 3643TIP3    H210894   5.167   2.864   0.714 -0.6816  2.1236 -0.9100
 3644TIP3   OH210895   0.179   2.021   2.320 -0.2794  0.0064  0.4143
 3644TIP3    H110896   0.140   2.095   2.366  0.2007 -0.1065  1.0126
 3644TIP3    H210897   0.172   1.948   2.382 -0.4587 -0.3795 -0.0472
 3645TIP3   OH210898   1.080   5.413   1.613  0.0271 -0.1981  0.3230
 3645TIP3    H110899   1.027   5.359   1.671 -0.6818 -0.2354 -0.3539
 3645TIP3    H210900   1.044   5.501   1.623  0.8482  0.0751  1.0312
 3646TIP3   OH210901   6.880   6.635   5.363 -0.7039  0.1864 -0.2750
 3646TIP3    H110902   6.796   6.621   5.406 -0.5269  0.2177  0.0877
 3646TIP3    H210903   6.921   6.549   5.363 -2.3546 -0.7742 -4.0151
 3647TIP3   OH210904   5.889   6.478   2.208 -0.0263 -0.4314 -0.1209
 3647TIP3    H110905   5.850   6.558   2.244 -0.5532 -0.8873  0.3477
 3647TIP3    H210906   5.842   6.462   2.127  0.2893 -0.0987 -0.3703
 3648TIP3   OH210907   6.383   2.165   2.943  0.1253 -0.0074 -0.3739
 3648TIP3    H110908   6.460   2.213   2.972  1.0844 -1.3798 -0.5441
 3648TIP3    H210909   6.311   2.227   2.951  1.0463  0.9321  0.9325
 3649TIP3   OH210910   2.724   3.832   0.831 -0.4286 -0.3969  0.5833
 3649TIP3    H110911   2.790   3.816   0.763  1.2097 -0.2973  2.0934
 3649TIP3    H210912   2.657   3.765   0.816 -0.7354  0.3318 -1.8185
 3650TIP3   OH210913   1.281   5.260   2.073  0.1922  0.3628  0.3057
 3650TIP3    H110914   1.360   5.211   2.051  0.4383  0.3001  1.2624
 3650TIP3    H210915   1.209   5.204   2.044  0.4733 -0.4583  1.1371
 3651TIP3   OH210916   0.027   2.208   5.316 -0.1127  0.1382 -0.2096
 3651TIP3    H110917  -0.042   2.206   5.250 -1.7012 -0.5089  1.4138
 3651TIP3    H210918   0.039   2.301   5.336 -0.8859  0.2218 -0.1199
 3652TIP3   OH210919   6.689   0.671   0.186 -0.4173  0.0163  0.0124
 3652TIP3    H110920   6.726   0.630   0.108 -2.7233 -4.0150  0.7267
 3652TIP3    H210921   6.597   0.687   0.163 -0.6501  0.6158  1.2726
 3653TIP3   OH210922   3.955   0.603   5.069  0.4606 -0.4430 -0.0134
 3653TIP3    H110923   3.886   0.563   5.016 -0.7582  1.9855 -0.3808
 3653TIP3    H210924   4.024   0.626   5.006  0.3658 -0.3332 -0.0770
 3654TIP3   OH210925   6.407   6.529   2.318 -0.6168 -0.0853  0.2142
 3654TIP3    H110926   6.376   6.564   2.234 -1.6416 -0.6467  0.3499
 3654TIP3    H210927   6.409   6.435   2.306  1.2320 -0.0841  0.1661
 3655TIP3   OH210928   1.126   4.913   3.880  0.0592  0.5431 -0.2414
 3655TIP3    H110929   1.032   4.899   3.874 -0.6013  3.3383  1.7852
 3655TIP3    H210930   1.152   4.939   3.792 -0.9159 -0.6598 -0.9276
 3656TIP3   OH210931   2.188   3.010   3.966  0.3896  0.4459 -0.1097
 3656TIP3    H110932   2.185   2.961   4.048 -0.7132 -1.0740 -1.0162
 3656TIP3    H210933   2.096   3.026   3.944  0.4719 -1.5690 -2.3864
 3657TIP3   OH210934   1.453   6.601   5.421  0.2789  0.1559 -0.4149
 3657TIP3    H110935   1.538   6.624   5.459  0.3632  0.4109 -0.7468
 3657TIP3    H210936   1.424   6.524   5.470 -1.1310  2.3142  2.4337
 3658TIP3   OH210937   0.165   1.762   4.658  0.0658 -0.0075 -0.2325
 3658TIP3    H110938   0.157   1.731   4.749 -0.1625  1.0822  0.1348
 3658TIP3    H210939   0.256   1.744   4.636 -0.2583 -1.6783 -0.3345
 3659TIP3   OH210940   1.261   5.295   5.388 -0.1374  0.8837  0.1997
 3659TIP3    H110941   1.206   5.220   5.411  0.7300  0.6194  1.5775
 3659TIP3    H210942   1.201   5.369   5.383 -0.6959  0.5452  1.3293
 3660TIP3   OH210943   2.638   1.771   5.598  0.9143 -0.4179 -0.7693
 3660TIP3    H110944   2.639   1.678   5.577 -0.2887 -0.0586 -2.6606
 3660TIP3    H210945   2.605   1.814   5.519 -0.9560  1.4000  0.8625
 3661TIP3   OH210946   3.225   5.831   4.657  1.0155 -0.1746  0.8015
 3661TIP3    H110947   3.232   5.748   4.704 -0.2339 -3.1265 -3.6563
 3661TIP3    H210948   3.314   5.866   4.656  2.3406 -3.3011 -0.0808
 3662TIP3   OH210949   5.065   3.273   1.614 -0.2555 -0.4139  0.1751
 3662TIP3    H110950   5.037   3.200   1.670  3.0232 -0.8801  1.4618
 3662TIP3    H210951   5.068   3.237   1.526 -0.5175 -1.2440  0.4994
 3663TIP3   OH210952   5.410   4.908   5.740 -0.2042 -0.1571 -0.0556
 3663TIP3    H110953   5.483   4.847   5.724  0.2867  0.4223 -0.0564
 3663TIP3    H210954   5.346   4.886   5.672 -0.0504 -0.6913 -0.0386
 3664TIP3   OH210955   4.153   1.586   2.232  0.4228  0.2380 -0.2058
 3664TIP3    H110956   4.115   1.620   2.313  0.7261 -0.4525  0.2322
 3664TIP3    H210957   4.237   1.632   2.224 -0.3098  1.4809 -0.9741
 3665TIP3   OH210958   5.496   1.357   4.810  0.4354 -0.2600  0.1303
 3665TIP3    H110959   5.417   1.323   4.852  1.0861 -2.2037 -0.1113
 3665TIP3    H210960   5.568   1.311   4.852  1.3131  0.0907 -0.9333
 3666TIP3   OH210961   2.282   0.385   3.371 -0.1326 -0.3575  0.4603
 3666TIP3    H110962   2.327   0.335   3.440  0.9147 -0.6958 -0.4339
 3666TIP3    H210963   2.352   0.434   3.328 -0.9524  0.8332  0.4267
 3667TIP3   OH210964   7.064   4.085   0.801  0.1679 -0.4725 -0.5081
 3667TIP3    H110965   7.076   4.037   0.719 -1.0619  2.4808 -2.5906
 3667TIP3    H210966   6.969   4.098   0.806  0.4891  2.7556 -0.8113
 3668TIP3   OH210967   4.581   3.976   1.701 -0.0180 -0.2300 -0.6808
 3668TIP3    H110968   4.497   4.003   1.739 -0.5257 -0.8207 -1.3659
 3668TIP3    H210969   4.620   3.920   1.769  0.4699  1.1385  0.2166
 3669TIP3   OH210970   3.827   0.976   3.017 -0.2137 -0.5993 -0.1000
 3669TIP3    H110971   3.826   0.983   3.112  0.9322 -2.0390  0.0581
 3669TIP3    H210972   3.780   0.894   2.999 -0.6764 -0.1874 -0.7909
 3670TIP3   OH210973   4.387   6.282   5.323 -0.2158  0.8406 -0.2002
 3670TIP3    H110974   4.402   6.347   5.391 -0.9136  0.0474  0.7374
 3670TIP3    H210975   4.293   6.266   5.326 -0.5269  1.8937 -2.4044
 3671TIP3   OH210976   6.141   1.416   2.658  0.4231 -0.3351  0.3023
 3671TIP3    H110977   6.156   1.486   2.594 -3.6233 -0.8338 -1.5373
 3671TIP3    H210978   6.199   1.345   2.630  0.3706  0.2710 -1.4917
 3672TIP3   OH210979   6.801   6.424   4.916  0.2454  0.5882  0.5063
 3672TIP3    H110980   6.848   6.389   4.992 -1.3294 -1.0480  0.8068
 3672TIP3    H210981   6.845   6.385   4.841  0.1848  0.1055  0.7154
 3673TIP3   OH210982   2.265   1.047   1.982 -0.6032 -0.2173  0.3173
 3673TIP3    H110983   2.310   1.115   1.931 -1.3857 -0.9335 -1.4001
 3673TIP3    H210984   2.312   0.967   1.962 -2.1508 -0.8650 -1.0075
 3674TIP3   OH210985   3.388   4.071   4.425 -0.3215  0.0357 -0.8729
 3674TIP3    H110986   3.425   4.048   4.340 -0.3422 -0.3683 -0.7748
 3674TIP3    H210987   3.463   4.097   4.478 -0.4085  1.2842 -1.3128
 3675TIP3   OH210988   5.427   5.905   4.976 -0.5397 -0.3499  0.2092
 3675TIP3    H110989   5.355   5.956   4.938 -0.5676  1.2418  2.1909
 3675TIP3    H210990   5.386   5.857   5.048  0.3047  0.4605  1.2641
 3676TIP3   OH210991   5.172   6.004   4.840  0.2972 -0.4400  0.0192
 3676TIP3    H110992   5.109   5.949   4.792 -0.1274 -0.9846  1.1678
 3676TIP3    H210993   5.118   6.058   4.898  0.8826 -1.1392  1.2561
 3677TIP3   OH210994   0.324   5.140   1.959  0.1570  0.1231 -0.0503
 3677TIP3    H110995   0.320   5.115   2.051  0.5556 -0.6430 -0.2240
 3677TIP3    H210996   0.418   5.141   1.939  0.1643  1.9166 -0.0357
 3678TIP3   OH210997   0.184   4.565   0.092 -0.3729 -0.2489  0.3865
 3678TIP3    H110998   0.119   4.494   0.095 -1.2494  0.5295  0.2306
 3678TIP3    H210999   0.258   4.527   0.045 -0.8034 -1.0825  0.3536
 3679TIP3   OH211000   1.349   5.732   1.654  0.7097  0.2498  0.1232
 3679TIP3    H111001   1.315   5.810   1.698  1.2038  0.5732 -0.0598
 3679TIP3    H211002   1.395   5.683   1.722  2.3856  1.2708 -0.2168
 3680TIP3   OH211003   3.432   5.587   2.391 -0.3421 -0.0147  0.1044
 3680TIP3    H111004   3.391   5.672   2.401 -0.9338  0.1848 -2.9680
 3680TIP3    H211005   3.517   5.596   2.433  0.5100  2.8581 -1.9398
 3681TIP3   OH211006   1.248   0.145   2.425 -0.3893  0.2392 -0.0845
 3681TIP3    H111007   1.291   0.064   2.454 -1.9771 -1.1394 -1.3487
 3681TIP3    H211008   1.259   0.145   2.330  0.8524  2.3291  0.0072
 3682TIP3   OH211009   2.793   5.410   2.346 -0.4916  0.4622 -0.0465
 3682TIP3    H111010   2.732   5.464   2.395 -2.4504 -2.4683  0.9431
 3682TIP3    H211011   2.877   5.422   2.391 -0.8539  2.4940  0.1997
 3683TIP3   OH211012   7.091   0.662   4.664  0.1627 -0.1590 -0.5707
 3683TIP3    H111013   7.182   0.675   4.689 -0.0073 -0.3257  0.1574
 3683TIP3    H211014   7.043   0.733   4.706 -0.1904 -0.7063 -0.0354
 3684TIP3   OH211015   2.109   0.552   3.507  0.8641  0.8892  0.3774
 3684TIP3    H111016   2.115   0.529   3.599  0.9801  0.7787  0.3416
 3684TIP3    H211017   2.148   0.479   3.460  0.8673  0.9747  0.2431
 3685TIP3   OH211018   5.219   3.022   5.047 -0.3649 -0.0108 -0.2698
 3685TIP3    H111019   5.217   2.960   5.120  0.3702  0.8857  0.5548
 3685TIP3    H211020   5.277   3.092   5.078 -0.0711  0.4089 -1.7135
 3686TIP3   OH211021   2.525   1.593   0.801  0.7696  0.5597  0.2721
 3686TIP3    H111022   2.491   1.567   0.716 -1.0792  1.2344  0.7583
 3686TIP3    H211023   2.610   1.550   0.807 -0.8795 -3.2009 -0.0775
 3687TIP3   OH211024   2.713   0.294   1.158 -0.1166 -0.0177  0.5143
 3687TIP3    H111025   2.703   0.200   1.148  1.0609 -0.0908 -0.0948
 3687TIP3    H211026   2.650   0.332   1.097 -0.8380 -0.3886  1.0082
 3688TIP3   OH211027   0.595   4.520   0.048 -0.2660  0.0916 -0.3511
 3688TIP3    H111028   0.504   4.503   0.024 -0.5099  1.3451 -0.3438
 3688TIP3    H211029   0.622   4.441   0.095 -1.6006  0.0491  0.3768
 3689TIP3   OH211030   2.717   2.854   3.322  0.0202  0.3288  0.4237
 3689TIP3    H111031   2.626   2.837   3.299  0.5580 -0.8712 -0.9865
 3689TIP3    H211032   2.732   2.944   3.294 -0.9903  0.9221  1.6639
 3690TIP3   OH211033   3.238   4.528   2.782  0.3382 -0.0029  0.7722
 3690TIP3    H111034   3.176   4.565   2.845  0.9960 -0.5353  1.7576
 3690TIP3    H211035   3.254   4.599   2.719 -0.6795  0.3846  0.9268
 3691TIP3   OH211036   4.213   1.920   5.062 -0.9959 -0.1257  0.0289
 3691TIP3    H111037   4.168   1.898   5.144 -1.8018 -0.1572 -0.4117
 3691TIP3    H211038   4.237   1.835   5.025  1.2437 -0.0855  1.2173
 3692TIP3   OH211039   2.234   4.160   2.502 -0.1370  0.7523  0.5535
 3692TIP3    H111040   2.306   4.199   2.453  1.8946 -2.4132  0.7138
 3692TIP3    H211041   2.230   4.211   2.583  0.1033  2.6211 -0.5480
 3693TIP3   OH211042   2.036   3.341   3.136 -0.7464 -0.0749 -0.6366
 3693TIP3    H111043   2.023   3.435   3.140  0.2351  0.0852 -1.0407
 3693TIP3    H211044   1.947   3.304   3.144 -1.1740  0.8775 -0.8767
 3694TIP3   OH211045   0.657   1.696   0.362  0.6274 -0.2452 -0.4755
 3694TIP3    H111046   0.718   1.769   0.368  0.7373 -0.3375 -0.4619
 3694TIP3    H211047   0.571   1.737   0.359  0.6800 -0.1206 -0.3095
 3695TIP3   OH211048   0.102   5.287   1.937 -0.6440 -0.4622  0.0250
 3695TIP3    H111049   0.069   5.213   1.987  1.5830 -1.0107  0.8008
 3695TIP3    H211050   0.197   5.280   1.943 -0.3448  1.6111 -1.1637
 3696TIP3   OH211051   6.119   5.828   5.037 -0.5735  0.2490  0.0276
 3696TIP3    H111052   6.147   5.895   5.100 -2.0178 -0.1943  1.2256
 3696TIP3    H211053   6.145   5.862   4.952 -0.4287  1.8872  0.6869
 3697TIP3   OH211054   0.911   6.631   0.288 -0.1565 -0.2468  0.0428
 3697TIP3    H111055   0.924   6.685   0.210  1.1544  1.5770  1.4586
 3697TIP3    H211056   0.844   6.676   0.339  2.2759  1.2535  2.1481
 3698TIP3   OH211057   0.236   1.555   2.073 -0.0554  0.3130  0.2078
 3698TIP3    H111058   0.190   1.633   2.106 -0.7716  0.1578 -0.3963
 3698TIP3    H211059   0.328   1.571   2.095 -0.5176  0.0825  2.5185
 3699TIP3   OH211060   3.817   3.313   3.644  0.7954  0.0214 -0.2767
 3699TIP3    H111061   3.787   3.360   3.721  2.6256  0.4698  0.1918
 3699TIP3    H211062   3.742   3.315   3.584 -0.4711  0.1183  1.2555
 3700TIP3   OH211063   4.836   6.193   0.857  0.2605 -0.0589  0.2190
 3700TIP3    H111064   4.836   6.248   0.779  0.5744 -0.0084  0.2530
 3700TIP3    H211065   4.803   6.108   0.827 -1.2473  0.4449  0.3825
 3701TIP3   OH211066   3.716   2.695   1.834 -0.2044 -0.0175 -0.0397
 3701TIP3    H111067   3.742   2.631   1.900  1.7827  0.8837  0.1368
 3701TIP3    H211068   3.731   2.650   1.750 -2.8748 -1.2153  0.0203
 3702TIP3   OH211069   0.791   3.794   5.206  0.1693  0.7398  0.9049
 3702TIP3    H111070   0.777   3.888   5.195  0.9540  0.8407  0.7121
 3702TIP3    H211071   0.726   3.767   5.270 -0.7602  1.2150  0.1813
 3703TIP3   OH211072   1.560   1.676   3.753  0.2579  0.1322  0.3294
 3703TIP3    H111073   1.559   1.595   3.703  1.0198 -0.5309  1.3360
 3703TIP3    H211074   1.568   1.745   3.688 -1.3126 -0.5230 -0.6043
 3704TIP3   OH211075   5.209   5.570   1.041 -0.7786  0.6473 -0.4355
 3704TIP3    H111076   5.121   5.563   1.004 -0.1186  1.8283 -2.3702
 3704TIP3    H211077   5.244   5.651   1.004  0.9070  0.5390  0.8019
 3705TIP3   OH211078   1.435   4.066   0.970  0.5501 -0.0673 -0.3264
 3705TIP3    H111079   1.385   3.985   0.973 -0.4884  0.4508 -1.8970
 3705TIP3    H211080   1.525   4.039   0.953  1.1436 -1.0760  3.5306
 3706TIP3   OH211081   5.553   1.055   1.998  0.0763  0.5361 -0.0737
 3706TIP3    H111082   5.646   1.073   1.986  0.1948 -0.4369 -0.7594
 3706TIP3    H211083   5.548   0.960   2.012 -0.7825  0.6224  0.3030
 3707TIP3   OH211084   1.435   3.013   0.791 -0.6281  0.3474  0.0788
 3707TIP3    H111085   1.493   3.064   0.734 -0.3345  2.0827  1.7953
 3707TIP3    H211086   1.461   2.922   0.777 -0.4819  0.6940 -2.3892
 3708TIP3   OH211087   0.521   5.067   4.574 -0.6353  0.1283  0.3433
 3708TIP3    H111088   0.439   5.063   4.623 -0.1589  1.3850  1.3097
 3708TIP3    H211089   0.573   4.994   4.609 -1.2484 -0.5680 -0.1559
 3709TIP3   OH211090   2.378   1.298   3.181 -0.3535 -0.2326 -0.4379
 3709TIP3    H111091   2.394   1.206   3.202 -0.0386 -0.1163 -0.1622
 3709TIP3    H211092   2.456   1.326   3.133 -0.6336 -0.2252 -0.8857
 3710TIP3   OH211093   5.615   1.975   3.538  0.1364 -0.0717  0.4414
 3710TIP3    H111094   5.588   2.027   3.462  1.5181 -2.4834 -1.8830
 3710TIP3    H211095   5.710   1.973   3.533  0.2467 -0.4786  2.1383
 3711TIP3   OH211096   4.234   6.226   3.773  0.2643  0.2444  0.6467
 3711TIP3    H111097   4.198   6.314   3.783 -0.4311  0.1283 -0.6416
 3711TIP3    H211098   4.236   6.191   3.862 -1.1922  0.8926  0.9664
 3712TIP3   OH211099   5.880   4.380   0.025 -0.2947 -0.1742  0.0848
 3712TIP3    H111100   5.917   4.309  -0.029 -0.6716  0.2686 -0.7765
 3712TIP3    H211101   5.814   4.337   0.079  0.8399 -0.8219  1.0164
 3713TIP3   OH211102   4.311   0.818   2.279 -0.1456 -0.1745 -0.0565
 3713TIP3    H111103   4.247   0.810   2.208  0.4410  0.1491 -0.6295
 3713TIP3    H211104   4.267   0.870   2.346 -0.1500  0.8708 -0.8547
 3714TIP3   OH211105   0.776   5.951   5.436  0.0573  0.1687  0.0431
 3714TIP3    H111106   0.808   5.983   5.352 -0.7529  0.3928 -0.1922
 3714TIP3    H211107   0.762   6.030   5.488  1.6020 -0.0179  0.8042
 3715TIP3   OH211108   2.620   5.651   4.948 -0.2418 -0.5424 -0.3257
 3715TIP3    H111109   2.693   5.595   4.920  0.3169 -0.6718  1.3199
 3715TIP3    H211110   2.542   5.606   4.914  0.3446 -1.0244 -1.0929
 3716TIP3   OH211111   4.478   2.615   0.692 -0.2039 -0.0629 -0.1736
 3716TIP3    H111112   4.509   2.624   0.782 -0.1975  2.0301 -0.3292
 3716TIP3    H211113   4.387   2.587   0.701  0.3615 -1.8333  0.3973
 3717TIP3   OH211114   3.045   2.057   3.514  0.1019 -0.0468 -0.3915
 3717TIP3    H111115   3.029   1.969   3.550 -1.2618 -0.0601 -0.9615
 3717TIP3    H211116   2.957   2.095   3.504  0.6624  1.3184 -0.3203
 3718TIP3   OH211117   2.216   5.977   2.132  0.1129 -0.0866  0.0284
 3718TIP3    H111118   2.304   5.966   2.096  0.1283  1.5034 -0.5002
 3718TIP3    H211119   2.196   6.069   2.118 -3.4719 -1.1424 -4.1414
 3719TIP3   OH211120   0.461   4.295   3.224  0.4015  0.0207  0.2440
 3719TIP3    H111121   0.419   4.215   3.194 -1.6926  1.2935 -0.4136
 3719TIP3    H211122   0.504   4.330   3.146 -0.7101  0.7330 -0.0591
 3720TIP3   OH211123   7.201   1.718   3.756  0.2863  0.3761  0.5142
 3720TIP3    H111124   7.213   1.782   3.686  1.2203  0.1475  0.4520
 3720TIP3    H211125   7.107   1.699   3.755  0.4295 -0.5239 -1.4886
 3721TIP3   OH211126   5.714   1.281   4.986  0.1762  0.6258  0.0970
 3721TIP3    H111127   5.724   1.255   5.078  2.5485  3.0571  0.6499
 3721TIP3    H211128   5.803   1.285   4.953 -0.4462  2.5327 -1.4902
 3722TIP3   OH211129   5.582   2.647   0.804  0.0271 -0.0577 -0.4205
 3722TIP3    H111130   5.661   2.628   0.754  0.0415  0.1655 -0.4818
 3722TIP3    H211131   5.515   2.664   0.738  0.1530  0.6748 -0.3623
 3723TIP3   OH211132   4.749   2.370   5.248 -0.1188 -0.1114  0.0187
 3723TIP3    H111133   4.719   2.420   5.324 -0.5324 -1.4403  0.7667
 3723TIP3    H211134   4.840   2.399   5.235 -0.5318  1.2460  0.0442
 3724TIP3   OH211135   4.100   0.121   2.720 -0.0010 -0.3880  0.8778
 3724TIP3    H111136   4.007   0.114   2.698  0.4260 -1.1188 -0.9198
 3724TIP3    H211137   4.129   0.201   2.676  0.3512 -0.5200  0.8667
 3725TIP3   OH211138   2.690   2.391   5.244  0.3035  0.3151  0.0755
 3725TIP3    H111139   2.767   2.377   5.189 -0.1431 -0.2614 -0.4120
 3725TIP3    H211140   2.724   2.437   5.321  1.3076 -0.7961  0.3279
 3726TIP3   OH211141   4.231   5.129   4.172 -0.2309 -0.1365 -0.0962
 3726TIP3    H111142   4.170   5.068   4.130 -0.7999 -0.0805  0.6266
 3726TIP3    H211143   4.316   5.110   4.132 -0.4670 -1.1608 -0.1293
 3727TIP3   OH211144   7.041   2.318   4.598 -0.1187  0.5453  0.4684
 3727TIP3    H111145   7.039   2.370   4.517 -1.0659  1.1583  0.8621
 3727TIP3    H211146   6.951   2.321   4.630  0.0992 -0.2767  1.1872
 3728TIP3   OH211147   2.912   3.283   1.766 -0.6145  0.0820  0.0057
 3728TIP3    H111148   2.914   3.222   1.692 -1.2157 -0.8587  0.7442
 3728TIP3    H211149   2.999   3.276   1.806 -0.3413  0.4755 -0.5088
 3729TIP3   OH211150   4.875   5.506   4.551  0.2463 -0.0308  0.2060
 3729TIP3    H111151   4.875   5.416   4.583 -1.7005 -0.0381  0.3294
 3729TIP3    H211152   4.799   5.546   4.593  1.3321  1.8318  0.5127
 3730TIP3   OH211153   3.260   1.787   0.595 -0.2955  0.2261 -0.2442
 3730TIP3    H111154   3.314   1.866   0.593 -0.6304  0.5000  1.1300
 3730TIP3    H211155   3.271   1.749   0.507  1.3264  0.8058 -0.3311
 3731TIP3   OH211156   4.509   2.338   3.481 -0.5048  0.9673  0.3405
 3731TIP3    H111157   4.545   2.323   3.393 -0.3650  0.2940  0.5093
 3731TIP3    H211158   4.581   2.321   3.541 -1.2508 -1.1329  0.7212
 3732TIP3   OH211159   1.317   1.103   3.202 -0.3600 -0.0838  0.0152
 3732TIP3    H111160   1.234   1.149   3.188 -0.7696 -0.8988 -0.3384
 3732TIP3    H211161   1.293   1.025   3.251  0.4664  0.5584  1.5019
 3733TIP3   OH211162   1.354   0.919  -0.029  0.4463 -0.1516  0.3570
 3733TIP3    H111163   1.433   0.893   0.019 -0.2966 -1.4097  0.9381
 3733TIP3    H211164   1.316   0.989   0.023 -0.6419 -1.8559  1.9661
 3734TIP3   OH211165   6.279   2.470   0.678 -0.3010  0.2370 -0.0579
 3734TIP3    H111166   6.282   2.542   0.615  0.1639  0.3711  0.1115
 3734TIP3    H211167   6.371   2.449   0.694 -0.4310 -0.2345  0.0756
 3735TIP3   OH211168   1.564   1.806   2.496 -0.3264  0.0069 -0.3756
 3735TIP3    H111169   1.474   1.825   2.521 -0.3512  0.0331 -0.4860
 3735TIP3    H211170   1.579   1.857   2.417 -0.0053  0.5007  0.0015
 3736TIP3   OH211171   0.947   4.622   3.817  0.5019 -0.4041  0.3076
 3736TIP3    H111172   1.021   4.587   3.766  1.7326  0.9040  1.1326
 3736TIP3    H211173   0.937   4.561   3.890  1.5942  0.0532  0.8640
 3737TIP3   OH211174   1.986   6.374   2.640 -0.1923  0.4771  0.3317
 3737TIP3    H111175   2.020   6.385   2.729 -0.4586 -0.9910  0.6410
 3737TIP3    H211176   1.910   6.432   2.636 -0.0287  0.7431  0.9911
 3738TIP3   OH211177   6.617   4.548   5.144  0.1419  0.1942  0.0960
 3738TIP3    H111178   6.612   4.616   5.211  1.2157 -0.6354  1.0685
 3738TIP3    H211179   6.627   4.466   5.194  0.0147 -0.5507 -1.0588
 3739TIP3   OH211180   2.086   3.274   2.869 -0.8753 -0.5329 -0.1267
 3739TIP3    H111181   2.077   3.305   2.959  0.4674  0.6851 -0.3693
 3739TIP3    H211182   2.065   3.351   2.815  0.4316 -0.6209 -0.7964
 3740TIP3   OH211183   1.870   4.083   4.351  0.1540  0.0224  0.0269
 3740TIP3    H111184   1.855   4.028   4.429 -1.0644 -1.3302 -1.1073
 3740TIP3    H211185   1.888   4.170   4.387 -1.0017 -0.4113  1.8111
 3741TIP3   OH211186   0.338   2.909   1.610  0.4039 -0.1640  0.0843
 3741TIP3    H111187   0.298   2.940   1.691 -0.0199 -0.7394  0.1017
 3741TIP3    H211188   0.360   2.818   1.627  1.9333  0.1815  0.1442
 3742TIP3   OH211189   2.244   4.992   1.605 -0.2290  0.2477 -0.7827
 3742TIP3    H111190   2.328   4.960   1.573  0.9647  0.7070  1.6293
 3742TIP3    H211191   2.197   4.913   1.631 -0.2671  0.0346 -1.4788
 3743TIP3   OH211192   0.783   2.948   4.804  0.2796 -0.1765  0.5115
 3743TIP3    H111193   0.701   2.945   4.755  1.1777 -0.2389 -1.0199
 3743TIP3    H211194   0.841   3.002   4.751  0.6205  1.6277  2.5670
 3744TIP3   OH211195   1.672   0.306   1.988  0.5853 -0.0957 -0.2531
 3744TIP3    H111196   1.643   0.389   2.025  0.3533 -1.1276  2.0626
 3744TIP3    H211197   1.592   0.258   1.968  0.7167  0.2079 -1.6422
 3745TIP3   OH211198   4.523   4.433   1.443  0.2128 -0.0892  0.1671
 3745TIP3    H111199   4.469   4.358   1.416 -0.4649  0.7769 -1.0090
 3745TIP3    H211200   4.613   4.406   1.426  0.1972 -1.5418  2.1026
 3746TIP3   OH211201   4.389   5.045   1.988 -0.4333  0.3711 -0.7003
 3746TIP3    H111202   4.327   4.981   1.954 -0.8163  1.8156 -2.8658
 3746TIP3    H211203   4.475   5.012   1.961 -0.5516  0.2667 -0.9528
 3747TIP3   OH211204   1.069   3.283   4.185 -0.0597 -0.1852 -0.5499
 3747TIP3    H111205   0.993   3.235   4.152  0.2465 -2.2967  1.5613
 3747TIP3    H211206   1.143   3.223   4.174  0.5805  0.2531  1.0263
 3748TIP3   OH211207   1.915   5.578   1.668  0.3145  0.2690  0.0506
 3748TIP3    H111208   1.906   5.600   1.576  1.0865 -0.5285 -0.2219
 3748TIP3    H211209   1.994   5.623   1.697  0.6967 -0.3719  0.0309
 3749TIP3   OH211210   0.449   3.444   1.169 -0.0016  0.5072  0.2291
 3749TIP3    H111211   0.375   3.444   1.230  0.7946  1.5300  1.2412
 3749TIP3    H211212   0.439   3.527   1.121  0.1330  0.3463 -0.0759
 3750TIP3   OH211213   2.491   2.231   2.343 -0.0977  0.1473 -0.4743
 3750TIP3    H111214   2.484   2.145   2.301  1.0957  0.1191 -0.6417
 3750TIP3    H211215   2.515   2.291   2.272  2.2774  0.0420  0.1707
 3751TIP3   OH211216   7.126   4.453   4.055 -0.1648  0.2559 -0.6762
 3751TIP3    H111217   7.057   4.486   3.997 -1.2576 -0.8820 -0.0561
 3751TIP3    H211218   7.202   4.442   3.998 -0.7053  0.8311 -1.5219
 3752TIP3   OH211219   3.291   3.394   4.958  0.1684  0.4424 -0.4735
 3752TIP3    H111220   3.376   3.428   4.929 -0.7309  2.2353 -1.1931
 3752TIP3    H211221   3.246   3.471   4.994 -0.1693 -0.9835  2.4228
 3753TIP3   OH211222   3.330   2.585   2.376 -0.1859 -0.0858 -0.1184
 3753TIP3    H111223   3.418   2.608   2.406 -0.9435 -0.2136  2.4726
 3753TIP3    H211224   3.297   2.665   2.336 -0.1812  1.1937  2.2630
 3754TIP3   OH211225   1.908   2.655   5.438 -0.2303 -0.3528  0.7602
 3754TIP3    H111226   1.913   2.570   5.395 -2.0039 -1.1379  1.9820
 3754TIP3    H211227   1.915   2.718   5.367  0.6395 -1.5034 -0.2226
 3755TIP3   OH211228   5.059   1.907   4.607 -0.0481  0.2681 -0.5152
 3755TIP3    H111229   5.129   1.895   4.543 -0.8738 -0.4224 -1.3145
 3755TIP3    H211230   4.996   1.838   4.587 -1.5891  1.6701 -0.6693
 3756TIP3   OH211231   1.266   3.736   5.491 -0.0282 -0.2323  0.1716
 3756TIP3    H111232   1.187   3.732   5.544  0.9910  1.8378  2.0244
 3756TIP3    H211233   1.234   3.742   5.401 -1.9261 -0.5871  0.7792
 3757TIP3   OH211234   1.857   5.812   2.688 -0.1679  0.1607 -0.7189
 3757TIP3    H111235   1.843   5.906   2.692 -1.0963  0.0065  0.0407
 3757TIP3    H211236   1.891   5.796   2.599 -0.2718  1.1629 -0.9475
 3758TIP3   OH211237   0.498   6.453   1.785  0.6101 -0.3247 -0.0234
 3758TIP3    H111238   0.564   6.400   1.829  0.9340  0.2360  0.1653
 3758TIP3    H211239   0.542   6.487   1.707  0.8154  0.7329  0.5371
 3759TIP3   OH211240   6.898   4.356   0.108  0.1217  0.3486 -0.2269
 3759TIP3    H111241   6.815   4.402   0.097 -0.7822 -1.2135 -0.2273
 3759TIP3    H211242   6.897   4.326   0.199 -0.8269 -2.3763 -1.0313
 3760TIP3   OH211243   7.028   6.329   1.811  0.0680 -0.0397  0.2816
 3760TIP3    H111244   6.989   6.379   1.883  1.3743  1.6781 -0.1286
 3760TIP3    H211245   6.970   6.345   1.736 -0.1442 -0.0804  0.4381
 3761TIP3   OH211246   3.749   0.532   0.349 -0.2512 -0.2069  0.2343
 3761TIP3    H111247   3.677   0.514   0.289  0.4127 -0.6819 -0.4297
 3761TIP3    H211248   3.816   0.468   0.326  0.3331  0.1412  0.9389
 3762TIP3   OH211249   6.454  -0.025   4.857  0.6458 -0.5307  0.1057
 3762TIP3    H111250   6.478   0.061   4.822  0.0492 -0.7855 -0.9567
 3762TIP3    H211251   6.497  -0.029   4.942 -2.0391  2.2389  1.7857
 3763TIP3   OH211252   4.057   3.062   1.092  0.3588  0.1432 -0.2192
 3763TIP3    H111253   4.126   3.079   1.027  1.6121 -1.7321  0.5535
 3763TIP3    H211254   4.104   3.035   1.170 -1.2280  0.1859  0.7825
 3764TIP3   OH211255   1.770   3.432   1.584  0.7744  0.0724 -0.6529
 3764TIP3    H111256   1.821   3.423   1.503  0.5581 -0.2655 -0.7523
 3764TIP3    H211257   1.746   3.343   1.607  0.0741  0.2431 -0.7091
 3765TIP3   OH211258   1.355   0.927   1.441  0.1163 -0.5594 -0.1826
 3765TIP3    H111259   1.422   0.992   1.463 -0.2645  0.0794 -0.8619
 3765TIP3    H211260   1.301   0.921   1.520  1.0224 -1.1655  0.4114
 3766TIP3   OH211261   2.757   2.258   4.924  0.4965  0.1970  0.2434
 3766TIP3    H111262   2.767   2.174   4.879  0.2820 -1.3268  2.8607
 3766TIP3    H211263   2.665   2.260   4.951  0.7027  0.8894  0.9420
 3767TIP3   OH211264   2.813   2.152   2.621  0.0446  0.1169  0.4179
 3767TIP3    H111265   2.826   2.086   2.552 -0.6646  0.2874  0.1150
 3767TIP3    H211266   2.731   2.127   2.662 -0.7899  1.4149 -0.3946
 3768TIP3   OH211267   6.792   2.122   2.564  0.1397 -0.1888 -0.7617
 3768TIP3    H111268   6.749   2.054   2.617  2.1259 -1.2984 -0.4946
 3768TIP3    H211269   6.720   2.180   2.538 -1.0751  0.0675  2.6022
 3769TIP3   OH211270   0.870   0.087   5.226 -0.2415  0.1256 -0.1166
 3769TIP3    H111271   0.798   0.088   5.289 -0.6950  1.3558 -0.6156
 3769TIP3    H211272   0.935   0.029   5.264 -0.9755 -0.0234  0.9486
 3770TIP3   OH211273   6.624   5.565   4.044 -0.0766  0.3814 -0.1153
 3770TIP3    H111274   6.703   5.518   4.072  1.7878  3.0543 -0.5278
 3770TIP3    H211275   6.590   5.604   4.124 -0.8524 -0.5196  0.0114
 3771TIP3   OH211276   5.036   1.107   3.966  0.0027  0.0776 -0.4335
 3771TIP3    H111277   5.004   1.175   4.025 -0.2495  1.1079 -1.7088
 3771TIP3    H211278   5.006   1.025   4.004 -1.4727  0.8225  0.0532
 3772TIP3   OH211279   2.897   1.953   1.455  0.5165 -0.5126  0.5931
 3772TIP3    H111280   2.893   2.037   1.501 -0.7324 -0.4652  0.4375
 3772TIP3    H211281   2.945   1.972   1.374 -0.9312  0.3960 -0.0970
 3773TIP3   OH211282   6.461   3.284   5.886  0.2554  0.1048 -0.6673
 3773TIP3    H111283   6.370   3.295   5.857 -0.4411 -1.2726  0.8093
 3773TIP3    H211284   6.489   3.202   5.845  1.0625  0.8157 -1.5840
 3774TIP3   OH211285   0.393   3.482   3.670 -0.4164 -0.0736  0.0985
 3774TIP3    H111286   0.458   3.551   3.659 -1.1645  0.5730 -0.3735
 3774TIP3    H211287   0.340   3.510   3.744 -1.2896  0.3380 -0.6577
 3775TIP3   OH211288   4.535   1.567   5.677 -0.0896 -0.5596  0.2524
 3775TIP3    H111289   4.465   1.607   5.729  1.5569  0.5765  1.7277
 3775TIP3    H211290   4.538   1.476   5.705 -2.8667 -1.5016 -2.0166
 3776TIP3   OH211291   1.900   2.092   1.917 -0.1807  0.6100 -0.2853
 3776TIP3    H111292   1.836   2.146   1.963 -0.3334 -0.3932  0.7033
 3776TIP3    H211293   1.857   2.008   1.904  1.9641 -1.3981  3.5724
 3777TIP3   OH211294   6.493   4.229   0.198 -0.2468 -0.0232 -0.6973
 3777TIP3    H111295   6.425   4.230   0.131  0.0609  1.2098 -1.0121
 3777TIP3    H211296   6.486   4.315   0.240 -0.2467 -0.6651  0.6726
 3778TIP3   OH211297   4.353   0.037   2.976 -0.4499  0.4259  0.2075
 3778TIP3    H111298   4.373  -0.052   3.004 -1.5092  0.7524  2.1368
 3778TIP3    H211299   4.335   0.085   3.057 -0.7265  2.1909 -0.8425
 3779TIP3   OH211300   6.078   6.108   0.717  0.3324  0.5651  0.2122
 3779TIP3    H111301   6.089   6.056   0.638  0.8135 -0.4102  0.8976
 3779TIP3    H211302   6.060   6.197   0.686 -0.9026 -0.0742 -0.9950
 3780TIP3   OH211303   0.783   5.273   0.047 -0.3154  0.1150 -0.5693
 3780TIP3    H111304   0.824   5.190   0.025 -2.6042 -0.9725 -0.9581
 3780TIP3    H211305   0.819   5.335  -0.016 -0.2543 -1.0553 -1.7163
 3781TIP3   OH211306   6.219   1.166   0.797 -0.4241 -0.2679  0.1842
 3781TIP3    H111307   6.228   1.206   0.711 -0.1671 -1.7680 -0.5205
 3781TIP3    H211308   6.127   1.177   0.819 -0.4631  0.2459 -0.2204
 3782TIP3   OH211309   2.168   4.793   0.456  0.0719 -0.6206  0.2651
 3782TIP3    H111310   2.235   4.758   0.514 -0.3656 -0.9353  0.5938
 3782TIP3    H211311   2.208   4.794   0.369  0.8236  0.1080  0.6115
 3783TIP3   OH211312   5.978   2.353   0.011  0.5822  0.6769 -0.2377
 3783TIP3    H111313   5.945   2.412  -0.057  0.2504 -0.0753 -0.7480
 3783TIP3    H211314   5.900   2.318   0.053  0.6632 -1.1628 -1.5013
 3784TIP3   OH211315   4.956   5.116   0.668 -0.2332 -0.2360 -0.3423
 3784TIP3    H111316   5.041   5.106   0.711  0.5779  1.0204 -1.5870
 3784TIP3    H211317   4.912   5.186   0.718  0.0552  0.1094 -0.5681
 3785TIP3   OH211318   1.306   6.360   1.203  0.4075 -0.1933 -0.2198
 3785TIP3    H111319   1.357   6.404   1.270  0.1051  1.3855 -0.9832
 3785TIP3    H211320   1.355   6.280   1.184  0.8889 -0.2846  1.3178
 3786TIP3   OH211321   1.835   4.436   3.305  0.6396 -0.2969  0.0984
 3786TIP3    H111322   1.824   4.341   3.298  1.8699 -0.4334 -0.1430
 3786TIP3    H211323   1.845   4.466   3.215  0.5399  0.0372  0.1958
 3787TIP3   OH211324   2.729   2.928   3.932 -0.0858 -0.1619  0.5731
 3787TIP3    H111325   2.784   2.863   3.889 -2.0077 -0.3645 -1.7854
 3787TIP3    H211326   2.787   3.002   3.948  0.8971 -0.3185 -1.8951
 3788TIP3   OH211327   4.903   1.396   3.284  0.7426 -0.0350 -0.4462
 3788TIP3    H111328   4.912   1.430   3.195 -0.6433 -1.6056 -1.2368
 3788TIP3    H211329   4.937   1.306   3.278  1.7413  0.2299  0.9092
 3789TIP3   OH211330   6.869   4.388   3.043 -0.1113  0.4665  0.1086
 3789TIP3    H111331   6.952   4.350   3.014 -0.4372  0.1004 -0.3621
 3789TIP3    H211332   6.895   4.457   3.105  0.5366  0.2964  0.0410
 3790TIP3   OH211333   5.208   3.827   1.965 -0.0083 -0.4341  0.3766
 3790TIP3    H111334   5.277   3.805   1.902 -0.1948  0.7206 -0.2652
 3790TIP3    H211335   5.255   3.853   2.045  0.2210 -2.3257  0.8879
 3791TIP3   OH211336   4.092   2.886   0.281 -0.3840  0.1567  0.4275
 3791TIP3    H111337   4.133   2.964   0.245  1.0753 -0.1630  1.3103
 3791TIP3    H211338   4.157   2.817   0.269 -0.5875 -0.3475  1.9584
 3792TIP3   OH211339   3.246   5.323   4.058 -0.4199  0.3260  0.1272
 3792TIP3    H111340   3.299   5.281   4.126  2.1944 -2.6176 -3.3448
 3792TIP3    H211341   3.304   5.390   4.021 -1.0400  0.5048 -0.5458
 3793TIP3   OH211342   0.049   5.271   2.675  0.8368  0.7484  0.2210
 3793TIP3    H111343   0.134   5.239   2.703  1.3033 -0.3270 -2.1593
 3793TIP3    H211344  -0.011   5.199   2.692  1.4877 -0.7578 -3.0955
 3794TIP3   OH211345   0.399   3.823   1.726 -0.1911  0.2635 -0.2422
 3794TIP3    H111346   0.464   3.888   1.751 -1.5475  1.6209 -0.1622
 3794TIP3    H211347   0.407   3.817   1.630  0.0876  0.3689 -0.2267
 3795TIP3   OH211348   4.902   5.473   2.153 -0.0638 -0.0450  0.2889
 3795TIP3    H111349   4.849   5.512   2.222 -2.0949 -0.1717 -1.1137
 3795TIP3    H211350   4.867   5.511   2.072  0.8813 -1.4259 -0.8086
 3796TIP3   OH211351   6.664   5.691   0.751 -0.4550  0.5665 -0.4300
 3796TIP3    H111352   6.694   5.732   0.670 -2.2621 -0.8357 -1.9158
 3796TIP3    H211353   6.627   5.607   0.722 -0.3353 -0.3838  1.9909
 3797TIP3   OH211354   3.264   0.372   4.442 -0.3807 -0.2127  0.3340
 3797TIP3    H111355   3.291   0.360   4.533  0.0108 -0.8899  0.1364
 3797TIP3    H211356   3.245   0.284   4.410 -1.6400  0.1170  0.0923
 3798TIP3   OH211357   0.853   5.848   3.697 -0.2631 -0.3854  0.3211
 3798TIP3    H111358   0.770   5.806   3.674  0.2569 -0.8811 -0.7206
 3798TIP3    H211359   0.879   5.896   3.619 -0.0050  0.5153  0.9444
 3799TIP3   OH211360   0.669   0.157   0.929 -0.1574  0.4232 -0.1915
 3799TIP3    H111361   0.628   0.243   0.924 -1.9582 -0.3712  0.2198
 3799TIP3    H211362   0.622   0.104   0.866 -0.9366 -0.9588  1.4624
 3800TIP3   OH211363   5.676   5.942   5.384 -0.0284  1.0812  0.2617
 3800TIP3    H111364   5.707   5.898   5.463  0.3670  1.9142  0.5896
 3800TIP3    H211365   5.731   5.907   5.314 -1.6671 -1.1302 -0.0317
 3801TIP3   OH211366   6.253   4.040   2.310  0.2587  0.0516 -0.1000
 3801TIP3    H111367   6.231   3.957   2.268  1.2202 -0.5133  0.4679
 3801TIP3    H211368   6.169   4.083   2.325 -0.2388 -0.7522 -0.5310
 3802TIP3   OH211369   3.513   6.774   4.009 -0.0972  0.2535  0.2731
 3802TIP3    H111370   3.527   6.841   3.943 -1.5458 -0.0983 -0.4496
 3802TIP3    H211371   3.491   6.695   3.959 -1.1350 -0.0387  1.1524
 3803TIP3   OH211372   6.669   2.879   3.274 -0.3577  0.2263 -0.5510
 3803TIP3    H111373   6.678   2.960   3.223  0.3909  0.0749 -0.6667
 3803TIP3    H211374   6.581   2.884   3.311  0.0660  1.5978  0.3068
 3804TIP3   OH211375   5.593   2.147   0.812  0.3869 -0.4471 -0.1878
 3804TIP3    H111376   5.603   2.053   0.793 -1.4412 -0.5656 -0.7040
 3804TIP3    H211377   5.501   2.166   0.794  1.0971  1.8494 -1.8925
 3805TIP3   OH211378   6.328   6.259   3.775  0.3480 -0.0271 -0.1915
 3805TIP3    H111379   6.275   6.314   3.833  2.6121  2.3731 -0.1913
 3805TIP3    H211380   6.359   6.188   3.830  0.5708  0.9262  0.9610
 3806TIP3   OH211381   4.460   6.493   3.008  0.2984  0.1374 -0.0812
 3806TIP3    H111382   4.452   6.412   3.058 -0.0317  0.0981 -0.1932
 3806TIP3    H211383   4.395   6.484   2.937 -0.3451  0.8601  0.3947
 3807TIP3   OH211384   0.173   2.059   3.232 -0.3190  0.0758  0.6500
 3807TIP3    H111385   0.084   2.024   3.231 -0.4481  0.3534 -1.1078
 3807TIP3    H211386   0.170   2.132   3.170  1.6468 -1.2978 -1.1857
 3808TIP3   OH211387   6.324   5.783   5.318  0.1148 -0.2477  0.5054
 3808TIP3    H111388   6.318   5.779   5.413  0.4113  0.5766  0.5620
 3808TIP3    H211389   6.241   5.746   5.287 -0.8017  1.2271  1.1148
 3809TIP3   OH211390   0.989   3.742   5.579 -0.5367  0.0143 -0.3416
 3809TIP3    H111391   1.004   3.701   5.664 -2.3548 -0.9582 -0.4498
 3809TIP3    H211392   0.897   3.769   5.581 -0.1114  1.7049 -1.3098
 3810TIP3   OH211393   5.084   3.414   2.591  0.2003  0.6282  0.6628
 3810TIP3    H111394   5.128   3.330   2.580 -0.8236  0.3429 -2.1405
 3810TIP3    H211395   5.002   3.393   2.635  0.5930  0.3987  1.2977
 3811TIP3   OH211396   3.899   3.098   4.982 -0.3083 -0.4616 -0.5200
 3811TIP3    H111397   3.973   3.155   5.002 -1.2104  1.3000 -1.9615
 3811TIP3    H211398   3.872   3.062   5.067  1.5518 -0.3600  0.1395
 3812TIP3   OH211399   1.196   3.209   0.182 -0.1660  0.1816 -0.1797
 3812TIP3    H111400   1.152   3.268   0.244 -0.2036 -0.3708  0.3362
 3812TIP3    H211401   1.289   3.219   0.201 -0.2406 -1.3399  1.2829
 3813TIP3   OH211402   4.082   4.956   4.009 -0.3865 -0.4273  0.3686
 3813TIP3    H111403   4.081   4.860   4.009 -0.4716 -0.4298 -0.2626
 3813TIP3    H211404   4.072   4.980   3.917  2.4430  0.1531  0.1010
 3814TIP3   OH211405   6.395   5.203   1.914  0.0624 -0.1643  0.1513
 3814TIP3    H111406   6.327   5.143   1.884  1.4032 -2.5103  1.4231
 3814TIP3    H211407   6.477   5.161   1.887  1.0850  0.6969  1.7388
 3815TIP3   OH211408   6.051   2.072   0.763  0.5781 -0.1400  0.8315
 3815TIP3    H111409   6.138   2.071   0.803 -0.2056  0.9388  2.6705
 3815TIP3    H211410   6.017   1.984   0.778  1.7749 -0.9929 -1.0340
 3816TIP3   OH211411   6.361   0.812   0.986  0.0833  0.0599  0.7939
 3816TIP3    H111412   6.269   0.818   0.960  0.3553 -1.7704 -0.7556
 3816TIP3    H211413   6.358   0.807   1.081 -1.3108  1.5081  0.8675
 3817TIP3   OH211414   5.697   3.809   1.078  0.4174  0.2002 -0.3572
 3817TIP3    H111415   5.621   3.756   1.053  1.5583 -1.9307  0.4368
 3817TIP3    H211416   5.663   3.872   1.141 -1.1489  1.0609 -1.9805
 3818TIP3   OH211417   4.866   3.452   2.980 -0.4282  0.2860  0.2133
 3818TIP3    H111418   4.801   3.519   3.003 -0.4049  0.3670  0.0425
 3818TIP3    H211419   4.927   3.497   2.921 -0.0610  0.2850  0.5922
 3819TIP3   OH211420   4.113   4.157   4.542  0.2431 -0.1415  0.2286
 3819TIP3    H111421   4.105   4.179   4.635  1.4047  0.3306  0.2350
 3819TIP3    H211422   4.078   4.233   4.496 -0.4573 -0.4311  0.2649
 3820TIP3   OH211423   6.049   0.261   4.856 -0.2045  0.0592 -0.2777
 3820TIP3    H111424   6.038   0.355   4.844  0.7677  0.1621 -0.3929
 3820TIP3    H211425   6.143   0.248   4.863 -0.1238 -1.1746 -2.6489
 3821TIP3   OH211426   0.042   0.640   0.588  0.7582 -0.0373  0.0297
 3821TIP3    H111427   0.046   0.642   0.492 -1.0005 -0.0443 -0.0768
 3821TIP3    H211428   0.101   0.711   0.616 -0.9889  2.0384 -1.1841
 3822TIP3   OH211429   2.461   5.451   4.165 -0.4344 -0.7273  0.1118
 3822TIP3    H111430   2.467   5.438   4.070  1.1789 -1.0530  0.2235
 3822TIP3    H211431   2.409   5.530   4.176 -1.2325 -1.0680 -1.0091
 3823TIP3   OH211432   0.519   0.564   0.123  0.3068  0.0911 -0.1242
 3823TIP3    H111433   0.512   0.569   0.027 -1.4336  0.0735 -0.0176
 3823TIP3    H211434   0.489   0.649   0.154 -0.8039 -0.5030  0.4650
 3824TIP3   OH211435   5.509   3.323   3.627 -0.2053  0.5130 -0.5862
 3824TIP3    H111436   5.585   3.381   3.618 -0.0017  0.1361 -1.4806
 3824TIP3    H211437   5.442   3.377   3.668  0.5688  0.8325  0.2748
 3825TIP3   OH211438   0.588   6.647   1.188  0.3603  0.2190  0.1504
 3825TIP3    H111439   0.601   6.570   1.132  0.6440 -0.7278  1.4558
 3825TIP3    H211440   0.649   6.712   1.154 -0.8320  0.3869 -1.8276
 3826TIP3   OH211441   5.462   0.452   3.685 -0.1815  0.5956 -0.7487
 3826TIP3    H111442   5.521   0.526   3.671  1.5681 -0.3688  0.9970
 3826TIP3    H211443   5.476   0.428   3.777 -3.0517  0.0591 -0.3796
 3827TIP3   OH211444   1.498   6.797   2.579  0.0652 -0.2020 -0.1553
 3827TIP3    H111445   1.492   6.718   2.632  3.5671  0.0598  0.9153
 3827TIP3    H211446   1.547   6.769   2.501  3.1725  1.0906  1.1387
 3828TIP3   OH211447   2.735   0.401   2.112  0.4844  0.0103  0.2115
 3828TIP3    H111448   2.787   0.420   2.191 -0.0137 -1.1825  0.8483
 3828TIP3    H211449   2.644   0.401   2.143  0.2011  0.5806 -0.5928
 3829TIP3   OH211450   6.572   4.076   0.405  0.8523 -0.1235 -0.5677
 3829TIP3    H111451   6.664   4.073   0.430  1.0726 -0.8274 -1.3946
 3829TIP3    H211452   6.571   4.119   0.320  0.6882 -1.9196 -1.5421
 3830TIP3   OH211453   4.626   4.486   3.536  0.1614  0.0155 -0.7092
 3830TIP3    H111454   4.655   4.432   3.463 -1.1522  0.0932 -1.3028
 3830TIP3    H211455   4.658   4.440   3.614  0.3936 -0.7944 -1.2754
 3831TIP3   OH211456   6.714   6.652   1.739 -0.3456 -0.1190  0.5099
 3831TIP3    H111457   6.721   6.742   1.773 -1.5144 -0.1565  0.9014
 3831TIP3    H211458   6.725   6.661   1.645 -1.7942  0.6285  0.3878
 3832TIP3   OH211459   3.983   4.349   1.051 -0.1775  0.2648 -0.0708
 3832TIP3    H111460   4.056   4.355   0.988 -0.4624  1.1739 -0.3317
 3832TIP3    H211461   4.007   4.410   1.120 -0.2982 -0.0689  0.2667
 3833TIP3   OH211462   5.264   0.425   2.652 -0.3226 -0.0280  0.2097
 3833TIP3    H111463   5.274   0.508   2.698  0.1865 -0.4552  0.8809
 3833TIP3    H211464   5.334   0.426   2.586  0.3475 -0.3637  0.8996
 3834TIP3   OH211465   4.720   2.051   2.507  0.2610  0.0439  0.3665
 3834TIP3    H111466   4.790   2.102   2.465 -0.0314  0.3764  0.2807
 3834TIP3    H211467   4.754   2.034   2.595  0.1308  0.8713  0.5886
 3835TIP3   OH211468   5.798   2.137   3.829  0.7446  0.0006 -0.3158
 3835TIP3    H111469   5.726   2.190   3.794  0.8416  0.4095  0.0974
 3835TIP3    H211470   5.819   2.076   3.758  0.6221  0.5085 -0.8000
 3836TIP3   OH211471   6.295   4.822   2.034  0.5056  0.0858  0.2498
 3836TIP3    H111472   6.386   4.799   2.014  0.9005  1.4381  0.4095
 3836TIP3    H211473   6.299   4.863   2.120  0.0931  2.2334 -0.7059
 3837TIP3   OH211474   6.286   5.847   4.438  0.3519 -0.8794  0.0575
 3837TIP3    H111475   6.356   5.835   4.502  0.8479 -0.5680 -0.4196
 3837TIP3    H211476   6.254   5.936   4.455  1.3138 -0.3243 -0.9193
 3838TIP3   OH211477   0.441   5.589   1.045 -0.2763  0.3576  0.4056
 3838TIP3    H111478   0.352   5.574   1.079  0.0467 -0.2900  1.0064
 3838TIP3    H211479   0.486   5.634   1.117  0.3516 -0.8258  0.7982
 3839TIP3   OH211480   2.273   2.541   4.962 -0.4742  0.1514 -0.1678
 3839TIP3    H111481   2.251   2.458   4.920 -1.8677  0.1657  0.4959
 3839TIP3    H211482   2.352   2.522   5.013 -1.6771 -1.2164  1.2751
 3840TIP3   OH211483   4.262   0.009   0.670  0.7031 -0.0309 -0.1372
 3840TIP3    H111484   4.237   0.050   0.587 -3.5144 -0.3506  0.7512
 3840TIP3    H211485   4.261   0.081   0.733  1.8386 -0.1417  0.0254
 3841TIP3   OH211486   2.217   5.542   0.322 -0.1382  0.1737 -0.0169
 3841TIP3    H111487   2.190   5.451   0.313  1.3158 -0.2667 -0.0920
 3841TIP3    H211488   2.296   5.550   0.269  0.2515  1.2525  0.6769
 3842TIP3   OH211489   6.134   2.406   3.585 -0.1088 -0.3991 -0.1088
 3842TIP3    H111490   6.172   2.319   3.573  0.1830 -0.2463 -0.3084
 3842TIP3    H211491   6.079   2.398   3.663 -0.9329 -1.0430 -0.7298
 3843TIP3   OH211492   0.624   0.341   5.612 -0.5743  0.0832 -0.2967
 3843TIP3    H111493   0.550   0.332   5.552 -0.1273  0.6470 -0.9458
 3843TIP3    H211494   0.701   0.325   5.557 -0.1903 -0.0576  0.2731
 3844TIP3   OH211495   6.083   2.676   2.667 -0.1760  0.1484  0.3186
 3844TIP3    H111496   6.056   2.595   2.623 -1.3931  0.8437 -0.2600
 3844TIP3    H211497   6.049   2.667   2.756 -0.6547  0.1835  0.1424
 3845TIP3   OH211498   4.006   4.651   5.433  0.2239 -0.1528  0.2652
 3845TIP3    H111499   4.055   4.658   5.515 -0.6963 -0.2865  0.8471
 3845TIP3    H211500   3.929   4.706   5.447 -0.5746 -1.1657 -0.0236
 3846TIP3   OH211501   4.748   1.186   3.896  0.2685 -0.0414 -0.8108
 3846TIP3    H111502   4.817   1.141   3.848  0.2739 -0.2924 -0.5684
 3846TIP3    H211503   4.680   1.202   3.830  0.9308  1.0277 -1.2625
 3847TIP3   OH211504   5.473   0.261   0.839 -0.3794 -0.3324  0.0709
 3847TIP3    H111505   5.556   0.218   0.823 -0.1048 -0.1112  0.8586
 3847TIP3    H211506   5.428   0.205   0.902  1.3231  1.9770  3.7201
 3848TIP3   OH211507   5.453   2.665   5.728 -0.3468 -0.6051  0.0216
 3848TIP3    H111508   5.519   2.690   5.793 -1.4398  0.9056  0.5929
 3848TIP3    H211509   5.439   2.572   5.743  1.7450 -1.0057 -0.2187
 3849TIP3   OH211510   2.604   4.805   2.969  0.3333 -0.4708  0.1190
 3849TIP3    H111511   2.697   4.794   2.992  0.4318 -0.2661 -0.1706
 3849TIP3    H211512   2.572   4.873   3.029  0.5319 -0.0965 -0.1923
 3850TIP3   OH211513   1.995   4.320   2.765  0.3462 -0.1973  0.0017
 3850TIP3    H111514   1.948   4.256   2.819  1.3676  0.2305  1.4470
 3850TIP3    H211515   1.926   4.366   2.718 -0.5413 -1.0315  0.4312
 3851TIP3   OH211516   7.088   6.038   1.225 -0.2960  0.0510  0.2592
 3851TIP3    H111517   7.130   6.052   1.139  1.0157 -0.2937  0.8121
 3851TIP3    H211518   7.101   5.945   1.242 -2.7685 -0.4408 -0.2576
 3852TIP3   OH211519   3.881   5.235   3.430 -0.0438 -0.0627 -0.1050
 3852TIP3    H111520   3.800   5.249   3.381 -0.7031  1.5061  1.3209
 3852TIP3    H211521   3.923   5.322   3.432  0.8415 -0.4881  0.5690
 3853TIP3   OH211522   6.061   6.323   2.719 -0.9113  0.5821 -0.1575
 3853TIP3    H111523   6.130   6.368   2.767 -0.0730 -0.5986 -0.2170
 3853TIP3    H211524   6.104   6.286   2.642 -1.8883  0.9807 -0.9174
 3854TIP3   OH211525   3.156   1.071   5.090  0.2302  0.1074  0.3921
 3854TIP3    H111526   3.168   1.162   5.118 -2.0495  0.3148  0.8659
 3854TIP3    H211527   3.159   1.074   4.994  0.5802  0.6012  0.4165
 3855TIP3   OH211528   0.860   5.052   5.157 -0.2344  0.3894  0.6513
 3855TIP3    H111529   0.908   5.011   5.085 -0.8312  0.5051  0.1812
 3855TIP3    H211530   0.909   5.131   5.178  0.3069  0.0166  0.8210
 3856TIP3   OH211531   0.789   2.929   3.790  0.2454  0.4005  0.8084
 3856TIP3    H111532   0.781   2.920   3.695  0.6829 -0.7901  0.8673
 3856TIP3    H211533   0.751   3.014   3.810  2.8116  2.0492 -0.7716
 3857TIP3   OH211534   6.211   1.718   2.869  0.5914 -0.7701 -0.3476
 3857TIP3    H111535   6.264   1.798   2.865  0.6870 -0.5598  2.6935
 3857TIP3    H211536   6.275   1.648   2.885  0.5059 -1.5248 -2.9503
 3858TIP3   OH211537   4.873   0.439   2.032 -0.2118 -0.3476  0.2734
 3858TIP3    H111538   4.893   0.426   2.125 -1.8329 -1.9143  0.4694
 3858TIP3    H211539   4.898   0.529   2.014  4.5155 -1.2376  1.0224
 3859TIP3   OH211540   4.678   4.546   2.336  0.3415  0.1938  0.0021
 3859TIP3    H111541   4.744   4.581   2.396 -1.0118  0.7777  1.2024
 3859TIP3    H211542   4.692   4.593   2.254  1.4240  0.2813  0.2202
 3860TIP3   OH211543   0.178   1.376   0.290  0.0258  0.4506 -0.3515
 3860TIP3    H111544   0.255   1.393   0.345 -0.5583 -0.6898  0.8710
 3860TIP3    H211545   0.215   1.348   0.207  0.9905 -0.9680  0.4970
 3861TIP3   OH211546   3.718   4.724   2.964  0.1426  0.2008  0.2408
 3861TIP3    H111547   3.758   4.641   2.991 -0.4493  0.0272  0.5944
 3861TIP3    H211548   3.734   4.728   2.870  0.3287 -0.2345  0.2478
 3862TIP3   OH211549   1.357   4.851   5.281 -0.5383 -0.4142 -0.1247
 3862TIP3    H111550   1.307   4.782   5.324  0.4084 -1.4732 -0.6547
 3862TIP3    H211551   1.322   4.854   5.192 -0.1408 -0.6763 -0.2929
 3863TIP3   OH211552   4.890   6.534   2.651 -0.2937  0.0671  0.3327
 3863TIP3    H111553   4.800   6.556   2.675 -0.1472  0.4509  0.5393
 3863TIP3    H211554   4.937   6.618   2.653  0.1544 -0.1852  0.6037
 3864TIP3   OH211555   2.670   3.869   5.350 -0.5194 -0.2273  0.3575
 3864TIP3    H111556   2.583   3.839   5.325 -0.7867 -0.0222  1.0331
 3864TIP3    H211557   2.680   3.954   5.306 -0.1873 -0.7736 -0.6717
 3865TIP3   OH211558   0.192   3.919   2.836 -0.3466 -0.3478 -0.1593
 3865TIP3    H111559   0.257   3.965   2.783  0.5304 -0.0489  1.1293
 3865TIP3    H211560   0.107   3.948   2.802  0.1947  0.6808 -0.6653
 3866TIP3   OH211561   6.848   0.240   5.623 -0.2603  0.4286  1.0871
 3866TIP3    H111562   6.798   0.227   5.542 -0.2989 -1.7733  1.3894
 3866TIP3    H211563   6.793   0.296   5.677 -1.4564 -0.2477  0.6079
 3867TIP3   OH211564   7.163   2.128   1.039 -0.0973 -0.4508 -0.4989
 3867TIP3    H111565   7.203   2.064   0.980  0.7246  0.0484 -0.5069
 3867TIP3    H211566   7.192   2.102   1.126 -1.2523 -1.1460 -0.3102
 3868TIP3   OH211567   0.435   5.371   1.758 -0.3289  0.4606  0.5878
 3868TIP3    H111568   0.388   5.334   1.684  1.1093  0.3897 -0.3413
 3868TIP3    H211569   0.440   5.300   1.822 -1.5152  0.5011  0.7383
 3869TIP3   OH211570   3.540   3.997   2.871 -0.5024 -0.2100 -0.1244
 3869TIP3    H111571   3.632   4.023   2.878 -0.6809  0.6203 -0.6633
 3869TIP3    H211572   3.526   3.985   2.777 -1.0450  0.0579 -0.0783
 3870TIP3   OH211573   0.093   0.303   0.152 -0.0288 -0.1397  0.5687
 3870TIP3    H111574   0.116   0.319   0.243  0.6248  0.3018  0.3409
 3870TIP3    H211575   0.048   0.219   0.152 -2.1307  0.9023  1.6164
 3871TIP3   OH211576   4.098   3.684   1.390  0.4665  0.3605  0.2250
 3871TIP3    H111577   4.084   3.598   1.348 -0.9798  0.8084 -0.2705
 3871TIP3    H211578   4.182   3.675   1.434  1.3480 -0.6425 -1.5435
 3872TIP3   OH211579   3.203   1.767   2.730  0.0029  0.0181  0.5241
 3872TIP3    H111580   3.168   1.679   2.716  1.9330 -0.7757  0.3715
 3872TIP3    H211581   3.167   1.819   2.658 -1.8019 -0.3916  1.0595
 3873TIP3   OH211582   6.798   0.048   4.338 -0.3052  0.2455 -0.3987
 3873TIP3    H111583   6.792   0.099   4.419 -0.8915  1.2934 -1.0916
 3873TIP3    H211584   6.719   0.069   4.289  0.1777 -0.1409 -1.3860
 3874TIP3   OH211585   2.844   2.791   1.085  0.1365  0.0226  0.1184
 3874TIP3    H111586   2.910   2.757   1.025  1.6122 -0.5009  1.9272
 3874TIP3    H211587   2.814   2.713   1.133 -1.0419  0.4132  0.0461
 3875TIP3   OH211588   0.689   4.776   0.170  0.0116  0.0729 -0.7687
 3875TIP3    H111589   0.683   4.691   0.126  0.4200  0.1659 -1.0128
 3875TIP3    H211590   0.599   4.800   0.189 -0.2882  0.6230 -2.6841
 3876TIP3   OH211591   2.132   3.600   1.607 -0.1571  0.3029 -0.0876
 3876TIP3    H111592   2.197   3.534   1.629  0.6614  1.0625 -0.1652
 3876TIP3    H211593   2.132   3.604   1.512 -1.4777 -0.8103 -0.1544
 3877TIP3   OH211594   4.432   4.533   5.096 -0.3596  0.0400 -0.5823
 3877TIP3    H111595   4.508   4.515   5.153  1.7781 -0.7589 -3.4673
 3877TIP3    H211596   4.367   4.571   5.155  1.2144 -1.7683  2.6107
 3878TIP3   OH211597   5.652   2.514   2.124  0.1992 -0.2403 -0.0707
 3878TIP3    H111598   5.703   2.576   2.177  0.4145 -1.5808  1.3730
 3878TIP3    H211599   5.696   2.514   2.039  0.2597  1.4792 -0.0716
 3879TIP3   OH211600   2.067   1.141   2.904  0.2791  0.4518  0.1160
 3879TIP3    H111601   2.028   1.119   2.989  0.6430  0.7549  0.3666
 3879TIP3    H211602   2.054   1.236   2.896 -0.3690  0.3178 -0.4869
 3880TIP3   OH211603   0.289   4.979   4.692 -0.1369 -0.1398 -0.0840
 3880TIP3    H111604   0.268   4.921   4.619  2.1488 -2.1698  0.7409
 3880TIP3    H211605   0.305   4.920   4.766 -0.1234  1.7205  1.4779
 3881TIP3   OH211606   2.012   4.945   3.688 -0.0654 -0.2474  0.9137
 3881TIP3    H111607   2.031   4.904   3.772  0.9807 -2.0852 -0.1699
 3881TIP3    H211608   2.088   4.927   3.634 -1.4089 -0.5859 -0.9809
 3882TIP3   OH211609   5.465   0.370   3.948  0.3758  0.3978  0.2606
 3882TIP3    H111610   5.373   0.388   3.969 -0.0346 -1.3251  0.0450
 3882TIP3    H211611   5.468   0.276   3.930  1.9176  0.6778 -1.1617
 3883TIP3   OH211612   6.309   1.686   3.988 -0.3897 -0.2944 -0.3349
 3883TIP3    H111613   6.268   1.656   4.069 -0.4564  0.3657 -0.1180
 3883TIP3    H211614   6.269   1.771   3.971  1.2547  0.6098  0.1589
 3884TIP3   OH211615   2.179   1.714   0.482  0.0069 -0.0824  0.1009
 3884TIP3    H111616   2.170   1.700   0.576  0.4892  0.2926  0.2069
 3884TIP3    H211617   2.127   1.792   0.464  1.3042  0.8820  0.3671
 3885TIP3   OH211618   6.663   0.615   2.162  0.0207  0.3514  0.2016
 3885TIP3    H111619   6.664   0.708   2.136  1.4906  0.7625  1.5685
 3885TIP3    H211620   6.671   0.567   2.079  0.2241  1.4758 -0.4549
 3886TIP3   OH211621   3.530   3.768   1.114 -0.1255 -0.0564 -0.0647
 3886TIP3    H111622   3.570   3.823   1.047 -1.3624  1.1491  0.1372
 3886TIP3    H211623   3.546   3.679   1.085  0.7270  0.4157 -1.1320
 3887TIP3   OH211624   6.097   6.728   4.379  0.1751  0.2933 -0.1300
 3887TIP3    H111625   6.071   6.650   4.331 -0.5343  0.1230  0.5147
 3887TIP3    H211626   6.021   6.786   4.374 -0.1523  0.0189  1.3054
 3888TIP3   OH211627   4.930   2.692   1.585 -0.4282  0.2689  0.1143
 3888TIP3    H111628   4.841   2.671   1.614 -0.5740  0.8592  0.1082
 3888TIP3    H211629   4.985   2.671   1.660 -0.7370  1.2189  0.6212
 3889TIP3   OH211630   1.796   2.864   2.359 -0.8161  0.4886 -0.1026
 3889TIP3    H111631   1.858   2.832   2.424  0.5310  0.8987 -1.1350
 3889TIP3    H211632   1.779   2.955   2.384 -1.5939  0.1599  0.5990
 3890TIP3   OH211633   6.348   5.714   5.564 -0.4770  0.1350  0.2737
 3890TIP3    H111634   6.306   5.721   5.649 -1.9259  1.6322 -0.4945
 3890TIP3    H211635   6.437   5.685   5.583 -1.1537 -0.8578  2.1566
 3891TIP3   OH211636   1.472   2.702   3.528 -0.2718  0.3182 -0.2397
 3891TIP3    H111637   1.403   2.740   3.474 -1.1582 -0.2037  0.4878
 3891TIP3    H211638   1.530   2.658   3.466 -1.1328 -0.0618 -0.7956
 3892TIP3   OH211639   5.475   2.368   4.871 -0.1003  0.0871  0.0291
 3892TIP3    H111640   5.522   2.314   4.807 -1.4365  1.2247 -2.0287
 3892TIP3    H211641   5.543   2.411   4.922  1.0310 -0.5563 -0.8971
 3893TIP3   OH211642   2.774   1.283   1.581 -0.1931 -0.3040  0.0318
 3893TIP3    H111643   2.711   1.331   1.528  2.0259 -0.7103 -3.2523
 3893TIP3    H211644   2.758   1.191   1.561  0.5448 -0.4840  0.2023
 3894TIP3   OH211645   5.103   0.643   3.627 -0.2957  0.7407  0.4889
 3894TIP3    H111646   5.153   0.618   3.705  0.4113 -1.7063 -0.6583
 3894TIP3    H211647   5.020   0.596   3.635  0.1167 -0.2301 -0.5910
 3895TIP3   OH211648   0.852   5.960   1.770 -0.2257  0.5530  0.3314
 3895TIP3    H111649   0.924   5.990   1.714 -0.5515  0.6297 -0.0499
 3895TIP3    H211650   0.781   5.939   1.710  0.0056 -1.0543  0.5893
 3896TIP3   OH211651   2.415   4.576   2.882 -0.3621  0.2426  0.1977
 3896TIP3    H111652   2.475   4.612   2.947  0.3127  0.1366 -0.3532
 3896TIP3    H211653   2.381   4.495   2.922  2.1326 -1.3130 -0.6216
 3897TIP3   OH211654   5.896   3.479   0.701 -0.1740  0.2544 -0.4020
 3897TIP3    H111655   5.865   3.390   0.716 -1.5820  0.4575 -1.8918
 3897TIP3    H211656   5.907   3.486   0.607 -0.8555  1.8789 -0.4032
 3898TIP3   OH211657   0.894   5.091   3.771 -0.1041 -0.3785  0.2935
 3898TIP3    H111658   0.844   5.024   3.725  2.7176 -1.4153 -1.5575
 3898TIP3    H211659   0.910   5.054   3.858 -0.8922 -0.8510  0.2468
 3899TIP3   OH211660   0.626   5.321   0.259  0.2268  0.2520 -0.2427
 3899TIP3    H111661   0.675   5.301   0.180 -0.4866 -2.5490 -0.0946
 3899TIP3    H211662   0.547   5.366   0.228  1.6079  2.5156 -0.6960
 3900TIP3   OH211663   6.498   6.647   2.899 -0.2397  0.2878  0.3179
 3900TIP3    H111664   6.560   6.602   2.955  0.3511  0.7254  0.0280
 3900TIP3    H211665   6.472   6.725   2.949  1.3253  1.4042 -0.5354
 3901TIP3   OH211666   1.729   1.033   0.099  0.1808  0.4845  0.2718
 3901TIP3    H111667   1.721   1.115   0.050  1.0587  0.5412  0.2058
 3901TIP3    H211668   1.821   1.029   0.124 -0.1182  0.1363  1.3682
 3902TIP3   OH211669   4.057   2.646   3.846  0.3419  0.1449  0.1791
 3902TIP3    H111670   4.145   2.683   3.854  0.1559  0.2560  2.3533
 3902TIP3    H211671   4.044   2.598   3.928 -2.0442  1.1003  0.4313
 3903TIP3   OH211672   0.267   5.497   4.546 -0.1446 -0.2184  0.4005
 3903TIP3    H111673   0.330   5.561   4.579  0.8752 -1.3586  0.7741
 3903TIP3    H211674   0.212   5.546   4.485  0.2148  1.1311  1.1158
 3904TIP3   OH211675   1.841   2.655   1.092  0.2159  0.6044 -0.4503
 3904TIP3    H111676   1.909   2.666   1.158 -0.0603  1.6100 -0.3117
 3904TIP3    H211677   1.784   2.586   1.127 -0.4520  1.7626  0.8253
 3905TIP3   OH211678   1.741   3.641   3.331 -0.2504  0.1587  0.1742
 3905TIP3    H111679   1.747   3.733   3.358 -1.1627  0.3194 -0.1307
 3905TIP3    H211680   1.754   3.643   3.236  0.5175 -0.1228  0.2694
 3906TIP3   OH211681   7.083   3.743   5.876 -0.0793  0.2350  0.0243
 3906TIP3    H111682   7.025   3.667   5.880  0.1845  0.0535  0.6667
 3906TIP3    H211683   7.050   3.796   5.804 -0.4130 -0.3740 -0.2705
 3907TIP3   OH211684   4.513   1.569   0.750 -0.0278 -0.2177  0.1169
 3907TIP3    H111685   4.568   1.647   0.757 -0.0319 -0.3227  1.5197
 3907TIP3    H211686   4.559   1.513   0.687 -0.2111  1.0359 -1.2067
 3908TIP3   OH211687   6.537   2.699   2.630 -0.3800 -0.8071 -0.2719
 3908TIP3    H111688   6.491   2.755   2.568  0.6481 -0.7013 -0.9653
 3908TIP3    H211689   6.583   2.760   2.688  2.0298 -0.8393 -1.9942
 3909TIP3   OH211690   3.117   6.308   0.177 -0.2180 -0.5778  0.4226
 3909TIP3    H111691   3.162   6.224   0.168  0.0125 -0.5737  1.4581
 3909TIP3    H211692   3.175   6.371   0.133  0.0653 -0.8144  0.4513
 3910TIP3   OH211693   2.064   0.053   4.712  0.3895 -0.3725 -0.3637
 3910TIP3    H111694   2.123   0.109   4.763  0.6314 -2.2555  1.5479
 3910TIP3    H211695   2.008   0.011   4.778 -1.2580 -0.7358 -1.9154
 3911TIP3   OH211696   2.737   0.631   3.910  0.1417 -0.2771  0.6319
 3911TIP3    H111697   2.775   0.679   3.984  0.1658 -0.2741  0.6173
 3911TIP3    H211698   2.810   0.619   3.849  0.2090 -0.6123  0.7773
 3912TIP3   OH211699   3.003   4.287   0.081 -0.2682  0.1822 -0.7936
 3912TIP3    H111700   3.058   4.245   0.147 -0.1264  0.9586 -0.3944
 3912TIP3    H211701   3.048   4.370   0.062  0.0413 -0.3233 -2.3577
 3913TIP3   OH211702   1.067   1.292   4.266 -0.4739 -0.4526 -0.2578
 3913TIP3    H111703   1.013   1.330   4.335  0.8423 -1.1297  1.2017
 3913TIP3    H211704   1.153   1.281   4.306  0.1805 -1.4254 -1.8336
 3914TIP3   OH211705   2.673   4.456   3.008 -0.2414 -0.0682 -0.2658
 3914TIP3    H111706   2.585   4.436   3.040 -0.8195  2.6729  0.0327
 3914TIP3    H211707   2.717   4.496   3.082  1.1384 -0.9652 -0.5661
 3915TIP3   OH211708   3.501   0.886   5.598  0.2584 -0.2157  0.1856
 3915TIP3    H111709   3.503   0.833   5.678 -0.0544 -0.2410  0.1777
 3915TIP3    H211710   3.411   0.879   5.567  0.5180 -0.6864 -0.4917
 3916TIP3   OH211711   4.891   6.428   0.231  0.0585  0.1620 -0.5449
 3916TIP3    H111712   4.919   6.392   0.147  0.2029 -0.0785 -0.3931
 3916TIP3    H211713   4.805   6.388   0.246  1.1690 -1.9111  0.7013
 3917TIP3   OH211714   2.628   0.702   2.135 -0.1975 -0.5619 -0.2842
 3917TIP3    H111715   2.620   0.783   2.084  0.2292  0.9474  1.8734
 3917TIP3    H211716   2.687   0.647   2.084 -1.1205  0.1435 -2.2020
 3918TIP3   OH211717   6.117   6.252   5.560  0.3355  0.3224  0.4690
 3918TIP3    H111718   6.025   6.262   5.535 -0.0260 -1.3411  1.0576
 3918TIP3    H211719   6.128   6.159   5.576  1.8192  0.6661  1.6462
 3919TIP3   OH211720   0.835   5.431   3.527 -0.3452 -0.0208  0.2430
 3919TIP3    H111721   0.762   5.406   3.583 -2.1448  2.2309 -0.9258
 3919TIP3    H211722   0.794   5.468   3.448  2.0631 -1.0535 -1.6369
 3920TIP3   OH211723   1.567   2.383   1.379  0.6896  0.1995 -0.2900
 3920TIP3    H111724   1.484   2.431   1.377  0.0009 -0.9672 -0.9349
 3920TIP3    H211725   1.541   2.291   1.374  1.9728 -0.2587  0.8258
 3921TIP3   OH211726   6.130   4.088   0.703 -0.7256  0.1314  0.3526
 3921TIP3    H111727   6.199   4.106   0.639 -0.9850  2.7681  0.7363
 3921TIP3    H211728   6.053   4.131   0.667 -1.7364 -1.1906  0.8594
 3922TIP3   OH211729   4.560   5.492   4.597  0.4862 -0.2382 -0.2370
 3922TIP3    H111730   4.536   5.401   4.577 -0.4090  0.0414 -0.4789
 3922TIP3    H211731   4.526   5.542   4.523  0.5946  0.3510  0.1084
 3923TIP3   OH211732   4.257   5.309   0.142  0.0946  0.3943  0.2350
 3923TIP3    H111733   4.240   5.399   0.170  0.9865  0.3164  1.0989
 3923TIP3    H211734   4.276   5.315   0.048  1.7168  1.3481  0.5898
 3924TIP3   OH211735   1.902   0.106   1.840 -0.2322 -0.2654  0.0987
 3924TIP3    H111736   1.973   0.170   1.851  0.6514 -1.2504  0.2516
 3924TIP3    H211737   1.827   0.159   1.812  0.5430  0.8081 -0.0285
 3925TIP3   OH211738   0.152   1.864   2.805  0.2503 -0.2726  0.3798
 3925TIP3    H111739   0.236   1.862   2.849  0.4008  1.0728  0.2046
 3925TIP3    H211740   0.089   1.838   2.872  0.7090 -0.4121  0.7595
 3926TIP3   OH211741   6.350   4.295   4.981 -0.5846 -0.3679 -0.0901
 3926TIP3    H111742   6.443   4.272   4.973 -0.9402 -1.5594 -1.0889
 3926TIP3    H211743   6.350   4.390   4.994  0.7418 -0.1038 -1.6642
 3927TIP3   OH211744   6.439   5.166   4.490 -0.0330  0.7415  0.2283
 3927TIP3    H111745   6.483   5.227   4.431 -0.9332  0.5831 -0.6163
 3927TIP3    H211746   6.490   5.172   4.571 -0.3520  2.9556  0.3340
 3928TIP3   OH211747   2.038   5.463   5.328 -0.1003 -0.1934  1.0670
 3928TIP3    H111748   1.980   5.538   5.314 -0.7495 -0.8526  0.1260
 3928TIP3    H211749   1.989   5.406   5.387 -2.7011 -3.0079 -3.2392
 3929TIP3   OH211750   2.706   3.396   4.668  0.1334 -0.5057  1.2392
 3929TIP3    H111751   2.743   3.480   4.643 -0.1182 -0.1300  2.0930
 3929TIP3    H211752   2.662   3.365   4.589  0.0547  0.2614  0.9750
 3930TIP3   OH211753   3.400   6.824   2.355  0.4049  0.7049 -0.0504
 3930TIP3    H111754   3.402   6.761   2.283  1.3371  0.8996 -0.2059
 3930TIP3    H211755   3.381   6.771   2.432 -0.0740  0.4202 -0.3584
 3931TIP3   OH211756   6.407   6.297   5.808 -0.1144 -0.4102 -0.3705
 3931TIP3    H111757   6.370   6.376   5.768 -0.6105 -1.2843 -1.7201
 3931TIP3    H211758   6.343   6.229   5.788 -0.5149 -0.8756  2.1744
 3932TIP3   OH211759   0.748   3.939   1.487  0.0008 -0.3134 -0.1454
 3932TIP3    H111760   0.797   3.906   1.412  0.0970  0.0793 -0.2556
 3932TIP3    H211761   0.727   4.030   1.464  1.1036  0.2037  0.8427
 3933TIP3   OH211762   7.013   1.835   1.374  0.1429 -0.1108 -0.7348
 3933TIP3    H111763   6.957   1.758   1.382  1.9249 -1.3149  1.2158
 3933TIP3    H211764   6.975   1.899   1.435  0.7777 -0.8721  0.4857
 3934TIP3   OH211765   6.483   2.983   1.598  0.1674  0.2171  0.0271
 3934TIP3    H111766   6.441   2.961   1.681  0.7883  1.4674  0.6974
 3934TIP3    H211767   6.564   2.931   1.597 -0.6398 -1.0708 -0.5906
 3935TIP3   OH211768   4.692   0.703   2.110  0.1096 -0.2419 -0.1925
 3935TIP3    H111769   4.605   0.680   2.079 -0.6217  1.5595  0.4021
 3935TIP3    H211770   4.745   0.708   2.030 -0.5140 -0.6236 -0.6411
 3936TIP3   OH211771   5.357   1.620   4.070  0.4341  0.2059  0.5451
 3936TIP3    H111772   5.428   1.681   4.048 -0.1707  0.5828 -0.4483
 3936TIP3    H211773   5.339   1.575   3.988  0.9771 -1.4684  1.3031
 3937TIP3   OH211774   1.954   4.347   3.586  0.8452 -0.3752  0.1966
 3937TIP3    H111775   1.989   4.373   3.501 -1.1090  1.6464 -0.0648
 3937TIP3    H211776   1.952   4.427   3.637 -0.7688 -0.9512  1.1123
 3938TIP3   OH211777   7.018   2.503   3.215 -0.0196 -0.2431  0.2164
 3938TIP3    H111778   7.057   2.563   3.150  1.3587 -0.3358  0.9107
 3938TIP3    H211779   7.094   2.467   3.262 -0.9246 -1.2107  0.9711
 3939TIP3   OH211780   4.844   6.196   4.799  0.2892  0.0588 -0.5070
 3939TIP3    H111781   4.785   6.270   4.808  0.2420 -0.0568  0.2082
 3939TIP3    H211782   4.787   6.119   4.798  0.4656 -0.1692  1.7396
 3940TIP3   OH211783   2.660   0.213   5.353 -0.5898 -0.1267  0.0847
 3940TIP3    H111784   2.705   0.281   5.403 -0.9957  1.9552 -2.1812
 3940TIP3    H211785   2.571   0.211   5.389 -0.8652  1.3285 -0.4301
 3941TIP3   OH211786   3.032   1.394   2.915  0.2099  0.1770 -0.2622
 3941TIP3    H111787   2.964   1.328   2.926  0.5320 -0.0827  0.2130
 3941TIP3    H211788   2.997   1.472   2.957  0.7222 -0.3238  1.1479
 3942TIP3   OH211789   2.268   0.284   2.953 -0.2748  0.1954  0.2968
 3942TIP3    H111790   2.230   0.213   2.901  1.7220 -1.1458  0.5407
 3942TIP3    H211791   2.291   0.351   2.889  0.5729 -0.6989 -0.3648
 3943TIP3   OH211792   3.262   4.704   5.785  0.1489 -0.1094 -0.3516
 3943TIP3    H111793   3.302   4.633   5.834  0.1123 -0.7352 -1.2008
 3943TIP3    H211794   3.250   4.774   5.849  2.5044  0.0771 -0.0524
 3944TIP3   OH211795   1.166   6.683   2.323 -0.6132 -0.9325  0.4240
 3944TIP3    H111796   1.182   6.741   2.398  0.7497 -2.1101  1.0994
 3944TIP3    H211797   1.193   6.734   2.247 -3.2722  0.7947  0.4947
 3945TIP3   OH211798   3.430   5.383   2.194  0.5147 -0.5120 -0.2993
 3945TIP3    H111799   3.454   5.341   2.277 -2.5296  0.2360  1.1100
 3945TIP3    H211800   3.426   5.477   2.215  0.7502 -0.1804 -1.6193
 3946TIP3   OH211801   7.168   3.393   5.134 -0.7779 -0.0995  0.1912
 3946TIP3    H111802   7.078   3.375   5.104 -0.4060 -1.5397 -0.1731
 3946TIP3    H211803   7.204   3.451   5.067 -1.5112  0.6782  0.4628
 3947TIP3   OH211804   2.459   0.361   2.094 -0.1440  0.2687  0.9882
 3947TIP3    H111805   2.402   0.401   2.028  0.9805  1.2050  0.5422
 3947TIP3    H211806   2.506   0.292   2.046 -0.7427 -0.3856  1.3138
 3948TIP3   OH211807   4.242   1.531   5.279 -0.3470  0.8883 -0.2729
 3948TIP3    H111808   4.182   1.510   5.207 -0.6168 -0.3124  0.2677
 3948TIP3    H211809   4.300   1.597   5.243  1.0786 -1.3753 -2.4770
 3949TIP3   OH211810   3.787   4.484   1.980  0.1002 -0.2967 -0.0429
 3949TIP3    H111811   3.880   4.501   1.965 -0.2318  0.7291 -1.1087
 3949TIP3    H211812   3.746   4.570   1.971 -0.8512 -0.5748  1.3521
 3950TIP3   OH211813   0.173   4.185   0.051  0.0613  0.4839 -0.6178
 3950TIP3    H111814   0.123   4.108   0.022 -0.0790  0.5799 -0.6317
 3950TIP3    H211815   0.210   4.159   0.135  0.9882 -0.0278 -1.1570
 3951TIP3   OH211816   3.519   3.473   1.085 -0.2009 -0.1454 -0.0456
 3951TIP3    H111817   3.509   3.426   1.167  0.8336  0.1302  0.2626
 3951TIP3    H211818   3.590   3.426   1.039 -1.7100 -1.1731 -1.4424
 3952TIP3   OH211819   0.429   1.181   2.918 -0.7049 -0.1408 -0.2548
 3952TIP3    H111820   0.417   1.260   2.864 -1.3765 -0.0332  0.0373
 3952TIP3    H211821   0.340   1.157   2.944 -0.4127 -0.3749  0.5473
 3953TIP3   OH211822   4.026   0.200   4.226 -0.4661 -0.1082 -0.6763
 3953TIP3    H111823   4.051   0.115   4.262 -0.6340 -0.1200 -0.5861
 3953TIP3    H211824   4.109   0.243   4.206 -0.2543  0.9022  2.0064
 3954TIP3   OH211825   2.920   2.531   4.095  0.0049  0.1780 -0.0459
 3954TIP3    H111826   2.998   2.478   4.109  1.4272  1.5615 -2.1984
 3954TIP3    H211827   2.848   2.468   4.096  1.2857 -1.3560  0.4748
 3955TIP3   OH211828   0.119   5.879   5.753  0.3223 -0.0761 -0.0339
 3955TIP3    H111829   0.134   5.972   5.739 -0.4268 -0.1759 -1.6968
 3955TIP3    H211830   0.079   5.848   5.672  0.0626 -1.7433  0.6814
 3956TIP3   OH211831   4.202   0.392   1.541  0.0680  0.1551  0.3225
 3956TIP3    H111832   4.297   0.386   1.552  0.1195  1.9727  1.3023
 3956TIP3    H211833   4.190   0.456   1.471 -0.4439 -0.6623 -0.3565
 3957TIP3   OH211834   5.212   1.522   4.642 -0.1752  0.0139  0.0361
 3957TIP3    H111835   5.264   1.570   4.708 -1.1428  0.6064  0.3943
 3957TIP3    H211836   5.130   1.502   4.687 -0.9442  0.6283 -1.0529
 3958TIP3   OH211837   1.203   2.755   2.039  0.0369 -0.1698 -0.0295
 3958TIP3    H111838   1.244   2.669   2.034 -0.0135 -0.1890 -0.1179
 3958TIP3    H211839   1.196   2.783   1.948 -0.8903 -0.5184 -0.0786
 3959TIP3   OH211840   1.639   0.964   4.735  0.2282  0.3479 -0.2528
 3959TIP3    H111841   1.549   0.931   4.736  0.0786  0.7613  1.0399
 3959TIP3    H211842   1.630   1.059   4.743  0.7765  0.4031 -0.2329
 3960TIP3   OH211843   5.359   6.125   0.110  0.1012 -0.7334 -0.4281
 3960TIP3    H111844   5.356   6.209   0.065 -0.5606 -0.5572 -0.0666
 3960TIP3    H211845   5.313   6.065   0.052  2.0567 -1.2679 -1.5104
 3961TIP3   OH211846   3.816   5.184   0.993  0.6606  0.1788  0.0569
 3961TIP3    H111847   3.901   5.157   0.958  1.2855  1.2610  0.6614
 3961TIP3    H211848   3.757   5.113   0.972  1.4122  0.0083 -1.5932
 3962TIP3   OH211849   5.545   1.645   0.724  0.0203  0.1734 -0.5834
 3962TIP3    H111850   5.542   1.687   0.811  1.1182 -0.8596 -0.0194
 3962TIP3    H211851   5.525   1.553   0.741 -3.0250  0.4933 -1.8984
 3963TIP3   OH211852   2.419   0.225   5.441 -0.4691  0.0348  0.0867
 3963TIP3    H111853   2.352   0.191   5.382 -0.3638 -1.0240  0.5530
 3963TIP3    H211854   2.379   0.303   5.480 -0.8480  0.2745 -0.7583
 3964TIP3   OH211855   4.043   0.846   4.877  0.1995 -0.0986  0.3961
 3964TIP3    H111856   4.100   0.921   4.863  1.4788 -1.2006 -0.6971
 3964TIP3    H211857   4.062   0.788   4.803 -0.6998 -1.5107  1.2231
 3965TIP3   OH211858   1.068   3.143   5.577 -0.1216 -0.1785  0.2465
 3965TIP3    H111859   1.068   3.233   5.544  0.0796 -0.2157  0.1443
 3965TIP3    H211860   1.032   3.091   5.505  2.6283 -0.6149 -0.9114
 3966TIP3   OH211861   0.631   4.481   0.912 -0.6063 -0.5725 -0.6830
 3966TIP3    H111862   0.661   4.467   0.822  1.4832 -0.8160 -0.0099
 3966TIP3    H211863   0.599   4.572   0.913 -0.4332 -0.4904 -1.6081
 3967TIP3   OH211864   1.981   1.556   4.682  0.2587 -0.4271  0.3990
 3967TIP3    H111865   2.019   1.641   4.705  0.1210 -0.3139  0.2052
 3967TIP3    H211866   2.037   1.524   4.611  0.3016 -0.4898  0.4616
 3968TIP3   OH211867   1.056   4.393   2.025  0.6502  0.2970 -0.1982
 3968TIP3    H111868   1.132   4.359   2.071 -1.1662 -1.4862  1.7065
 3968TIP3    H211869   1.026   4.319   1.971 -0.5391  0.4823  0.1860
 3969TIP3   OH211870   1.631   4.175   5.337  0.4668 -0.2610  0.0141
 3969TIP3    H111871   1.653   4.249   5.279  0.5364  0.4875  0.9789
 3969TIP3    H211872   1.602   4.216   5.418  1.2928 -1.3039  0.8592
 3970TIP3   OH211873   6.289   5.263   4.074  0.3984  0.0074 -0.3363
 3970TIP3    H111874   6.269   5.311   4.154 -0.7063 -1.2153  0.1668
 3970TIP3    H211875   6.241   5.309   4.006 -0.9861 -0.5850  0.2082
 3971TIP3   OH211876   1.028   0.553   5.349  0.3388  0.2786 -0.1879
 3971TIP3    H111877   0.993   0.600   5.425 -0.7511  0.8086 -0.9880
 3971TIP3    H211878   1.024   0.617   5.277  1.1524 -0.2726 -0.7410
 3972TIP3   OH211879   4.118   6.560   3.024 -0.1611 -0.3101 -0.2561
 3972TIP3    H111880   4.046   6.581   2.965 -1.0008  0.7202  1.0773
 3972TIP3    H211881   4.158   6.482   2.986 -0.5804  0.3733 -2.2387
 3973TIP3   OH211882   5.789   6.319   4.670  0.0512 -0.3274 -0.5977
 3973TIP3    H111883   5.884   6.310   4.683 -0.1944 -3.4048 -0.2602
 3973TIP3    H211884   5.751   6.298   4.755 -0.9795  2.6639 -0.2126
 3974TIP3   OH211885   3.517   4.985   1.802  0.4463 -0.1517 -0.0498
 3974TIP3    H111886   3.514   4.916   1.736  0.2586  0.1900 -0.3959
 3974TIP3    H211887   3.584   5.046   1.771  0.5834 -0.1530  0.2358
 3975TIP3   OH211888   2.345   6.073   4.472 -0.2068 -0.2688  0.4856
 3975TIP3    H111889   2.273   6.014   4.449 -1.6263  1.3653  0.5706
 3975TIP3    H211890   2.306   6.160   4.474  1.3601  0.4808  2.3822
 3976TIP3   OH211891   5.925   2.815   3.137 -0.6009 -0.0742  0.2449
 3976TIP3    H111892   5.844   2.815   3.188 -1.2547  1.9815 -0.6924
 3976TIP3    H211893   5.958   2.905   3.144 -0.0340 -0.0636 -1.8864
 3977TIP3   OH211894   4.279   3.922   2.966 -0.0988 -0.2913 -0.3186
 3977TIP3    H111895   4.320   3.874   2.894  0.3305  0.0404 -0.3002
 3977TIP3    H211896   4.256   3.854   3.030  1.5710 -0.3955  0.2440
 3978TIP3   OH211897   6.875   3.579   5.326  1.1055 -0.0502  0.2928
 3978TIP3    H111898   6.815   3.620   5.387  2.2034 -0.0039  1.3894
 3978TIP3    H211899   6.837   3.493   5.308  1.1307 -0.3664  1.6519
 3979TIP3   OH211900   5.262   5.767   5.154  0.1930 -0.0865  0.0184
 3979TIP3    H111901   5.254   5.678   5.189 -0.2833 -0.1075 -0.1351
 3979TIP3    H211902   5.175   5.805   5.166  0.7789  0.8857  1.4731
 3980TIP3   OH211903   2.555   3.104   5.178 -0.7781  0.1359 -0.3455
 3980TIP3    H111904   2.571   3.109   5.272 -0.7226 -0.2529 -0.3309
 3980TIP3    H211905   2.641   3.111   5.138 -0.7569 -0.1095 -0.3470
 3981TIP3   OH211906   0.092   5.576   4.292  0.0840  0.0874 -0.5940
 3981TIP3    H111907  -0.001   5.558   4.301  0.6149 -1.8830  2.4399
 3981TIP3    H211908   0.126   5.500   4.244  0.0616  1.3042 -2.6405
 3982TIP3   OH211909   1.816   5.589   3.338  0.3151  0.0771 -0.0735
 3982TIP3    H111910   1.803   5.675   3.377 -0.0299 -0.0372  0.0668
 3982TIP3    H211911   1.900   5.558   3.374  1.5115  1.2212 -1.7154
 3983TIP3   OH211912   2.446   6.124   2.661  0.0100 -0.3570 -0.2629
 3983TIP3    H111913   2.353   6.130   2.686  0.7140 -2.5855  3.7385
 3983TIP3    H211914   2.445   6.071   2.581 -2.1294 -0.2531 -0.3856
 3984TIP3   OH211915   5.350   2.237   0.691 -0.5253 -0.0080  0.2680
 3984TIP3    H111916   5.308   2.309   0.645 -0.8649  0.3056  1.0649
 3984TIP3    H211917   5.278   2.189   0.731 -0.2634 -0.5261  0.1301
 3985TIP3   OH211918   4.610   5.650   1.139  0.6852 -0.8396  0.8614
 3985TIP3    H111919   4.538   5.661   1.201  0.1099 -1.9926  0.4099
 3985TIP3    H211920   4.639   5.740   1.120 -0.5662 -0.3714  1.0992
 3986TIP3   OH211921   5.548   4.229   5.504  0.0438  0.2518  0.0827
 3986TIP3    H111922   5.518   4.318   5.521  0.3399  0.3971 -0.1456
 3986TIP3    H211923   5.494   4.174   5.561  0.6286  0.6733  1.0738
 3987TIP3   OH211924   0.945   0.428   4.401  0.1356  0.1210 -0.2439
 3987TIP3    H111925   1.006   0.375   4.453  0.7569 -0.0495 -1.1347
 3987TIP3    H211926   0.913   0.368   4.334  0.1311  0.6276 -0.6959
 3988TIP3   OH211927   0.105   2.593   2.469  0.1034  0.1717 -0.1482
 3988TIP3    H111928   0.118   2.551   2.384  1.1020 -0.2517  0.1988
 3988TIP3    H211929   0.103   2.520   2.531 -0.6524  0.4752  0.2020
 3989TIP3   OH211930   2.042   4.652   5.695  0.1549 -0.0364 -0.0883
 3989TIP3    H111931   2.070   4.669   5.785 -2.2399  0.6700  0.5862
 3989TIP3    H211932   2.101   4.582   5.665  0.7136 -0.6323  2.1806
 3990TIP3   OH211933   1.540   5.826   0.596 -0.0523  0.4293  0.4217
 3990TIP3    H111934   1.535   5.921   0.605  1.0890  0.6576 -1.0887
 3990TIP3    H211935   1.632   5.805   0.611 -0.5545 -0.6913  2.4412
 3991TIP3   OH211936   3.255   3.745   5.513 -0.0089 -0.1516  0.3536
 3991TIP3    H111937   3.237   3.836   5.492  1.0992 -0.4040 -1.9790
 3991TIP3    H211938   3.187   3.696   5.466  1.4385 -0.6498 -1.3287
 3992TIP3   OH211939   3.926   0.564   2.668  0.1656  0.1528 -0.6726
 3992TIP3    H111940   3.835   0.593   2.656  0.6406  1.1934 -2.0433
 3992TIP3    H211941   3.965   0.631   2.724 -0.2694 -1.1230  1.2639
 3993TIP3   OH211942   1.635   4.640   4.517 -0.1713  0.0446 -0.0316
 3993TIP3    H111943   1.614   4.588   4.439  1.2231  0.6762 -0.8541
 3993TIP3    H211944   1.618   4.580   4.590  1.4698 -1.6784 -0.9475
 3994TIP3   OH211945   4.816   4.163   0.659 -0.1779  0.4703 -0.2985
 3994TIP3    H111946   4.792   4.071   0.650  0.2053  0.3813 -0.4195
 3994TIP3    H211947   4.848   4.172   0.749 -0.2879  0.5026 -0.2624
 3995TIP3   OH211948   0.699   5.625   5.711  0.2280  0.5478  0.4815
 3995TIP3    H111949   0.648   5.566   5.766  1.2808  0.4216  1.3644
 3995TIP3    H211950   0.642   5.701   5.697 -0.4237  0.1439  0.9263
 3996TIP3   OH211951   6.694   4.165   1.332 -0.1942 -0.1554 -0.0310
 3996TIP3    H111952   6.649   4.081   1.323  1.5451 -0.9561 -1.8639
 3996TIP3    H211953   6.627   4.231   1.312 -2.0341 -0.8745  2.9862
 3997TIP3   OH211954   0.018   6.521   1.852 -0.1160 -0.0513 -0.1873
 3997TIP3    H111955  -0.058   6.463   1.837  0.2567 -0.6164  0.0754
 3997TIP3    H211956   0.049   6.497   1.939 -0.3828  1.0541  0.2344
 3998TIP3   OH211957   6.429   0.711   2.970  0.1302  0.0050  0.3864
 3998TIP3    H111958   6.491   0.641   2.949  0.5049 -0.5226  2.9104
 3998TIP3    H211959   6.343   0.667   2.971 -0.0889  0.3344 -1.2462
 3999TIP3   OH211960   6.577   3.395   2.995 -0.6194 -0.0559  0.2049
 3999TIP3    H111961   6.628   3.374   2.917 -1.6245  0.5944 -0.6577
 3999TIP3    H211962   6.576   3.490   2.999 -0.4002 -0.0820  1.1517
 4000TIP3   OH211963   2.018   4.249   0.153  0.1966  0.0399 -0.1113
 4000TIP3    H111964   2.085   4.233   0.220 -0.4786  0.5502  0.7103
 4000TIP3    H211965   1.953   4.181   0.169  0.5521 -0.5168 -0.9733
 4001TIP3   OH211966   0.261   0.940   2.179  0.2599  0.4261 -0.3010
 4001TIP3    H111967   0.347   0.909   2.208  0.2887 -0.4566 -1.2983
 4001TIP3    H211968   0.275   1.033   2.159  1.1588  0.1266 -1.1306
 4002TIP3   OH211969   2.380   4.394   3.101  0.3361 -0.6221 -0.2279
 4002TIP3    H111970   2.315   4.343   3.052  1.7166 -2.1585 -0.5580
 4002TIP3    H211971   2.405   4.337   3.174  0.5117  0.4146  0.5464
 4003TIP3   OH211972   3.260   3.199   4.759 -0.2030 -0.0403  0.5301
 4003TIP3    H111973   3.318   3.133   4.797 -1.1830 -1.2214  0.0183
 4003TIP3    H211974   3.257   3.268   4.826 -0.0046 -0.9911  1.5574
 4004TIP3   OH211975   4.814   3.289   2.742  0.5286 -0.6145 -0.0175
 4004TIP3    H111976   4.835   3.344   2.818  1.6594  0.8562 -1.3161
 4004TIP3    H211977   4.723   3.264   2.755  0.3928  0.4421  1.3089
 4005TIP3   OH211978   6.649   5.504   1.194 -0.3437  0.0040 -0.1819
 4005TIP3    H111979   6.698   5.568   1.143  0.3360 -0.2500  0.1454
 4005TIP3    H211980   6.714   5.463   1.251 -0.7115 -1.1609 -0.5676
 4006TIP3   OH211981   2.255   4.720   5.384  0.7980 -0.1534 -0.3653
 4006TIP3    H111982   2.247   4.629   5.353  0.3971 -0.3139  0.1910
 4006TIP3    H211983   2.325   4.716   5.449 -1.2885 -0.7460  2.0331
 4007TIP3   OH211984   5.195   2.668   1.780 -0.2794 -0.1345 -0.1760
 4007TIP3    H111985   5.225   2.738   1.837 -1.2252 -0.2704  0.5110
 4007TIP3    H211986   5.228   2.691   1.694 -1.5278  1.7671 -0.1933
 4008TIP3   OH211987   5.425   5.266   3.695 -0.3551  0.3111 -0.0616
 4008TIP3    H111988   5.424   5.177   3.731 -0.3330 -0.3972 -1.7188
 4008TIP3    H211989   5.411   5.322   3.771 -2.2944 -1.1807  0.7888
 4009TIP3   OH211990   4.575   1.456   1.382 -0.3343  0.5101  0.3163
 4009TIP3    H111991   4.655   1.417   1.417 -0.0363  1.2933  0.5235
 4009TIP3    H211992   4.550   1.523   1.446 -1.9868 -0.6913  1.0095
 4010TIP3   OH211993   3.600   6.665   1.377 -0.4884  0.0932 -0.2106
 4010TIP3    H111994   3.626   6.743   1.427  0.7934  0.9572 -2.0657
 4010TIP3    H211995   3.682   6.634   1.338 -1.6120  0.8053 -3.4989
 4011TIP3   OH211996   6.471   2.553   4.804  0.4881 -0.1786 -0.2815
 4011TIP3    H111997   6.401   2.563   4.869  0.1625 -0.3645 -0.5995
 4011TIP3    H211998   6.547   2.595   4.844 -0.1147  1.1094 -0.4165
 4012TIP3   OH211999   6.430   4.548   1.839  0.1899 -0.3289  0.3632
 4012TIP3    H112000   6.431   4.537   1.744  0.5462  1.2765  0.1514
 4012TIP3    H212001   6.344   4.516   1.866 -0.5188  0.6139 -0.7093
 4013TIP3   OH212002   2.692   1.226   5.649  0.3701 -0.1818  0.0516
 4013TIP3    H112003   2.697   1.160   5.718 -1.2454 -0.6709 -0.2564
 4013TIP3    H212004   2.601   1.224   5.620  0.4273  1.7376 -0.4283
 4014TIP3   OH212005   4.227   3.999   1.649 -0.8346  0.2826  0.5467
 4014TIP3    H112006   4.275   4.064   1.701 -0.8275  0.1978  0.6459
 4014TIP3    H212007   4.147   4.043   1.623 -1.0634  0.1602  1.0395
 4015TIP3   OH212008   3.489   3.986   1.858 -0.0598  0.9875  0.4880
 4015TIP3    H112009   3.434   4.036   1.919  0.3086  0.5457  1.1899
 4015TIP3    H212010   3.560   4.045   1.836 -0.5315  1.3779 -0.0219
 4016TIP3   OH212011   3.775   3.081   5.234  0.4137  0.1556 -0.0559
 4016TIP3    H112012   3.765   3.047   5.323 -0.6477  0.5797  0.0090
 4016TIP3    H212013   3.827   3.161   5.244 -0.5465  0.7480  0.3288
 4017TIP3   OH212014   5.517   0.996   4.895  0.7294  0.2784  0.4844
 4017TIP3    H112015   5.552   1.000   4.806  0.0451  0.1219  0.2019
 4017TIP3    H212016   5.470   1.079   4.907  2.7158  1.3157  1.5287
 4018TIP3   OH212017   6.533   1.302   4.207  0.3261 -0.1398  0.5954
 4018TIP3    H112018   6.588   1.224   4.199  0.0666 -0.1997 -0.7185
 4018TIP3    H212019   6.513   1.328   4.117  1.2133  2.0385  0.9523
 4019TIP3   OH212020   2.336   1.647   5.132  0.3036 -0.3844  0.6340
 4019TIP3    H112021   2.417   1.616   5.171 -0.0418  0.2975  1.9563
 4019TIP3    H212022   2.356   1.656   5.039  1.5284 -0.8741  0.8294
 4020TIP3   OH212023   3.527   1.932   5.466 -0.1207 -0.0455  0.1973
 4020TIP3    H112024   3.451   1.892   5.508  0.0600 -0.0786  0.4981
 4020TIP3    H212025   3.490   1.996   5.405 -0.3708  0.8831  1.2912
 4021TIP3   OH212026   1.750   3.783   0.477 -0.2439  0.6513  0.2407
 4021TIP3    H112027   1.743   3.688   0.476  1.5340  0.4959 -0.5886
 4021TIP3    H212028   1.828   3.803   0.424  0.0536  2.5027  1.2683
 4022TIP3   OH212029   0.378   4.522   5.067 -0.6535  0.0561  0.3615
 4022TIP3    H112030   0.434   4.448   5.043 -1.2081 -0.4309  0.5519
 4022TIP3    H212031   0.391   4.532   5.161 -0.9040 -0.0723  0.4097
 4023TIP3   OH212032   1.460   1.879   2.831 -0.2344  0.1436  0.4051
 4023TIP3    H112033   1.393   1.823   2.791  0.2201 -0.4622  0.4765
 4023TIP3    H212034   1.493   1.933   2.758 -1.0653  0.7336  0.4458
 4024TIP3   OH212035   0.643   2.614   4.462  0.7787  0.2152  0.1230
 4024TIP3    H112036   0.631   2.707   4.476  0.0770  0.2152 -0.4109
 4024TIP3    H212037   0.696   2.584   4.536  2.3795  1.3187 -0.5117
 4025TIP3   OH212038   6.572   5.935   5.688  0.8624 -0.2419  0.8027
 4025TIP3    H112039   6.532   5.969   5.608  0.3408 -1.2655  0.6219
 4025TIP3    H212040   6.595   6.014   5.738 -2.2837  0.4477  1.3758
 4026TIP3   OH212041   4.839   3.562   2.581 -0.3868  0.1900  0.2036
 4026TIP3    H112042   4.744   3.563   2.579 -0.3795  0.1775 -0.4578
 4026TIP3    H212043   4.863   3.483   2.532 -0.0049  1.4487 -1.7181
 4027TIP3   OH212044   4.420   4.368   5.833  0.0277 -0.5810  0.3714
 4027TIP3    H112045   4.439   4.276   5.814  0.2631 -0.5729  0.5690
 4027TIP3    H212046   4.470   4.417   5.767  0.7994 -0.5553  0.9632
 4028TIP3   OH212047   6.551   3.878   0.081 -0.6417 -0.5290 -0.1332
 4028TIP3    H112048   6.529   3.971   0.072 -0.1918 -0.0898  2.5784
 4028TIP3    H212049   6.474   3.833   0.047 -0.9517  0.8045 -1.3241
 4029TIP3   OH212050   3.714   0.479   4.905 -0.2370  0.7612 -0.2804
 4029TIP3    H112051   3.619   0.480   4.907 -0.2477 -0.2351  0.7942
 4029TIP3    H212052   3.737   0.394   4.869  0.2100 -0.1895  2.1002
 4030TIP3   OH212053   0.767   5.878   4.041  0.4032  0.9044 -0.2970
 4030TIP3    H112054   0.771   5.964   4.083  0.4203  0.4047  0.7276
 4030TIP3    H212055   0.802   5.817   4.105  0.2426  0.1001 -0.9552
 4031TIP3   OH212056   0.743   2.265   5.842  0.2116 -0.2051  0.8177
 4031TIP3    H112057   0.733   2.182   5.797  3.5949 -0.8562  0.9531
 4031TIP3    H212058   0.829   2.259   5.885  2.3446  4.5009 -1.9232
 4032TIP3   OH212059   6.359   3.745   1.999  0.1208 -0.1322 -0.6406
 4032TIP3    H112060   6.421   3.790   2.057 -1.2506  1.0233 -0.0156
 4032TIP3    H212061   6.274   3.758   2.039 -0.6024 -1.3530 -1.6902
 4033TIP3   OH212062   0.716   3.529   1.077 -0.1559  0.0661 -0.5092
 4033TIP3    H112063   0.648   3.523   1.144  0.6752  2.1291  0.6295
 4033TIP3    H212064   0.797   3.505   1.124  0.1764 -0.5545 -1.3634
 4034TIP3   OH212065   1.560   1.866   5.001 -0.1537  0.2550 -0.2252
 4034TIP3    H112066   1.540   1.774   4.983 -0.6979  0.3318 -0.0105
 4034TIP3    H212067   1.526   1.882   5.089 -2.1076  1.2807 -1.1195
 4035TIP3   OH212068   5.836   5.468   2.164  0.0797  0.7756 -0.3817
 4035TIP3    H112069   5.845   5.426   2.249  0.1760  0.7223 -0.4180
 4035TIP3    H212070   5.771   5.415   2.118  1.5196 -0.4377 -1.1047
 4036TIP3   OH212071   2.123   0.220   2.610 -0.5405 -0.3998  0.3033
 4036TIP3    H112072   2.160   0.194   2.695  1.4054  1.4707  0.1258
 4036TIP3    H212073   2.144   0.147   2.552 -0.8447 -1.1832  1.1483
 4037TIP3   OH212074   4.238   1.032   4.772 -0.3836 -0.5864 -0.5146
 4037TIP3    H112075   4.333   1.032   4.763 -0.4056 -1.9950 -1.0285
 4037TIP3    H212076   4.222   1.069   4.859  0.5053  1.6236 -1.2159
 4038TIP3   OH212077   4.131   3.038   0.784  0.5124  0.5008 -0.6415
 4038TIP3    H112078   4.178   2.958   0.809  0.0205  1.1506  2.8019
 4038TIP3    H212079   4.039   3.018   0.802  0.5920  2.5087  2.8522
 4039TIP3   OH212080   0.035   2.105   2.720  0.9279  0.0046 -0.1033
 4039TIP3    H112081  -0.032   2.045   2.687  0.9094  0.3124 -0.6396
 4039TIP3    H212082   0.107   2.048   2.749  0.7746 -0.2892 -0.3001
 4040TIP3   OH212083   0.072   6.318   3.543 -0.3524  0.0083  0.6319
 4040TIP3    H112084   0.082   6.384   3.612 -0.2640  0.5070  0.1472
 4040TIP3    H212085   0.144   6.336   3.483 -0.3891 -0.4712  0.4397
 4041TIP3   OH212086   2.661   1.639   4.896 -0.3083  0.1746 -0.0754
 4041TIP3    H112087   2.676   1.733   4.908  2.2462 -0.0504 -0.9538
 4041TIP3    H212088   2.674   1.625   4.803  1.6448 -1.3574  0.3695
 4042TIP3   OH212089   6.093   2.964   3.517 -0.3458 -0.2809  0.1647
 4042TIP3    H112090   6.077   3.046   3.563 -0.2626 -0.2525  0.1439
 4042TIP3    H212091   6.181   2.974   3.480 -0.3141 -0.3998  0.2062
 4043TIP3   OH212092   3.446   2.259   3.991  0.1530  0.1691  0.4071
 4043TIP3    H112093   3.449   2.322   4.063 -1.0152  0.0026  0.6250
 4043TIP3    H212094   3.514   2.288   3.931  1.1183  0.3445  1.5414
 4044TIP3   OH212095   4.648   5.491   3.655 -0.7027  0.1354  0.1902
 4044TIP3    H112096   4.669   5.578   3.687 -1.3743  0.1847  0.5136
 4044TIP3    H212097   4.568   5.466   3.702 -0.7737 -0.4656 -0.2307
 4045TIP3   OH212098   2.435   1.958   5.806 -0.4210 -0.2880 -0.0281
 4045TIP3    H112099   2.408   1.927   5.720  1.3956  1.2145 -1.2253
 4045TIP3    H212100   2.473   1.882   5.849 -1.1650 -1.0062 -0.6208
 4046TIP3   OH212101   3.332   2.090   5.356  0.8682 -0.5596 -0.2674
 4046TIP3    H112102   3.310   2.025   5.289  0.6803  0.0004 -0.7588
 4046TIP3    H212103   3.262   2.155   5.350  1.3652 -0.0071 -0.1776
 4047TIP3   OH212104   1.144   2.775   0.931  0.2628  0.1111 -0.5434
 4047TIP3    H112105   1.107   2.851   0.886  2.1092  0.8956 -0.8207
 4047TIP3    H212106   1.233   2.800   0.952  0.1142 -1.0422  1.7209
 4048TIP3   OH212107   5.166   4.066   3.066  0.2092  0.1611  0.2646
 4048TIP3    H112108   5.188   4.141   3.121  0.8859  0.5285 -0.4945
 4048TIP3    H212109   5.071   4.072   3.055  0.3026  1.1422 -0.1068
 4049TIP3   OH212110   6.648   1.298   2.183 -0.7619  0.0018 -0.6271
 4049TIP3    H112111   6.580   1.297   2.115 -0.2477  1.6037 -1.2178
 4049TIP3    H212112   6.643   1.386   2.220  0.1809 -0.2661  0.1627
 4050TIP3   OH212113   2.367   5.701   5.199  0.0272 -0.0304  0.2405
 4050TIP3    H112114   2.437   5.766   5.200 -1.1524  1.3190  0.1088
 4050TIP3    H212115   2.289   5.751   5.225 -1.2016 -1.0454 -1.2954
 4051TIP3   OH212116   4.707   2.409   2.423 -0.1702 -0.3259  0.5447
 4051TIP3    H112117   4.648   2.438   2.493  0.7830  1.5145  0.6324
 4051TIP3    H212118   4.785   2.379   2.469 -1.0562 -3.0455  0.4473
 4052TIP3   OH212119   0.937   0.092   1.595 -0.6321  0.3092  0.8071
 4052TIP3    H112120   0.918   0.056   1.682  0.6088  0.5218  1.1881
 4052TIP3    H212121   0.926   0.186   1.606 -3.5951  0.1599 -0.1157
 4053TIP3   OH212122   4.574   0.190   0.444 -0.7177 -0.1411 -0.2518
 4053TIP3    H112123   4.619   0.182   0.528 -0.9892 -1.8100 -0.2275
 4053TIP3    H212124   4.612   0.268   0.403  0.2046  0.0577  0.9397
 4054TIP3   OH212125   0.498   2.045   2.220  0.4508  0.1748 -0.0854
 4054TIP3    H112126   0.407   2.071   2.235  1.1461  2.2725  0.8328
 4054TIP3    H212127   0.491   1.960   2.177 -1.9348  0.1815  0.1269
 4055TIP3   OH212128   7.081   4.282   3.276  0.1621  0.8330 -0.3370
 4055TIP3    H112129   7.069   4.297   3.370  0.8968  1.9260 -0.3990
 4055TIP3    H212130   7.170   4.313   3.258  0.4813 -0.4685 -1.1866
 4056TIP3   OH212131   5.876   3.103   0.424 -0.6224  0.0058  0.3383
 4056TIP3    H112132   5.844   3.058   0.503 -0.6054  0.1178  0.4095
 4056TIP3    H212133   5.962   3.065   0.408 -1.2856 -1.1788 -0.5617
 4057TIP3   OH212134   0.900   2.659   0.065 -0.0913  0.1601 -0.2497
 4057TIP3    H112135   0.981   2.619   0.097  0.3791  1.3172  0.0215
 4057TIP3    H212136   0.831   2.615   0.115  0.5623  1.2385  1.7168
 4058TIP3   OH212137   2.304   1.557   1.441  0.0782 -0.3495  0.0665
 4058TIP3    H112138   2.212   1.554   1.468 -0.2288 -2.6271 -1.0194
 4058TIP3    H212139   2.353   1.557   1.523 -0.8661  0.9482  0.6616
 4059TIP3   OH212140   1.922   3.146   2.127  0.7261 -0.4801 -0.1982
 4059TIP3    H112141   1.927   3.051   2.119  1.3643 -0.4339 -0.3664
 4059TIP3    H212142   1.879   3.161   2.211  0.3838 -0.9173 -0.2947
 4060TIP3   OH212143   1.940   3.267   3.449 -0.5698  0.1345  0.5159
 4060TIP3    H112144   1.867   3.291   3.392  0.7041 -0.5703 -1.5191
 4060TIP3    H212145   2.004   3.337   3.435  0.4866 -0.9679 -0.3593
 4061TIP3   OH212146   3.029   2.541   5.697  0.2971 -1.1267 -0.1747
 4061TIP3    H112147   2.995   2.628   5.719 -1.5137 -1.8485  0.0940
 4061TIP3    H212148   3.118   2.540   5.732  0.0128  0.2845  0.6737
 4062TIP3   OH212149   1.171   1.651   5.095  0.0944 -0.0585 -0.1689
 4062TIP3    H112150   1.113   1.597   5.040 -1.6174  1.6284 -0.1360
 4062TIP3    H212151   1.254   1.653   5.048 -0.7933 -0.1093 -1.7976
 4063TIP3   OH212152   1.868   5.599   5.666  0.1884 -0.7908 -0.4186
 4063TIP3    H112153   1.781   5.562   5.684  0.4915 -1.0810  0.5440
 4063TIP3    H212154   1.877   5.593   5.571 -1.2596  0.2095 -0.6492
 4064TIP3   OH212155   1.049   1.464   3.035  0.1310 -0.2160  0.3921
 4064TIP3    H112156   1.032   1.377   3.069  0.9108 -0.4205  0.2849
 4064TIP3    H212157   1.144   1.466   3.021  0.0986  0.5880  0.2363
 4065TIP3   OH212158   0.674   5.657   1.572 -1.1823 -0.1137  0.1353
 4065TIP3    H112159   0.763   5.676   1.599 -0.7760 -0.4816 -0.8788
 4065TIP3    H212160   0.670   5.561   1.568 -0.9643 -0.0862 -1.8106
 4066TIP3   OH212161   5.624   2.048   5.248  0.2670 -0.1721 -0.0487
 4066TIP3    H112162   5.625   1.955   5.223 -0.0630 -0.7182  1.7974
 4066TIP3    H212163   5.675   2.052   5.329 -0.8396  1.0133  0.6319
 4067TIP3   OH212164   6.675   0.221   0.167  0.1546 -0.7165 -0.7587
 4067TIP3    H112165   6.604   0.191   0.223  0.9503  0.8204  1.1597
 4067TIP3    H212166   6.679   0.155   0.097 -2.3247 -1.4848 -0.2740
 4068TIP3   OH212167   4.663   4.643   1.328 -0.1362  0.2963 -0.5186
 4068TIP3    H112168   4.594   4.579   1.346  0.2958 -0.1843 -0.5164
 4068TIP3    H212169   4.744   4.591   1.326  0.3995  1.0263  0.7881
 4069TIP3   OH212170   1.746   4.827   2.768 -0.6856 -0.2426 -0.6121
 4069TIP3    H112171   1.749   4.922   2.773 -2.1575 -0.1906  0.2153
 4069TIP3    H212172   1.820   4.802   2.713  2.2459  1.0970  2.4052
 4070TIP3   OH212173   4.196   4.007   0.063 -0.1137  0.3158  0.4754
 4070TIP3    H112174   4.175   4.066   0.136 -0.1235  0.4574  0.3579
 4070TIP3    H212175   4.125   3.944   0.062 -0.5803  0.8433  0.0245
 4071TIP3   OH212176   3.756   1.333   5.450  0.6144  0.3542 -0.0560
 4071TIP3    H112177   3.787   1.398   5.513  0.2856 -0.3234  0.8366
 4071TIP3    H212178   3.732   1.257   5.504 -1.2533  0.3516 -0.8184
 4072TIP3   OH212179   3.402   4.380   0.716 -0.2124  0.7076  0.5699
 4072TIP3    H112180   3.437   4.305   0.764 -2.9702 -1.3386 -0.3398
 4072TIP3    H212181   3.463   4.393   0.644 -0.2120 -1.5061  0.0823
 4073TIP3   OH212182   0.488   0.721   5.485  0.2167  0.5150 -0.3272
 4073TIP3    H112183   0.560   0.690   5.430 -0.0615 -0.2616 -0.2563
 4073TIP3    H212184   0.511   0.693   5.573 -0.2394  0.1373 -0.3258
 4074TIP3   OH212185   2.572   5.655   0.542  0.1063  0.1762 -0.4889
 4074TIP3    H112186   2.573   5.719   0.471 -0.9064 -0.0671 -0.7403
 4074TIP3    H212187   2.647   5.678   0.596  0.0186  1.3047 -0.8175
 4075TIP3   OH212188   1.606   1.253   3.699  0.2748 -0.1202  0.3024
 4075TIP3    H112189   1.585   1.214   3.783  2.1502 -1.1276  0.3590
 4075TIP3    H212190   1.563   1.197   3.635 -2.2145  1.3608  0.5539
 4076TIP3   OH212191   3.214   2.880   1.624 -0.5396 -0.2559  0.2222
 4076TIP3    H112192   3.307   2.896   1.637 -0.5741 -0.9041  1.4638
 4076TIP3    H212193   3.170   2.948   1.675 -0.8366  1.6751 -2.4045
 4077TIP3   OH212194   1.318   2.794   5.328 -0.8216 -0.1001  0.0713
 4077TIP3    H112195   1.405   2.774   5.360 -1.0426  0.5298  1.1044
 4077TIP3    H212196   1.333   2.853   5.253 -0.2910 -1.9551 -1.3629
 4078TIP3   OH212197   1.663   3.208   4.361  0.1323 -0.2665  0.0319
 4078TIP3    H112198   1.661   3.297   4.396 -0.2654 -0.4449  0.4708
 4078TIP3    H212199   1.625   3.154   4.430  1.3391 -0.9315  0.2118
 4079TIP3   OH212200   6.767   1.438   4.864  0.1994 -0.0316 -0.2358
 4079TIP3    H112201   6.816   1.398   4.936  2.0879  0.5332 -1.1476
 4079TIP3    H212202   6.831   1.447   4.793 -1.1106  1.1936 -1.3301
 4080TIP3   OH212203   5.616   3.819   2.619 -0.3349 -0.3394  0.0926
 4080TIP3    H112204   5.527   3.798   2.649  0.7842 -1.7191  2.7979
 4080TIP3    H212205   5.658   3.734   2.607  1.2492  0.2837  0.9983
 4081TIP3   OH212206   4.031   0.306   4.842  0.1462 -0.1984 -0.6320
 4081TIP3    H112207   3.969   0.330   4.773 -1.3469 -0.2851  0.6291
 4081TIP3    H212208   3.984   0.241   4.895  1.9703 -1.5915 -0.6161
 4082TIP3   OH212209   2.511   5.518   2.188  0.1723 -0.4493  0.0295
 4082TIP3    H112210   2.505   5.609   2.158 -0.2327 -0.7337 -0.7882
 4082TIP3    H212211   2.558   5.523   2.272 -3.6807  1.0276  2.3713
 4083TIP3   OH212212   6.111   0.644   4.716 -0.5052  0.5738  0.0607
 4083TIP3    H112213   6.204   0.629   4.704 -0.6684 -0.6245  0.1065
 4083TIP3    H212214   6.087   0.707   4.649  0.2152  0.3969 -0.3657
 4084TIP3   OH212215   3.755   6.432   3.959  0.2569 -0.3183  0.0127
 4084TIP3    H112216   3.736   6.341   3.935  0.0267 -0.1986 -0.2698
 4084TIP3    H212217   3.776   6.428   4.053  0.3052 -0.6691 -0.0096
 4085TIP3   OH212218   0.364   2.288   1.271  0.2204 -0.6859  0.3601
 4085TIP3    H112219   0.298   2.357   1.273  0.3390 -0.4714 -1.5904
 4085TIP3    H212220   0.340   2.230   1.344 -0.2755  1.0096  1.6311
 4086TIP3   OH212221   6.304   4.005   0.306 -0.3891 -0.0458  0.1360
 4086TIP3    H112222   6.318   3.910   0.303  1.0109  0.1734 -1.0018
 4086TIP3    H212223   6.382   4.039   0.349 -1.6062  0.4917  2.0111
 4087TIP3   OH212224   4.092   4.960   5.237 -0.1967 -0.7960 -0.0669
 4087TIP3    H112225   4.107   4.991   5.148 -0.4294  0.1746  0.2160
 4087TIP3    H212226   4.154   4.889   5.249  1.6609  0.7300 -0.1428
 4088TIP3   OH212227   3.165   2.595   0.247 -0.4047  0.4200  0.6208
 4088TIP3    H112228   3.257   2.610   0.225 -0.9660  0.1077 -2.2854
 4088TIP3    H212229   3.155   2.500   0.241 -1.4115  0.6004 -1.7317
 4089TIP3   OH212230   1.760   2.075   2.862  0.0475  0.7041 -0.1712
 4089TIP3    H112231   1.726   2.026   2.937  0.2412 -0.6523 -0.9348
 4089TIP3    H212232   1.691   2.070   2.797  0.7328 -0.0510 -0.8715
 4090TIP3   OH212233   1.253   5.089   0.901 -0.1970  0.1901 -0.7120
 4090TIP3    H112234   1.158   5.073   0.905 -0.1289  0.0324  1.5165
 4090TIP3    H212235   1.261   5.173   0.855 -1.2912 -0.5584 -2.3419
 4091TIP3   OH212236   3.463   2.352   1.635  0.2541  0.1276 -0.2537
 4091TIP3    H112237   3.492   2.266   1.607  0.1051 -0.1008  0.2837
 4091TIP3    H212238   3.368   2.349   1.628  0.2635  0.3261 -0.4608
 4092TIP3   OH212239   4.058   2.163   4.769  0.2444  0.2774 -0.0059
 4092TIP3    H112240   4.110   2.215   4.831 -1.3797  1.6258  0.2783
 4092TIP3    H212241   4.046   2.221   4.693  0.6424 -0.6817 -0.8197
 4093TIP3   OH212242   2.520   2.119   2.610 -0.0737 -0.1507 -0.2216
 4093TIP3    H112243   2.439   2.151   2.649  1.3260  1.3588  1.6499
 4093TIP3    H212244   2.524   2.162   2.524 -1.4052 -0.5655 -0.5168
 4094TIP3   OH212245   2.721   6.512   1.360 -0.4209  0.0438 -0.6467
 4094TIP3    H112246   2.660   6.583   1.379  0.1357 -0.0086  1.5662
 4094TIP3    H212247   2.665   6.442   1.325 -1.7819 -0.1823  1.7449
 4095TIP3   OH212248   6.723   3.505   4.564  0.3034  0.2026  0.2795
 4095TIP3    H112249   6.707   3.548   4.648 -0.0162 -0.5982  0.6405
 4095TIP3    H212250   6.703   3.412   4.580 -1.0366  0.2346 -1.0323
 4096TIP3   OH212251   4.934   6.122   4.218  0.1768  0.9103  0.3391
 4096TIP3    H112252   4.945   6.027   4.209  2.4030  0.8922  2.1628
 4096TIP3    H212253   4.869   6.146   4.152 -1.2090 -2.0087  0.5015
 4097TIP3   OH212254  -0.016   0.192   3.114  0.5634  0.0787 -0.0995
 4097TIP3    H112255   0.043   0.119   3.094  1.9751  0.9190  0.8719
 4097TIP3    H212256   0.003   0.258   3.048  0.0703  0.0199 -0.3087
 4098TIP3   OH212257   1.011   1.371   5.860 -0.3109 -0.1896 -0.5148
 4098TIP3    H112258   0.997   1.278   5.843 -1.7846 -0.2085  0.5851
 4098TIP3    H212259   1.103   1.377   5.886  0.6898 -0.8371 -3.4628
 4099TIP3   OH212260   4.349   3.571   1.845 -0.1555  0.3047 -0.1355
 4099TIP3    H112261   4.308   3.639   1.791 -0.7555 -0.5351 -0.7711
 4099TIP3    H212262   4.442   3.577   1.825 -0.2339  0.7712 -0.3791
 4100TIP3   OH212263   1.569   3.109   0.562 -0.4651  0.3949  0.1326
 4100TIP3    H112264   1.538   3.050   0.493 -2.2283 -0.4289  1.5667
 4100TIP3    H212265   1.664   3.098   0.561 -0.4149  0.4096 -2.1153
 4101TIP3   OH212266   4.029   1.018   5.397 -0.0991  0.0619 -0.8427
 4101TIP3    H112267   3.947   0.981   5.366 -0.7436  1.2109 -0.5403
 4101TIP3    H212268   4.037   1.102   5.352 -0.1868  0.9551  0.7400
 4102TIP3   OH212269   1.523   1.633   1.724 -0.3036 -0.4804 -0.2789
 4102TIP3    H112270   1.448   1.669   1.771 -0.5347 -1.5560  0.2209
 4102TIP3    H212271   1.561   1.707   1.677 -0.3772  0.5229  1.1921
 4103TIP3   OH212272   4.726   5.897   1.877  0.1739  0.3451 -0.2608
 4103TIP3    H112273   4.726   5.992   1.867  1.7984  0.5359  1.1265
 4103TIP3    H212274   4.679   5.881   1.959  2.7946  0.2764  1.3328
 4104TIP3   OH212275   2.400   1.313   0.912 -0.1549 -0.6565 -0.2614
 4104TIP3    H112276   2.495   1.319   0.909 -0.0588 -1.4790  0.6036
 4104TIP3    H212277   2.372   1.397   0.949  0.1538 -0.0322 -1.3998
 4105TIP3   OH212278   3.101   3.605   0.833 -0.3905 -0.0336 -0.6868
 4105TIP3    H112279   3.160   3.582   0.905 -0.7508  2.0982  0.3789
 4105TIP3    H212280   3.082   3.522   0.790 -0.4811 -1.4839  1.9354
 4106TIP3   OH212281   0.493   4.010   0.081  0.7022 -0.5054 -0.0019
 4106TIP3    H112282   0.484   3.991  -0.013  1.5430 -1.2117  0.0526
 4106TIP3    H212283   0.415   3.971   0.121 -0.7501  1.5747 -0.6189
 4107TIP3   OH212284   5.213   1.476   0.815 -0.3724 -0.0240 -0.1038
 4107TIP3    H112285   5.170   1.432   0.741  0.8097  1.8588 -2.0409
 4107TIP3    H212286   5.181   1.566   0.811 -0.8192 -0.0309  2.1966
 4108TIP3   OH212287   5.832   2.638   0.631 -0.9293 -0.0216 -0.6339
 4108TIP3    H112288   5.910   2.583   0.628 -1.3142 -0.7159  1.0683
 4108TIP3    H212289   5.767   2.590   0.579 -0.1583  0.7482 -2.3856
 4109TIP3   OH212290   2.361   6.341   1.368  0.1018 -0.2208  0.3006
 4109TIP3    H112291   2.448   6.321   1.333 -0.5608 -1.0467 -0.9278
 4109TIP3    H212292   2.372   6.334   1.463  1.9038  1.9303  0.3382
 4110TIP3   OH212293   1.630   4.244   3.359 -0.1470  0.0217 -0.1388
 4110TIP3    H112294   1.594   4.273   3.275  0.8811 -0.8900 -0.9295
 4110TIP3    H212295   1.585   4.297   3.424 -0.9018  0.8215 -1.2722
 4111TIP3   OH212296   1.823   6.240   5.024 -0.4874 -1.0003  0.7831
 4111TIP3    H112297   1.752   6.284   5.071 -0.2789  0.0445  0.1530
 4111TIP3    H212298   1.865   6.309   4.973 -0.4729 -2.0176 -0.6595
 4112TIP3   OH212299   6.980   3.405   2.451  0.6776  0.6797 -0.0724
 4112TIP3    H112300   6.932   3.370   2.377  1.1619  0.1558 -0.1461
 4112TIP3    H212301   7.072   3.390   2.430  0.8168  0.3884  0.6903
 4113TIP3   OH212302   0.084   0.580   0.329  0.3922  0.0906  0.3596
 4113TIP3    H112303   0.069   0.572   0.235 -0.0015 -0.6385  0.4814
 4113TIP3    H212304   0.179   0.593   0.337  1.1247 -3.9426  0.0652
 4114TIP3   OH212305   5.944   0.386   0.465  0.1608 -0.2389 -0.9265
 4114TIP3    H112306   5.853   0.369   0.492  0.2134 -2.0275 -1.6727
 4114TIP3    H212307   5.939   0.466   0.413 -0.5676  1.0345  0.9881
 4115TIP3   OH212308   1.733   1.999   0.502  0.1942  0.1016  0.3262
 4115TIP3    H112309   1.767   1.912   0.479  0.1430 -0.7679  3.1479
 4115TIP3    H212310   1.676   2.022   0.429 -1.9061 -3.4735  0.5569
 4116TIP3   OH212311   5.016   0.410   2.513 -0.0374 -0.2229 -0.1376
 4116TIP3    H112312   5.088   0.418   2.575 -2.1343 -0.4742  2.4769
 4116TIP3    H212313   4.980   0.323   2.527 -0.7639 -0.1841 -1.5290
 4117TIP3   OH212314   1.012   3.108   3.909 -0.0216  0.1134 -0.2143
 4117TIP3    H112315   0.963   3.157   3.843 -1.4415 -1.6852 -0.5866
 4117TIP3    H212316   0.952   3.101   3.984 -0.4925 -2.2438 -0.7234
 4118TIP3   OH212317   6.390   3.386   5.167  0.0632  0.0719 -0.0390
 4118TIP3    H112318   6.421   3.474   5.189 -0.4371  0.1694  0.2961
 4118TIP3    H212319   6.408   3.377   5.073  0.8876  0.2053  0.1049
 4119TIP3   OH212320   3.785   4.368   5.400 -0.1399  0.0389 -0.1018
 4119TIP3    H112321   3.824   4.289   5.436 -0.7957 -0.4974 -0.5481
 4119TIP3    H212322   3.822   4.375   5.312 -0.6903 -0.2167 -0.3554
 4120TIP3   OH212323   5.866   5.574   0.464  0.0996  0.0729  0.1913
 4120TIP3    H112324   5.820   5.612   0.538 -1.3521  1.0842 -1.1752
 4120TIP3    H212325   5.948   5.540   0.501  0.2001  2.0651  1.9509
 4121TIP3   OH212326   4.564   5.128   0.129  0.0640 -0.4796  0.0112
 4121TIP3    H112327   4.527   5.060   0.186 -0.1318 -1.6978 -1.5119
 4121TIP3    H212328   4.536   5.210   0.170  0.6955 -1.2605  2.1628
 4122TIP3   OH212329   5.757   4.686   1.845  0.5175 -0.5108 -0.0781
 4122TIP3    H112330   5.702   4.660   1.918  0.7478 -1.7104 -0.3206
 4122TIP3    H212331   5.846   4.664   1.872  1.0641  2.1385  0.6456
 4123TIP3   OH212332   5.545   2.060   4.225 -0.2400  0.1085  0.2281
 4123TIP3    H112333   5.604   2.126   4.263  0.4953 -0.8815  0.8312
 4123TIP3    H212334   5.469   2.059   4.283 -0.1277  0.2151  0.3777
 4124TIP3   OH212335   2.664   4.656   3.451  0.5008  0.3927  0.3049
 4124TIP3    H112336   2.670   4.750   3.467  0.8504  0.0626  2.3323
 4124TIP3    H212337   2.728   4.639   3.381 -1.6659  2.0550 -2.2899
 4125TIP3   OH212338   1.933   5.855   2.429 -0.1810  0.2259 -0.4105
 4125TIP3    H112339   1.931   5.873   2.335 -1.6945  1.2502 -0.2115
 4125TIP3    H212340   2.022   5.879   2.456  0.1480  0.2906 -1.4913
 4126TIP3   OH212341   3.888   3.707   5.668 -0.3245 -0.0496 -0.0741
 4126TIP3    H112342   3.836   3.647   5.614 -1.2966 -1.2994  2.1221
 4126TIP3    H212343   3.969   3.719   5.619 -1.5162 -0.3102 -2.2658
 4127TIP3   OH212344   5.893   1.984   3.497  0.5797  0.8822  0.2253
 4127TIP3    H112345   5.892   1.904   3.444 -1.4308  2.1653 -1.8537
 4127TIP3    H212346   5.930   2.050   3.440 -1.5923  2.3093  0.3370
 4128TIP3   OH212347   0.929   5.859   2.019 -1.0085  0.4364 -0.0043
 4128TIP3    H112348   0.864   5.795   2.048  0.7410 -1.7904 -0.7020
 4128TIP3    H212349   0.897   5.890   1.935 -1.4046 -0.2800 -0.1221
 4129TIP3   OH212350   3.204   5.605   4.813 -0.3869 -0.7417  0.4712
 4129TIP3    H112351   3.185   5.587   4.905  0.4914 -0.4254  0.7210
 4129TIP3    H212352   3.159   5.535   4.766  0.5280 -1.8881  1.2400
 4130TIP3   OH212353   6.547   4.088   4.408  0.3187  0.0259  0.1251
 4130TIP3    H112354   6.480   4.019   4.404  0.3457 -0.0363 -4.1518
 4130TIP3    H212355   6.628   4.042   4.427  0.1296 -0.9751 -1.3535
 4131TIP3   OH212356   6.997   1.647   4.088  0.2592 -0.3070 -0.6465
 4131TIP3    H112357   7.048   1.720   4.123  2.5737 -2.1882  0.1653
 4131TIP3    H212358   6.920   1.642   4.144  0.3560  1.1139 -0.3511
 4132TIP3   OH212359   3.529   2.422   1.918 -0.3374 -0.2369  0.0105
 4132TIP3    H112360   3.497   2.402   1.830 -0.3935  2.2803 -0.6412
 4132TIP3    H212361   3.624   2.419   1.911 -0.2689  1.7835 -0.7292
 4133TIP3   OH212362   0.490   5.161   1.284 -0.5194  0.5085  0.4051
 4133TIP3    H112363   0.466   5.127   1.198 -0.9895  0.8452  0.4014
 4133TIP3    H212364   0.520   5.250   1.266 -0.8418  0.6604  0.6181
 4134TIP3   OH212365   0.131   0.802   1.990  0.2244  0.1996 -0.2960
 4134TIP3    H112366   0.184   0.811   1.911  0.5355 -0.0888 -0.1234
 4134TIP3    H212367   0.162   0.870   2.048 -0.8123  1.1895 -0.8571
 4135TIP3   OH212368   2.674   4.541   4.796  0.4406 -0.3496  0.0422
 4135TIP3    H112369   2.679   4.621   4.848  0.1451  0.5315 -1.2229
 4135TIP3    H212370   2.764   4.508   4.793  0.9403  1.0055 -0.9842
 4136TIP3   OH212371   5.790   3.934   2.077  0.3458  0.0614  0.2869
 4136TIP3    H112372   5.859   3.867   2.078 -0.1596 -0.5050 -0.7256
 4136TIP3    H212373   5.753   3.928   1.989 -1.2208  0.1221  0.9138
 4137TIP3   OH212374   2.330   2.800   0.782  0.1031  0.4747 -0.0679
 4137TIP3    H112375   2.401   2.782   0.843  1.2294 -3.1975 -2.1602
 4137TIP3    H212376   2.253   2.757   0.820  0.2438  0.1711 -0.1247
 4138TIP3   OH212377   6.823   5.126   2.284 -0.5981  0.2707 -0.2944
 4138TIP3    H112378   6.748   5.070   2.261 -0.8127  0.7224 -0.7033
 4138TIP3    H212379   6.890   5.104   2.219 -0.9033  0.9334 -0.8398
 4139TIP3   OH212380   6.888   6.150   3.240 -0.4148 -0.2565 -0.3746
 4139TIP3    H112381   6.865   6.179   3.328 -0.7493  1.6320 -1.0342
 4139TIP3    H212382   6.805   6.143   3.194 -0.2406 -1.1905 -0.5684
 4140TIP3   OH212383   0.595   2.473   1.935 -0.3388  0.3137 -0.3948
 4140TIP3    H112384   0.600   2.408   1.866  0.5439  0.1690 -0.2132
 4140TIP3    H212385   0.521   2.447   1.989 -2.7057  1.8572 -2.6795
 4141TIP3   OH212386   1.140   3.647   5.233  0.7129  0.0188  0.2285
 4141TIP3    H112387   1.203   3.575   5.229  1.2556  0.4726  0.5165
 4141TIP3    H212388   1.151   3.693   5.150 -0.9244 -1.2836 -0.7596
 4142TIP3   OH212389   6.449   3.354   4.903  0.1012 -0.0323 -0.5872
 4142TIP3    H112390   6.434   3.312   4.818 -2.1249  1.4969 -1.0194
 4142TIP3    H212391   6.492   3.437   4.881  2.2826 -0.9075  0.0811
 4143TIP3   OH212392   6.756   4.450   4.335  0.2583  0.2190  0.0711
 4143TIP3    H112393   6.708   4.526   4.304  0.1344  0.0152 -0.2396
 4143TIP3    H212394   6.700   4.412   4.403 -0.3336 -0.3914 -0.7366
 4144TIP3   OH212395   1.757   1.219   2.797  0.0546 -0.3070  0.0036
 4144TIP3    H112396   1.678   1.241   2.845 -1.4735  1.0725 -2.8463
 4144TIP3    H212397   1.745   1.128   2.771  0.1079 -0.5507  0.8382
 4145TIP3   OH212398   2.870   6.130   0.811  0.9115 -0.5369 -0.0439
 4145TIP3    H112399   2.899   6.191   0.743 -0.6430 -0.5823 -0.7939
 4145TIP3    H212400   2.798   6.081   0.770 -0.3961 -0.2264  1.7866
 4146TIP3   OH212401   1.748   3.139   1.587  0.0116 -0.6519 -0.2948
 4146TIP3    H112402   1.813   3.083   1.630 -0.1681  0.7088  1.8819
 4146TIP3    H212403   1.663   3.106   1.618 -0.1916 -0.4962 -0.6751
 4147TIP3   OH212404   2.070   3.051   0.470  0.2726 -0.1610  0.0332
 4147TIP3    H112405   2.104   2.962   0.478 -0.5135 -0.4039  0.8414
 4147TIP3    H212406   2.070   3.069   0.376  1.4329 -0.6095 -0.0608
 4148TIP3   OH212407   7.183   6.682   4.719  0.0605  0.0347 -0.0738
 4148TIP3    H112408   7.149   6.696   4.630 -0.1302  1.2955  0.1704
 4148TIP3    H212409   7.143   6.752   4.771  0.8707 -0.1410  0.8113
 4149TIP3   OH212410   1.299   4.282   2.160 -0.1294 -0.2339  0.0869
 4149TIP3    H112411   1.375   4.319   2.204  1.4791  0.0367 -2.6823
 4149TIP3    H212412   1.302   4.189   2.182  0.6743 -0.1343  0.4434
 4150TIP3   OH212413   3.246   0.567   2.071  0.0846 -0.1306  0.1833
 4150TIP3    H112414   3.197   0.495   2.032 -0.6541  1.1984 -1.4861
 4150TIP3    H212415   3.185   0.605   2.135 -0.4535  0.4578 -0.6555
 4151TIP3   OH212416   4.591   6.058   2.699 -0.3982  0.0044 -0.1581
 4151TIP3    H112417   4.576   6.152   2.709  1.0930  0.2359  0.1556
 4151TIP3    H212418   4.631   6.050   2.612  0.1832 -0.2371  0.1266
 4152TIP3   OH212419   3.918   6.044   4.633  0.0974  0.3787  0.4895
 4152TIP3    H112420   3.963   6.082   4.558  0.3642 -2.3864 -0.8625
 4152TIP3    H212421   3.834   6.013   4.597 -0.1807 -0.1235  1.5389
 4153TIP3   OH212422   2.903   3.493   4.956  0.0924  0.1418 -0.3522
 4153TIP3    H112423   2.923   3.563   4.893 -0.9202  0.8797  0.1260
 4153TIP3    H212424   2.932   3.413   4.912 -2.3149  0.3843 -2.6076
 4154TIP3   OH212425   6.445   3.720   5.868 -0.2177  0.2222 -0.4177
 4154TIP3    H112426   6.500   3.708   5.791 -0.5051  0.7270 -0.7057
 4154TIP3    H212427   6.357   3.733   5.833 -0.7040 -1.5221  0.0717
 4155TIP3   OH212428   1.014   5.465   4.130  0.1884  0.4847 -0.3709
 4155TIP3    H112429   0.992   5.376   4.156 -0.1470  0.1638 -1.6687
 4155TIP3    H212430   0.941   5.492   4.074  1.1117  0.9308 -1.4000
 4156TIP3   OH212431   3.482   6.217   0.805 -0.1959 -0.1428  0.1286
 4156TIP3    H112432   3.412   6.178   0.856 -0.5342  0.9555  0.5321
 4156TIP3    H212433   3.452   6.210   0.714  0.4176 -2.1137  0.0464
 4157TIP3   OH212434   5.172   2.859   3.325  0.3600 -0.4217  0.0712
 4157TIP3    H112435   5.233   2.810   3.380 -0.9885 -1.4788  0.6669
 4157TIP3    H212436   5.223   2.880   3.246  1.6104 -0.9023  0.7245
 4158TIP3   OH212437   0.401   4.624   2.164 -0.0989  0.0202 -0.5420
 4158TIP3    H112438   0.366   4.548   2.211  1.9343 -0.2002  0.7814
 4158TIP3    H212439   0.488   4.637   2.203  0.2392  2.0560 -1.8549
 4159TIP3   OH212440   5.123   5.353   0.575  0.0476  0.1467 -0.5767
 4159TIP3    H112441   5.148   5.266   0.542  1.9379  0.4929 -0.2021
 4159TIP3    H212442   5.089   5.399   0.498  0.1823 -0.5281 -1.0509
 4160TIP3   OH212443   2.012   0.691   4.981 -0.2305  0.0549 -0.2955
 4160TIP3    H112444   2.005   0.719   5.072 -0.0027  0.1712 -0.3143
 4160TIP3    H212445   2.095   0.643   4.977  0.4469  1.2332 -0.7547
 4161TIP3   OH212446   5.439   6.812   1.524  0.6921 -0.4190 -0.3359
 4161TIP3    H112447   5.478   6.733   1.561 -1.0320 -0.7124  0.9903
 4161TIP3    H212448   5.416   6.788   1.434  1.0904 -1.0969 -0.2589
 4162TIP3   OH212449   7.009   0.755   0.628 -0.3858 -0.1342  0.0730
 4162TIP3    H112450   6.972   0.722   0.547  3.4667 -1.2046 -1.4800
 4162TIP3    H212451   7.089   0.704   0.641  0.1501  1.2875  3.5467
 4163TIP3   OH212452   0.443   6.748   5.408 -0.0898 -0.0071  0.0082
 4163TIP3    H112453   0.496   6.701   5.344 -0.5655  0.0468 -0.4293
 4163TIP3    H212454   0.365   6.775   5.360  0.4552  1.8191  0.0328
 4164TIP3   OH212455   6.893   4.734   5.326 -0.0497 -0.6278 -0.1339
 4164TIP3    H112456   6.823   4.768   5.381  0.6064  1.9394 -0.7126
 4164TIP3    H212457   6.931   4.662   5.375 -2.9523 -1.9991  0.2473
 4165TIP3   OH212458   2.473   0.932   1.439 -0.4088  0.2559 -0.0804
 4165TIP3    H112459   2.431   0.936   1.353 -1.6751  1.0975  0.5473
 4165TIP3    H212460   2.463   0.841   1.466 -0.6040  0.1401 -0.5275
 4166TIP3   OH212461   5.413   4.296   3.628 -0.1143 -0.8665  0.1793
 4166TIP3    H112462   5.378   4.269   3.544  1.3412  0.0912 -0.7969
 4166TIP3    H212463   5.372   4.238   3.692 -1.0811 -1.7646 -1.2096
 4167TIP3   OH212464   4.281   4.017   2.524  0.6551  0.4154  0.3421
 4167TIP3    H112465   4.244   4.103   2.502 -0.4278  0.2904  1.5253
 4167TIP3    H212466   4.218   3.954   2.489  0.5678  0.1522  0.9597
 4168TIP3   OH212467   3.898   0.109   3.693  0.3976  0.6538 -0.2045
 4168TIP3    H112468   3.873   0.115   3.601  0.5977  0.4459 -0.2710
 4168TIP3    H212469   3.847   0.036   3.728  0.3528  0.7064 -0.1585
 4169TIP3   OH212470   3.225   3.022   4.271 -0.4773  0.0485  0.5350
 4169TIP3    H112471   3.150   2.999   4.217  0.0256  0.9017 -0.5632
 4169TIP3    H212472   3.290   2.955   4.252  0.0781  0.9213 -0.7476
 4170TIP3   OH212473   3.488   4.258   5.256 -0.3287 -0.5138 -0.0486
 4170TIP3    H112474   3.558   4.192   5.253  1.1717  1.0253 -1.0330
 4170TIP3    H212475   3.517   4.320   5.323 -0.0930  0.7865 -1.3050
 4171TIP3   OH212476   5.719   1.560   2.765 -0.6920  0.0265 -0.6093
 4171TIP3    H112477   5.783   1.625   2.792 -0.2888 -0.3025 -0.7626
 4171TIP3    H212478   5.763   1.476   2.779 -1.2085 -0.2123 -0.4077
 4172TIP3   OH212479   0.180   2.974   4.028  0.0123  0.3527 -0.0924
 4172TIP3    H112480   0.220   2.915   3.964 -2.6905 -1.0588 -0.6227
 4172TIP3    H212481   0.200   2.934   4.112  0.3291  0.0890 -0.2896
 4173TIP3   OH212482   5.930   1.697   2.868  0.3528 -0.0380  0.3550
 4173TIP3    H112483   5.897   1.687   2.958 -0.0927 -0.7366  0.1246
 4173TIP3    H212484   6.025   1.687   2.876  0.3876  0.6077  0.8402
 4174TIP3   OH212485   6.294   2.054   5.208  0.2734 -0.1299 -0.3237
 4174TIP3    H112486   6.226   2.051   5.276  1.2978  1.4498  0.8436
 4174TIP3    H212487   6.377   2.054   5.257  1.0359  2.3979 -1.4251
 4175TIP3   OH212488   3.081   6.326   2.001  0.0921 -0.1508  0.6453
 4175TIP3    H112489   3.130   6.407   1.988  1.1442 -0.8442  0.1803
 4175TIP3    H212490   3.022   6.345   2.074 -0.7183  1.4931 -0.3684
 4176TIP3   OH212491   1.605   5.461   3.754 -0.6070 -0.8395  0.0579
 4176TIP3    H112492   1.551   5.532   3.789  0.5309 -0.4924  1.1638
 4176TIP3    H212493   1.546   5.385   3.754 -1.1453 -0.4489  1.1399
 4177TIP3   OH212494   5.080   1.972   5.065  0.2567 -0.0645 -0.6981
 4177TIP3    H112495   5.106   1.910   4.996 -0.7853 -0.5735 -0.6576
 4177TIP3    H212496   4.986   1.982   5.053  0.2440  0.6862 -0.0195
 4178TIP3   OH212497   3.259   4.318   1.689 -0.6215 -0.2143  0.4765
 4178TIP3    H112498   3.248   4.230   1.655  1.1236 -0.4711  0.5138
 4178TIP3    H212499   3.213   4.317   1.773  0.8333 -1.6480  1.3146
 4179TIP3   OH212500   4.617   3.635   1.824  0.1600  0.4962  0.0306
 4179TIP3    H112501   4.681   3.568   1.849  0.2513 -0.2440 -1.9790
 4179TIP3    H212502   4.629   3.705   1.888  1.7490 -0.3830  0.7513
 4180TIP3   OH212503   6.234   1.350   1.891 -0.3824 -0.3002 -0.5465
 4180TIP3    H112504   6.169   1.367   1.959 -0.5725 -1.8943 -0.2878
 4180TIP3    H212505   6.184   1.320   1.816 -0.0661  0.0352 -0.8953
 4181TIP3   OH212506   3.979   0.029   0.985 -0.3172 -0.1903  0.3920
 4181TIP3    H112507   3.947  -0.042   1.041 -3.1554  1.6455  1.3382
 4181TIP3    H212508   4.072   0.038   1.008 -0.3223 -2.3961  1.5136
 4182TIP3   OH212509   2.870   3.636   0.624 -0.0879 -0.3768 -0.3525
 4182TIP3    H112510   2.922   3.658   0.547  1.3234 -4.9140 -0.9910
 4182TIP3    H212511   2.779   3.641   0.593  0.3224  0.1856 -1.5517
 4183TIP3   OH212512   1.674   5.694   2.847 -0.2739  0.1625  0.3566
 4183TIP3    H112513   1.709   5.725   2.931  0.0506  0.6705  0.0448
 4183TIP3    H212514   1.727   5.739   2.782  0.0818 -0.9296 -0.1285
 4184TIP3   OH212515   0.989   4.639   4.866  0.2421  0.4656 -0.3761
 4184TIP3    H112516   1.014   4.730   4.879  0.6156  0.2997  0.1073
 4184TIP3    H212517   1.071   4.595   4.843  0.5357 -0.1797  1.6994
 4185TIP3   OH212518   2.849   0.702   0.742 -0.3431 -0.3248  1.2045
 4185TIP3    H112519   2.907   0.710   0.818 -1.7499 -0.9718  2.3803
 4185TIP3    H212520   2.811   0.790   0.732  1.4500  0.3578 -0.1362
 4186TIP3   OH212521   3.224   4.179   5.211 -0.3750 -0.0673  0.1558
 4186TIP3    H112522   3.199   4.154   5.122 -0.8251 -1.2173  0.5802
 4186TIP3    H212523   3.320   4.178   5.210 -0.3062  2.0176 -0.8506
 4187TIP3   OH212524   1.212   2.176   2.560  0.2277 -0.5438 -0.7700
 4187TIP3    H112525   1.286   2.230   2.586 -0.4874 -0.1331  0.5192
 4187TIP3    H212526   1.205   2.189   2.465  1.2291  0.1224 -0.7721
 4188TIP3   OH212527   5.646   4.888   3.633  0.0899 -0.1218 -0.2722
 4188TIP3    H112528   5.576   4.938   3.676  0.9529  1.1661 -0.3253
 4188TIP3    H212529   5.663   4.816   3.693 -0.3034  0.3673  0.4505
 4189TIP3   OH212530   5.560   5.766   2.431 -0.4305  0.2276 -0.5228
 4189TIP3    H112531   5.574   5.835   2.496  0.0905  0.3120 -0.7183
 4189TIP3    H212532   5.599   5.687   2.471  0.0601  0.3216 -0.8047
 4190TIP3   OH212533   2.230   2.841   5.502  0.0818 -0.2535 -0.1955
 4190TIP3    H112534   2.207   2.788   5.426 -0.2662 -0.4080  0.0149
 4190TIP3    H212535   2.326   2.846   5.500  0.0753 -0.2614 -0.6364
 4191TIP3   OH212536   0.720   0.474   2.801  0.1843 -0.4875  0.3919
 4191TIP3    H112537   0.771   0.476   2.720 -2.6174  0.2190 -1.4786
 4191TIP3    H212538   0.767   0.412   2.857  2.7077 -0.3386 -1.3924
 4192TIP3   OH212539   1.703   0.282   0.644  0.6134  0.2892  0.6177
 4192TIP3    H112540   1.630   0.256   0.701 -0.7263 -0.3605 -1.3186
 4192TIP3    H212541   1.691   0.377   0.633 -0.2484  0.1105 -0.0791
 4193TIP3   OH212542   1.860   0.067   0.507  0.4353  0.0842  0.1536
 4193TIP3    H112543   1.929   0.121   0.469 -1.3815  0.9895 -2.1449
 4193TIP3    H212544   1.800   0.130   0.546 -0.4318 -0.4460 -0.2902
 4194TIP3   OH212545   2.796   0.029   2.018  0.4533  0.8466 -0.1954
 4194TIP3    H112546   2.827  -0.059   1.997 -0.9016 -0.0512  1.3010
 4194TIP3    H212547   2.847   0.054   2.096 -0.9402  0.2706  0.9442
 4195TIP3   OH212548   2.492   0.761   0.778  0.1131  0.6327  0.3545
 4195TIP3    H112549   2.571   0.815   0.767  0.6220 -0.4885 -2.5305
 4195TIP3    H212550   2.526   0.674   0.800 -0.3563  0.3525 -0.0175
 4196TIP3   OH212551   1.040   3.928   5.378 -0.4954 -0.4290  0.1932
 4196TIP3    H112552   0.948   3.912   5.357 -0.1320 -0.6406 -1.3871
 4196TIP3    H212553   1.048   3.906   5.471 -1.7452 -1.7279  0.0303
 4197TIP3   OH212554   4.000   5.085   2.299  0.5893  0.6516 -0.1377
 4197TIP3    H112555   3.997   5.071   2.205 -1.2488  2.4943 -0.4107
 4197TIP3    H212556   3.956   5.169   2.313  0.9035  0.4841  2.3545
 4198TIP3   OH212557   5.835   5.253   4.872  0.0066  0.0220 -0.0716
 4198TIP3    H112558   5.917   5.272   4.919 -0.7948 -0.5394  1.6496
 4198TIP3    H212559   5.792   5.338   4.865 -0.1777  0.0252  0.8893
 4199TIP3   OH212560   1.542   4.645   3.309 -0.2768  0.0179 -0.3637
 4199TIP3    H112561   1.604   4.604   3.370 -1.2097 -0.3861  0.3416
 4199TIP3    H212562   1.574   4.734   3.298 -0.6036  0.3924  1.4725
 4200TIP3   OH212563   0.335   5.413   1.324  0.6323 -0.6672  0.4936
 4200TIP3    H112564   0.290   5.497   1.332  0.4938 -0.7934  1.0757
 4200TIP3    H212565   0.406   5.429   1.262 -2.4658 -1.3772 -3.7324
 4201TIP3   OH212566   3.069   1.258   4.747 -0.0846 -0.1763  0.4608
 4201TIP3    H112567   2.983   1.249   4.707  0.7578 -1.2174 -1.2756
 4201TIP3    H212568   3.094   1.349   4.732 -0.9030  0.1523  1.0578
 4202TIP3   OH212569   2.260   6.232   1.999  0.0575  0.4224 -0.3125
 4202TIP3    H112570   2.199   6.291   1.955 -3.3809 -1.9743  0.7271
 4202TIP3    H212571   2.322   6.289   2.044 -1.5397  3.1032 -1.2941
 4203TIP3   OH212572   3.502   4.427   3.846  0.0968 -0.4512 -0.0712
 4203TIP3    H112573   3.572   4.486   3.817  0.3707  0.2722  1.9134
 4203TIP3    H212574   3.544   4.368   3.908 -1.0043 -0.0170  1.1438
 4204TIP3   OH212575   1.623   2.329   4.173 -0.0488  0.2361 -0.6819
 4204TIP3    H112576   1.684   2.368   4.235 -0.8255 -0.2491  0.4221
 4204TIP3    H212577   1.542   2.380   4.183 -0.9312 -1.3016  0.4484
 4205TIP3   OH212578   6.201   0.970   4.181  0.1342 -0.0121  0.2314
 4205TIP3    H112579   6.234   0.927   4.260 -0.6068 -1.2177 -0.0840
 4205TIP3    H212580   6.222   1.063   4.193  0.2284 -0.2050  1.7269
 4206TIP3   OH212581   3.357   0.645   0.537  0.0230 -0.5734 -0.1867
 4206TIP3    H112582   3.339   0.585   0.609 -0.1505  0.1718  0.3940
 4206TIP3    H212583   3.341   0.732   0.573  0.9964 -0.1258 -0.8023
 4207TIP3   OH212584   1.193   5.748   5.278 -0.5380  0.6432  0.0182
 4207TIP3    H112585   1.124   5.730   5.342  0.3215 -0.1251  0.7589
 4207TIP3    H212586   1.169   5.693   5.203  1.1857 -2.6609  1.6632
 4208TIP3   OH212587   0.297   0.062   2.283  0.1200  0.2674 -0.0896
 4208TIP3    H112588   0.360   0.038   2.215  1.9607  2.6474  0.6649
 4208TIP3    H212589   0.234   0.118   2.239 -0.6263 -0.8420 -0.4913
 4209TIP3   OH212590   0.174   0.012   2.786 -0.1030 -0.5179  1.0616
 4209TIP3    H112591   0.123   0.075   2.836 -0.3094  0.4456 -0.2997
 4209TIP3    H212592   0.260   0.010   2.830  0.2757  1.5342  0.5456
 4210TIP3   OH212593   6.412   4.944   0.624 -0.7934 -0.4416  0.6730
 4210TIP3    H112594   6.454   4.887   0.560 -1.2669 -0.4800  0.3888
 4210TIP3    H212595   6.380   5.018   0.573 -0.9289 -0.3332  0.9107
 4211TIP3   OH212596   1.172   1.639   2.739 -0.9329 -0.4541 -0.0713
 4211TIP3    H112597   1.189   1.709   2.676 -1.4652 -0.3934 -0.1531
 4211TIP3    H212598   1.080   1.651   2.764 -0.6999 -0.4167  0.7944
 4212TIP3   OH212599   5.078   1.039   2.067 -0.1558 -0.6902  0.2524
 4212TIP3    H112600   5.053   1.020   2.158 -3.0202  0.3979 -0.1928
 4212TIP3    H212601   5.122   1.124   2.073  1.3362 -1.4656  0.7826
 4213TIP3   OH212602   0.056   0.248   1.146  0.1295 -0.4193  0.3873
 4213TIP3    H112603   0.133   0.286   1.188  0.1385 -0.7016  0.6244
 4213TIP3    H212604   0.083   0.160   1.121 -0.2490 -0.6724  0.8493
 4214TIP3   OH212605   5.690   6.382   5.627  0.2615  0.2771  0.1043
 4214TIP3    H112606   5.654   6.337   5.550  1.4374 -1.1716  0.3492
 4214TIP3    H212607   5.779   6.405   5.602  0.6025 -0.0735  0.9666
 4215TIP3   OH212608   6.282   6.083   2.810  0.1582  0.0686  0.0275
 4215TIP3    H112609   6.213   6.087   2.876 -1.6604  1.3041 -1.8050
 4215TIP3    H212610   6.355   6.131   2.849  0.1400 -1.5092  2.1273
 4216TIP3   OH212611   1.055   6.168   3.540  0.0891  0.0793  0.3612
 4216TIP3    H112612   1.073   6.258   3.511  0.3375 -0.4570 -1.2279
 4216TIP3    H212613   0.960   6.159   3.531  0.4054 -1.5093 -5.1386
 4217TIP3   OH212614   5.914   2.335   2.365  0.6923  0.4042 -0.2406
 4217TIP3    H112615   5.976   2.327   2.438  0.9090  1.9714 -0.2270
 4217TIP3    H212616   5.970   2.341   2.287  0.6042  2.0455 -0.2092
 4218TIP3   OH212617   1.706   4.939   1.605 -0.1761 -0.3452  0.4085
 4218TIP3    H112618   1.756   5.000   1.661 -1.5305  2.3419 -1.1351
 4218TIP3    H212619   1.772   4.901   1.547  0.3895  2.3366 -0.8852
 4219TIP3   OH212620   7.081   6.101   2.020  0.0321 -0.0467  0.1773
 4219TIP3    H112621   6.999   6.144   1.995 -0.0830 -0.7510 -0.6963
 4219TIP3    H212622   7.138   6.112   1.945 -0.2223 -1.9661 -0.3497
 4220TIP3   OH212623   3.461   5.540   0.700  0.3013 -0.0039  0.4798
 4220TIP3    H112624   3.434   5.477   0.767 -0.6573 -0.5490 -0.3938
 4220TIP3    H212625   3.531   5.590   0.742 -0.2471 -0.3479  1.8807
 4221TIP3   OH212626   6.822   4.083   0.418 -0.0005 -0.2234 -0.5750
 4221TIP3    H112627   6.876   4.086   0.497 -1.2448 -0.2562  0.3250
 4221TIP3    H212628   6.880   4.109   0.347  0.6552  1.9315  0.6545
 4222TIP3   OH212629   4.002   1.263   2.784  0.4757  0.0227  0.0115
 4222TIP3    H112630   4.082   1.309   2.757  0.5215  2.1053  3.1260
 4222TIP3    H212631   4.024   1.228   2.871 -1.4865 -0.7644  0.2295
 4223TIP3   OH212632   5.551   4.440   2.778 -0.3868  0.4317  0.3254
 4223TIP3    H112633   5.638   4.466   2.807 -0.0149 -0.0889 -0.2722
 4223TIP3    H212634   5.560   4.347   2.756 -1.0488  0.4139  0.0892
 4224TIP3   OH212635   1.899   6.088   2.724 -0.4529 -0.0894 -0.0140
 4224TIP3    H112636   1.873   6.157   2.663  0.2101 -0.4019 -0.6777
 4224TIP3    H212637   1.899   6.130   2.810  0.0057  0.7625 -0.4112
 4225TIP3   OH212638   2.786   4.490   3.641 -0.0193 -0.0829  0.0353
 4225TIP3    H112639   2.789   4.566   3.700  2.1053 -0.2942  0.2591
 4225TIP3    H212640   2.797   4.527   3.553  0.8291 -0.0896  0.1292
 4226TIP3   OH212641   3.407   5.340   2.983 -0.4058  0.2141 -0.6532
 4226TIP3    H112642   3.446   5.427   2.989 -2.0244  1.0055 -0.8844
 4226TIP3    H212643   3.406   5.320   2.889 -0.1413 -0.0128 -0.6098
 4227TIP3   OH212644   2.418   3.436   0.449  0.0212  0.1654  0.2464
 4227TIP3    H112645   2.373   3.466   0.528  0.4484  0.2288  0.4730
 4227TIP3    H212646   2.508   3.467   0.460  0.8608 -2.3202  1.1372
 4228TIP3   OH212647   5.456   1.734   0.990  0.5016 -0.0174 -0.2973
 4228TIP3    H112648   5.371   1.692   1.006  0.4453 -0.2840 -1.2421
 4228TIP3    H212649   5.517   1.686   1.046  0.3881 -1.2012 -1.1442
 4229TIP3   OH212650   2.078   0.671   2.504  0.0652 -0.1043 -0.1706
 4229TIP3    H112651   2.109   0.626   2.426 -0.6446 -0.7728 -0.0808
 4229TIP3    H212652   2.066   0.762   2.476 -0.7197 -0.4480 -1.0088
 4230TIP3   OH212653   4.241   2.389   5.770 -0.0125  0.4567 -0.5866
 4230TIP3    H112654   4.328   2.413   5.802  0.0464 -0.0419 -0.3645
 4230TIP3    H212655   4.254   2.304   5.727 -0.6439 -0.3212  0.6901
 4231TIP3   OH212656   2.498   0.647   4.312  0.4483  0.2527  0.0651
 4231TIP3    H112657   2.404   0.639   4.327  0.6941 -2.6514  0.7360
 4231TIP3    H212658   2.507   0.651   4.217 -0.3386  1.0554  0.0069
 4232TIP3   OH212659   3.155   1.949   3.838  0.2891  0.0154  0.7817
 4232TIP3    H112660   3.233   1.893   3.846  0.0657 -0.3027  0.7443
 4232TIP3    H212661   3.166   2.016   3.906  0.1329 -0.5874  1.4146
 4233TIP3   OH212662   6.570   4.590   2.509  0.0989 -0.2357 -0.2488
 4233TIP3    H112663   6.594   4.497   2.508 -0.1452 -0.3331  1.2882
 4233TIP3    H212664   6.618   4.626   2.583  0.2511  0.9026 -0.8751
 4234TIP3   OH212665   3.143   3.887   4.100  0.3149 -0.6338 -0.0067
 4234TIP3    H112666   3.127   3.971   4.143  1.1700 -1.2002  1.4994
 4234TIP3    H212667   3.078   3.883   4.029 -0.5199  0.7517  0.6437
 4235TIP3   OH212668   3.297   2.857   2.292  0.1172 -0.5341  1.1567
 4235TIP3    H112669   3.299   2.922   2.362  0.0080 -0.3055  0.9528
 4235TIP3    H212670   3.387   2.853   2.261 -0.1893  0.8969 -0.0599
 4236TIP3   OH212671   2.446   6.408   0.129 -0.2814 -0.4693 -0.0289
 4236TIP3    H112672   2.391   6.330   0.131 -0.1477 -0.5767 -0.3541
 4236TIP3    H212673   2.425   6.450   0.046 -0.8678  0.2239  0.4572
 4237TIP3   OH212674   2.421   4.581   1.032  0.6451 -0.5478  0.0737
 4237TIP3    H112675   2.365   4.624   1.097  0.7510  0.2664 -0.3750
 4237TIP3    H212676   2.403   4.487   1.045  0.9855 -0.4343  1.5777
 4238TIP3   OH212677   4.975   5.027   5.278  0.1443  0.2269  0.3815
 4238TIP3    H112678   4.970   4.933   5.295  1.4770  0.4702  2.5857
 4238TIP3    H212679   4.900   5.063   5.325 -0.5737  0.2564 -0.7652
 4239TIP3   OH212680   2.766   4.257   2.852 -0.5473  0.4148  0.0457
 4239TIP3    H112681   2.704   4.254   2.779 -0.5547  0.9954  0.0283
 4239TIP3    H212682   2.739   4.332   2.904  1.8920  2.5744 -1.5524
 4240TIP3   OH212683   5.592   6.148   5.140 -0.2470 -0.0357 -0.2102
 4240TIP3    H112684   5.499   6.128   5.134 -0.3243  0.4612 -0.7667
 4240TIP3    H212685   5.600   6.205   5.216 -0.2164 -1.0516  0.5638
 4241TIP3   OH212686   2.483   0.084   4.101  0.4473 -0.0370  0.0410
 4241TIP3    H112687   2.514   0.094   4.191  1.6383  0.9296 -0.4570
 4241TIP3    H212688   2.550   0.126   4.048 -1.5220  1.7976 -1.1395
 4242TIP3   OH212689   4.126   0.358   3.410 -0.3202  0.4262  0.0309
 4242TIP3    H112690   4.190   0.306   3.459 -0.9253  0.2106  0.6157
 4242TIP3    H212691   4.041   0.324   3.439 -0.7010  0.8773 -0.5424
 4243TIP3   OH212692   4.007   5.249   3.771  0.0321 -0.1598 -0.0968
 4243TIP3    H112693   4.033   5.266   3.861  0.2906  0.9170 -0.3658
 4243TIP3    H212694   4.018   5.333   3.726 -0.1990 -0.6528 -1.1061
 4244TIP3   OH212695   4.297   6.287   2.380 -0.4934 -0.2070 -0.8116
 4244TIP3    H112696   4.368   6.348   2.359  0.1427 -1.6883 -3.3901
 4244TIP3    H212697   4.341   6.208   2.412 -1.2518  0.1572  1.3129
 4245TIP3   OH212698   5.367   2.912   4.329  0.0862 -0.0185  0.3295
 4245TIP3    H112699   5.398   2.974   4.263 -0.6868 -0.7833 -0.7791
 4245TIP3    H212700   5.392   2.952   4.413  1.9593  0.4980 -0.4339
 4246TIP3   OH212701   6.419   0.953   5.183 -0.3040  0.3442  0.2998
 4246TIP3    H112702   6.383   0.877   5.229 -1.1539  0.8015  0.4074
 4246TIP3    H212703   6.411   1.025   5.245 -1.9926  1.0960 -0.7176
 4247TIP3   OH212704   0.425   6.674   2.886  0.3342 -0.5927  0.2863
 4247TIP3    H112705   0.519   6.688   2.892  0.0130  1.6469  0.8789
 4247TIP3    H212706   0.413   6.631   2.801  1.6960  1.3205 -0.9519
 4248TIP3   OH212707   1.863   5.465   1.014 -0.3207 -0.1304 -0.1875
 4248TIP3    H112708   1.918   5.541   1.036 -0.0053  0.0394 -1.4721
 4248TIP3    H212709   1.827   5.437   1.098  0.0221  1.0815  0.3961
 4249TIP3   OH212710   3.284   3.157   3.844 -0.3093 -0.3781  0.7199
 4249TIP3    H112711   3.284   3.240   3.891 -0.9404  0.4857 -0.7592
 4249TIP3    H212712   3.204   3.158   3.791  0.2315 -1.4249 -0.1773
 4250TIP3   OH212713   2.021   1.239   3.477  0.0652  0.5573 -0.2656
 4250TIP3    H112714   2.107   1.258   3.515  0.7504  0.4848 -1.7420
 4250TIP3    H212715   1.959   1.273   3.542  1.2084  1.7510  0.2461
 4251TIP3   OH212716   1.254   6.187   4.572 -0.0794 -0.1948 -0.0435
 4251TIP3    H112717   1.336   6.228   4.547  0.0398 -0.5568 -0.2562
 4251TIP3    H212718   1.201   6.188   4.492 -0.0429 -0.5273 -0.0740
 4252TIP3   OH212719   2.775   4.214   5.627  0.2049  0.3789  0.0515
 4252TIP3    H112720   2.859   4.167   5.630  0.3508  0.7181  1.9537
 4252TIP3    H212721   2.792   4.288   5.567  1.2898  0.4894  0.4653
 4253TIP3   OH212722   0.158   2.289   5.897  0.2157 -0.3492  0.5934
 4253TIP3    H112723   0.251   2.276   5.917  0.3983  0.0894  0.0499
 4253TIP3    H212724   0.157   2.350   5.824 -0.5134 -0.1541  0.7529
 4254TIP3   OH212725   6.108   3.518   3.049 -0.5956  0.3541  0.3031
 4254TIP3    H112726   6.091   3.432   3.088  0.6004 -0.2279 -0.4049
 4254TIP3    H212727   6.195   3.510   3.009 -0.6317  1.7726 -0.1177
 4255TIP3   OH212728   6.898   3.119   2.590 -0.3419 -0.6530 -0.1231
 4255TIP3    H112729   6.953   3.168   2.650 -0.7115 -0.6305  0.2021
 4255TIP3    H212730   6.833   3.183   2.559 -0.1082 -0.6427 -0.6096
 4256TIP3   OH212731   4.328   3.899   5.320  0.0986 -0.4467 -0.1936
 4256TIP3    H112732   4.279   3.816   5.324  0.5770 -0.7799 -0.9603
 4256TIP3    H212733   4.376   3.894   5.237  0.3441  0.4863 -0.1163
 4257TIP3   OH212734   3.787   2.329   1.571  0.7862 -0.4811  0.2557
 4257TIP3    H112735   3.749   2.265   1.631 -1.1435  0.5064  0.1689
 4257TIP3    H212736   3.756   2.303   1.484  0.3635  0.2751  0.1656
 4258TIP3   OH212737   1.423   0.075   3.393 -0.4413 -0.2229 -0.2653
 4258TIP3    H112738   1.431   0.015   3.467 -0.0693 -1.8362 -1.5594
 4258TIP3    H212739   1.431   0.162   3.432  1.0313 -1.0570  1.4217
 4259TIP3   OH212740   5.482   5.157   5.498 -0.1728 -0.3702 -0.0966
 4259TIP3    H112741   5.569   5.118   5.503 -0.1237 -0.2488 -0.0022
 4259TIP3    H212742   5.464   5.187   5.587 -0.2738 -0.3146 -0.1354
 4260TIP3   OH212743   0.188   6.522   3.692 -0.0910  0.6681  0.2623
 4260TIP3    H112744   0.181   6.592   3.757  1.3721  0.9323  0.1729
 4260TIP3    H212745   0.200   6.568   3.608 -1.1745  0.3238 -0.0970
 4261TIP3   OH212746   3.813   1.837   5.838  0.1169 -0.3114 -1.1615
 4261TIP3    H112747   3.772   1.751   5.830 -0.0496 -0.2137 -1.3516
 4261TIP3    H212748   3.907   1.818   5.845  0.0362 -0.5379 -0.6318
 4262TIP3   OH212749   5.434   6.145   4.012  0.1019  0.1302 -0.3994
 4262TIP3    H112750   5.458   6.237   4.012 -0.4830  0.2900 -0.9427
 4262TIP3    H212751   5.339   6.145   3.998  0.2218 -0.5796 -1.2724
 4263TIP3   OH212752   4.174   5.509   5.897 -0.2267  0.3034  0.1265
 4263TIP3    H112753   4.230   5.434   5.918  0.9137  0.9319 -0.5671
 4263TIP3    H212754   4.225   5.560   5.835 -1.5663  0.9337 -0.4997
 4264TIP3   OH212755   5.093   1.564   2.501 -0.5503  0.1533  0.4462
 4264TIP3    H112756   5.150   1.494   2.533  0.7458  0.4542 -1.0708
 4264TIP3    H212757   5.006   1.523   2.494  0.1245 -1.2292 -0.1334
 4265TIP3   OH212758   4.569   0.399   5.491 -0.0713  0.0279  0.3725
 4265TIP3    H112759   4.571   0.304   5.478  1.1204 -0.2062  1.9305
 4265TIP3    H212760   4.553   0.409   5.585  0.6636  1.3509  0.3664
 4266TIP3   OH212761   5.303   5.683   4.659 -0.6214 -0.3032  0.0470
 4266TIP3    H112762   5.273   5.660   4.747 -1.7940 -0.0008 -0.2616
 4266TIP3    H212763   5.364   5.612   4.636  0.2922  0.0080  1.3745
 4267TIP3   OH212764   1.031   5.780   2.434 -0.1736  0.7255 -0.4245
 4267TIP3    H112765   1.096   5.725   2.391  0.6054  2.0231 -0.9298
 4267TIP3    H212766   1.038   5.865   2.391 -0.8185  1.4571  0.8581
 4268TIP3   OH212767   1.664   4.024   4.859 -0.6926  0.1499  0.3019
 4268TIP3    H112768   1.573   4.027   4.889 -0.7281 -1.0188  0.3598
 4268TIP3    H212769   1.716   4.026   4.939 -0.6172  1.7759  0.2372
 4269TIP3   OH212770   1.996   3.625   1.822  0.2773 -0.2244  0.0477
 4269TIP3    H112771   2.042   3.639   1.740 -1.3537  3.0217 -0.4423
 4269TIP3    H212772   2.065   3.615   1.887  1.6575  1.1453 -1.1515
 4270TIP3   OH212773   7.049   0.461   1.669 -0.1733  0.0272  0.8683
 4270TIP3    H112774   7.069   0.385   1.726  3.3880  0.4780  0.4728
 4270TIP3    H212775   7.057   0.427   1.580  0.8562  0.6863  0.6898
 4271TIP3   OH212776   2.465   4.879   1.442 -0.0894  0.8000  0.6958
 4271TIP3    H112777   2.487   4.786   1.451  0.7580  0.5012 -2.7552
 4271TIP3    H212778   2.545   4.925   1.468  0.1312  0.4271  0.6877
 4272TIP3   OH212779   5.400   2.765   0.239 -0.9698  0.1194 -0.1801
 4272TIP3    H112780   5.494   2.776   0.256 -0.9941  0.2621 -0.1375
 4272TIP3    H212781   5.396   2.710   0.160 -0.8105  2.1804 -1.7135
 4273TIP3   OH212782   1.034   2.321   1.974  0.5435 -0.5470 -0.5884
 4273TIP3    H112783   1.021   2.400   1.922 -0.4053 -0.7286 -0.6386
 4273TIP3    H212784   0.963   2.323   2.038  2.1214  0.0644  1.2128
 4274TIP3   OH212785   4.494   2.617   4.734 -0.7551 -0.4574  0.7968
 4274TIP3    H112786   4.533   2.569   4.807  0.7868  0.6468  0.7446
 4274TIP3    H212787   4.538   2.584   4.656  0.0268  0.7094  0.7209
 4275TIP3   OH212788   1.542   2.063   0.306 -0.5668  0.4336  0.1107
 4275TIP3    H112789   1.536   2.065   0.210 -1.6678  0.1722  0.1545
 4275TIP3    H212790   1.496   1.982   0.331 -0.1699  0.4306  0.8550
 4276TIP3   OH212791   4.488   4.073   0.373  0.0393  0.2995 -0.0332
 4276TIP3    H112792   4.568   4.122   0.358  0.5490 -0.3691  0.4106
 4276TIP3    H212793   4.422   4.139   0.394  0.2019  0.9468 -1.4307
 4277TIP3   OH212794   1.054   5.101   2.032 -0.2951 -0.4449 -0.2757
 4277TIP3    H112795   1.047   5.117   2.126  1.2632 -0.6452 -0.0897
 4277TIP3    H212796   0.989   5.159   1.992 -0.1632  0.5135  0.8540
 4278TIP3   OH212797   1.280   0.597   2.362  0.2116  0.2752 -0.3360
 4278TIP3    H112798   1.346   0.651   2.318  0.9366  0.4754  0.9457
 4278TIP3    H212799   1.325   0.515   2.380 -0.0856  0.1797 -0.0194
 4279TIP3   OH212800   1.440   4.799   4.073 -0.3682 -0.0901  0.0941
 4279TIP3    H112801   1.474   4.750   4.148 -0.4485 -0.3159 -0.0174
 4279TIP3    H212802   1.440   4.890   4.103  1.1758  0.0368 -0.2235
 4280TIP3   OH212803   2.430   2.013   5.280 -0.1580  0.6368  0.3424
 4280TIP3    H112804   2.438   1.924   5.314 -0.6442 -0.5594 -2.3494
 4280TIP3    H212805   2.520   2.041   5.265  0.0251 -0.9779 -2.2453
 4281TIP3   OH212806   0.214   4.228   4.528  0.0595  0.0580 -0.2895
 4281TIP3    H112807   0.293   4.199   4.481 -0.3235  1.3088 -1.7920
 4281TIP3    H212808   0.146   4.169   4.497  0.6748 -2.3518  2.5213
 4282TIP3   OH212809   0.011   5.300   4.207 -0.1697  0.3423  0.0023
 4282TIP3    H112810   0.046   5.272   4.292  0.0169  2.8308  0.8223
 4282TIP3    H212811   0.046   5.236   4.145  0.4310 -1.0284  1.6591
 4283TIP3   OH212812   5.986   2.606   5.120 -0.3310  0.0240  0.2995
 4283TIP3    H112813   5.931   2.682   5.141 -0.9584 -0.5005  0.6218
 4283TIP3    H212814   5.923   2.537   5.099  0.2322 -0.3847 -0.0565
 4284TIP3   OH212815   3.511   0.149   3.717 -0.3949  0.0646  0.1655
 4284TIP3    H112816   3.532   0.060   3.687 -0.1087  0.4801 -0.9136
 4284TIP3    H212817   3.568   0.162   3.792 -0.6121 -0.7513  0.4898
 4285TIP3   OH212818   2.458   5.668   3.524 -0.0642 -0.3762  0.4643
 4285TIP3    H112819   2.508   5.728   3.579  1.5002 -1.0678 -0.1682
 4285TIP3    H212820   2.371   5.666   3.564  0.7402 -0.0921  2.3080
 4286TIP3   OH212821   1.188   5.861   1.824 -0.3895  0.6388 -0.3252
 4286TIP3    H112822   1.114   5.913   1.856  0.7886  1.5198  1.0374
 4286TIP3    H212823   1.194   5.787   1.884  0.5092  1.1623  0.2469
 4287TIP3   OH212824   1.425   5.350   5.132 -0.2552 -0.0490 -0.5807
 4287TIP3    H112825   1.355   5.413   5.115  0.4921  0.5757 -1.4846
 4287TIP3    H212826   1.388   5.290   5.196 -0.5803  2.0285  1.3146
 4288TIP3   OH212827   3.907   0.354   5.835 -0.0046 -0.1439 -0.2463
 4288TIP3    H112828   3.851   0.401   5.773 -0.3631 -0.5724 -0.2467
 4288TIP3    H212829   3.852   0.343   5.913  0.6360  0.9383  0.3946
 4289TIP3   OH212830   1.450   5.552   4.419  0.1216  0.5336 -0.6170
 4289TIP3    H112831   1.362   5.583   4.436 -0.0897 -0.4271  0.1483
 4289TIP3    H212832   1.462   5.562   4.324 -1.2257 -0.3649 -0.9034
 4290TIP3   OH212833   5.734   2.519   2.469  0.0545  0.4321  0.0498
 4290TIP3    H112834   5.763   2.442   2.420 -0.0482  1.3376 -1.5177
 4290TIP3    H212835   5.753   2.499   2.560 -1.7261 -2.2500 -0.0490
 4291TIP3   OH212836   3.122   3.852   2.019  0.7118  0.2348  0.7406
 4291TIP3    H112837   3.096   3.944   2.015  2.1495  0.6185 -0.9114
 4291TIP3    H212838   3.187   3.848   2.090  1.2043  0.6560  0.3168
 4292TIP3   OH212839   1.318   4.457   1.775 -0.0528 -0.1096  0.7396
 4292TIP3    H112840   1.267   4.379   1.795 -0.3527 -0.1845 -0.2530
 4292TIP3    H212841   1.409   4.428   1.777 -0.0972 -2.1873 -5.4013
 4293TIP3   OH212842   5.946   0.694   1.684 -0.0936 -0.1114 -0.3555
 4293TIP3    H112843   6.024   0.731   1.725 -0.4561  0.3268 -0.0455
 4293TIP3    H212844   5.930   0.749   1.607  0.7196 -1.0749 -1.2370
 4294TIP3   OH212845   3.631   6.168   3.901  0.0674 -0.2040 -0.1607
 4294TIP3    H112846   3.561   6.210   3.952  0.1098 -1.8349  1.3218
 4294TIP3    H212847   3.606   6.076   3.897  0.2957 -0.2455 -2.7986
 4295TIP3   OH212848   0.888   0.072   2.161  0.0899 -0.3106 -0.7512
 4295TIP3    H112849   0.980   0.095   2.158 -0.0150  0.0550 -1.2997
 4295TIP3    H212850   0.876   0.031   2.247  0.7679 -0.4142 -0.7024
 4296TIP3   OH212851   1.944   0.811   0.829 -0.0760 -0.0694 -0.3656
 4296TIP3    H112852   1.945   0.781   0.920 -0.7044  1.4845  0.1811
 4296TIP3    H212853   1.881   0.882   0.827  2.2747  2.1304 -1.2804
 4297TIP3   OH212854   6.563   1.933   0.293  0.1175 -0.2715  0.4276
 4297TIP3    H112855   6.642   1.985   0.277  0.7971 -1.2079  0.6446
 4297TIP3    H212856   6.554   1.878   0.215 -0.8860  0.4977 -0.0272
 4298TIP3   OH212857   6.989   5.255   1.072  0.3499  0.5528  0.5051
 4298TIP3    H112858   7.080   5.239   1.094  0.8273  1.1002 -0.9174
 4298TIP3    H212859   6.949   5.287   1.152  1.7295  1.5550  0.8169
 4299TIP3   OH212860   6.484   0.844   4.240  0.8196  0.5008  0.1711
 4299TIP3    H112861   6.522   0.765   4.278  0.2360 -0.1827 -0.6255
 4299TIP3    H212862   6.450   0.816   4.155  1.4462  1.8244 -0.5537
 4300TIP3   OH212863   2.639   2.613   3.638  0.3187  0.4771  0.1031
 4300TIP3    H112864   2.594   2.695   3.621 -0.6502  0.2307  1.3432
 4300TIP3    H212865   2.602   2.551   3.575  0.5718  0.8316 -0.3906
 4301TIP3   OH212866   6.599   5.670   5.718  0.0185 -0.0081  0.0778
 4301TIP3    H112867   6.692   5.648   5.709  0.6727  1.9256  1.6109
 4301TIP3    H212868   6.597   5.765   5.725 -2.1914  0.0721 -0.7730
 4302TIP3   OH212869   2.946   2.268   0.419  0.1300 -0.4600 -0.1261
 4302TIP3    H112870   2.916   2.356   0.440 -0.2314 -0.4253 -0.7510
 4302TIP3    H212871   2.959   2.226   0.504  1.3053  0.5102  0.2036
 4303TIP3   OH212872   4.574   5.325   5.512 -0.0270  0.0181 -0.3230
 4303TIP3    H112873   4.479   5.314   5.523  0.0952  0.4337  1.3984
 4303TIP3    H212874   4.585   5.419   5.498  0.2092  0.1895  0.8624
 4304TIP3   OH212875   6.929   5.012   4.246 -0.5416 -0.2521  0.3960
 4304TIP3    H112876   6.835   5.003   4.230 -0.1496 -0.9116 -1.7390
 4304TIP3    H212877   6.941   4.976   4.334 -2.0884 -1.5054  0.1398
 4305TIP3   OH212878   0.141   3.079   0.553 -0.2983 -0.3319  0.7109
 4305TIP3    H112879   0.214   3.119   0.507 -0.7551  0.0692  0.3221
 4305TIP3    H212880   0.121   3.140   0.624  0.1743 -0.7734  1.2318
 4306TIP3   OH212881   5.412   2.226   5.359 -0.4639  0.3108 -0.1230
 4306TIP3    H112882   5.388   2.161   5.425  0.7051  0.4177  0.4475
 4306TIP3    H212883   5.415   2.177   5.277 -2.3175  0.2604 -0.1854
 4307TIP3   OH212884   6.879   3.856   5.716  0.6620  0.4348 -0.5741
 4307TIP3    H112885   6.795   3.810   5.707  1.8718 -2.4151  1.2761
 4307TIP3    H212886   6.855   3.948   5.727 -2.1655 -0.2069 -0.6112
 4308TIP3   OH212887   4.158   4.580   1.760 -0.6552 -0.6940  0.3037
 4308TIP3    H112888   4.230   4.527   1.725 -0.9211 -0.0524 -1.3440
 4308TIP3    H212889   4.115   4.523   1.823  0.4699 -1.5850  0.3152
 4309TIP3   OH212890   2.485   2.225   5.031  0.2879 -0.3278  0.5847
 4309TIP3    H112891   2.437   2.231   5.114 -0.4054 -0.8796  0.2293
 4309TIP3    H212892   2.492   2.132   5.013  1.0197 -0.2365  0.3439
 4310TIP3   OH212893   1.638   4.807   3.555  0.6208  0.0739 -0.4177
 4310TIP3    H112894   1.567   4.767   3.605  1.0757  0.8978  0.9546
 4310TIP3    H212895   1.693   4.734   3.527  1.3836 -0.3368  1.9453
 4311TIP3   OH212896   1.080   3.046   1.576 -0.0394 -0.0897 -0.3825
 4311TIP3    H112897   1.017   2.994   1.527 -0.6692  0.7807 -0.5127
 4311TIP3    H212898   1.147   3.069   1.512 -0.8840  1.0826 -0.8659
 4312TIP3   OH212899   5.120   2.842   1.462  0.4252  0.0868 -0.5039
 4312TIP3    H112900   5.189   2.776   1.459 -0.3558 -0.9677  2.1121
 4312TIP3    H212901   5.050   2.801   1.512 -0.7564  2.3318 -0.1987
 4313TIP3   OH212902   0.551   2.926   1.401  0.0982  0.1495  0.6718
 4313TIP3    H112903   0.460   2.912   1.429  0.2688 -0.6360  0.8322
 4313TIP3    H212904   0.547   3.008   1.351 -0.8877 -0.4010 -0.1967
 4314TIP3   OH212905   4.507   3.050   0.581  0.4321  0.2755  0.1361
 4314TIP3    H112906   4.552   2.975   0.621 -1.3016 -1.6772 -1.2953
 4314TIP3    H212907   4.558   3.070   0.503  0.0439 -0.5735 -0.3643
 4315TIP3   OH212908   2.160   0.052   0.103  0.2611  0.7658  0.2436
 4315TIP3    H112909   2.198  -0.034   0.121 -0.9324 -0.3141 -1.9781
 4315TIP3    H212910   2.232   0.113   0.117  2.1021 -0.9244 -1.2063
 4316TIP3   OH212911   4.221   1.638   4.459  1.0312 -0.2706  0.0765
 4316TIP3    H112912   4.169   1.692   4.401  0.2575 -1.6715 -0.5888
 4316TIP3    H212913   4.282   1.591   4.402  1.2527 -0.5848  0.5524
 4317TIP3   OH212914   6.269   6.800   2.100  0.1569  0.1618 -0.4117
 4317TIP3    H112915   6.231   6.712   2.102 -0.6880  0.5163 -0.4491
 4317TIP3    H212916   6.266   6.825   2.007  0.1348  0.3462 -0.3611
 4318TIP3   OH212917   0.310   4.370   1.505 -0.3284 -0.1082 -0.1483
 4318TIP3    H112918   0.299   4.457   1.545 -0.1119 -0.5053  0.8013
 4318TIP3    H212919   0.319   4.388   1.411  1.7850  1.0756  0.2297
 4319TIP3   OH212920   0.112   2.360   4.961  0.1919  0.3003 -0.5565
 4319TIP3    H112921   0.153   2.405   4.887 -0.5032 -0.0159 -1.1466
 4319TIP3    H212922   0.075   2.431   5.014  2.8405  0.7278  0.8723
 4320TIP3   OH212923   5.047   6.158   1.839 -0.1758 -0.0762  0.4098
 4320TIP3    H112924   4.991   6.225   1.800 -0.4629  0.3002  1.4350
 4320TIP3    H212925   5.134   6.198   1.841 -0.0007 -0.3779 -0.4896
 4321TIP3   OH212926   6.586   4.620   4.251  0.2132  0.4669  0.2421
 4321TIP3    H112927   6.492   4.601   4.252  0.0805  1.1159  0.2053
 4321TIP3    H212928   6.593   4.702   4.203  0.6086  1.4063  1.8315
 4322TIP3   OH212929   2.722   6.203   5.177 -0.6511  0.2318  0.1308
 4322TIP3    H112930   2.774   6.283   5.166 -0.1308 -0.3128 -1.8391
 4322TIP3    H212931   2.743   6.173   5.266  0.5565  1.3131  0.2420
 4323TIP3   OH212932   6.209   4.455   4.061  0.1796  0.1340  0.4667
 4323TIP3    H112933   6.209   4.551   4.061  1.2670  0.1442  0.0970
 4323TIP3    H212934   6.282   4.431   4.004 -1.2510 -0.9302 -1.0255
 4324TIP3   OH212935   5.804   2.423   3.965 -0.2330 -0.4855  0.3000
 4324TIP3    H112936   5.816   2.423   3.870  3.8565 -0.5952  0.6434
 4324TIP3    H212937   5.770   2.335   3.985  0.6329 -1.1394 -0.9608
 4325TIP3   OH212938   6.902   3.594   0.869  0.7365 -0.1791  0.2272
 4325TIP3    H112939   6.846   3.593   0.792  0.3410  0.5940  0.4917
 4325TIP3    H212940   6.874   3.517   0.920  1.7411 -1.3328 -0.8855
 4326TIP3   OH212941   5.725   0.022   3.514  0.1784 -0.6485 -0.1112
 4326TIP3    H112942   5.778   0.084   3.565 -0.3440 -0.4667  0.2244
 4326TIP3    H212943   5.709  -0.051   3.574  0.0679 -0.7132 -0.2193
 4327TIP3   OH212944   2.658   6.645   5.494  0.8157 -0.3227  0.1317
 4327TIP3    H112945   2.641   6.585   5.567  3.0434 -1.3286 -0.1137
 4327TIP3    H212946   2.610   6.607   5.420 -0.7157  0.2112  0.8072
 4328TIP3   OH212947   3.011   5.918   3.492 -0.0777 -0.3055  0.1056
 4328TIP3    H112948   2.928   5.914   3.446 -0.0974  1.6109 -0.1129
 4328TIP3    H212949   3.053   5.834   3.474 -1.6711 -1.0507 -0.3079
 4329TIP3   OH212950   1.692   4.310   5.726 -0.9009  0.4326 -0.1302
 4329TIP3    H112951   1.774   4.311   5.677 -0.6614 -0.9578  0.2020
 4329TIP3    H212952   1.630   4.357   5.670 -0.1085  0.7105 -0.7909
 4330TIP3   OH212953   0.473   4.475   0.568  0.2633  0.1490  0.3109
 4330TIP3    H112954   0.459   4.569   0.577  0.2695  0.0952  0.9075
 4330TIP3    H212955   0.439   4.455   0.481  0.0719  0.6689  0.2591
 4331TIP3   OH212956   5.667   4.388   1.592 -0.1208  0.1631  0.6248
 4331TIP3    H112957   5.597   4.449   1.574  1.7821  2.4397  0.5011
 4331TIP3    H212958   5.685   4.346   1.508 -1.7789 -1.0557  0.8191
 4332TIP3   OH212959   0.108   6.029   4.326 -0.3643 -0.2583  0.1294
 4332TIP3    H112960   0.079   5.984   4.246  1.5040 -0.6688 -0.3667
 4332TIP3    H212961   0.195   6.062   4.304  1.1561 -2.2229  2.6618
 4333TIP3   OH212962   5.925   4.655   0.235 -0.2109 -0.3912 -0.3583
 4333TIP3    H112963   5.964   4.709   0.304  2.5164  0.6069 -2.4720
 4333TIP3    H212964   5.849   4.705   0.206  0.3757  0.7057 -0.0710
 4334TIP3   OH212965   1.437   1.217   1.775  0.6259 -0.4575 -0.2006
 4334TIP3    H112966   1.526   1.243   1.796  1.0800 -0.9861 -1.4034
 4334TIP3    H212967   1.445   1.127   1.744  0.0137  0.2259 -2.5228
 4335TIP3   OH212968   2.374   1.580   2.475 -0.1696 -0.1000 -0.2834
 4335TIP3    H112969   2.372   1.485   2.480 -0.7022 -0.0764  0.0331
 4335TIP3    H212970   2.353   1.609   2.564 -0.6045  0.3161 -0.5178
 4336TIP3   OH212971   0.526   6.361   0.783  0.3113  0.0919 -0.7808
 4336TIP3    H112972   0.486   6.308   0.714 -1.3105  0.8926 -0.4909
 4336TIP3    H212973   0.604   6.399   0.742 -0.1017 -0.1933 -1.8697
 4337TIP3   OH212974   0.348   4.431   5.912 -0.4622  0.0801  0.2459
 4337TIP3    H112975   0.358   4.358   5.850  0.3782 -0.0957  0.5753
 4337TIP3    H212976   0.407   4.499   5.879 -0.2269  0.0929  0.6794
 4338TIP3   OH212977   2.591   4.620   1.429 -0.0300 -0.0141  0.4991
 4338TIP3    H112978   2.626   4.641   1.342 -0.4126  0.6116  0.4967
 4338TIP3    H212979   2.580   4.525   1.427  1.4196 -0.2139  0.4069
 4339TIP3   OH212980   6.935   1.335   2.409  0.0312 -0.3182 -0.3654
 4339TIP3    H112981   6.941   1.241   2.392 -0.3731 -0.0231 -2.4364
 4339TIP3    H212982   7.024   1.360   2.436  0.0332 -1.3383  0.6750
 4340TIP3   OH212983   2.360   6.433   0.455  0.2166 -0.5797 -0.3029
 4340TIP3    H112984   2.455   6.436   0.463  0.4103 -0.4686 -2.1523
 4340TIP3    H212985   2.331   6.522   0.474  0.6800 -0.1563 -1.4862
 4341TIP3   OH212986   0.584   4.940   1.419 -0.2391 -0.3714  0.4706
 4341TIP3    H112987   0.530   5.001   1.369 -1.7766 -1.0835  1.1809
 4341TIP3    H212988   0.521   4.880   1.459  1.0803 -1.0995  1.5379
 4342TIP3   OH212989   6.656   3.050   0.688  0.5005  0.1981 -0.2029
 4342TIP3    H112990   6.749   3.037   0.668  0.3761  0.1553 -0.7769
 4342TIP3    H212991   6.627   2.965   0.721  0.1758 -0.4334 -2.0141
 4343TIP3   OH212992   4.798   1.275   2.127 -0.3158 -0.0404  0.3059
 4343TIP3    H112993   4.768   1.231   2.206  0.3080 -0.4646  0.3130
 4343TIP3    H212994   4.893   1.260   2.125 -0.5290 -1.7411 -1.5154
 4344TIP3   OH212995   5.208   5.404   1.832  0.4023 -0.6745  0.4506
 4344TIP3    H112996   5.194   5.453   1.913 -0.1664 -1.9984  1.1855
 4344TIP3    H212997   5.284   5.446   1.792  0.3167  0.3999  1.3514
 4345TIP3   OH212998   6.199   6.391   3.976  0.7306  0.1958 -0.2831
 4345TIP3    H112999   6.203   6.341   4.057  0.1502  1.9495  0.8559
 4345TIP3    H213000   6.107   6.391   3.951  0.8662 -0.1070 -0.8140
 4346TIP3   OH213001   6.977   5.189   3.606  0.0908  0.0078 -0.3272
 4346TIP3    H113002   7.047   5.181   3.671 -0.3343  3.8254  0.8988
 4346TIP3    H213003   7.008   5.257   3.546 -1.8615  0.5871 -0.7500
 4347TIP3   OH213004   4.589   5.325   2.988 -0.1912  0.4836 -0.0200
 4347TIP3    H113005   4.586   5.329   2.892 -0.4933  1.8156  0.0261
 4347TIP3    H213006   4.577   5.416   3.016  0.8642  0.2485  1.2622
 4348TIP3   OH213007   0.841   3.329   3.772 -0.2787 -0.2881 -0.0058
 4348TIP3    H113008   0.764   3.276   3.751 -1.2815  0.9744  0.3879
 4348TIP3    H213009   0.808   3.398   3.829  1.0530  0.5886 -0.2557
 4349TIP3   OH213010   1.574   1.449   2.950 -0.1046 -0.0546 -0.2036
 4349TIP3    H113011   1.571   1.538   2.985 -0.4308 -0.4740  0.8520
 4349TIP3    H213012   1.631   1.456   2.873  0.0871  1.0129  0.0208
 4350TIP3   OH213013   3.720   0.199   0.952 -0.1310  0.3981 -0.1564
 4350TIP3    H113014   3.635   0.159   0.965 -0.3149  1.3604  1.9243
 4350TIP3    H213015   3.779   0.150   1.010  0.6998 -0.0812 -1.3676
 4351TIP3   OH213016   6.250   3.825   0.993  0.3104 -0.0391  0.2945
 4351TIP3    H113017   6.161   3.859   1.003  0.1937 -0.4578  0.7107
 4351TIP3    H213018   6.242   3.755   0.929  0.3695  0.0250  0.2165
 4352TIP3   OH213019   4.149   3.041   2.986 -0.0322  0.3117  0.0700
 4352TIP3    H113020   4.206   3.041   2.910 -0.6526  0.9126 -0.4171
 4352TIP3    H213021   4.060   3.033   2.950 -0.3127  0.1906  0.7541
 4353TIP3   OH213022   5.040   1.981   0.525 -0.1424 -0.1205 -0.2154
 4353TIP3    H113023   4.986   1.907   0.496  0.1472 -0.6396  0.5453
 4353TIP3    H213024   5.097   1.944   0.592 -1.8319  1.3453  2.1681
 4354TIP3   OH213025   7.111   5.190   5.343  0.4706 -0.2995 -0.4911
 4354TIP3    H113026   7.062   5.159   5.419  1.1749 -0.1945  0.0095
 4354TIP3    H213027   7.124   5.112   5.289  1.0549 -0.6173  0.1035
 4355TIP3   OH213028   0.466   5.013   3.184 -0.0539 -0.5595 -0.0524
 4355TIP3    H113029   0.479   4.949   3.113 -2.4380 -0.4383 -0.6845
 4355TIP3    H213030   0.372   5.009   3.203  0.3774  0.0753  2.5176
 4356TIP3   OH213031   6.370   2.421   2.681  0.1741 -0.4355  0.4993
 4356TIP3    H113032   6.353   2.466   2.764  0.5238  0.1699  0.2546
 4356TIP3    H213033   6.284   2.392   2.651 -0.1995  0.8793  0.2271
 4357TIP3   OH213034   4.172   1.021   0.103 -0.2720 -0.1315  0.5831
 4357TIP3    H113035   4.121   1.073   0.165  0.1185  2.0123 -0.7819
 4357TIP3    H213036   4.118   1.019   0.024  0.4259 -0.4525  0.1117
 4358TIP3   OH213037   0.113   5.250   2.379  0.1724  0.1226  0.2128
 4358TIP3    H113038   0.202   5.273   2.406  0.7953 -1.5218 -0.3011
 4358TIP3    H213039   0.079   5.198   2.452 -0.1548  0.2648  0.1613
 4359TIP3   OH213040   2.860   6.303   0.588 -0.1946 -0.4364 -0.6873
 4359TIP3    H113041   2.866   6.392   0.624  0.1446 -0.8857  0.4123
 4359TIP3    H213042   2.780   6.304   0.535  0.9155  1.1173 -2.4731
 4360TIP3   OH213043   6.642   2.926   4.425 -0.4635  0.1060  0.3173
 4360TIP3    H113044   6.618   3.015   4.400  1.1389  0.1255 -1.3218
 4360TIP3    H213045   6.710   2.937   4.491  0.4906  0.1369 -0.6487
 4361TIP3   OH213046   0.551   3.934   3.189  0.4340  0.1579  0.1881
 4361TIP3    H113047   0.581   3.998   3.125 -0.7781  0.7097  0.1520
 4361TIP3    H213048   0.497   3.873   3.139 -0.6123  0.6591  0.6825
 4362TIP3   OH213049   2.230   2.777   3.490  0.0140 -0.5141 -0.5322
 4362TIP3    H113050   2.307   2.810   3.537 -0.6620  0.0204  0.2408
 4362TIP3    H213051   2.157   2.821   3.533 -0.8697 -2.3882 -0.0527
 4363TIP3   OH213052   3.701   5.611   2.526  0.5679  0.2834  0.2285
 4363TIP3    H113053   3.690   5.529   2.573 -0.8741  0.0133 -0.4984
 4363TIP3    H213054   3.696   5.678   2.594 -0.3192 -0.1498  0.6072
 4364TIP3   OH213055   0.093   6.723   4.424  0.4316  0.0735 -0.1643
 4364TIP3    H113056   0.067   6.810   4.454  0.8825  0.0777  0.2299
 4364TIP3    H213057   0.153   6.740   4.351  0.6734  0.1014  0.0387
 4365TIP3   OH213058   1.453   4.125   1.634  0.3283  0.2800  0.0349
 4365TIP3    H113059   1.456   4.054   1.570  2.8336  1.8743 -1.8518
 4365TIP3    H213060   1.521   4.103   1.697 -1.0070 -0.4675  1.2515
 4366TIP3   OH213061   2.834   6.528   0.782 -0.7875  0.0096  0.6860
 4366TIP3    H113062   2.851   6.514   0.875  0.9553 -1.9137  0.1424
 4366TIP3    H213063   2.823   6.623   0.774  0.3717  0.3711  2.6470
 4367TIP3   OH213064   4.011   3.246   0.440 -0.2883 -0.2601  0.1380
 4367TIP3    H113065   4.083   3.228   0.500  0.1348  2.1939  0.4949
 4367TIP3    H213066   4.049   3.237   0.353 -0.4342 -2.0647  0.2224
 4368TIP3   OH213067   4.816   0.135   4.910  0.1963  0.4423  0.5703
 4368TIP3    H113068   4.844   0.067   4.971 -1.0073  0.4636  1.1840
 4368TIP3    H213069   4.897   0.178   4.883  1.0633 -1.6188 -0.3404
 4369TIP3   OH213070   5.185   4.805   5.312  0.2782 -0.0910  0.0957
 4369TIP3    H113071   5.208   4.897   5.301  2.4932 -0.4796  0.9176
 4369TIP3    H213072   5.090   4.802   5.301  0.1864  2.2432 -0.1761
 4370TIP3   OH213073   1.006   3.194   3.005  0.3402 -0.4000 -0.2897
 4370TIP3    H113074   1.019   3.167   2.914  2.1489 -3.0174  0.6406
 4370TIP3    H213075   1.028   3.287   3.006  2.1389 -0.7339 -2.2043
 4371TIP3   OH213076   0.474   1.307   5.088  0.2274  0.5232  0.3656
 4371TIP3    H113077   0.555   1.357   5.072  0.5780 -0.0950  0.1679
 4371TIP3    H213078   0.498   1.216   5.070 -0.8766  0.4806 -1.1136
 4372TIP3   OH213079   7.130   0.660   0.873 -0.6632 -0.6315  0.5383
 4372TIP3    H113080   7.120   0.670   0.967 -1.6515  1.9833  0.2375
 4372TIP3    H213081   7.040   0.655   0.840 -0.3437 -1.0079 -0.2960
 4373TIP3   OH213082   1.344   0.596   0.397 -0.3948  0.2485  0.1476
 4373TIP3    H113083   1.257   0.618   0.363 -0.4192 -0.2827 -0.1469
 4373TIP3    H213084   1.336   0.505   0.426  0.2818 -0.0706 -0.6272
 4374TIP3   OH213085   6.792   3.393   0.670 -0.6720  0.7203  0.4537
 4374TIP3    H113086   6.740   3.341   0.732 -2.7200 -0.4731 -2.0588
 4374TIP3    H213087   6.841   3.328   0.620 -0.2657  1.5067 -0.1909
 4375TIP3   OH213088   3.152   2.640   1.511  0.0201 -0.2954 -0.1320
 4375TIP3    H113089   3.064   2.647   1.474  0.5441 -0.5849 -1.5071
 4375TIP3    H213090   3.170   2.726   1.548 -0.7761 -0.1863  0.0104
 4376TIP3   OH213091   7.039   0.624   3.224  0.2161 -0.1755 -0.1254
 4376TIP3    H113092   7.038   0.533   3.251 -0.1920 -0.0348  0.3488
 4376TIP3    H213093   7.130   0.653   3.240  0.6802 -0.8330 -1.4597
 4377TIP3   OH213094   3.048   0.031   2.678  0.0545  0.4109  0.0142
 4377TIP3    H113095   3.110   0.050   2.607 -0.9319  1.4884 -0.5952
 4377TIP3    H213096   3.100  -0.017   2.743  1.7297  1.8893 -0.1423
 4378TIP3   OH213097   4.935   3.941   1.911  0.7588 -0.6663 -0.5495
 4378TIP3    H113098   5.015   3.919   1.959 -0.1485 -1.6299  0.5590
 4378TIP3    H213099   4.963   3.944   1.819  1.8443 -2.1537 -0.3036
 4379TIP3   OH213100   4.075   1.207   0.676 -0.0521 -0.3922  0.0870
 4379TIP3    H113101   4.132   1.169   0.743 -0.5251 -0.8722  0.2217
 4379TIP3    H213102   3.989   1.212   0.718 -0.2072 -0.0873 -0.2651
 4380TIP3   OH213103   5.095   2.939   5.576 -0.4541 -0.5196  0.0956
 4380TIP3    H113104   5.147   2.951   5.496 -0.8821 -1.1142 -0.2813
 4380TIP3    H213105   5.119   2.851   5.606 -0.6453 -0.4813  0.3604
 4381TIP3   OH213106   1.764   1.881   4.585 -0.3019  0.0239 -0.2840
 4381TIP3    H113107   1.740   1.803   4.636 -3.0028  0.6919 -0.3783
 4381TIP3    H213108   1.777   1.949   4.651 -1.1436  0.2503 -0.3472
 4382TIP3   OH213109   1.165   3.912   2.293 -0.3431  0.5336  0.5764
 4382TIP3    H113110   1.235   3.974   2.316 -1.4612  1.2838  2.1029
 4382TIP3    H213111   1.119   3.897   2.375 -0.5113 -1.8615  0.1046
 4383TIP3   OH213112   1.761   2.833   0.901  0.2604  0.0073  0.1403
 4383TIP3    H113113   1.794   2.775   0.971  0.2883  1.4932  1.4095
 4383TIP3    H213114   1.745   2.916   0.945 -2.4330  0.2144 -1.0429
 4384TIP3   OH213115   4.103   0.828   1.526 -0.4323  0.1753  0.2215
 4384TIP3    H113116   4.031   0.785   1.573 -0.7605  1.4644  0.9357
 4384TIP3    H213117   4.166   0.852   1.595  0.2831 -0.1744 -0.3003
 4385TIP3   OH213118   6.985   2.660   3.819 -0.3626 -0.0736 -0.0095
 4385TIP3    H113119   6.918   2.709   3.866 -0.4692 -1.0822  0.9485
 4385TIP3    H213120   7.062   2.665   3.876 -0.5908 -1.5926  0.4826
 4386TIP3   OH213121   6.736   3.992   3.273  0.5899  0.0544  0.0209
 4386TIP3    H113122   6.654   4.041   3.270  0.0340 -0.8452  0.2762
 4386TIP3    H213123   6.716   3.915   3.326  1.8092  0.2082  0.7290
 4387TIP3   OH213124   6.145   4.366   5.808  0.4914 -0.2201 -0.5053
 4387TIP3    H113125   6.179   4.355   5.897  1.4528  1.1336 -0.6668
 4387TIP3    H213126   6.076   4.432   5.817 -0.0212 -0.7283 -0.6421
 4388TIP3   OH213127   0.835   0.614   0.936 -0.3516  0.2166 -0.0808
 4388TIP3    H113128   0.868   0.703   0.939  1.5573 -0.4098 -1.0988
 4388TIP3    H213129   0.838   0.590   0.843  0.8829 -1.5004  0.3552
 4389TIP3   OH213130   1.525   1.382   4.185  0.2116  0.6921  0.0811
 4389TIP3    H113131   1.455   1.439   4.153  0.0730 -0.4484 -1.8148
 4389TIP3    H213132   1.605   1.418   4.148  0.1024 -0.3654 -1.2979
 4390TIP3   OH213133   3.945   2.540   1.355  0.3407  0.7336 -0.0815
 4390TIP3    H113134   3.933   2.510   1.265  2.1035 -1.9290  0.4647
 4390TIP3    H213135   4.040   2.549   1.366  0.2193  0.2413  1.7317
 4391TIP3   OH213136   0.917   1.674   3.446 -0.2179  0.0906 -0.7956
 4391TIP3    H113137   0.904   1.722   3.364 -0.5963  0.5502 -0.4694
 4391TIP3    H213138   0.836   1.688   3.495  0.2457  0.3312 -0.0789
 4392TIP3   OH213139   3.463   2.579   0.175 -0.1041  0.0271  0.2822
 4392TIP3    H113140   3.454   2.487   0.150  0.5639 -0.0087  0.1446
 4392TIP3    H213141   3.551   2.604   0.145  0.1147  0.4299  1.2035
 4393TIP3   OH213142   4.676   5.538   5.898 -0.2016  0.2385 -0.3853
 4393TIP3    H113143   4.762   5.541   5.940 -0.4437 -0.5539  0.1955
 4393TIP3    H213144   4.688   5.585   5.815  0.5604  0.8931  0.0774
 4394TIP3   OH213145   2.097   6.780   3.458 -0.3901 -0.4413  0.0957
 4394TIP3    H113146   2.045   6.701   3.445  0.2938 -0.5690 -2.2500
 4394TIP3    H213147   2.176   6.749   3.503 -0.8311 -0.7894  0.6537
 4395TIP3   OH213148   5.647   3.363   3.220  0.5806  0.4833  0.2410
 4395TIP3    H113149   5.618   3.454   3.208  2.2665  0.8578 -1.5092
 4395TIP3    H213150   5.638   3.324   3.133  0.7209 -0.7691  0.7776
 4396TIP3   OH213151   0.620   1.118   3.094 -0.0020 -0.0031 -0.0396
 4396TIP3    H113152   0.598   1.032   3.129 -0.6940  0.2607  0.1971
 4396TIP3    H213153   0.560   1.130   3.020 -0.7533  0.7727  0.6799
 4397TIP3   OH213154   2.566   3.976   4.107 -0.5148 -0.3355  0.3361
 4397TIP3    H113155   2.541   3.936   4.024  1.3234  2.1263 -1.5563
 4397TIP3    H213156   2.506   4.050   4.117 -0.8357 -0.7099  1.3532
 4398TIP3   OH213157   4.729   3.687   0.454 -0.3694 -0.1511  0.3646
 4398TIP3    H113158   4.794   3.740   0.407 -1.0538  0.5295  0.1570
 4398TIP3    H213159   4.765   3.678   0.543  0.6472 -0.9480 -0.1129
 4399TIP3   OH213160   0.339   2.604   4.142 -0.1836  0.3550  0.2073
 4399TIP3    H113161   0.251   2.571   4.156 -0.2876  1.4872  2.8381
 4399TIP3    H213162   0.394   2.549   4.198  0.4454  1.0797  0.3187
 4400TIP3   OH213163   4.104   5.069   0.202  0.3207 -0.0224  0.5295
 4400TIP3    H113164   4.189   5.074   0.246 -0.0700  0.1408  1.2687
 4400TIP3    H213165   4.093   4.976   0.181  0.2157 -0.1958  1.3540
 4401TIP3   OH213166   6.532   1.851   2.959  0.6850  0.4973 -0.2712
 4401TIP3    H113167   6.456   1.880   3.011  0.4454 -0.9525  0.2430
 4401TIP3    H213168   6.608   1.880   3.009  0.4531 -0.4324  0.6650
 4402TIP3   OH213169   0.282   5.269   0.366 -0.0422 -0.1043  0.2687
 4402TIP3    H113170   0.304   5.313   0.284  0.0186  2.0232  1.3600
 4402TIP3    H213171   0.338   5.311   0.432  0.4843 -2.2922  1.3312
 4403TIP3   OH213172   3.492   0.248   2.954 -0.4239  0.7179 -0.6013
 4403TIP3    H113173   3.517   0.262   3.046 -0.0649 -2.2464 -0.1570
 4403TIP3    H213174   3.568   0.277   2.904  0.6542 -0.4844  0.2704
 4404TIP3   OH213175   6.704   5.316   0.087 -0.1031  0.0283  0.3868
 4404TIP3    H113176   6.765   5.312   0.014 -0.6430  3.9519 -0.4821
 4404TIP3    H213177   6.759   5.334   0.163  0.1203  0.0801  0.2143
 4405TIP3   OH213178   1.017   1.001   2.028 -0.3413 -0.6092  0.2790
 4405TIP3    H113179   1.100   0.994   1.981 -0.3195  0.7413  0.0773
 4405TIP3    H213180   0.956   1.040   1.965 -0.4616  0.7100  1.1706
 4406TIP3   OH213181   6.352   2.703   3.529  0.4969 -0.5261 -0.3406
 4406TIP3    H113182   6.347   2.711   3.434  1.1505 -2.1028 -0.5307
 4406TIP3    H213183   6.444   2.721   3.550  0.1343  0.9048  0.1354
 4407TIP3   OH213184   0.968   5.402   0.305  0.4407  0.5677 -0.3702
 4407TIP3    H113185   0.982   5.341   0.233  0.3261  0.5833 -0.4067
 4407TIP3    H213186   1.055   5.431   0.330  0.5748 -0.4032  0.3425
 4408TIP3   OH213187   6.140   1.869   3.625 -0.5673 -0.1583 -0.3321
 4408TIP3    H113188   6.162   1.887   3.716  0.3531 -1.3375 -0.2975
 4408TIP3    H213189   6.062   1.922   3.609  0.2430  1.4020  0.6095
 4409TIP3   OH213190   4.668   3.375   3.180 -0.0362 -0.6314 -0.1537
 4409TIP3    H113191   4.738   3.409   3.123 -1.8288  2.0103 -0.9490
 4409TIP3    H213192   4.622   3.312   3.125 -0.1533 -0.0383 -0.7542
 4410TIP3   OH213193   4.889   1.141   1.436 -0.5069  0.3635 -0.6144
 4410TIP3    H113194   4.955   1.179   1.495 -0.9241  0.0494  0.0600
 4410TIP3    H213195   4.940   1.100   1.366  0.0251 -0.0381 -0.0006
 4411TIP3   OH213196   5.832   6.190   2.927  0.2083 -0.5804  0.2228
 4411TIP3    H113197   5.882   6.218   3.003 -0.9954  0.7898  0.5648
 4411TIP3    H213198   5.774   6.121   2.959 -1.8347  1.4547  1.1464
 4412TIP3   OH213199   6.939   1.910   3.643 -0.1276 -0.2525 -0.3963
 4412TIP3    H113200   7.021   1.960   3.636 -0.0008 -0.4507 -0.3499
 4412TIP3    H213201   6.886   1.959   3.706  1.2827 -1.8548  2.2490
 4413TIP3   OH213202   5.654   0.623   1.385 -0.6118 -0.2002 -0.1606
 4413TIP3    H113203   5.721   0.560   1.360 -0.5183 -0.3369  0.4184
 4413TIP3    H213204   5.573   0.572   1.389 -0.9598  0.1524 -1.8186
 4414TIP3   OH213205   2.579   3.302   4.453  0.4207 -0.1461  0.3726
 4414TIP3    H113206   2.490   3.282   4.480  0.3431 -1.5305 -0.7782
 4414TIP3    H213207   2.622   3.217   4.446  2.0311  0.5190  1.4722
 4415TIP3   OH213208   7.106   5.529   3.284  0.4335  0.0328 -0.7418
 4415TIP3    H113209   7.065   5.548   3.200 -2.1921 -0.4418  0.3212
 4415TIP3    H213210   7.082   5.602   3.340  4.3362  1.6844 -0.9434
 4416TIP3   OH213211   1.311   4.156   4.137 -1.0378 -0.5592  0.0050
 4416TIP3    H113212   1.277   4.233   4.091 -0.1144 -0.0856  0.0823
 4416TIP3    H213213   1.400   4.181   4.161  0.2425 -2.5858 -2.2106
 4417TIP3   OH213214   2.974   2.043   4.200 -0.1963  0.1153  0.0682
 4417TIP3    H113215   3.001   2.072   4.113  0.1862 -0.3425  0.0356
 4417TIP3    H213216   3.020   1.961   4.214  2.3357  1.7071  1.9956
 4418TIP3   OH213217   1.840   0.432   3.246  0.0829 -0.2394  0.0433
 4418TIP3    H113218   1.789   0.410   3.168 -0.6552 -0.0420  0.4596
 4418TIP3    H213219   1.929   0.403   3.226  0.0195  0.3164 -1.0882
 4419TIP3   OH213220   3.399   2.738   5.460  0.3672 -0.4933 -0.1724
 4419TIP3    H113221   3.389   2.822   5.505 -0.8434 -0.7378  0.0397
 4419TIP3    H213222   3.492   2.734   5.438  0.3253  1.2117 -0.7947
 4420TIP3   OH213223   2.339   5.568   4.948 -0.4770  0.0024 -0.1160
 4420TIP3    H113224   2.270   5.607   4.893 -0.6048 -0.9890 -0.6772
 4420TIP3    H213225   2.320   5.601   5.036 -0.2185  1.6915 -0.6471
 4421TIP3   OH213226   3.593   0.925   4.752  0.3524 -0.3816 -0.1123
 4421TIP3    H113227   3.659   0.856   4.749 -0.0044 -0.7321  0.0661
 4421TIP3    H213228   3.628   0.994   4.696  0.4217 -0.9621 -0.8033
 4422TIP3   OH213229   1.346   4.197   0.697 -0.0009 -0.4851  0.2490
 4422TIP3    H113230   1.338   4.168   0.788 -1.3221  0.1025  0.3456
 4422TIP3    H213231   1.285   4.270   0.690  1.6732  0.9324 -0.5398
 4423TIP3   OH213232   4.743   5.751   3.713  0.9417 -0.2837  0.2074
 4423TIP3    H113233   4.821   5.800   3.738  1.4951 -0.9106 -0.2417
 4423TIP3    H213234   4.672   5.792   3.762  1.1059  1.9469 -1.2818
 4424TIP3   OH213235   7.192   2.765   1.804 -0.0118  0.0707 -0.3759
 4424TIP3    H113236   7.203   2.670   1.814 -0.9190  0.0928  1.1073
 4424TIP3    H213237   7.165   2.795   1.891  1.9850  1.9616 -0.3524
 4425TIP3   OH213238   2.063   6.365   1.843 -0.0530  0.0484 -0.2831
 4425TIP3    H113239   2.035   6.375   1.934  1.3861  0.3238  0.1562
 4425TIP3    H213240   1.997   6.413   1.792 -1.4556 -0.9934  0.4969
 4426TIP3   OH213241   0.625   5.380   2.030 -0.0390  0.4972  0.5120
 4426TIP3    H113242   0.574   5.438   1.973 -0.1658  0.6146  0.7441
 4426TIP3    H213243   0.703   5.359   1.979 -0.7613 -0.4622 -0.2323
 4427TIP3   OH213244   6.546   6.626   0.513 -0.2333 -0.9124 -0.4502
 4427TIP3    H113245   6.584   6.709   0.486  0.1132 -1.0290 -0.3307
 4427TIP3    H213246   6.619   6.577   0.552 -0.4943 -1.1564 -0.2553
 4428TIP3   OH213247   2.021   3.417   2.429 -0.1283 -0.4368  0.7372
 4428TIP3    H113248   2.107   3.458   2.440  1.0068 -2.3097 -0.5284
 4428TIP3    H213249   2.040   3.324   2.420 -2.2750 -0.8730  0.1550
 4429TIP3   OH213250   3.600   4.671   5.790 -0.2567 -0.1345 -0.1272
 4429TIP3    H113251   3.537   4.650   5.859 -0.8097  2.5994  0.3157
 4429TIP3    H213252   3.608   4.591   5.739 -1.3594 -1.6301  1.9170
 4430TIP3   OH213253   3.533   5.582   1.044 -0.4663 -0.2916 -0.3945
 4430TIP3    H113254   3.457   5.609   1.095 -1.5708 -0.3923 -1.9128
 4430TIP3    H213255   3.565   5.662   1.003  2.2641  0.3774  2.6385
 4431TIP3   OH213256   5.233   1.919   4.398  0.0751 -0.3896 -0.6957
 4431TIP3    H113257   5.221   1.921   4.303  0.7049  0.8672 -0.7722
 4431TIP3    H213258   5.301   1.983   4.415  0.0195 -0.6468  0.6099
 4432TIP3   OH213259   1.228   6.113   0.514 -0.3543  0.1199  0.3793
 4432TIP3    H113260   1.255   6.204   0.502 -2.4846  0.7890  0.1431
 4432TIP3    H213261   1.253   6.069   0.433 -1.1738  1.0252 -0.3929
 4433TIP3   OH213262   3.733   4.562   3.364  0.1898 -0.3983  0.1223
 4433TIP3    H113263   3.728   4.485   3.421  0.4860 -0.3910  0.1579
 4433TIP3    H213264   3.792   4.536   3.293 -1.5756 -1.0400 -1.1705
 4434TIP3   OH213265   4.176   0.074   5.209  0.1446 -0.2003  0.0111
 4434TIP3    H113266   4.104   0.089   5.271 -0.4275  1.4443 -0.9881
 4434TIP3    H213267   4.187  -0.021   5.208 -0.3129 -0.3211  2.0581
 4435TIP3   OH213268   1.984   6.171   5.251 -0.3462 -0.1369  0.6716
 4435TIP3    H113269   2.070   6.199   5.220  0.1874  0.3385  2.4670
 4435TIP3    H213270   1.939   6.140   5.172  1.1813  0.3130 -0.4244
 4436TIP3   OH213271   0.667   0.340   3.488 -0.1579  0.1896 -0.1215
 4436TIP3    H113272   0.666   0.251   3.452 -2.0169 -0.6643  1.8448
 4436TIP3    H213273   0.675   0.396   3.411 -0.8175 -1.6187 -1.5901
 4437TIP3   OH213274   4.565   2.553   2.625 -0.2470  0.2012  0.7810
 4437TIP3    H113275   4.569   2.623   2.560 -2.5910 -0.1181  0.2235
 4437TIP3    H213276   4.475   2.554   2.657 -0.9690 -3.6828 -0.5727
 4438TIP3   OH213277   6.326   2.138   4.513  0.3139 -0.0162  0.3449
 4438TIP3    H113278   6.309   2.113   4.604 -1.8691  3.1556  0.9846
 4438TIP3    H213279   6.306   2.231   4.510 -0.1457 -0.0866 -3.5237
 4439TIP3   OH213280   2.783   1.510   0.790  0.3939 -0.4642  0.0768
 4439TIP3    H113281   2.775   1.427   0.838 -1.0548 -0.2808  0.2144
 4439TIP3    H213282   2.859   1.553   0.830  1.7785 -2.1163 -0.6566
 4440TIP3   OH213283   2.077   4.913   2.015 -0.2837 -0.3300  0.3605
 4440TIP3    H113284   2.093   4.842   2.077  2.1373  0.0081  0.2108
 4440TIP3    H213285   2.042   4.985   2.068 -0.6801 -0.8931  0.8716
 4441TIP3   OH213286   3.750   4.876   1.457  0.0739  0.1738  0.4802
 4441TIP3    H113287   3.665   4.852   1.493 -0.3776  0.7029 -0.2041
 4441TIP3    H213288   3.814   4.838   1.517 -0.6127 -1.8779 -0.0158
 4442TIP3   OH213289   1.348   3.603   0.503  0.0299 -0.4929  0.5150
 4442TIP3    H113290   1.386   3.630   0.587 -0.0608  1.1300  0.0706
 4442TIP3    H213291   1.328   3.510   0.515  3.6938 -1.3976  0.9545
 4443TIP3   OH213292   2.429   5.942   1.443 -0.2640  0.4009  0.8683
 4443TIP3    H113293   2.446   5.873   1.507 -0.0032  2.6471  3.3646
 4443TIP3    H213294   2.432   6.023   1.493  2.1676  2.5617 -2.3434
 4444TIP3   OH213295   0.684   0.868   2.741 -0.2718 -0.1110  0.2240
 4444TIP3    H113296   0.622   0.863   2.814  1.9837  0.6067  2.3705
 4444TIP3    H213297   0.766   0.833   2.778  1.0058  0.4119 -1.9570
 4445TIP3   OH213298   4.055   2.913   2.625  0.6249  0.0740  0.3124
 4445TIP3    H113299   4.071   2.819   2.630 -0.1242 -0.0765  0.0925
 4445TIP3    H213300   4.056   2.942   2.716 -2.6355 -0.8028  0.7935
 4446TIP3   OH213301   6.573   2.279   2.547  0.0179  0.1611 -0.3086
 4446TIP3    H113302   6.515   2.335   2.599  1.2537  0.3090  0.9564
 4446TIP3    H213303   6.520   2.255   2.470 -0.4758  3.2527 -1.0546
 4447TIP3   OH213304   5.200   6.690   0.936 -0.0991  0.1253  0.2438
 4447TIP3    H113305   5.255   6.756   0.895  1.8265 -0.9235  1.0257
 4447TIP3    H213306   5.258   6.615   0.951 -1.6874 -0.9801  1.2766
 4448TIP3   OH213307   1.602   6.188   5.594  0.4887  0.2767 -0.4082
 4448TIP3    H113308   1.560   6.102   5.591  2.2892 -0.7375  1.2430
 4448TIP3    H213309   1.529   6.250   5.591 -0.8663 -1.2796 -1.4673
 4449TIP3   OH213310   2.301   2.086   1.366 -0.2392 -0.0258 -0.1510
 4449TIP3    H113311   2.391   2.066   1.340  0.1124  0.5163  0.6142
 4449TIP3    H213312   2.310   2.135   1.447 -1.2072  0.5859 -0.3978
 4450TIP3   OH213313   2.056   1.545   0.963  0.6515  0.3956  0.4204
 4450TIP3    H113314   2.145   1.578   0.956  0.4463  0.8388 -0.1955
 4450TIP3    H213315   2.033   1.557   1.055  1.4230 -0.2486  0.7106
 4451TIP3   OH213316   1.450   3.368   2.680 -0.1723  0.4300  0.3685
 4451TIP3    H113317   1.535   3.341   2.646  0.3771  1.6060  0.7707
 4451TIP3    H213318   1.412   3.288   2.716  1.5514  0.2230  1.8288
 4452TIP3   OH213319   1.922   1.589   1.902 -0.0396 -0.0160 -0.3168
 4452TIP3    H113320   1.973   1.629   1.972  0.1695  0.0850 -0.5250
 4452TIP3    H213321   1.865   1.659   1.870 -0.5896 -0.2349  0.1763
 4453TIP3   OH213322   3.013   5.929   4.468  0.1125 -0.7178  0.4357
 4453TIP3    H113323   3.096   5.949   4.512  1.2299 -0.5451 -1.6461
 4453TIP3    H213324   3.001   5.835   4.481 -0.6963 -0.3483  2.8534
 4454TIP3   OH213325   3.266   4.790   2.151  0.1167 -0.0081  0.2042
 4454TIP3    H113326   3.175   4.783   2.123 -0.0996 -2.6341  1.3288
 4454TIP3    H213327   3.298   4.870   2.108 -2.5146  0.6695 -0.6747
 4455TIP3   OH213328   3.224   0.242   0.276 -0.6802  0.7176 -0.3912
 4455TIP3    H113329   3.154   0.289   0.322  0.1061 -0.1726  1.8186
 4455TIP3    H213330   3.304   0.289   0.299 -0.0986 -0.6117  0.3955
 4456TIP3   OH213331   1.218   5.802   1.317  0.5981  0.2198 -0.4451
 4456TIP3    H113332   1.257   5.815   1.230  1.7845  2.3309  0.3305
 4456TIP3    H213333   1.256   5.721   1.349 -2.2281 -2.4005 -3.0441
 4457TIP3   OH213334   2.491   4.979   1.812 -0.0731  0.3608 -0.3573
 4457TIP3    H113335   2.578   4.940   1.818 -0.1102  0.1804 -0.9448
 4457TIP3    H213336   2.432   4.905   1.800 -0.4843  0.3516  1.3905
 4458TIP3   OH213337   3.866   5.691   0.094  0.0206  0.0360 -0.3397
 4458TIP3    H113338   3.874   5.637   0.173  0.1963  1.2697  0.5305
 4458TIP3    H213339   3.952   5.686   0.053  0.9358  1.7645  1.2083
 4459TIP3   OH213340   5.982   6.080   0.137 -0.1871 -0.5007 -0.2947
 4459TIP3    H113341   6.023   6.152   0.185 -0.2614 -0.6506 -0.0030
 4459TIP3    H213342   5.905   6.057   0.189  0.7280 -1.8783  0.5330
 4460TIP3   OH213343   2.262   0.025   3.173 -0.1705 -0.3426  0.2248
 4460TIP3    H113344   2.201   0.057   3.106 -0.8218 -1.5612  0.2109
 4460TIP3    H213345   2.219   0.044   3.256 -0.8930 -1.7282  0.2061
 4461TIP3   OH213346   5.831   2.765   1.368  0.0716  0.3958  0.4884
 4461TIP3    H113347   5.788   2.720   1.441  0.4052 -1.8878 -0.6114
 4461TIP3    H213348   5.786   2.731   1.290  1.0858  1.1781 -0.4652
 4462TIP3   OH213349   5.378   2.057   0.012 -0.0881 -0.0834 -0.1507
 4462TIP3    H113350   5.430   1.977   0.007  0.2937  0.1167  0.4399
 4462TIP3    H213351   5.423   2.110   0.078 -1.7501 -0.4321  1.3385
 4463TIP3   OH213352   6.564   4.980   0.848  0.1444 -0.3879  0.2065
 4463TIP3    H113353   6.554   5.075   0.861  0.3944 -0.5894  2.2454
 4463TIP3    H213354   6.537   4.965   0.758  0.1603  1.6382 -0.1843
 4464TIP3   OH213355   4.031   4.942   2.623  0.4043  0.5685 -0.3672
 4464TIP3    H113356   3.955   4.998   2.639  0.8386  1.5081 -1.4416
 4464TIP3    H213357   4.101   4.979   2.677  0.6284  0.9378 -0.9005
 4465TIP3   OH213358   6.309   2.135   1.793 -0.1884 -0.1410 -0.1612
 4465TIP3    H113359   6.349   2.205   1.741 -1.1241  1.0214  0.6437
 4465TIP3    H213360   6.279   2.071   1.729 -0.8603  1.0206 -1.0404
 4466TIP3   OH213361   0.874   3.314   2.169  0.5701  0.5515  0.4967
 4466TIP3    H113362   0.808   3.336   2.103  1.4957  0.8081 -0.3722
 4466TIP3    H213363   0.872   3.387   2.231 -1.7205 -0.6283  1.9521
 4467TIP3   OH213364   4.775   1.256   4.462  0.0674  1.0400  0.1585
 4467TIP3    H113365   4.689   1.214   4.451  0.2922  0.6869 -0.3144
 4467TIP3    H213366   4.768   1.306   4.543 -0.6809  1.2412 -0.0200
 4468TIP3   OH213367   6.153   6.708   0.000 -0.0334 -0.1600 -0.4358
 4468TIP3    H113368   6.094   6.780   0.024  1.5567  1.3823 -0.8726
 4468TIP3    H213369   6.168   6.661   0.082 -0.7631  0.2778 -0.0361
 4469TIP3   OH213370   3.091   1.286   3.589  0.3679  0.1691 -0.1965
 4469TIP3    H113371   3.066   1.327   3.506  2.4788  1.0867 -0.4509
 4469TIP3    H213372   3.153   1.217   3.565 -2.2076 -2.5407  0.3358
 4470TIP3   OH213373   3.403   1.425   1.826 -0.5542  0.0960  0.4402
 4470TIP3    H113374   3.433   1.483   1.896  0.5233 -0.3211  0.3362
 4470TIP3    H213375   3.309   1.443   1.820 -0.7560 -0.1132  2.2432
 4471TIP3   OH213376   4.241   2.036   2.479 -0.1145 -0.8574  0.1235
 4471TIP3    H113377   4.176   2.098   2.510 -0.4675  0.1092 -2.3212
 4471TIP3    H213378   4.213   1.952   2.515 -0.0813  0.2026  2.8376
 4472TIP3   OH213379   0.924   2.566   4.892  0.3535  0.1038  0.2137
 4472TIP3    H113380   0.947   2.537   4.981  1.1797 -0.3085 -0.1280
 4472TIP3    H213381   0.976   2.645   4.879  0.5101 -0.0403 -0.0365
 4473TIP3   OH213382   1.911   3.928   2.503  0.1378  0.5024 -0.0813
 4473TIP3    H113383   1.934   4.020   2.492 -0.4837  0.8635  1.3207
 4473TIP3    H213384   1.925   3.889   2.417  0.6537  1.8461 -0.6401
 4474TIP3   OH213385   4.514   4.426   0.989 -0.2414 -0.4382  0.0259
 4474TIP3    H113386   4.544   4.512   0.960 -3.5997  0.5790 -0.9019
 4474TIP3    H213387   4.474   4.442   1.074  1.1619 -1.6005  0.9440
 4475TIP3   OH213388   3.415   5.172   0.076  0.4394  0.2502  0.2371
 4475TIP3    H113389   3.415   5.197  -0.017  1.7147 -1.1673 -0.1899
 4475TIP3    H213390   3.437   5.252   0.123  3.3958  0.2772 -0.9833
 4476TIP3   OH213391   4.868   4.409   0.255  0.3110 -0.1188  0.3937
 4476TIP3    H113392   4.908   4.492   0.281 -2.0450  1.2211  0.0036
 4476TIP3    H213393   4.807   4.388   0.326  0.2928 -1.1261  0.1050
 4477TIP3   OH213394   2.033   4.039   2.904 -0.3360  0.1748  0.3517
 4477TIP3    H113395   2.020   4.018   2.812  0.6764  1.9612 -0.2614
 4477TIP3    H213396   2.100   3.977   2.934 -0.6929 -0.4365 -0.1037
 4478TIP3   OH213397   2.954   1.476   5.404 -0.5018 -0.0666 -0.2363
 4478TIP3    H113398   2.879   1.534   5.390 -0.8434 -0.2666  0.6815
 4478TIP3    H213399   3.028   1.523   5.367 -0.8316  0.8175  0.2100
 4479TIP3   OH213400   2.177   6.328   4.489 -0.3367 -0.7352  0.1439
 4479TIP3    H113401   2.165   6.400   4.551  1.1924  0.6339 -1.0583
 4479TIP3    H213402   2.126   6.353   4.412  1.0079 -0.3848 -0.6704
 4480TIP3   OH213403   5.307   0.526   4.916 -0.0569  0.1363 -0.7104
 4480TIP3    H113404   5.313   0.531   4.820 -0.9124 -0.8035 -0.8224
 4480TIP3    H213405   5.221   0.565   4.936  0.5513  1.2752 -0.2269
 4481TIP3   OH213406   0.613   5.555   0.599  0.3591  0.0164  0.0511
 4481TIP3    H113407   0.622   5.600   0.683  1.5014  0.9318 -0.5345
 4481TIP3    H213408   0.518   5.543   0.588 -0.0172  2.5377  0.1174
 4482TIP3   OH213409   2.570   2.185   5.593  0.1197  0.1193  0.1059
 4482TIP3    H113410   2.628   2.138   5.652 -0.6719  0.3781  1.1092
 4482TIP3    H213411   2.511   2.117   5.559  1.1274 -0.1954 -1.1270
 4483TIP3   OH213412   3.071   5.120   5.273 -0.4768  0.2928  0.5022
 4483TIP3    H113413   3.039   5.031   5.258 -0.6756  0.5307 -0.5701
 4483TIP3    H213414   3.114   5.145   5.191  1.6160  0.3642  1.5582
 4484TIP3   OH213415   6.335   4.045   5.303 -0.5802  0.1464 -0.2609
 4484TIP3    H113416   6.317   3.994   5.382  1.2571 -1.0209 -0.5406
 4484TIP3    H213417   6.321   4.136   5.330 -1.6631 -0.3380  0.9036
 4485TIP3   OH213418   3.885   5.219   0.371 -0.2935 -0.3063 -0.0021
 4485TIP3    H113419   3.796   5.192   0.344 -0.0854 -0.4522 -0.5588
 4485TIP3    H213420   3.942   5.156   0.328  0.0755 -0.3199  0.5030
 4486TIP3   OH213421   2.743   6.414   3.060 -0.4956  0.3719 -0.0171
 4486TIP3    H113422   2.828   6.381   3.028 -0.2238  0.7489  0.3056
 4486TIP3    H213423   2.738   6.385   3.151 -0.9695 -0.1269 -0.1991
 4487TIP3   OH213424   6.227   0.524   0.099  0.1659  0.2071 -0.0198
 4487TIP3    H113425   6.269   0.549   0.017  2.0754  1.0369  1.1110
 4487TIP3    H213426   6.301   0.510   0.159 -1.1475 -0.8623  1.4120
 4488TIP3   OH213427   4.499   0.058   0.940  0.3545 -0.0144 -0.4471
 4488TIP3    H113428   4.497  -0.001   0.865 -0.8650 -2.0770  1.1098
 4488TIP3    H213429   4.576   0.113   0.925  0.1800 -0.3820 -3.1422
 4489TIP3   OH213430   4.171   0.113   1.578  0.2085 -0.0474 -0.5031
 4489TIP3    H113431   4.208   0.150   1.658  1.0325 -0.8650 -0.4935
 4489TIP3    H213432   4.168   0.187   1.517  4.0306 -0.2883 -1.2752
 4490TIP3   OH213433   1.901   3.496   4.096 -0.3702 -0.7908  0.2671
 4490TIP3    H113434   1.906   3.401   4.087 -1.9223 -0.7367 -1.8922
 4490TIP3    H213435   1.992   3.526   4.084  0.0562 -1.9575  0.4943
 4491TIP3   OH213436   3.553   2.519   4.720 -0.0788  0.4295  0.0307
 4491TIP3    H113437   3.462   2.490   4.713 -0.5797  1.6636  1.0001
 4491TIP3    H213438   3.574   2.553   4.633 -0.3707 -0.3422 -0.3461
 4492TIP3   OH213439   0.176   4.620   4.813 -0.1077  0.2484  0.0688
 4492TIP3    H113440   0.216   4.538   4.785  0.0084  0.3679 -0.1242
 4492TIP3    H213441   0.125   4.598   4.891 -0.7864 -0.1818 -0.4842
 4493TIP3   OH213442   3.368   2.019   1.833 -0.7033 -0.2098 -0.0866
 4493TIP3    H113443   3.298   2.058   1.886  0.8028  0.4781  1.5131
 4493TIP3    H213444   3.441   2.008   1.895 -0.1468 -3.1202 -1.1061
 4494TIP3   OH213445   6.037   5.839   3.695 -0.3239 -0.1602  0.0785
 4494TIP3    H113446   6.128   5.808   3.694 -0.5776 -0.9714  1.2095
 4494TIP3    H213447   6.042   5.925   3.736 -0.0045  0.0672 -0.4170
 4495TIP3   OH213448   1.584   1.855   3.540 -0.3052  0.3103 -0.1926
 4495TIP3    H113449   1.660   1.807   3.507 -0.4974  0.9786 -1.6913
 4495TIP3    H213450   1.515   1.838   3.476 -1.0636  0.6914  0.5021
 4496TIP3   OH213451   0.867   3.960   1.242  0.4371  0.5490 -0.0001
 4496TIP3    H113452   0.859   4.054   1.258 -2.5239  0.3099  0.4902
 4496TIP3    H213453   0.879   3.952   1.147 -0.5227  1.3997 -0.2085
 4497TIP3   OH213454   2.807   2.423   4.696  0.4716  0.0588 -0.3986
 4497TIP3    H113455   2.818   2.507   4.741 -0.3009  0.5358 -1.0584
 4497TIP3    H213456   2.735   2.381   4.743  0.5951 -0.0573 -0.3147
 4498TIP3   OH213457   4.191   1.932   1.453  0.0647  0.3177 -0.0627
 4498TIP3    H113458   4.136   2.010   1.461 -0.5293 -0.0745 -0.2493
 4498TIP3    H213459   4.173   1.899   1.365 -0.8221 -0.8566  0.5270
 4499TIP3   OH213460   2.934   1.450   4.402 -0.1942  0.2202 -0.1607
 4499TIP3    H113461   2.997   1.467   4.472 -1.1457 -0.0722  0.7992
 4499TIP3    H213462   2.950   1.359   4.377  0.4958  0.4822 -0.7010
 4500TIP3   OH213463   1.636   3.256   4.011  0.5430 -0.0469 -0.1717
 4500TIP3    H113464   1.549   3.287   4.036  1.1875  1.3849  0.4028
 4500TIP3    H213465   1.682   3.335   3.980  1.8413 -0.6555  0.1215
 4501TIP3   OH213466   5.703   3.329   2.738 -0.6025  0.2997  0.2548
 4501TIP3    H113467   5.790   3.350   2.772  1.2183 -3.2974 -1.7065
 4501TIP3    H213468   5.660   3.284   2.810 -1.1473  2.4537  1.3795
 4502TIP3   OH213469   2.495   6.105   4.744 -0.1640 -0.3787 -0.4119
 4502TIP3    H113470   2.414   6.091   4.694 -0.3337  0.4614 -0.3816
 4502TIP3    H213471   2.519   6.196   4.726  0.3510 -0.3884  0.2057
 4503TIP3   OH213472   1.570   1.588   5.095 -0.0970  0.0205  0.3420
 4503TIP3    H113473   1.524   1.547   5.021  1.2942 -0.7427 -0.1311
 4503TIP3    H213474   1.537   1.541   5.172  1.7472 -2.4008 -0.2146
 4504TIP3   OH213475   4.612   4.634   3.027 -0.3022  0.1206  0.0863
 4504TIP3    H113476   4.651   4.695   2.965  0.1206  0.1775  0.3980
 4504TIP3    H213477   4.620   4.678   3.112 -0.4041 -0.1762  0.2522
 4505TIP3   OH213478   3.954   6.710   0.394  0.2099 -0.3600  0.4316
 4505TIP3    H113479   3.983   6.663   0.315  1.1840 -0.5777  0.8989
 4505TIP3    H213480   4.030   6.763   0.418 -0.5743  0.7924  0.4253
 4506TIP3   OH213481   5.368   6.227   5.004  0.2084 -0.0528  0.7137
 4506TIP3    H113482   5.353   6.290   4.934  0.3546  0.1578  0.8719
 4506TIP3    H213483   5.286   6.177   5.009  1.3336 -2.4433 -1.9832
 4507TIP3   OH213484   3.724   4.103   1.780 -0.2318  0.3390  0.6705
 4507TIP3    H113485   3.735   4.116   1.874 -0.4508  0.2463  0.7088
 4507TIP3    H213486   3.813   4.107   1.745  0.3507 -3.2338  1.3162
 4508TIP3   OH213487   2.055   0.921   5.677 -0.2382  0.4883 -0.5257
 4508TIP3    H113488   1.977   0.931   5.622 -0.3320 -1.4837 -0.8100
 4508TIP3    H213489   2.125   0.900   5.615 -0.3412 -1.7385  0.0545
 4509TIP3   OH213490   6.540   4.367   4.478  0.0942 -0.4227 -0.2367
 4509TIP3    H113491   6.540   4.273   4.460  1.2799 -0.0313 -2.5388
 4509TIP3    H213492   6.488   4.405   4.407 -1.9883  0.5696  1.6812
 4510TIP3   OH213493   6.479   2.265   0.224 -0.0869 -0.6112  0.2743
 4510TIP3    H113494   6.532   2.192   0.191 -1.8034 -1.5296 -0.5744
 4510TIP3    H213495   6.468   2.323   0.149  0.4206  0.0359  0.6820
 4511TIP3   OH213496   1.850   6.213   1.592 -0.0244  0.0872 -0.4828
 4511TIP3    H113497   1.927   6.210   1.535 -0.4894 -2.1264 -1.0928
 4511TIP3    H213498   1.783   6.164   1.544 -0.9995 -0.2775  1.1840
 4512TIP3   OH213499   5.376   5.835   1.498  0.3915 -0.7224  0.2973
 4512TIP3    H113500   5.402   5.826   1.590  2.5931 -1.3985 -0.3349
 4512TIP3    H213501   5.329   5.754   1.478 -0.6891 -0.2845  0.9760
 4513TIP3   OH213502   4.396   2.901   0.315  0.1613 -0.0530 -0.5899
 4513TIP3    H113503   4.399   2.865   0.227  0.7644  0.9845 -1.0193
 4513TIP3    H213504   4.459   2.974   0.313 -1.9657  1.9167 -0.2089
 4514TIP3   OH213505   1.736   4.888   4.900  0.9806  0.3202  0.0012
 4514TIP3    H113506   1.775   4.857   4.818  1.6991  0.1961  0.3833
 4514TIP3    H213507   1.763   4.823   4.965  0.7219  0.6167  0.4074
 4515TIP3   OH213508   3.768   4.152   2.812 -0.0457 -0.0225  0.2139
 4515TIP3    H113509   3.775   4.208   2.735 -0.6278  1.6491  1.3260
 4515TIP3    H213510   3.850   4.102   2.814  0.3814  0.6188 -0.9383
 4516TIP3   OH213511   7.088   3.058   0.397  0.2351  0.7323 -0.2115
 4516TIP3    H113512   7.087   3.006   0.317 -0.5293  1.3572 -0.6191
 4516TIP3    H213513   7.175   3.100   0.397  0.7333 -0.2701 -0.0375
 4517TIP3   OH213514   3.521   5.377   3.706 -0.0630 -0.0413 -0.3776
 4517TIP3    H113515   3.596   5.323   3.728 -0.5842 -0.4212  0.4764
 4517TIP3    H213516   3.477   5.330   3.635 -1.5976 -1.7712  1.6264
 4518TIP3   OH213517   2.832   0.180   3.316  0.1797  0.1131  0.5785
 4518TIP3    H113518   2.883   0.106   3.348  0.9791 -0.3019 -1.4906
 4518TIP3    H213519   2.767   0.141   3.258  0.0111  0.9565  0.1800
 4519TIP3   OH213520   6.532   2.751   5.157 -0.3890  0.7014  0.2631
 4519TIP3    H113521   6.443   2.721   5.172  0.0097 -0.5987  0.2521
 4519TIP3    H213522   6.549   2.815   5.226 -1.2206  0.7375  0.4421
 4520TIP3   OH213523   6.208   5.013   1.797 -0.0411  0.0542  0.2764
 4520TIP3    H113524   6.121   5.027   1.759  0.8481 -0.4677 -2.0911
 4520TIP3    H213525   6.197   4.935   1.852 -1.4033  0.9259  1.3197
 4521TIP3   OH213526   2.285   3.453   2.651  0.0451 -0.3917 -0.0539
 4521TIP3    H113527   2.312   3.411   2.570  0.5494  0.6634 -0.4467
 4521TIP3    H213528   2.320   3.396   2.720 -1.7941 -2.2068 -0.5240
 4522TIP3   OH213529   7.131   0.935   1.331 -0.4180 -0.4683 -0.0080
 4522TIP3    H113530   7.175   1.009   1.290 -0.2705 -0.5437  0.0125
 4522TIP3    H213531   7.195   0.864   1.327 -0.6063 -0.6294 -0.1394
 4523TIP3   OH213532   6.090   5.930   5.496 -0.0609 -0.2841 -0.1729
 4523TIP3    H113533   6.001   5.920   5.529 -0.0858  2.5365  0.9070
 4523TIP3    H213534   6.145   5.893   5.565 -0.3298  0.2534  0.3386
 4524TIP3   OH213535   2.003   2.937   2.606  0.3525 -0.0067 -0.0988
 4524TIP3    H113536   2.077   2.883   2.578 -0.3263 -0.0104 -2.0198
 4524TIP3    H213537   1.943   2.875   2.648  0.1241 -0.5734 -1.2143
 4525TIP3   OH213538   5.769   3.528   1.905  0.4399  0.2762  0.2622
 4525TIP3    H113539   5.771   3.557   1.996 -0.0407  0.6038  0.1737
 4525TIP3    H213540   5.782   3.433   1.909 -1.2075  0.0314  0.8145
 4526TIP3   OH213541   3.665   6.175   5.840 -0.3886  0.0031 -0.0913
 4526TIP3    H113542   3.595   6.223   5.794  0.0989  1.1461  0.3143
 4526TIP3    H213543   3.622   6.097   5.875 -1.6566  1.0619  0.7941
 4527TIP3   OH213544   6.650   4.375   1.761  0.5891 -0.5667 -0.5539
 4527TIP3    H113545   6.666   4.458   1.717  0.7648  0.1634  0.8396
 4527TIP3    H213546   6.579   4.394   1.822 -0.0988 -1.7269 -0.9572
 4528TIP3   OH213547   4.111   0.559   1.768 -0.0223 -0.4139 -0.1187
 4528TIP3    H113548   4.151   0.609   1.839 -0.7850  1.3424 -0.8863
 4528TIP3    H213549   4.183   0.544   1.706 -0.0038  0.7082 -0.3900
 4529TIP3   OH213550   6.526   6.803   4.102  0.2151  0.4967  0.1475
 4529TIP3    H113551   6.595   6.761   4.049 -0.9082 -3.7117  1.6953
 4529TIP3    H213552   6.454   6.741   4.103 -2.1270  2.9719  1.9301
 4530TIP3   OH213553   5.811   4.298   5.489 -0.4676  0.1631 -0.0423
 4530TIP3    H113554   5.786   4.371   5.433 -0.9404  1.7889  2.1554
 4530TIP3    H213555   5.728   4.259   5.516 -0.2237 -1.0237 -0.9537
 4531TIP3   OH213556   4.895   6.741   2.017 -0.0340 -0.4725 -0.4429
 4531TIP3    H113557   4.900   6.820   2.072 -0.8239  0.2119 -1.3084
 4531TIP3    H213558   4.976   6.694   2.034 -0.8043 -0.9780  2.3066
 4532TIP3   OH213559   3.374   1.824   0.870  0.3767  0.1074 -0.5232
 4532TIP3    H113560   3.333   1.778   0.797  1.6574 -1.0144 -0.5835
 4532TIP3    H213561   3.418   1.898   0.830 -1.4628  1.3089 -0.4623
 4533TIP3   OH213562   3.257   1.878   5.603 -0.3382  0.3720  0.1010
 4533TIP3    H113563   3.180   1.888   5.548 -0.1801 -0.9729 -0.4091
 4533TIP3    H213564   3.226   1.898   5.691 -0.8766  1.4050 -0.3077
 4534TIP3   OH213565   3.406   5.907   4.398  0.0831  0.9577  0.3049
 4534TIP3    H113566   3.434   5.932   4.486 -0.6392  1.1240  0.4944
 4534TIP3    H213567   3.487   5.884   4.353  0.3679 -0.3957  1.4083
 4535TIP3   OH213568   6.053   3.949   5.487  0.2141 -0.5262  0.0161
 4535TIP3    H113569   6.011   3.937   5.402 -1.4360 -1.1233  0.8805
 4535TIP3    H213570   6.025   4.037   5.515  1.7253  0.1716 -0.5477
 4536TIP3   OH213571   6.703   3.214   4.603 -0.1748 -0.3175 -0.6680
 4536TIP3    H113572   6.646   3.227   4.527 -0.6266  0.9912 -0.1342
 4536TIP3    H213573   6.772   3.156   4.572  0.4220  1.2814 -2.4891
 4537TIP3   OH213574   2.071   0.892   4.272 -0.0009 -0.2095  0.1143
 4537TIP3    H113575   2.056   0.912   4.365  0.3008 -1.3490  0.4319
 4537TIP3    H213576   2.001   0.831   4.249  0.8913 -1.2735  0.0912
 4538TIP3   OH213577   1.106   6.569   4.969 -0.4981  0.2146 -0.2146
 4538TIP3    H113578   1.142   6.494   4.921 -2.2815 -0.7852 -0.0597
 4538TIP3    H213579   1.174   6.591   5.033  0.2781 -0.9256 -0.6068
 4539TIP3   OH213580   5.312   4.181   0.643  0.0288 -0.3532 -0.4770
 4539TIP3    H113581   5.373   4.127   0.693 -0.3832 -0.8539 -0.5154
 4539TIP3    H213582   5.315   4.266   0.687  0.6426 -0.4111 -0.3873
 4540TIP3   OH213583   5.422   5.374   4.942  0.0601  0.4026 -0.3207
 4540TIP3    H113584   5.365   5.450   4.953 -0.5020  0.4213 -2.8039
 4540TIP3    H213585   5.508   5.404   4.972 -0.0719  2.1837 -1.5701
 4541TIP3   OH213586   0.672   1.736   3.545  0.5022  0.1260 -0.3569
 4541TIP3    H113587   0.679   1.818   3.595  0.3731  0.8442 -1.4695
 4541TIP3    H213588   0.591   1.746   3.496  0.4353 -0.7340 -0.4241
 4542TIP3   OH213589   3.013   5.989   3.834  0.1270 -0.2440  0.1309
 4542TIP3    H113590   2.956   5.911   3.832  0.3111 -0.3800  0.1859
 4542TIP3    H213591   2.967   6.053   3.779 -0.6728  0.0556  1.1241
 4543TIP3   OH213592   4.225   5.726   1.538  0.6798  0.0768 -0.2361
 4543TIP3    H113593   4.220   5.818   1.564 -0.6876  0.2030 -0.8431
 4543TIP3    H213594   4.200   5.678   1.617 -0.5760  0.3228 -0.4729
 4544TIP3   OH213595   2.384   0.612   2.297 -0.3272  0.0745  0.8463
 4544TIP3    H113596   2.332   0.576   2.225  0.6842  0.2175  0.0171
 4544TIP3    H213597   2.462   0.649   2.254 -0.5491  1.7838  1.8182
 4545TIP3   OH213598   7.159   5.195   3.804  0.3770  0.3304 -0.5033
 4545TIP3    H113599   7.172   5.290   3.813 -0.0736  0.2088  1.9343
 4545TIP3    H213600   7.193   5.158   3.885 -0.3457 -1.5103 -0.9964
 4546TIP3   OH213601   5.001   4.574   3.330 -0.2709 -0.1462  0.5196
 4546TIP3    H113602   5.095   4.564   3.314 -0.3833  0.3388 -0.4968
 4546TIP3    H213603   4.970   4.630   3.259 -1.0728  0.8988  1.6509
 4547TIP3   OH213604   5.600   2.439   0.970 -0.0649 -0.1848  0.0237
 4547TIP3    H113605   5.600   2.510   0.906  1.9173  1.1259  1.3770
 4547TIP3    H213606   5.660   2.374   0.934  1.7501  0.9476  0.8797
 4548TIP3   OH213607   3.277   3.219   0.877  0.0151  0.4305 -0.1252
 4548TIP3    H113608   3.209   3.155   0.855  0.2689  0.7507 -2.0715
 4548TIP3    H213609   3.359   3.168   0.877  0.1188  0.5734 -0.8875
 4549TIP3   OH213610   4.835   5.330   3.514 -0.4595  0.3027  0.3497
 4549TIP3    H113611   4.791   5.245   3.515  0.3947 -0.1412  0.6216
 4549TIP3    H213612   4.782   5.384   3.573 -0.1855 -0.4695  1.3404
 4550TIP3   OH213613   4.642   5.349   2.715 -0.3567 -0.6427  0.2571
 4550TIP3    H113614   4.654   5.330   2.622 -3.8611 -1.6382 -0.1202
 4550TIP3    H213615   4.619   5.442   2.717  1.3371 -0.1914  0.3814
 4551TIP3   OH213616   3.778   6.728   1.592 -0.3553 -0.5149 -0.1397
 4551TIP3    H113617   3.852   6.764   1.642 -1.6104  1.6370  0.2949
 4551TIP3    H213618   3.761   6.644   1.633  0.5304 -0.1168  1.1352
 4552TIP3   OH213619   6.780   0.090   2.825  0.7685  0.7479  0.6016
 4552TIP3    H113620   6.761   0.060   2.736  0.1992  0.5270  0.7924
 4552TIP3    H213621   6.795   0.184   2.816 -0.7561  0.9955  0.4775
 4553TIP3   OH213622   4.708   3.064   2.150 -0.3297  0.0538  0.3026
 4553TIP3    H113623   4.707   2.990   2.211  0.3862  1.4338  2.0729
 4553TIP3    H213624   4.798   3.096   2.152  0.1534 -0.8092 -2.7808
 4554TIP3   OH213625   3.674   5.872   3.183 -0.5792  0.2602  0.0051
 4554TIP3    H113626   3.616   5.842   3.253 -1.7876  0.8341 -0.7174
 4554TIP3    H213627   3.660   5.810   3.111  0.3592 -0.0972  0.1179
 4555TIP3   OH213628   6.462   0.980   2.951 -0.4671 -0.1645 -0.0592
 4555TIP3    H113629   6.451   0.886   2.958 -1.3363 -0.2076 -1.6031
 4555TIP3    H213630   6.528   1.002   3.017 -0.4230 -1.8028  0.4686
 4556TIP3   OH213631   5.489   2.727   4.123 -0.2354 -0.2763  0.2588
 4556TIP3    H113632   5.413   2.729   4.066  0.3419 -0.3144 -0.5230
 4556TIP3    H213633   5.462   2.777   4.200 -1.4973 -1.3866  0.5786
 4557TIP3   OH213634   2.417   4.905   3.675  0.4650  0.2311  0.7271
 4557TIP3    H113635   2.382   4.986   3.711 -1.2863  1.3817 -3.0313
 4557TIP3    H213636   2.509   4.924   3.656  0.1495  1.2474  0.1801
 4558TIP3   OH213637   2.123   3.667   5.001 -0.2364 -0.0866  0.0076
 4558TIP3    H113638   2.098   3.618   4.923 -0.3018  0.5723 -0.3957
 4558TIP3    H213639   2.046   3.663   5.058 -0.3891 -0.0995 -0.2010
 4559TIP3   OH213640   1.232   3.216   4.697  0.1052  0.2829 -0.6553
 4559TIP3    H113641   1.170   3.266   4.643 -2.7987 -1.1959  1.0700
 4559TIP3    H213642   1.254   3.276   4.769 -0.9518  0.1560 -0.2116
 4560TIP3   OH213643   4.596   1.282   4.128 -0.1041  0.6525 -0.1903
 4560TIP3    H113644   4.683   1.265   4.092  0.4989  3.6877 -0.4163
 4560TIP3    H213645   4.554   1.341   4.065 -1.3864  1.1821  1.0980
 4561TIP3   OH213646   6.081   0.855   3.301  0.4443  0.4022  0.6533
 4561TIP3    H113647   5.998   0.861   3.255  0.6427  1.4708  0.4066
 4561TIP3    H213648   6.137   0.920   3.258  1.0081  0.5704  1.6133
 4562TIP3   OH213649   3.731   2.750   0.177  0.2573  0.2258  0.0558
 4562TIP3    H113650   3.802   2.813   0.189  1.4963 -1.1502  0.2942
 4562TIP3    H213651   3.747   2.682   0.243 -1.0362 -0.3387 -0.1738
 4563TIP3   OH213652   1.508   2.652   1.204  1.0465  0.8691 -0.4195
 4563TIP3    H113653   1.569   2.580   1.187 -0.3941 -0.3323 -0.6848
 4563TIP3    H213654   1.441   2.614   1.261  0.1315  1.9305 -0.7514
 4564TIP3   OH213655   4.641   3.925   2.690 -0.2718 -0.6165  0.4125
 4564TIP3    H113656   4.685   3.926   2.605 -1.8998 -1.5371 -0.4897
 4564TIP3    H213657   4.711   3.906   2.752  0.6034 -2.3752 -1.0045
 4565TIP3   OH213658   3.365   1.268   3.300 -0.1495 -0.0909  0.0126
 4565TIP3    H113659   3.344   1.223   3.381  1.6740 -0.1213  0.5296
 4565TIP3    H213660   3.419   1.342   3.327  1.1325 -0.5282 -1.1808
 4566TIP3   OH213661   5.935   5.560   4.909  1.2540  0.1814  1.0339
 4566TIP3    H113662   5.899   5.631   4.963  0.8097 -0.5512  1.7262
 4566TIP3    H213663   5.983   5.605   4.840 -0.4607  1.2009  0.4327
 4567TIP3   OH213664   6.191   6.189   0.984  0.1032  0.5425 -0.7418
 4567TIP3    H113665   6.155   6.158   0.901 -0.9433  0.4406 -0.2651
 4567TIP3    H213666   6.264   6.245   0.959  0.4349 -0.2909 -1.6956
 4568TIP3   OH213667   3.965   2.449   4.034  0.0012  0.1165 -0.3193
 4568TIP3    H113668   4.004   2.479   4.116 -1.6090  0.1496  0.4757
 4568TIP3    H213669   4.015   2.371   4.011 -2.0207 -2.4532  2.9718
 4569TIP3   OH213670   3.567   5.544   3.292  0.1688  0.0264 -0.0807
 4569TIP3    H113671   3.583   5.583   3.207  0.9110  0.1332  0.1034
 4569TIP3    H213672   3.540   5.454   3.273  0.5352 -0.0111 -0.4195
 4570TIP3   OH213673   4.667   3.012   3.401  0.1656  0.2845  0.2593
 4570TIP3    H113674   4.705   2.987   3.485 -0.1621  0.4802  0.4670
 4570TIP3    H213675   4.598   3.074   3.423 -0.4306 -0.2355 -0.0946
 4571TIP3   OH213676   1.447   2.632   0.332  0.3679 -0.0173 -0.2110
 4571TIP3    H113677   1.380   2.599   0.391 -0.0008 -0.3341 -0.7959
 4571TIP3    H213678   1.446   2.572   0.258 -1.2246  1.9448 -1.9163
 4572TIP3   OH213679   3.663   4.786   3.848 -0.5552 -0.1156 -0.1481
 4572TIP3    H113680   3.712   4.804   3.928  1.5826 -0.9549 -1.1867
 4572TIP3    H213681   3.646   4.872   3.810  4.0134  0.2665 -1.8951
 4573TIP3   OH213682   6.383   0.772   5.822  0.5258 -0.6604  0.1839
 4573TIP3    H113683   6.308   0.734   5.867  0.5141 -0.4567  0.3402
 4573TIP3    H213684   6.459   0.729   5.861  0.5383 -0.2017  0.6879
 4574TIP3   OH213685   5.252   2.768   3.987  0.3523 -0.2480  0.5369
 4574TIP3    H113686   5.233   2.858   4.012  2.2555 -0.1463  1.8674
 4574TIP3    H213687   5.248   2.768   3.892  2.8723  1.9450  0.3237
 4575TIP3   OH213688   0.054   5.233   0.069 -0.1547 -0.0581 -0.2215
 4575TIP3    H113689   0.048   5.309   0.012  0.7274  1.2540  1.3621
 4575TIP3    H213690  -0.033   5.193   0.066  0.1128 -0.6463 -3.2082
 4576TIP3   OH213691   4.228   1.813   2.633 -0.1072 -0.3387  0.0413
 4576TIP3    H113692   4.265   1.805   2.721  2.3557 -1.0945 -0.9772
 4576TIP3    H213693   4.279   1.752   2.580 -0.7384  0.9313 -2.1473
 4577TIP3   OH213694   1.187   4.618   1.388 -0.1858  0.2046  0.0497
 4577TIP3    H113695   1.094   4.631   1.408  0.1747  1.8760  0.8246
 4577TIP3    H213696   1.233   4.675   1.449  1.4757 -1.8937  0.8854
 4578TIP3   OH213697   6.569   0.260   1.267  0.0178  0.1455 -0.0666
 4578TIP3    H113698   6.475   0.252   1.286  0.0295 -0.7839 -0.3654
 4578TIP3    H213699   6.582   0.354   1.251 -0.3900  0.6697  2.3599
 4579TIP3   OH213700   3.823   2.123   5.741 -0.0022 -0.5016 -0.4199
 4579TIP3    H113701   3.786   2.037   5.761 -2.4199  0.3701 -0.7671
 4579TIP3    H213702   3.833   2.166   5.826  0.1354 -0.7070 -0.3315
 4580TIP3   OH213703   3.139   6.720   5.515 -0.2162 -0.3386  0.2082
 4580TIP3    H113704   3.173   6.661   5.448  0.9748  0.5987 -0.0498
 4580TIP3    H213705   3.093   6.789   5.466 -0.8136 -0.5499  0.4588
 4581TIP3   OH213706   5.193   5.774   0.624  0.4479  0.2795  0.0493
 4581TIP3    H113707   5.123   5.815   0.574 -0.0440  1.0810  1.3470
 4581TIP3    H213708   5.267   5.770   0.564 -0.5385 -0.0900 -1.1749
 4582TIP3   OH213709   1.054   5.834   2.768 -0.2994  0.3218  0.1733
 4582TIP3    H113710   1.067   5.897   2.697  0.7724 -0.1934 -0.1126
 4582TIP3    H213711   0.969   5.795   2.750 -0.3536  0.6998 -0.4303
 4583TIP3   OH213712   5.250   6.728   2.047 -0.1523 -0.0152 -0.1276
 4583TIP3    H113713   5.239   6.765   1.959 -0.7950  1.3313  0.5001
 4583TIP3    H213714   5.334   6.763   2.077 -0.7632  0.9462  0.4718
 4584TIP3   OH213715   2.751   2.129   4.363  0.3429  0.2592 -0.1736
 4584TIP3    H113716   2.814   2.073   4.317  0.5236  0.3856 -0.0806
 4584TIP3    H213717   2.665   2.097   4.335  0.4476 -0.0095 -0.1852
 4585TIP3   OH213718   6.991   3.717   5.119  0.1932 -0.0932 -0.2646
 4585TIP3    H113719   6.983   3.671   5.203 -0.4824  0.3422 -0.0851
 4585TIP3    H213720   6.963   3.807   5.137 -0.7194 -0.1791 -1.1133
 4586TIP3   OH213721   0.416   3.798   4.641  0.0734  0.1040  0.0335
 4586TIP3    H113722   0.500   3.832   4.672  0.0157  1.0376 -0.7765
 4586TIP3    H213723   0.440   3.732   4.576  0.1834 -0.2404  0.4231
 4587TIP3   OH213724   2.930   3.106   3.934 -0.3877  0.3861 -0.4564
 4587TIP3    H113725   2.977   3.057   3.867 -0.2931 -0.8954  0.4977
 4587TIP3    H213726   2.950   3.198   3.915  0.0016  0.0312 -1.8873
 4588TIP3   OH213727   3.982   3.439   4.939 -0.2234 -0.3494 -0.1458
 4588TIP3    H113728   3.994   3.530   4.967 -0.2126 -0.3189 -0.2513
 4588TIP3    H213729   3.924   3.444   4.863  2.7170 -0.0624 -2.5804
 4589TIP3   OH213730   2.103   0.620   0.714  0.4007  0.1074  0.2884
 4589TIP3    H113731   2.116   0.613   0.808  0.7945  4.5257  0.7982
 4589TIP3    H213732   2.021   0.669   0.704 -1.9900 -3.7529 -2.0168
 4590TIP3   OH213733   0.054   1.925   1.460  0.2598 -0.2697  0.2833
 4590TIP3    H113734  -0.015   1.890   1.404  0.7365 -0.9318  0.1039
 4590TIP3    H213735   0.030   1.899   1.549  1.1088 -1.9336  0.0599
 4591TIP3   OH213736   2.562   2.273   0.926 -0.7482 -0.2146  0.2616
 4591TIP3    H113737   2.478   2.289   0.884 -0.9125 -1.1999  0.1887
 4591TIP3    H213738   2.619   2.242   0.856 -0.1546  0.9651  0.2031
 4592TIP3   OH213739   6.822   6.296   2.763 -0.1804  0.1963  0.1867
 4592TIP3    H113740   6.859   6.220   2.718  0.2502  0.7285 -0.3658
 4592TIP3    H213741   6.738   6.311   2.719 -0.2141  0.1095  0.2212
 4593TIP3   OH213742   5.803   1.989   4.862 -0.1772  0.2236 -0.3014
 4593TIP3    H113743   5.871   1.952   4.918  0.0973  1.3322  0.1248
 4593TIP3    H213744   5.766   2.060   4.914 -1.6500 -0.3295 -0.5382
 4594TIP3   OH213745   5.602   3.402   2.213 -0.5515  0.6623  0.5170
 4594TIP3    H113746   5.510   3.426   2.226 -0.7207  0.3311  0.0051
 4594TIP3    H213747   5.650   3.483   2.227 -0.9198  0.8284  0.8433
 4595TIP3   OH213748   2.680   4.221   4.067 -0.3746 -0.0892 -0.1375
 4595TIP3    H113749   2.652   4.305   4.102 -1.3688 -0.6177  0.3835
 4595TIP3    H213750   2.680   4.162   4.143  0.9823 -0.4187 -0.3554
 4596TIP3   OH213751   1.732   4.401   2.212 -0.3965  0.2915 -0.3014
 4596TIP3    H113752   1.800   4.442   2.159 -1.4241 -1.8864 -3.6329
 4596TIP3    H213753   1.780   4.348   2.277  1.0355  0.4339 -1.2089
 4597TIP3   OH213754   6.206   2.523   0.119  0.0154  0.4479 -0.3817
 4597TIP3    H113755   6.186   2.463   0.048 -0.5121  1.1546 -0.8448
 4597TIP3    H213756   6.208   2.468   0.197  0.2956 -0.2868 -0.8943
 4598TIP3   OH213757   4.109   1.832   3.878 -0.1712  0.2694 -0.2430
 4598TIP3    H113758   4.022   1.871   3.885 -0.3082  0.1612 -1.1620
 4598TIP3    H213759   4.132   1.840   3.785  0.5542 -0.2176 -0.1194
 4599TIP3   OH213760   7.072   2.685   2.327  0.2320 -0.0852 -0.1187
 4599TIP3    H113761   7.035   2.624   2.391  0.0451  1.8461  1.7508
 4599TIP3    H213762   7.166   2.683   2.343  0.1617  0.5891  0.4461
 4600TIP3   OH213763   1.888   4.647   0.735  0.1824  0.6332 -0.2986
 4600TIP3    H113764   1.872   4.578   0.670  1.1804  0.0444  0.0554
 4600TIP3    H213765   1.801   4.683   0.753 -0.2658 -0.0374 -1.0293
 4601TIP3   OH213766   5.219   3.999   3.401  0.3066  0.1502  0.0534
 4601TIP3    H113767   5.172   4.082   3.394  1.6338  0.8260 -1.4370
 4601TIP3    H213768   5.302   4.014   3.356  1.6210 -1.2653  1.8267
 4602TIP3   OH213769   0.451   3.418   5.469  0.1688  0.0712  0.1574
 4602TIP3    H113770   0.458   3.355   5.397  0.7960 -0.3790  0.5960
 4602TIP3    H213771   0.414   3.367   5.541  0.0374  0.3828  0.3111
 4603TIP3   OH213772   2.774   2.133   0.272 -0.2799  0.0294 -0.2320
 4603TIP3    H113773   2.805   2.093   0.191 -0.6616 -0.4136 -0.1626
 4603TIP3    H213774   2.850   2.181   0.305  0.9017 -2.3511  0.7665
 4604TIP3   OH213775   4.105   4.080   3.738 -0.1312  0.2758  0.0445
 4604TIP3    H113776   4.143   4.163   3.709 -0.3830  0.5282  0.4124
 4604TIP3    H213777   4.086   4.094   3.831 -0.5003 -0.0696  0.0255
 4605TIP3   OH213778   5.329   2.704   4.861 -0.0985  0.6385  0.3866
 4605TIP3    H113779   5.252   2.648   4.854  0.9626 -0.7607 -0.6134
 4605TIP3    H213780   5.354   2.722   4.770  1.5594 -0.0936  0.6588
 4606TIP3   OH213781   5.612   5.560   5.448  0.0945  0.5563  0.0909
 4606TIP3    H113782   5.562   5.488   5.411 -0.8798  0.2328  1.9475
 4606TIP3    H213783   5.693   5.561   5.397 -0.4429 -0.9521 -0.8640
 4607TIP3   OH213784   0.721   4.416   0.648  0.5022  0.5165 -0.4461
 4607TIP3    H113785   0.736   4.328   0.614  1.4694 -0.1791  1.6286
 4607TIP3    H213786   0.633   4.439   0.618 -0.0062 -1.4096 -0.5271
 4608TIP3   OH213787   2.313   1.826   5.579  0.6018  0.3393  0.1021
 4608TIP3    H113788   2.279   1.789   5.497 -0.0346  0.2949  0.3825
 4608TIP3    H213789   2.239   1.823   5.639  1.2016 -0.0616  0.8297
 4609TIP3   OH213790   0.127   0.906   5.363 -0.1636 -0.0343  0.0795
 4609TIP3    H113791   0.170   0.945   5.288  1.0083  1.5175  1.4836
 4609TIP3    H213792   0.078   0.978   5.403 -2.0925 -1.1932 -0.0518
 4610TIP3   OH213793   0.164   4.202   1.793 -0.4618  0.0202 -0.0587
 4610TIP3    H113794   0.090   4.254   1.762 -0.2150  0.4215  0.0157
 4610TIP3    H213795   0.129   4.151   1.866 -1.0849 -1.0571 -1.0820
 4611TIP3   OH213796   5.294   6.176   2.632 -0.3075 -0.7775  0.1382
 4611TIP3    H113797   5.337   6.166   2.547 -0.9521 -1.9607 -0.0732
 4611TIP3    H213798   5.239   6.254   2.623  0.6554 -0.1153 -0.0741
 4612TIP3   OH213799   3.461   1.016   2.780  0.4407 -0.1631 -0.0563
 4612TIP3    H113800   3.393   1.055   2.835  0.2040  1.9798 -1.7304
 4612TIP3    H213801   3.420   0.937   2.745 -0.6696  0.3291  0.0833
 4613TIP3   OH213802   1.927   5.931   2.166  0.1209 -0.1022 -0.0992
 4613TIP3    H113803   1.905   5.889   2.083 -0.5848  0.8599 -0.4166
 4613TIP3    H213804   2.013   5.971   2.151 -0.2221  0.4873 -0.5414
 4614TIP3   OH213805   3.163   5.760   2.629  0.7657  0.1163 -0.3964
 4614TIP3    H113806   3.079   5.726   2.659 -0.0854  1.5843 -1.0170
 4614TIP3    H213807   3.226   5.731   2.696 -0.4869  0.3182  0.9121
 4615TIP3   OH213808   5.340   1.172   0.824 -0.6926  0.0715 -0.5316
 4615TIP3    H113809   5.274   1.229   0.862 -0.1456  0.5828 -0.3371
 4615TIP3    H213810   5.294   1.090   0.807 -1.7678  0.9118 -1.8290
 4616TIP3   OH213811   5.110   2.226   0.446 -0.3055  0.2615  0.2762
 4616TIP3    H113812   5.102   2.138   0.481 -1.8948 -0.0573 -0.7942
 4616TIP3    H213813   5.108   2.216   0.351 -0.1725  1.4266  0.1251
 4617TIP3   OH213814   1.661   1.263   1.965  0.4056  0.0755  0.4227
 4617TIP3    H113815   1.693   1.303   1.884 -0.5134 -0.2155 -0.0927
 4617TIP3    H213816   1.612   1.333   2.009  1.0851  0.2981  0.8475
 4618TIP3   OH213817   4.513   1.340   5.094 -0.3374  0.3842  0.0425
 4618TIP3    H113818   4.466   1.268   5.136  0.4684  0.7813  1.7162
 4618TIP3    H213819   4.566   1.299   5.027 -2.6899 -0.1271 -1.6227
 4619TIP3   OH213820  -0.016   0.311   2.474  0.0918 -0.2801 -0.0292
 4619TIP3    H113821   0.075   0.286   2.484  0.5429 -1.5838 -4.9768
 4619TIP3    H213822  -0.013   0.403   2.448  0.0884 -0.5236 -0.9100
 4620TIP3   OH213823   2.568   6.532   3.665 -0.0359  0.0314 -0.1041
 4620TIP3    H113824   2.531   6.595   3.603  0.4447  0.0506 -0.3700
 4620TIP3    H213825   2.658   6.518   3.636  0.3175  0.3260  0.8145
 4621TIP3   OH213826   5.103   4.669   4.758 -0.5018  0.6141  0.3539
 4621TIP3    H113827   5.181   4.614   4.751 -2.1285 -1.9729  0.9437
 4621TIP3    H213828   5.056   4.654   4.676 -2.1900 -1.0550  1.5130
 4622TIP3   OH213829   3.807   2.275   5.266  0.3547  0.4917 -0.3975
 4622TIP3    H113830   3.873   2.216   5.300  0.7612  0.0555 -1.8431
 4622TIP3    H213831   3.735   2.271   5.328  1.1664 -0.0186  0.5238
 4623TIP3   OH213832   1.499   5.376   1.698 -0.2306  0.3254  0.6669
 4623TIP3    H113833   1.459   5.438   1.759 -0.3620  1.2478 -0.3077
 4623TIP3    H213834   1.427   5.321   1.668 -0.6814  1.5327 -0.5613
 4624TIP3   OH213835   4.298   5.275   5.522 -0.8271  0.0985  0.0618
 4624TIP3    H113836   4.217   5.315   5.552 -1.3579 -0.6078 -0.4089
 4624TIP3    H213837   4.280   5.248   5.432 -0.0940 -0.1200 -0.0261
 4625TIP3   OH213838   5.197   4.228   5.059  0.3087 -0.5564  0.4501
 4625TIP3    H113839   5.162   4.313   5.030  0.9000  0.1498  1.7191
 4625TIP3    H213840   5.122   4.169   5.057 -0.2337  0.1303  0.0658
 4626TIP3   OH213841   7.159   0.566   2.370  0.2505  0.4070  0.2222
 4626TIP3    H113842   7.191   0.579   2.281 -1.8391  1.4073 -0.4608
 4626TIP3    H213843   7.181   0.648   2.416  0.1965  0.4070  0.2487
 4627TIP3   OH213844   5.980   3.709   3.597  0.7593 -0.2482  0.7400
 4627TIP3    H113845   5.917   3.770   3.637  0.6114  0.0788  0.0179
 4627TIP3    H213846   6.021   3.759   3.527 -0.1035 -1.2812 -0.5338
 4628TIP3   OH213847   5.179   4.630   1.272  0.1322 -0.4104  0.4350
 4628TIP3    H113848   5.174   4.549   1.323 -0.6311  0.1451  1.2561
 4628TIP3    H213849   5.125   4.693   1.320  1.0721  0.7287  0.0587
 4629TIP3   OH213850   1.987   0.470   0.025  0.0160 -0.2978 -0.7511
 4629TIP3    H113851   1.934   0.482  -0.053  1.7201  1.4727 -1.7203
 4629TIP3    H213852   1.923   0.465   0.097 -1.6023 -2.5480 -2.2344
 4630TIP3   OH213853   3.493   0.801   1.612  0.3163 -0.0181 -0.3805
 4630TIP3    H113854   3.490   0.858   1.536 -1.7662  0.4660 -0.0069
 4630TIP3    H213855   3.456   0.853   1.683 -1.6462 -1.7277 -0.0227
 4631TIP3   OH213856   6.919   6.807   4.119  0.0824 -0.3504  0.0437
 4631TIP3    H113857   6.897   6.721   4.155 -1.4316  0.0402  0.0964
 4631TIP3    H213858   6.939   6.789   4.027 -1.8044 -0.5886 -0.3634
 4632TIP3   OH213859   0.221   1.596   5.836  0.3703  0.0768  0.2733
 4632TIP3    H113860   0.185   1.516   5.873 -0.0874 -0.3303 -1.0348
 4632TIP3    H213861   0.187   1.666   5.893 -0.0537 -0.5587  0.8116
 4633TIP3   OH213862   5.151   5.031   0.963  0.0269  0.4658 -0.5052
 4633TIP3    H113863   5.130   5.114   1.005  0.9810  1.2285 -1.5000
 4633TIP3    H213864   5.240   5.011   0.991 -0.2634 -0.3393 -0.1138
 4634TIP3   OH213865   6.904   1.982   4.000 -0.0574 -0.0790 -0.3295
 4634TIP3    H113866   6.919   2.075   4.016  0.3318 -0.3770  1.1373
 4634TIP3    H213867   6.992   1.944   3.999 -0.2983 -0.6813  0.7627
 4635TIP3   OH213868   5.513   2.636   3.826  0.4174 -0.0625  0.4118
 4635TIP3    H113869   5.420   2.653   3.811  0.4932 -0.4414 -0.5774
 4635TIP3    H213870   5.556   2.666   3.746  1.1127 -0.1653  0.7419
 4636TIP3   OH213871   1.799   1.551   1.503  0.1838  0.3353 -0.2677
 4636TIP3    H113872   1.728   1.609   1.475  0.3393  0.4261 -0.4706
 4636TIP3    H213873   1.871   1.610   1.524  1.7204  0.1243 -4.1293
 4637TIP3   OH213874   3.742   3.961   4.868  0.2453  0.5973  0.2004
 4637TIP3    H113875   3.709   3.984   4.781  1.0244  2.9124  0.4541
 4637TIP3    H213876   3.720   3.868   4.878 -0.4018  0.4253 -2.1983
 4638TIP3   OH213877   1.342   6.210   4.825 -0.6194 -0.0923  0.4137
 4638TIP3    H113878   1.292   6.216   4.744 -0.2911  2.9758  0.3113
 4638TIP3    H213879   1.279   6.181   4.891 -1.9980  1.3946 -0.1860
 4639TIP3   OH213880   5.038   3.714   5.357 -0.1407 -0.1099  0.0470
 4639TIP3    H113881   5.103   3.782   5.373  0.0151 -0.2488  0.0013
 4639TIP3    H213882   5.060   3.680   5.271 -0.8804  0.5312 -0.4191
 4640TIP3   OH213883   5.751   1.201   5.254 -0.4601  0.3520 -0.1312
 4640TIP3    H113884   5.736   1.224   5.346 -0.8427 -1.4731  0.2922
 4640TIP3    H213885   5.836   1.156   5.254 -0.2752  0.6868 -0.7417
 4641TIP3   OH213886   6.190   0.539   3.454  0.2111  0.3658 -0.4623
 4641TIP3    H113887   6.173   0.446   3.436  0.7333 -0.0665  1.0806
 4641TIP3    H213888   6.234   0.571   3.376  0.5087 -0.8312 -0.8087
 4642TIP3   OH213889   5.723   6.535   1.433  0.5584 -0.0029 -0.2396
 4642TIP3    H113890   5.732   6.501   1.522 -2.1808 -1.8430 -0.5438
 4642TIP3    H213891   5.726   6.457   1.377  2.3153  1.1205 -1.8426
 4643TIP3   OH213892   4.565   6.331   2.616 -0.0311 -0.9144  0.7006
 4643TIP3    H113893   4.607   6.293   2.539  0.7879  0.8030  0.2457
 4643TIP3    H213894   4.557   6.424   2.596 -2.7655 -0.9018  1.3980
 4644TIP3   OH213895   1.293   3.707   4.048 -0.3456 -0.0391 -0.3725
 4644TIP3    H113896   1.342   3.775   4.001 -0.4776  0.8805  0.7605
 4644TIP3    H213897   1.249   3.657   3.980  1.9013 -0.7093 -1.4118
 4645TIP3   OH213898   1.147   4.329   3.779  0.6171 -0.5969  0.3726
 4645TIP3    H113899   1.241   4.318   3.769  0.8271  0.0401  1.4311
 4645TIP3    H213900   1.120   4.382   3.705  1.3072  0.2449  0.7084
 4646TIP3   OH213901   0.883   0.700   2.411 -0.2823 -0.5380  0.4596
 4646TIP3    H113902   0.877   0.708   2.316  1.1730  1.3575  0.4740
 4646TIP3    H213903   0.832   0.774   2.444 -2.1784 -2.1065  1.2646
 4647TIP3   OH213904   3.071   4.193   0.421 -0.3017 -0.4652  0.5142
 4647TIP3    H113905   3.141   4.242   0.378  1.4918 -2.0275  1.4826
 4647TIP3    H213906   3.015   4.260   0.461  0.9785  0.8298  0.2162
 4648TIP3   OH213907   2.408   3.155   0.528 -0.4684 -0.3003 -0.6242
 4648TIP3    H113908   2.390   3.125   0.617  0.9907 -1.3732 -0.6464
 4648TIP3    H213909   2.364   3.240   0.522  0.2459  0.2914  1.4780
 4649TIP3   OH213910   1.916   0.811   1.138  0.5732  0.5195 -0.0471
 4649TIP3    H113911   1.878   0.880   1.193  2.9440  1.2773  0.8148
 4649TIP3    H213912   1.982   0.770   1.195  1.3391 -0.3698 -1.5296
 4650TIP3   OH213913   2.016   5.827   0.207 -0.0854  0.2900 -0.4545
 4650TIP3    H113914   2.059   5.902   0.249  0.3893  0.0925 -0.5781
 4650TIP3    H213915   2.080   5.756   0.214 -0.6342 -0.1826 -0.1067
 4651TIP3   OH213916   0.152   1.056   3.446  0.5238 -0.3972 -0.0076
 4651TIP3    H113917   0.074   1.111   3.451  0.2769 -0.6647 -0.7327
 4651TIP3    H213918   0.124   0.971   3.479  1.0844  0.0711  1.7617
 4652TIP3   OH213919   0.034   4.149   3.978 -0.0371 -0.6031  0.2642
 4652TIP3    H113920   0.049   4.193   4.062  0.4209 -0.6097  0.1919
 4652TIP3    H213921   0.066   4.212   3.913  0.2647 -0.8819  0.1398
 4653TIP3   OH213922   6.197   0.097   0.768 -0.0882  0.0323 -0.5654
 4653TIP3    H113923   6.275   0.135   0.729 -0.5947 -0.2821 -1.9970
 4653TIP3    H213924   6.228   0.052   0.846  1.0418  0.4923 -0.7280
 4654TIP3   OH213925   4.411   0.758   4.436 -0.0877 -0.2058 -0.1024
 4654TIP3    H113926   4.489   0.723   4.479  0.0978  2.7608  2.2894
 4654TIP3    H213927   4.442   0.785   4.350  1.2176 -0.2393  0.3272
 4655TIP3   OH213928   5.014   0.843   4.552  0.7219 -0.3371 -0.2750
 4655TIP3    H113929   5.083   0.815   4.611 -1.0196 -2.3287  0.9838
 4655TIP3    H213930   4.955   0.895   4.606 -1.2368 -2.7215  0.0604
 4656TIP3   OH213931   5.320   4.719   0.832  0.2143 -0.3433 -0.2526
 4656TIP3    H113932   5.391   4.760   0.882 -1.1772 -0.0903  1.5952
 4656TIP3    H213933   5.332   4.625   0.845 -0.0802 -0.2818  0.4832
 4657TIP3   OH213934   3.103   2.431   3.852  0.5104  0.1352 -0.4700
 4657TIP3    H113935   3.149   2.515   3.858 -0.7981  0.7662  2.4803
 4657TIP3    H213936   3.018   2.454   3.814 -0.5954  0.6023  2.0979
 4658TIP3   OH213937   2.534   0.013   3.752 -0.2398  0.1120 -0.0157
 4658TIP3    H113938   2.571   0.030   3.666 -0.4261  2.2680  0.2759
 4658TIP3    H213939   2.595   0.053   3.814 -1.4924  1.0672  0.6500
 4659TIP3   OH213940   5.015   0.673   0.760 -0.1852  0.1829  0.1986
 4659TIP3    H113941   4.933   0.696   0.715 -0.2539  0.5920  0.5269
 4659TIP3    H213942   5.013   0.725   0.841  0.4025  0.2043  0.2012
 4660TIP3   OH213943   2.757   1.179   1.932  0.1543  0.3804  0.4538
 4660TIP3    H113944   2.819   1.198   1.862  0.1917  0.9850  0.6392
 4660TIP3    H213945   2.807   1.126   1.994  0.5806  1.0861  0.7295
 4661TIP3   OH213946   0.911   1.039   1.760 -0.2422 -0.1436  0.4558
 4661TIP3    H113947   0.937   0.969   1.700 -0.2021  0.4628 -0.2507
 4661TIP3    H213948   0.827   1.009   1.796 -0.0739 -0.6938  0.4088
 4662TIP3   OH213949   6.665   2.970   0.386  0.0913  0.1589  0.7528
 4662TIP3    H113950   6.652   2.990   0.478  1.1077  1.4813  0.6288
 4662TIP3    H213951   6.701   2.881   0.385 -2.5651 -1.0461  1.4219
 4663TIP3   OH213952   1.356   0.081   3.123 -0.0215 -0.0137 -0.2254
 4663TIP3    H113953   1.397   0.094   3.208  2.2344  0.3801 -1.2977
 4663TIP3    H213954   1.308  -0.001   3.132  0.9212 -0.4442  1.1673
 4664TIP3   OH213955   0.775   2.517   0.494  0.2510  0.4551 -0.4372
 4664TIP3    H113956   0.684   2.514   0.523  0.0123  0.2760 -1.1997
 4664TIP3    H213957   0.824   2.476   0.565 -0.3722 -0.3282 -0.4534
 4665TIP3   OH213958   1.220   5.408   0.741 -0.0245 -0.3823 -0.0148
 4665TIP3    H113959   1.270   5.489   0.744 -1.4635  0.5091  1.3997
 4665TIP3    H213960   1.226   5.380   0.650  2.3447  0.0812 -0.0694
 4666TIP3   OH213961   3.061   4.807   0.701 -0.2479  0.2382 -0.1808
 4666TIP3    H113962   3.098   4.722   0.677 -0.1527 -0.0565  0.9627
 4666TIP3    H213963   3.081   4.864   0.626  0.2360 -0.5761 -0.6858
 4667TIP3   OH213964   2.405   0.662   2.916  0.1606 -0.0487 -0.4966
 4667TIP3    H113965   2.409   0.587   2.856 -0.0235 -1.1003  0.7443
 4667TIP3    H213966   2.392   0.738   2.860 -0.8887 -1.0869 -1.7202
 4668TIP3   OH213967   3.401   4.872   5.452  0.0163 -0.2355  0.1764
 4668TIP3    H113968   3.379   4.936   5.520  0.2409  0.4308 -0.3649
 4668TIP3    H213969   3.340   4.800   5.466  0.5810 -0.4756  1.5940
 4669TIP3   OH213970   3.967   6.035   4.316  0.3191  0.2852  0.0940
 4669TIP3    H113971   3.978   5.967   4.382  0.5992  0.3905  0.1562
 4669TIP3    H213972   3.918   5.993   4.246 -0.0380  0.1910  0.3955
 4670TIP3   OH213973   1.727   1.380   3.162 -0.1302 -0.3906  0.0275
 4670TIP3    H113974   1.786   1.453   3.143 -0.3999 -0.2407 -0.2353
 4670TIP3    H213975   1.661   1.383   3.093 -0.7135 -0.2713  0.5758
 4671TIP3   OH213976   6.642   3.885   3.908  0.0665  0.2440 -0.1514
 4671TIP3    H113977   6.589   3.877   3.987  0.1766 -0.1363 -0.1147
 4671TIP3    H213978   6.720   3.932   3.937  0.2461 -0.1648  0.0379
 4672TIP3   OH213979   4.894   1.934   1.918  0.1417  0.1836  0.1878
 4672TIP3    H113980   4.830   1.947   1.988 -0.6727  1.3822 -0.7333
 4672TIP3    H213981   4.961   1.878   1.957 -0.4896  0.4793  1.7842
 4673TIP3   OH213982   2.499   1.248   1.963  0.6130 -0.6633 -0.0601
 4673TIP3    H113983   2.592   1.229   1.971  0.3595 -1.3688  1.7110
 4673TIP3    H213984   2.495   1.330   1.915  2.0775 -1.3271 -1.4078
 4674TIP3   OH213985   6.053   0.244   1.634  0.4569 -0.2210  0.2191
 4674TIP3    H113986   5.958   0.238   1.623  0.5906  0.3161 -1.6038
 4674TIP3    H213987   6.088   0.175   1.577  1.1660 -0.0969  0.4952
 4675TIP3   OH213988   6.085   6.401   1.599 -0.6184  0.1595  0.4431
 4675TIP3    H113989   6.171   6.422   1.565 -1.0898  0.6481 -0.4712
 4675TIP3    H213990   6.102   6.358   1.683  0.5179 -0.0654  0.1090
 4676TIP3   OH213991   1.586   5.109   0.604  0.3725 -0.1881  0.3898
 4676TIP3    H113992   1.567   5.102   0.510 -0.1471 -0.8089  0.5315
 4676TIP3    H213993   1.517   5.057   0.646  0.2013  0.6436  1.1583
 4677TIP3   OH213994   6.740   5.412   2.350 -0.2410 -0.0836  0.3707
 4677TIP3    H113995   6.671   5.455   2.299  1.1911  0.9646 -0.7861
 4677TIP3    H213996   6.745   5.324   2.314  0.3429  0.4588 -0.9103
 4678TIP3   OH213997   2.330   6.746   5.624 -0.0886  0.0378  0.1857
 4678TIP3    H113998   2.413   6.699   5.632 -0.0842  0.0293  0.0803
 4678TIP3    H213999   2.279   6.717   5.700 -0.0349 -0.0333  0.1942
 4679TIP3   OH214000   0.984   6.119   0.891  0.1027  0.1548 -0.4267
 4679TIP3    H114001   1.056   6.163   0.845  0.6940  0.9111  1.1166
 4679TIP3    H214002   0.997   6.143   0.983 -0.9933 -1.3132  0.1526
 4680TIP3   OH214003   3.689   5.431   5.635 -0.6419 -0.2101 -0.1135
 4680TIP3    H114004   3.748   5.501   5.662 -1.3144  0.2008  0.3420
 4680TIP3    H214005   3.641   5.408   5.715 -0.6798 -0.9459 -0.3407
 4681TIP3   OH214006   1.673   2.075   0.743 -0.0773 -0.0183  0.3534
 4681TIP3    H114007   1.584   2.054   0.773  0.7455 -2.3658  1.3774
 4681TIP3    H214008   1.677   2.036   0.655 -0.1314  0.2872  0.2158
 4682TIP3   OH214009   1.047   3.716   0.455 -0.6551  0.2090 -0.3030
 4682TIP3    H114010   1.036   3.688   0.364 -0.3002 -0.1836 -0.2281
 4682TIP3    H214011   1.119   3.662   0.488 -1.5992 -0.5540  0.5874
 4683TIP3   OH214012   5.704   0.300   1.962 -0.0900 -0.2405  0.1231
 4683TIP3    H114013   5.676   0.373   1.908  1.5115  0.1794 -0.2017
 4683TIP3    H214014   5.712   0.337   2.050  1.4479  0.2139 -0.1766
 4684TIP3   OH214015   6.736   6.425   2.217  0.0747 -0.1019  0.1358
 4684TIP3    H114016   6.652   6.380   2.227 -0.7544  0.9752 -1.5506
 4684TIP3    H214017   6.724   6.509   2.261 -0.1883  0.5675 -1.1784
 4685TIP3   OH214018   1.102   2.204   2.276  0.2748  0.3425  0.3457
 4685TIP3    H114019   1.008   2.216   2.274  0.1207 -0.6369  0.8853
 4685TIP3    H214020   1.131   2.221   2.186  0.0405  3.6873  0.7851
 4686TIP3   OH214021   1.888   0.417   3.833 -0.0838 -0.2542 -0.1198
 4686TIP3    H114022   1.969   0.467   3.825 -0.1042  0.3408  2.4605
 4686TIP3    H214023   1.917   0.331   3.865 -0.4354  0.0114  0.9604
 4687TIP3   OH214024   5.221   4.509   5.547 -0.4298 -0.3284  0.3716
 4687TIP3    H114025   5.219   4.479   5.456 -1.2274  0.7478  0.0233
 4687TIP3    H214026   5.144   4.565   5.556 -0.1164 -0.0637  1.5908
 4688TIP3   OH214027   3.030   4.160   2.853  0.0720  0.4041 -0.1609
 4688TIP3    H114028   2.949   4.203   2.826  0.5526  1.3709 -0.1280
 4688TIP3    H214029   3.067   4.218   2.920  0.8179  0.0211 -0.2296
 4689TIP3   OH214030   3.984   4.358   4.427  0.1544  0.1159  0.3383
 4689TIP3    H114031   4.044   4.416   4.380  1.4366 -0.9223  0.6300
 4689TIP3    H214032   3.938   4.310   4.358  1.0386 -0.4265  0.1135
 4690TIP3   OH214033   1.387   2.947   3.964 -0.0368 -0.0024  0.6268
 4690TIP3    H114034   1.357   2.992   3.885 -0.3591 -1.0778  0.1086
 4690TIP3    H214035   1.431   2.869   3.931 -1.8696 -1.4956  1.5128
 4691TIP3   OH214036   4.366   0.940   1.102 -0.4681  0.0010 -0.2717
 4691TIP3    H114037   4.366   0.936   1.197 -1.0933  3.2985 -0.0183
 4691TIP3    H214038   4.336   0.853   1.074  0.0652 -1.1689  2.4616
 4692TIP3   OH214039   6.264   3.028   5.733  0.3976  0.3092  0.0266
 4692TIP3    H114040   6.222   2.998   5.814  1.4299 -1.1237  0.0785
 4692TIP3    H214041   6.196   3.078   5.687 -0.8881 -0.6798  0.7795
 4693TIP3   OH214042   3.049   0.227   0.549  0.0928 -0.3049  0.3462
 4693TIP3    H114043   3.044   0.304   0.493  1.3699 -0.0302  0.5854
 4693TIP3    H214044   2.977   0.238   0.612  0.2464  0.6712  0.3579
 4694TIP3   OH214045   6.926   4.127   1.701  0.7216 -0.3936 -0.2915
 4694TIP3    H114046   7.011   4.172   1.701  0.6357 -0.0724  2.2181
 4694TIP3    H214047   6.885   4.153   1.784 -1.7731 -0.7022 -1.3296
 4695TIP3   OH214048   0.355   2.254   0.123 -0.2431  0.4599  0.1247
 4695TIP3    H114049   0.395   2.180   0.077  0.7344  0.9425  0.1853
 4695TIP3    H214050   0.264   2.227   0.137  0.4951 -1.5027  1.7273
 4696TIP3   OH214051   4.366   1.919   1.063 -0.3320 -0.3842  0.0622
 4696TIP3    H114052   4.441   1.860   1.056  1.0949  1.4674 -1.6561
 4696TIP3    H214053   4.395   1.988   1.123 -1.6576 -0.9237  1.3884
 4697TIP3   OH214054   3.547   0.688   3.974 -0.2998  0.1421 -0.0848
 4697TIP3    H114055   3.586   0.763   3.928 -0.2852 -0.0512 -0.3905
 4697TIP3    H214056   3.542   0.716   4.066  1.6163 -0.2354  0.1851
 4698TIP3   OH214057   0.020   2.812   5.652 -0.1219 -0.0642 -0.0909
 4698TIP3    H114058   0.103   2.796   5.607  0.2919 -0.5786  0.8235
 4698TIP3    H214059   0.038   2.790   5.744 -1.4486 -0.8225  0.0104
 4699TIP3   OH214060   3.099   0.719   5.811  0.3553 -0.1875  0.0299
 4699TIP3    H114061   3.150   0.675   5.878  0.1642  1.1138  1.0851
 4699TIP3    H214062   3.133   0.685   5.728  2.2867 -0.0547  0.7135
 4700TIP3   OH214063   0.906   2.384   0.696 -0.2701  0.1574  0.2448
 4700TIP3    H114064   0.942   2.460   0.742  1.6062 -1.2305  1.2323
 4700TIP3    H214065   0.838   2.351   0.755  0.1051  0.0728  0.6308
 4701TIP3   OH214066   5.230   0.305   3.356  0.2477  0.0046  0.4896
 4701TIP3    H114067   5.282   0.225   3.366 -1.3873 -0.8522  3.1254
 4701TIP3    H214068   5.267   0.366   3.419  1.1436  1.2380 -1.1391
 4702TIP3   OH214069   2.272   5.892   1.026 -0.7819  0.3744  0.3643
 4702TIP3    H114070   2.326   5.860   0.954  1.3140  1.1456  1.4739
 4702TIP3    H214071   2.267   5.986   1.012 -2.3708  0.2469 -0.0235
 4703TIP3   OH214072   4.851   3.876   0.693 -0.0940 -0.1257  0.3311
 4703TIP3    H114073   4.893   3.794   0.668  1.8399  1.1558 -0.9449
 4703TIP3    H214074   4.903   3.909   0.766 -2.0064 -0.8591  2.1424
 4704TIP3   OH214075   2.638   5.316   3.750  0.3149 -0.0260 -0.2851
 4704TIP3    H114076   2.694   5.260   3.804  1.9365  2.1305  0.4223
 4704TIP3    H214077   2.611   5.261   3.677 -1.9440 -3.1064  2.5763
 4705TIP3   OH214078   0.072   3.404   5.573 -0.7994  0.1791  0.1315
 4705TIP3    H114079   0.014   3.479   5.557 -0.8444  0.0109 -0.5269
 4705TIP3    H214080   0.082   3.402   5.668 -2.9100 -0.5348  0.4054
 4706TIP3   OH214081   0.369   6.130   3.498 -0.8975 -0.0814 -0.2017
 4706TIP3    H114082   0.365   6.035   3.494  2.4889 -0.3241 -0.8168
 4706TIP3    H214083   0.412   6.156   3.416  0.5789  1.6825  1.0247
 4707TIP3   OH214084   4.506   6.741   4.016 -0.4764  0.0244  0.5227
 4707TIP3    H114085   4.513   6.830   4.051 -0.0367  0.1920  0.0315
 4707TIP3    H214086   4.527   6.685   4.091  0.2728  0.3728  0.5932
 4708TIP3   OH214087   4.957   3.441   2.252  0.4500  0.1153  0.1336
 4708TIP3    H114088   4.937   3.357   2.293 -0.2614 -0.5651 -1.5062
 4708TIP3    H214089   4.877   3.493   2.263  0.6981  0.3886  0.6750
 4709TIP3   OH214090   6.649   2.656   4.496  0.1284  0.4484  0.0631
 4709TIP3    H114091   6.593   2.629   4.423 -0.6899 -0.4871  1.0179
 4709TIP3    H214092   6.646   2.752   4.493 -1.3789  0.4265 -0.0308
 4710TIP3   OH214093   3.854   0.113   5.696 -0.6477 -0.5736  0.2657
 4710TIP3    H114094   3.821   0.169   5.627  1.4728 -1.2541 -1.3935
 4710TIP3    H214095   3.888   0.173   5.762 -4.3065  0.1334  1.7310
 4711TIP3   OH214096   4.634   0.870   5.026  0.5731 -0.5937 -0.0775
 4711TIP3    H114097   4.590   0.907   4.949 -0.1244 -0.2380  0.4716
 4711TIP3    H214098   4.640   0.776   5.008  0.0339 -0.5730 -0.3905
 4712TIP3   OH214099   5.690   2.392   5.356 -0.5370 -0.6332 -0.1208
 4712TIP3    H114100   5.684   2.319   5.417 -0.0707 -1.2816 -0.8327
 4712TIP3    H214101   5.600   2.404   5.324 -0.3692 -1.9170 -1.1520
 4713TIP3   OH214102   6.606   1.963   0.723  0.2699 -0.0160  0.4356
 4713TIP3    H114103   6.553   2.006   0.790  1.0767  1.9515 -0.1232
 4713TIP3    H214104   6.622   2.031   0.658  1.3504 -1.2756 -0.6695
 4714TIP3   OH214105   6.006   6.413   0.682 -0.2217  0.0597  0.3440
 4714TIP3    H114106   5.914   6.388   0.693 -0.4310  0.3749 -0.6456
 4714TIP3    H214107   6.036   6.432   0.771 -0.8981 -0.7606  0.7655
 4715TIP3   OH214108   0.352   0.603   1.480 -0.3848 -0.3320 -0.4022
 4715TIP3    H114109   0.439   0.618   1.516 -1.2088  1.8948  0.8537
 4715TIP3    H214110   0.327   0.516   1.512  0.1006  0.3590  2.0499
 4716TIP3   OH214111   7.208   1.225   5.026 -0.3236  0.1100  0.1832
 4716TIP3    H114112   7.274   1.261   5.084 -0.7376  1.9260 -0.4200
 4716TIP3    H214113   7.125   1.239   5.071 -0.5458  0.4709 -0.3283
 4717TIP3   OH214114   1.341   3.351   0.774 -0.7132  0.1394 -0.1838
 4717TIP3    H114115   1.329   3.300   0.693  2.0807 -0.7764 -0.1412
 4717TIP3    H214116   1.366   3.438   0.744 -1.4798  0.3360 -0.2730
 4718TIP3   OH214117   2.547   3.377   3.880  0.2503  0.2078  0.1272
 4718TIP3    H114118   2.469   3.406   3.927 -0.1826 -0.0721 -0.4094
 4718TIP3    H214119   2.620   3.418   3.927 -0.1582 -0.1764  1.1204
 4719TIP3   OH214120   1.730   2.310   1.707 -0.2216  0.4161 -0.4314
 4719TIP3    H114121   1.692   2.241   1.654 -0.4860  1.1155 -1.1720
 4719TIP3    H214122   1.679   2.310   1.788 -0.4856  0.0270 -0.5995
 4720TIP3   OH214123   1.952   2.704   1.579  0.4366 -0.5939  0.1532
 4720TIP3    H114124   1.898   2.653   1.518 -0.3855 -0.1822  0.5250
 4720TIP3    H214125   1.894   2.722   1.653  1.2718 -0.6620  0.8430
 4721TIP3   OH214126   0.532   6.426   1.030 -0.5563 -0.4316 -0.1466
 4721TIP3    H114127   0.514   6.396   0.941 -0.6214  0.4796 -0.4433
 4721TIP3    H214128   0.605   6.370   1.059  0.8381  0.5938 -1.5182
 4722TIP3   OH214129   0.376   1.060   3.305 -0.0434  0.6521  0.1382
 4722TIP3    H114130   0.442   1.024   3.364  0.2649  1.0006  0.0150
 4722TIP3    H214131   0.296   1.064   3.357 -0.0191  0.0340  0.2272
 4723TIP3   OH214132   3.996   4.103   4.888  0.1592 -0.1163  0.6805
 4723TIP3    H114133   3.997   4.178   4.948 -1.1801 -0.0160  0.6259
 4723TIP3    H214134   3.913   4.059   4.907 -0.0613 -0.3636 -0.7353
 4724TIP3   OH214135   4.647   3.938   4.970 -0.2285  0.4930 -0.6738
 4724TIP3    H114136   4.630   3.946   4.876 -0.4564 -2.3217 -0.9502
 4724TIP3    H214137   4.566   3.902   5.006  1.1777 -2.3737 -0.1503
 4725TIP3   OH214138   1.532   4.409   0.115 -1.0181  0.3553 -0.4008
 4725TIP3    H114139   1.551   4.329   0.065 -1.4944  0.4587 -0.7525
 4725TIP3    H214140   1.618   4.440   0.143 -0.7472  0.2286 -1.0560
 4726TIP3   OH214141   2.862   2.643   3.219  0.0555 -0.2157 -0.0366
 4726TIP3    H114142   2.793   2.696   3.259  1.6784  2.6442 -0.7246
 4726TIP3    H214143   2.817   2.581   3.163 -1.9983  2.3400 -1.4139
 4727TIP3   OH214144   6.784   4.227   3.605  0.8585  0.4564 -0.3554
 4727TIP3    H114145   6.710   4.166   3.600  0.9421  0.2651  0.4999
 4727TIP3    H214146   6.794   4.260   3.516 -1.4173  1.8997 -0.1677
 4728TIP3   OH214147   4.004   1.890   3.608 -0.4191  0.1079 -0.6322
 4728TIP3    H114148   3.916   1.911   3.577 -0.8362 -0.4335  0.1412
 4728TIP3    H214149   4.037   1.972   3.645 -0.3412  0.4777 -1.5058
 4729TIP3   OH214150   4.329   3.113   5.169  0.3435  0.0744 -0.2342
 4729TIP3    H114151   4.414   3.070   5.156 -0.2020 -0.7618 -1.2537
 4729TIP3    H214152   4.342   3.168   5.246  1.0134 -2.1226  1.3459
 4730TIP3   OH214153   2.205   4.567   2.404  0.0962 -0.2686  0.7344
 4730TIP3    H114154   2.217   4.641   2.463 -0.4565 -1.4515  2.3855
 4730TIP3    H214155   2.290   4.523   2.403  0.7437  0.8998 -1.0641
 4731TIP3   OH214156   3.151   6.656   1.615  0.0773 -0.0215 -0.5446
 4731TIP3    H114157   3.103   6.581   1.579  0.3932 -0.0543 -0.9021
 4731TIP3    H214158   3.212   6.680   1.546 -0.2122  0.7414 -0.5383
 4732TIP3   OH214159   1.449   6.201   5.257  0.4614 -0.5239  0.2168
 4732TIP3    H114160   1.397   6.123   5.276 -0.0440 -0.1342  0.4631
 4732TIP3    H214161   1.540   6.172   5.267  0.2634 -0.8086  1.4044
 4733TIP3   OH214162   2.124   5.102   2.517 -0.2295  0.7172  0.2252
 4733TIP3    H114163   2.060   5.162   2.479  0.4605  1.0230 -0.4973
 4733TIP3    H214164   2.185   5.083   2.445 -0.0058 -0.2582  0.6506
 4734TIP3   OH214165   0.732   5.565   3.055  0.3881  0.2699  0.1827
 4734TIP3    H114166   0.801   5.631   3.062  0.6818 -0.2210  3.0436
 4734TIP3    H214167   0.677   5.596   2.983  2.7120  1.4567 -1.2394
 4735TIP3   OH214168   6.211   5.933   4.806  0.2988  0.7177  0.2247
 4735TIP3    H114169   6.163   5.927   4.723  1.1318  0.5607 -0.2558
 4735TIP3    H214170   6.287   5.988   4.785  0.7369  0.3243  0.7736
 4736TIP3   OH214171   4.652   6.337   0.295  0.3074 -0.3948 -0.1202
 4736TIP3    H114172   4.578   6.377   0.342 -0.0826 -0.9569 -0.2548
 4736TIP3    H214173   4.611   6.278   0.231  0.8771 -1.2076  0.2514
 4737TIP3   OH214174   2.716   1.400   0.239  0.3995 -0.1010  0.3782
 4737TIP3    H114175   2.776   1.429   0.307  0.8082 -0.5124  0.2035
 4737TIP3    H214176   2.669   1.326   0.277  0.7635 -0.4531  0.1586
 4738TIP3   OH214177   3.199   2.182   5.675  0.3419 -0.1193  0.9683
 4738TIP3    H114178   3.249   2.209   5.752  0.1229  1.0019  0.7395
 4738TIP3    H214179   3.263   2.144   5.616  0.8256  0.7108  0.9465
 4739TIP3   OH214180   6.308   1.179   5.661 -0.3634 -0.1153  0.1615
 4739TIP3    H114181   6.301   1.271   5.687 -1.1640  0.6329 -2.4221
 4739TIP3    H214182   6.398   1.170   5.628 -0.1340 -0.4054  0.8487
 4740TIP3   OH214183   1.504   2.777   3.793 -0.0309 -0.5065 -0.2833
 4740TIP3    H114184   1.523   2.692   3.832 -1.9310 -1.7725 -1.9233
 4740TIP3    H214185   1.504   2.761   3.699 -2.7537  0.6932 -0.5861
 4741TIP3   OH214186   5.736   3.038   1.050 -0.1059 -0.2875  0.2265
 4741TIP3    H114187   5.735   3.048   1.146  0.8220 -0.6528  0.2812
 4741TIP3    H214188   5.821   3.072   1.023  0.2494 -1.5520 -0.3049
 4742TIP3   OH214189   5.454   4.613   2.184  0.2936  0.4047 -0.2948
 4742TIP3    H114190   5.549   4.602   2.183  0.2831  0.2216  0.5511
 4742TIP3    H214191   5.432   4.624   2.276 -0.1759  3.4506 -0.6757
 4743TIP3   OH214192   4.880   3.467   5.915 -0.1394 -0.0639  0.0671
 4743TIP3    H114193   4.872   3.547   5.863  0.1658 -0.4186 -0.5455
 4743TIP3    H214194   4.828   3.402   5.867 -0.2666 -0.2730  0.4810
 4744TIP3   OH214195   2.045   5.056   3.229  0.0217 -0.1381 -0.3288
 4744TIP3    H114196   2.020   5.142   3.196 -0.7583  0.4048  1.5381
 4744TIP3    H214197   2.082   5.010   3.153  1.3185  2.1494 -1.1741
 4745TIP3   OH214198   1.062   2.574   3.057 -0.1671 -0.2457 -0.2895
 4745TIP3    H114199   1.042   2.552   2.966  2.7643  0.7935 -1.2939
 4745TIP3    H214200   1.124   2.507   3.085  0.3920  0.4837  0.2747
 4746TIP3   OH214201   6.912   0.918   5.033  0.6344  0.5955 -0.1635
 4746TIP3    H114202   6.824   0.897   5.065 -0.2043  1.2795 -1.8982
 4746TIP3    H214203   6.933   1.002   5.074 -0.8070  1.9191 -1.9894
 4747TIP3   OH214204   6.196   1.522   4.621  0.1886 -0.0767 -0.1022
 4747TIP3    H114205   6.144   1.589   4.577  0.8143  0.5931  0.1607
 4747TIP3    H214206   6.287   1.549   4.607  0.4131 -0.2221  1.0012
 4748TIP3   OH214207   1.069   1.445   1.882 -0.9066  0.3596 -0.6750
 4748TIP3    H114208   1.103   1.363   1.919  1.5862  2.1588  1.3461
 4748TIP3    H214209   0.976   1.427   1.868 -0.4633 -2.8260 -0.4494
 4749TIP3   OH214210   6.491   2.198   3.245  0.1720  0.3434 -0.4598
 4749TIP3    H114211   6.531   2.167   3.164  0.2458  2.2753 -1.2209
 4749TIP3    H214212   6.562   2.242   3.292 -0.7481  3.0471 -1.4264
 4750TIP3   OH214213   6.891   3.001   4.524  0.1842  0.0749 -0.5709
 4750TIP3    H114214   6.940   2.930   4.565 -0.0765  0.1088 -0.1957
 4750TIP3    H214215   6.955   3.071   4.511  0.2497  0.0980 -0.1319
 4751TIP3   OH214216   2.197   1.043   5.067  0.0866 -0.3122 -0.0661
 4751TIP3    H114217   2.149   1.071   4.989 -1.4009  1.5823  1.4179
 4751TIP3    H214218   2.288   1.067   5.049  0.2348 -2.1197 -2.1196
 4752TIP3   OH214219   4.902   0.490   3.724  0.0338 -0.0108 -0.2763
 4752TIP3    H114220   4.868   0.401   3.717 -0.7363  0.0103  2.3442
 4752TIP3    H214221   4.882   0.517   3.813  2.3952  1.9272 -0.2241
 4753TIP3   OH214222   2.021   0.156   0.736  0.1777 -0.2782  0.4628
 4753TIP3    H114223   1.973   0.111   0.666  3.8385 -0.7839 -1.9787
 4753TIP3    H214224   2.049   0.238   0.697  1.0421  0.1400  1.8829
 4754TIP3   OH214225   4.565   4.968   4.393  0.5184  0.7600  0.3467
 4754TIP3    H114226   4.521   4.940   4.474 -0.1647 -0.4439 -0.4093
 4754TIP3    H214227   4.511   4.931   4.323  2.9481 -1.2031 -0.6269
 4755TIP3   OH214228   5.801   2.490   3.680  0.0184  0.1460 -0.2555
 4755TIP3    H114229   5.773   2.581   3.669  0.0556  0.1802 -0.0750
 4755TIP3    H214230   5.847   2.469   3.598 -0.7353  0.0091 -0.6592
 4756TIP3   OH214231   6.747   3.341   5.334 -0.6486 -0.2456  0.1090
 4756TIP3    H114232   6.691   3.283   5.386 -1.6460 -0.5470 -1.2416
 4756TIP3    H214233   6.749   3.301   5.247 -0.2611  1.0367 -0.4954
 4757TIP3   OH214234   5.724   5.050   5.470  0.1737 -0.1631  0.2952
 4757TIP3    H114235   5.804   5.012   5.433  0.1106  0.7551 -0.8265
 4757TIP3    H214236   5.657   5.037   5.403 -0.1695  0.7101  0.4502
 4758TIP3   OH214237   5.201   0.489   1.000  0.1033 -0.0331 -0.5724
 4758TIP3    H114238   5.268   0.556   0.981 -0.4813  0.9032  0.5257
 4758TIP3    H214239   5.240   0.436   1.069 -0.2324  0.4552  0.0018
 4759TIP3   OH214240   0.657   2.320   0.828  0.2128  0.1394 -0.0848
 4759TIP3    H114241   0.587   2.345   0.889  0.2749  2.4385 -0.8557
 4759TIP3    H214242   0.630   2.235   0.793 -0.7733 -0.3231  1.6810
 4760TIP3   OH214243   2.438   4.403   3.903  0.1988  0.5134  0.0810
 4760TIP3    H114244   2.510   4.465   3.910  0.6466 -0.1166  1.2695
 4760TIP3    H214245   2.370   4.439   3.960  0.0639  0.4334 -0.0281
 4761TIP3   OH214246   4.840   0.078   5.288 -0.0827 -0.4110 -0.1528
 4761TIP3    H114247   4.916   0.041   5.331 -0.3079  1.2273  1.8092
 4761TIP3    H214248   4.862   0.077   5.195  1.5429 -1.6376  0.2010
 4762TIP3   OH214249   5.644   1.733   4.571  0.6514 -0.4231  0.4931
 4762TIP3    H114250   5.675   1.823   4.560  0.7992 -0.4590  0.6222
 4762TIP3    H214251   5.605   1.712   4.486  1.1183 -0.4312  0.2775
 4763TIP3   OH214252   6.396   1.923   4.311  0.2969 -0.4958 -0.7089
 4763TIP3    H114253   6.476   1.911   4.361 -0.0892  0.2106  0.1079
 4763TIP3    H214254   6.368   2.013   4.331 -1.6224 -1.2696  0.4046
 4764TIP3   OH214255   6.413   4.701   3.189 -0.3279  0.2502  0.5380
 4764TIP3    H114256   6.375   4.614   3.188  0.2878 -0.0475  1.3587
 4764TIP3    H214257   6.339   4.760   3.177 -0.7837 -0.3798  0.2360
 4765TIP3   OH214258   1.516   3.538   2.096 -0.5022  0.0940  0.5184
 4765TIP3    H114259   1.597   3.534   2.044 -1.3527 -2.4047 -0.7354
 4765TIP3    H214260   1.447   3.555   2.032 -1.2229  0.1224  1.2922
 4766TIP3   OH214261   2.105   3.393   4.875 -0.3109  0.1343  0.4889
 4766TIP3    H114262   2.090   3.299   4.879  1.2663 -0.1453  0.7126
 4766TIP3    H214263   2.041   3.425   4.812  0.7596 -1.4969 -1.5906
 4767TIP3   OH214264   0.302   1.645   1.607  0.0419  0.5009 -0.2806
 4767TIP3    H114265   0.286   1.553   1.628  2.4832  0.2762  1.0240
 4767TIP3    H214266   0.217   1.687   1.617 -0.6435 -1.1907  1.7246
 4768TIP3   OH214267   0.320   5.682   1.529  1.0636  0.1505 -0.4955
 4768TIP3    H114268   0.328   5.647   1.617 -1.5499  0.9357  0.1672
 4768TIP3    H214269   0.302   5.776   1.542 -1.4551 -0.0767 -1.6371
 4769TIP3   OH214270   5.343   0.486   5.445  0.0241  0.0126  0.0505
 4769TIP3    H114271   5.299   0.439   5.375 -1.5879  0.8041  0.4828
 4769TIP3    H214272   5.354   0.422   5.515  0.0865 -0.3314 -0.2724
 4770TIP3   OH214273   1.419   4.974   3.825  0.2774  0.2740 -0.2693
 4770TIP3    H114274   1.396   4.921   3.748 -0.6456  0.6767 -0.2792
 4770TIP3    H214275   1.373   4.931   3.897 -0.1155  0.8018 -0.2047
 4771TIP3   OH214276   2.942   2.936   0.495  0.5425 -0.4125 -0.4686
 4771TIP3    H114277   2.885   2.975   0.428 -0.5333 -0.6545  0.2690
 4771TIP3    H214278   3.028   2.934   0.455  0.3251  1.2773 -1.1183
 4772TIP3   OH214279   6.488   2.172   3.650  0.1852 -0.1631 -0.1319
 4772TIP3    H114280   6.525   2.260   3.647 -0.5279  0.2559  1.8879
 4772TIP3    H214281   6.555   2.120   3.694  0.0553 -0.3328 -0.1353
 4773TIP3   OH214282   2.923   5.986   5.594  0.2666  0.6248 -0.0878
 4773TIP3    H114283   2.893   5.918   5.654 -2.6055  2.3485  0.6452
 4773TIP3    H214284   2.962   5.939   5.521  0.9369 -1.6584  1.6187
 4774TIP3   OH214285   1.147   4.754   0.645 -0.0137 -0.0250 -0.5423
 4774TIP3    H114286   1.070   4.705   0.615 -0.2455  0.8551 -1.4371
 4774TIP3    H214287   1.114   4.810   0.715 -0.5027  1.2706 -1.7553
 4775TIP3   OH214288   3.143   6.193   5.721  0.0034  0.1544  0.2780
 4775TIP3    H114289   3.186   6.159   5.800  1.3286  2.0684  0.4389
 4775TIP3    H214290   3.051   6.168   5.732  0.4156 -0.9254  1.6823
 4776TIP3   OH214291   1.965   4.373   5.296  0.0480  0.5868 -0.3710
 4776TIP3    H114292   1.918   4.343   5.219 -0.2600  0.6214 -0.2005
 4776TIP3    H214293   2.053   4.336   5.287  0.0171  0.6017 -0.7413
 4777TIP3   OH214294   1.558   2.978   4.168 -0.0770  0.0874 -0.1545
 4777TIP3    H114295   1.490   2.961   4.102  1.3775  0.0413 -1.6930
 4777TIP3    H214296   1.606   3.053   4.135  1.7273 -0.9581 -0.0074
 4778TIP3   OH214297   3.825   2.102   4.465  0.0073  0.4476  0.0019
 4778TIP3    H114298   3.804   2.049   4.542  0.3047  0.4279  0.0697
 4778TIP3    H214299   3.832   2.191   4.498  2.4066  0.1654  0.4418
 4779TIP3   OH214300   7.128   1.352   1.223  0.1124  0.1642  0.4514
 4779TIP3    H114301   7.077   1.308   1.291 -0.4188 -0.9249 -0.6103
 4779TIP3    H214302   7.097   1.442   1.223  0.3435  0.2618  1.8442
 4780TIP3   OH214303   3.601   5.582   5.248  0.5406  0.4064  0.1927
 4780TIP3    H114304   3.554   5.499   5.257  1.0305  0.1971  1.0484
 4780TIP3    H214305   3.686   5.557   5.212  0.8602  0.4580  0.8765
 4781TIP3   OH214306   2.807   5.888   3.323 -0.1354 -0.2336  0.4049
 4781TIP3    H114307   2.763   5.898   3.239  2.5570  0.0029 -1.0678
 4781TIP3    H214308   2.828   5.795   3.329 -1.6268 -0.5317  1.5772
 4782TIP3   OH214309   3.431   4.999   2.078 -0.1495  0.2154  0.0689
 4782TIP3    H114310   3.488   5.005   2.001  0.0115  0.9422  0.2412
 4782TIP3    H214311   3.491   4.977   2.150 -0.4551 -1.6917 -0.1959
 4783TIP3   OH214312   6.665   0.033   4.598  0.0245  0.3305  0.0638
 4783TIP3    H114313   6.651   0.100   4.665 -0.8087 -0.5381  0.7857
 4783TIP3    H214314   6.750  -0.005   4.620  0.1470  0.6248  0.1081
 4784TIP3   OH214315   5.181   6.514   2.317 -0.0812 -0.2408  0.1561
 4784TIP3    H114316   5.192   6.459   2.394 -0.4512  0.3315  0.6215
 4784TIP3    H214317   5.257   6.573   2.319 -1.8662  2.1627  2.0895
 4785TIP3   OH214318   6.327   1.958   5.776 -0.3239 -0.1791 -0.3172
 4785TIP3    H114319   6.311   2.001   5.860 -1.9086 -1.1730 -0.0711
 4785TIP3    H214320   6.365   2.026   5.721 -3.3402  1.8178 -0.1651
 4786TIP3   OH214321   4.015   1.564   2.903  0.2293 -0.0370  0.0092
 4786TIP3    H114322   4.098   1.539   2.862 -0.2279 -0.0190 -0.9493
 4786TIP3    H214323   4.024   1.534   2.994  1.6518  0.8021  0.1909
 4787TIP3   OH214324   6.434   3.005   3.374 -0.0555  0.4837  0.1290
 4787TIP3    H114325   6.404   3.058   3.301 -2.3947  0.5487  1.0475
 4787TIP3    H214326   6.475   3.067   3.435 -1.6377  1.1025  0.6184
 4788TIP3   OH214327   1.372   2.705   5.678 -0.3508  0.4586 -0.1361
 4788TIP3    H114328   1.300   2.767   5.666  0.4730  1.6332  0.7707
 4788TIP3    H214329   1.447   2.747   5.636  0.1039 -0.1777  0.0175
 4789TIP3   OH214330   0.389   3.965   0.835 -0.6042 -0.0526 -0.0282
 4789TIP3    H114331   0.295   3.964   0.818 -0.8020 -0.3697  1.0372
 4789TIP3    H214332   0.423   3.892   0.783 -1.0916 -0.5660  0.3608
 4790TIP3   OH214333   2.091   5.805   1.753 -0.4393 -0.3888  0.5243
 4790TIP3    H114334   2.133   5.890   1.739  0.3683 -0.5854  1.5481
 4790TIP3    H214335   2.157   5.755   1.801 -1.3075 -1.2280  0.8579
 4791TIP3   OH214336   2.702   4.970   0.676  0.0699  0.3684  0.1096
 4791TIP3    H114337   2.709   4.929   0.590 -2.3340  1.8710 -0.9253
 4791TIP3    H214338   2.635   4.920   0.721  1.8022 -0.8359  1.4446
 4792TIP3   OH214339   3.634   2.434   0.904  0.0282  0.4139  0.3207
 4792TIP3    H114340   3.550   2.421   0.861 -0.3526  0.5704  0.9967
 4792TIP3    H214341   3.617   2.411   0.996  0.5911  0.9531  0.5632
 4793TIP3   OH214342   4.578   1.353   2.580  0.3478 -0.1002  0.4181
 4793TIP3    H114343   4.660   1.351   2.629  0.9698  0.5096 -0.5618
 4793TIP3    H214344   4.520   1.292   2.627  0.8497  0.5897  1.9884
 4794TIP3   OH214345   1.456   5.663   5.302 -0.5506 -0.1414  0.6408
 4794TIP3    H114346   1.469   5.673   5.396 -2.7008  1.6855  0.8208
 4794TIP3    H214347   1.363   5.678   5.288 -0.3090 -0.4363 -1.7843
 4795TIP3   OH214348   5.990   1.387   5.573 -0.6294  0.1571 -0.3033
 4795TIP3    H114349   6.011   1.473   5.610  2.7873 -0.6572  0.0483
 4795TIP3    H214350   5.975   1.331   5.650  0.4462 -0.2265 -0.3559
 4796TIP3   OH214351   3.991   4.430   5.710 -0.1623  0.3560  0.1996
 4796TIP3    H114352   3.918   4.369   5.712 -0.2192  0.3797 -0.6745
 4796TIP3    H214353   3.971   4.494   5.779 -0.4762 -0.1785  0.6113
 4797TIP3   OH214354   0.175   4.120   1.526 -0.0126 -0.3544  0.4084
 4797TIP3    H114355   0.145   4.128   1.616  1.6792 -0.8626  1.0638
 4797TIP3    H214356   0.199   4.209   1.501  2.0690 -0.5646  1.4556
 4798TIP3   OH214357   0.573   6.473   3.378  0.0901 -1.1255 -0.3043
 4798TIP3    H114358   0.553   6.434   3.463  1.9742 -0.8865  0.2809
 4798TIP3    H214359   0.666   6.455   3.364  0.6111  1.5338 -0.8361
 4799TIP3   OH214360   2.368   6.043   5.900 -0.2890  0.4014 -0.2262
 4799TIP3    H114361   2.438   5.980   5.884 -0.9247 -0.1344 -0.9651
 4799TIP3    H214362   2.394   6.120   5.850 -1.2378 -0.5389 -2.3008
 4800TIP3   OH214363   6.652   0.527   2.695  0.2325  0.1400  0.3165
 4800TIP3    H114364   6.569   0.496   2.733  1.3040 -1.2915  1.6127
 4800TIP3    H214365   6.626   0.574   2.616 -1.8512  0.1717  0.9538
 4801TIP3   OH214366   2.748   3.087   3.179 -0.1445 -0.1181  0.0668
 4801TIP3    H114367   2.798   3.144   3.119  0.7102 -1.0012 -0.0853
 4801TIP3    H214368   2.718   3.146   3.248 -1.6048  1.0346 -1.4789
 4802TIP3   OH214369   0.532   5.752   4.338 -0.0873 -0.2324  0.3882
 4802TIP3    H114370   0.566   5.841   4.326  0.1100 -0.4842 -1.1180
 4802TIP3    H214371   0.472   5.740   4.264 -1.4112 -0.7632  1.5117
 4803TIP3   OH214372   5.946   4.156   0.921  0.3910 -0.0925  0.9166
 4803TIP3    H114373   6.018   4.163   0.858 -0.7586  0.4968 -0.3848
 4803TIP3    H214374   5.875   4.115   0.872  0.0765 -1.4290  2.4124
 4804TIP3   OH214375   4.468   1.410   3.922  0.1508 -0.0840 -0.2456
 4804TIP3    H114376   4.499   1.344   3.859  0.9877  1.8688 -1.9847
 4804TIP3    H214377   4.381   1.434   3.891  0.0282 -0.0418  0.1269
 4805TIP3   OH214378   6.882   0.895   1.166 -0.1073  0.0573 -0.0166
 4805TIP3    H114379   6.840   0.979   1.183  1.5159  1.4408 -2.4451
 4805TIP3    H214380   6.962   0.897   1.220  0.1989  0.3103 -0.4769
 4806TIP3   OH214381   6.551   5.783   0.271  0.8600  0.1341 -1.1261
 4806TIP3    H114382   6.497   5.837   0.214 -1.8912 -1.4509 -0.1788
 4806TIP3    H214383   6.551   5.696   0.230  1.5774 -0.2164 -0.4094
 4807TIP3   OH214384   1.728   5.157   1.372  0.0369 -0.7383  0.2308
 4807TIP3    H114385   1.813   5.135   1.409  0.9997  0.4056 -1.1681
 4807TIP3    H214386   1.686   5.211   1.438  0.8784 -0.3884  0.4955
 4808TIP3   OH214387   6.833   3.953   4.464 -0.1972 -0.2193  0.5810
 4808TIP3    H114388   6.879   3.915   4.539  0.4467 -0.8469 -0.1210
 4808TIP3    H214389   6.849   4.047   4.471  1.0273 -0.4141  0.4573
 4809TIP3   OH214390   1.064   1.527   5.631  0.1504 -0.4903 -0.3042
 4809TIP3    H114391   1.160   1.529   5.634  0.1718 -0.8139 -0.6602
 4809TIP3    H214392   1.039   1.465   5.699  0.0984  1.0150  1.1171
 4810TIP3   OH214393   3.942   6.559   5.072  0.0357 -0.5694 -0.1928
 4810TIP3    H114394   3.983   6.645   5.074 -0.9839 -0.0796  1.0347
 4810TIP3    H214395   4.014   6.498   5.057  0.8575  0.4350 -0.4421
 4811TIP3   OH214396   0.903   4.883   0.489  1.0155  0.2913  0.0317
 4811TIP3    H114397   0.809   4.887   0.475  1.0449  0.8839 -0.0381
 4811TIP3    H214398   0.919   4.936   0.567  1.3120  0.3857 -0.0884
 4812TIP3   OH214399   1.007   3.023   1.829 -0.2605  0.2997  0.0461
 4812TIP3    H114400   1.053   3.040   1.747 -1.5536  2.5921 -0.3183
 4812TIP3    H214401   0.964   2.939   1.816 -0.3626  0.5719 -1.6188
 4813TIP3   OH214402   4.227   5.060   2.786 -0.6640  0.1249  0.0540
 4813TIP3    H114403   4.298   5.103   2.739 -0.8638  0.3756 -0.0192
 4813TIP3    H214404   4.181   5.131   2.830 -0.5802 -0.0896  0.4914
 4814TIP3   OH214405   4.213   0.434   0.650  0.2567  0.2725 -0.1545
 4814TIP3    H114406   4.247   0.351   0.685  1.9873  0.8702 -0.3018
 4814TIP3    H214407   4.185   0.413   0.561  0.7149 -0.1601 -0.2029
 4815TIP3   OH214408   0.656   4.606   4.223 -0.0779  0.0576  0.2041
 4815TIP3    H114409   0.732   4.590   4.168 -0.8689 -1.4163 -0.5173
 4815TIP3    H214410   0.687   4.667   4.289  1.1991  1.0176 -1.2100
 4816TIP3   OH214411   3.594   1.201   1.752  0.1221 -0.4599  0.2433
 4816TIP3    H114412   3.522   1.252   1.789 -0.9341 -1.0784 -0.8773
 4816TIP3    H214413   3.642   1.263   1.698  1.0291  0.1824  1.7278
 4817TIP3   OH214414   3.378   1.307   0.057 -0.3590  0.2851  0.3341
 4817TIP3    H114415   3.352   1.382   0.110  1.2654 -0.0151  1.6394
 4817TIP3    H214416   3.423   1.345  -0.018 -1.2566  0.6588 -0.0308
 4818TIP3   OH214417   0.634   6.202   5.027 -0.5379 -0.3964  0.2465
 4818TIP3    H114418   0.678   6.214   4.943 -1.3090 -0.0217 -0.1129
 4818TIP3    H214419   0.688   6.137   5.072  0.3536  0.0131 -0.1914
 4819TIP3   OH214420   1.189   2.472   0.551 -0.0612 -0.3441 -0.1756
 4819TIP3    H114421   1.156   2.419   0.623 -0.1254  0.5939  0.5018
 4819TIP3    H214422   1.257   2.419   0.510 -1.6042 -1.8689 -0.9057
 4820TIP3   OH214423   6.401   0.197   0.615 -0.0677 -0.0351  0.0263
 4820TIP3    H114424   6.339   0.264   0.588 -1.3496 -0.4961  1.6601
 4820TIP3    H214425   6.485   0.243   0.621 -0.0919  0.4826 -2.6770
 4821TIP3   OH214426   1.891   3.226   4.185 -0.2263  0.1320  0.3513
 4821TIP3    H114427   1.803   3.217   4.222  0.4199  2.0751  2.6348
 4821TIP3    H214428   1.950   3.198   4.255  1.0165  0.6632 -0.4338
 4822TIP3   OH214429   7.184   1.021   4.503 -0.4459  0.4770 -0.0291
 4822TIP3    H114430   7.170   1.020   4.598  2.1790 -1.5788  0.4604
 4822TIP3    H214431   7.117   0.962   4.468  0.5704 -1.4065  1.0213
 4823TIP3   OH214432   2.267   4.639   5.874  0.2507 -0.3067  0.2140
 4823TIP3    H114433   2.318   4.612   5.950  0.4150  0.0002  0.2174
 4823TIP3    H214434   2.307   4.592   5.801  0.5091 -0.1052  0.2240
 4824TIP3   OH214435   0.117   0.390   3.777 -0.0481  0.1956  0.0953
 4824TIP3    H114436   0.029   0.374   3.812 -0.2680  2.0637  0.4958
 4824TIP3    H214437   0.131   0.484   3.789  1.6117  0.1160 -0.8990
 4825TIP3   OH214438   0.334   2.744   1.241  0.1196  0.0331 -0.0001
 4825TIP3    H114439   0.302   2.656   1.262  1.5263 -0.8804 -1.4670
 4825TIP3    H214440   0.429   2.735   1.236  0.2618  1.5559 -0.5179
 4826TIP3   OH214441   1.796   1.226   5.110  0.3999 -0.0553  0.5621
 4826TIP3    H114442   1.861   1.268   5.054 -2.5755  2.5145 -1.3885
 4826TIP3    H214443   1.768   1.149   5.060  0.9420 -0.3626  0.7281
 4827TIP3   OH214444   6.200   0.375   0.541 -0.1472  0.5288 -0.9158
 4827TIP3    H114445   6.117   0.358   0.496 -0.7189  2.4266 -0.6652
 4827TIP3    H214446   6.184   0.456   0.591  1.4901  0.2812  0.0787
 4828TIP3   OH214447   0.970   2.143   5.642  0.0345 -0.3143 -0.6479
 4828TIP3    H114448   0.904   2.105   5.700  1.3648 -0.7935  0.6238
 4828TIP3    H214449   1.025   2.068   5.618 -0.1903 -0.0247 -2.1322
 4829TIP3   OH214450   1.971   3.362   5.144 -0.0594 -0.4795 -0.4674
 4829TIP3    H114451   1.912   3.318   5.205 -0.2782  0.2278 -0.1588
 4829TIP3    H214452   2.005   3.292   5.089  1.9493 -1.5301  1.9001
 4830TIP3   OH214453   7.113   5.880   4.688 -0.3133  0.2120  0.1713
 4830TIP3    H114454   7.171   5.869   4.613  0.2968 -0.0200  0.6725
 4830TIP3    H214455   7.039   5.931   4.654  0.1794  0.5102 -0.4722
 4831TIP3   OH214456   4.452   0.592   0.156  0.1100  0.2591 -0.3084
 4831TIP3    H114457   4.375   0.617   0.207  0.2312 -0.9078  0.4845
 4831TIP3    H214458   4.437   0.631   0.070 -1.3336  0.1176 -0.1497
 4832TIP3   OH214459   6.456   6.681   2.636 -0.2128  0.2554  0.5223
 4832TIP3    H114460   6.467   6.652   2.726  0.9653  1.5685  0.8431
 4832TIP3    H214461   6.497   6.768   2.634  1.2010 -0.3736 -1.6384
 4833TIP3   OH214462   4.892   4.681   4.300 -0.2332  0.0272 -0.3057
 4833TIP3    H114463   4.843   4.717   4.226  1.1232  0.5662 -0.9791
 4833TIP3    H214464   4.884   4.747   4.369  0.9538  0.9277 -1.0037
 4834TIP3   OH214465   4.002   1.199   3.620 -0.6577  0.3440 -0.2244
 4834TIP3    H114466   4.073   1.187   3.557 -0.9746  1.1815 -0.7611
 4834TIP3    H214467   4.031   1.273   3.674 -0.3387 -0.4375  0.7025
 4835TIP3   OH214468   1.890   6.195   0.514  0.9450 -0.6189  0.3207
 4835TIP3    H114469   1.849   6.211   0.599 -0.3322 -0.9621 -0.2054
 4835TIP3    H214470   1.960   6.132   0.533  3.2405  2.1147  1.7007
 4836TIP3   OH214471   2.948   4.086   1.994  0.1794  0.2467  0.1387
 4836TIP3    H114472   2.869   4.099   2.047  0.4110  1.3799  0.2481
 4836TIP3    H214473   2.924   4.018   1.931 -1.0475  0.8992 -0.1411
 4837TIP3   OH214474   5.439   5.210   5.790 -0.3515  0.4694 -0.5560
 4837TIP3    H114475   5.344   5.206   5.785 -0.9399  2.2577  4.1226
 4837TIP3    H214476   5.467   5.119   5.789 -2.3015 -0.1739 -0.2748
 4838TIP3   OH214477   2.610   3.614   0.693  0.6872  0.5542 -0.0015
 4838TIP3    H114478   2.581   3.528   0.724  1.7640  0.3417  0.4645
 4838TIP3    H214479   2.530   3.666   0.688 -0.0251 -0.5458 -0.5496
 4839TIP3   OH214480   6.800   5.823   1.174  0.2965 -0.2104 -0.0374
 4839TIP3    H114481   6.869   5.883   1.146 -1.3103  1.4946 -0.5734
 4839TIP3    H214482   6.796   5.833   1.269  0.0371  0.5944 -0.1208
 4840TIP3   OH214483   0.379   4.887   5.823 -0.7877  0.1348 -0.0558
 4840TIP3    H114484   0.435   4.955   5.784 -0.6452 -0.4221 -0.8561
 4840TIP3    H214485   0.435   4.810   5.827 -0.4618  0.4261  2.2671
 4841TIP3   OH214486   3.349   0.366   4.989 -0.4187 -0.5582  0.0235
 4841TIP3    H114487   3.273   0.386   5.043 -1.2645 -0.2654 -1.2347
 4841TIP3    H214488   3.358   0.271   4.994 -0.5761 -0.5476  0.5429
 4842TIP3   OH214489   1.479   3.322   3.609 -0.1131 -0.0802  0.3674
 4842TIP3    H114490   1.487   3.334   3.703  0.9014 -0.1590  0.2993
 4842TIP3    H214491   1.559   3.360   3.573 -0.9024  0.7741 -0.5481
 4843TIP3   OH214492   5.798   4.012   0.746 -0.3199 -0.2551  0.0626
 4843TIP3    H114493   5.802   4.036   0.653 -0.3714 -0.7995 -0.0860
 4843TIP3    H214494   5.705   4.011   0.767 -0.3906 -1.3307 -0.2154
 4844TIP3   OH214495   0.643   3.882   4.749 -0.1635  0.3038  0.5771
 4844TIP3    H114496   0.627   3.941   4.822  0.9711  0.1851  0.9263
 4844TIP3    H214497   0.727   3.842   4.768  0.1329  0.2454 -0.7724
 4845TIP3   OH214498   1.303   4.681   2.203 -0.5220  0.0264 -0.1239
 4845TIP3    H114499   1.364   4.634   2.146 -0.6560 -0.8217  0.4140
 4845TIP3    H214500   1.272   4.755   2.150 -1.5390 -1.3845 -1.6103
 4846TIP3   OH214501   2.063   3.622   4.682 -0.0932 -0.1637 -0.6239
 4846TIP3    H114502   2.127   3.677   4.637 -0.0871  0.3847  0.0342
 4846TIP3    H214503   1.988   3.618   4.622 -0.7325  1.8765 -0.0610
 4847TIP3   OH214504   2.567   6.119   1.034 -0.2345  0.5741  0.2332
 4847TIP3    H114505   2.582   6.201   0.987  0.5277  0.0047 -0.5484
 4847TIP3    H214506   2.474   6.100   1.020 -0.2044  0.8374 -0.3677
 4848TIP3   OH214507   5.513   0.419   3.065 -0.2772  0.3319 -0.9039
 4848TIP3    H114508   5.434   0.474   3.056  0.7433  1.7759 -1.5781
 4848TIP3    H214509   5.574   0.456   3.001  1.0998 -0.4716 -0.0974
 4849TIP3   OH214510   3.690  -0.012   0.596 -0.7711  0.3624  0.0480
 4849TIP3    H114511   3.695  -0.005   0.691  1.6166  1.0885 -0.0639
 4849TIP3    H214512   3.629   0.057   0.570  1.8116  3.1676  0.8482
 4850TIP3   OH214513   2.614   2.020   1.232  0.0415  0.3133 -0.5427
 4850TIP3    H114514   2.601   2.029   1.138 -0.4401  0.7201 -0.4388
 4850TIP3    H214515   2.700   2.058   1.248  0.7217 -0.9637 -1.0056
 4851TIP3   OH214516   1.706   0.014   4.368 -0.0297  0.2050 -0.8297
 4851TIP3    H114517   1.736   0.006   4.277  0.8382 -1.3260 -0.4574
 4851TIP3    H214518   1.781   0.053   4.414 -1.4137  3.5902 -1.1754
 4852TIP3   OH214519   6.628   0.743   1.790 -0.2822  0.0428  0.0877
 4852TIP3    H114520   6.699   0.758   1.727  0.9157  0.4967  1.4797
 4852TIP3    H214521   6.565   0.688   1.743  0.3750  0.6856 -1.6123
 4853TIP3   OH214522   1.779   0.656   1.417  0.2062 -0.2280 -0.2369
 4853TIP3    H114523   1.780   0.697   1.504 -0.8459  0.2625 -0.4423
 4853TIP3    H214524   1.693   0.614   1.412  0.2525 -0.2380 -1.0510
 4854TIP3   OH214525   4.062   1.499   5.097 -0.1359  0.2396 -0.3376
 4854TIP3    H114526   4.004   1.456   5.034 -3.1897  0.3589  2.1289
 4854TIP3    H214527   4.012   1.575   5.128  0.6382 -0.3970  2.9018
 4855TIP3   OH214528   4.620   6.498   3.917  0.1870 -0.2107 -0.1634
 4855TIP3    H114529   4.656   6.573   3.868 -0.1701 -0.5322 -0.9490
 4855TIP3    H214530   4.649   6.512   4.007  3.2168 -1.0485 -0.9088
 4856TIP3   OH214531   0.648   4.725   2.832  0.0808 -0.3961 -0.4141
 4856TIP3    H114532   0.713   4.734   2.762  0.1013 -1.0713 -0.4868
 4856TIP3    H214533   0.583   4.664   2.797  0.2951 -1.0476  0.2990
 4857TIP3   OH214534   6.911   2.562   3.574 -0.3258  0.2925 -0.3161
 4857TIP3    H114535   6.939   2.609   3.652  1.9827 -0.1790 -0.7956
 4857TIP3    H214536   6.919   2.625   3.503 -1.1638  0.3381 -0.3829
 4858TIP3   OH214537   3.732   5.267   0.095 -0.5235 -0.1385 -0.4386
 4858TIP3    H114538   3.809   5.297   0.046 -0.5500  0.2652 -0.2384
 4858TIP3    H214539   3.709   5.183   0.055 -0.6431  0.2606 -1.2160
 4859TIP3   OH214540   6.057   4.717   2.200  0.2698 -0.0853  0.5899
 4859TIP3    H114541   6.148   4.709   2.171 -0.4571 -0.7666 -1.6945
 4859TIP3    H214542   6.059   4.790   2.263  2.2852  0.3072  0.1595
 4860TIP3   OH214543   5.021   0.116   1.489 -0.2527  0.0115  0.2884
 4860TIP3    H114544   5.026   0.159   1.574 -0.0586 -1.0987  0.8690
 4860TIP3    H214545   5.107   0.074   1.478  0.3493  1.5625 -1.2695
 4861TIP3   OH214546   6.346   6.755   1.356  0.2267  0.7709  0.7554
 4861TIP3    H114547   6.315   6.841   1.327  2.1929  1.2764  0.0026
 4861TIP3    H214548   6.433   6.747   1.317 -0.2737 -1.9764 -0.0169
 4862TIP3   OH214549   3.741   3.674   1.316  0.1077  0.2214 -0.3761
 4862TIP3    H114550   3.787   3.754   1.342  0.2907 -0.0833  0.2645
 4862TIP3    H214551   3.731   3.682   1.221  1.2408  0.4244 -0.4974
 4863TIP3   OH214552   3.214   3.530   1.687 -0.0445 -0.2316  0.5409
 4863TIP3    H114553   3.170   3.497   1.610  0.2466  1.9106 -0.6341
 4863TIP3    H214554   3.150   3.587   1.730  0.7544  1.0639  0.0979
 4864TIP3   OH214555   1.069   1.602   4.595  0.2277 -0.1777 -0.7799
 4864TIP3    H114556   1.135   1.576   4.659  1.6459  0.7632 -1.8089
 4864TIP3    H214557   1.082   1.696   4.584 -0.7281 -0.1324 -1.6520
 4865TIP3   OH214558   6.648   0.999   5.620  0.2846 -0.6796  0.7195
 4865TIP3    H114559   6.720   1.010   5.683 -0.7078 -0.8223  1.9013
 4865TIP3    H214560   6.638   1.086   5.580  0.7313 -0.5181  0.9531
 4866TIP3   OH214561   4.744   0.728   4.664 -0.3893 -0.3036  0.0981
 4866TIP3    H114562   4.809   0.658   4.658  1.8408  1.4599  1.5296
 4866TIP3    H214563   4.748   0.772   4.579 -0.3215 -0.7040 -0.1068
 4867TIP3   OH214564   3.039   3.152   3.223 -0.0735 -0.1262 -0.1646
 4867TIP3    H114565   2.990   3.158   3.141  1.4286  1.6693 -1.0204
 4867TIP3    H214566   3.022   3.235   3.267 -0.3048 -0.7851  1.0349
 4868TIP3   OH214567   0.272   5.983   4.727 -0.7901 -0.9127 -0.0141
 4868TIP3    H114568   0.349   5.994   4.782  0.7517 -0.6711 -2.1038
 4868TIP3    H214569   0.282   5.896   4.688 -0.7656 -0.2930 -1.4506
 4869TIP3   OH214570   1.346   4.045   4.599  0.0681  0.2433 -0.1016
 4869TIP3    H114571   1.321   4.000   4.518  0.8136 -0.2588 -0.0740
 4869TIP3    H214572   1.326   4.137   4.583  0.6246  0.2189 -1.0418
 4870TIP3   OH214573   6.936   1.975   0.863  0.0939  0.0849 -0.1642
 4870TIP3    H114574   6.899   1.969   0.775  1.2864 -0.9665 -0.6162
 4870TIP3    H214575   6.912   1.893   0.905  0.1337  0.2832  0.2514
 4871TIP3   OH214576   3.976   2.850   1.852 -0.3248  0.3222 -0.1980
 4871TIP3    H114577   3.908   2.913   1.876 -1.4664 -0.8101 -0.3472
 4871TIP3    H214578   3.985   2.794   1.929  1.4678  1.2761  0.3513
 4872TIP3   OH214579   1.792   6.020   4.899  0.4460  1.2259 -0.3672
 4872TIP3    H114580   1.719   6.048   4.844 -1.5554 -0.7596  1.0452
 4872TIP3    H214581   1.811   6.095   4.955 -1.6227  1.3265  0.2747
 4873TIP3   OH214582   4.347   4.964   3.027  0.1726 -0.1678  0.2822
 4873TIP3    H114583   4.380   5.012   2.951  1.7732 -0.6616  0.6254
 4873TIP3    H214584   4.257   4.940   3.003 -0.3876  2.1763 -0.2516
 4874TIP3   OH214585   4.691   6.138   3.079  0.1896 -0.1749 -0.0038
 4874TIP3    H114586   4.750   6.179   3.015 -0.7090  0.3421 -0.5305
 4874TIP3    H214587   4.697   6.045   3.061 -0.0313 -0.0371 -0.8387
 4875TIP3   OH214588   4.387   5.981   1.815 -0.1118 -0.9039 -0.5181
 4875TIP3    H114589   4.440   5.933   1.751  2.2814  1.4328 -0.4584
 4875TIP3    H214590   4.449   6.042   1.856 -2.4162  0.3926  1.2618
 4876TIP3   OH214591   0.950   1.239   4.039 -0.2183  0.6035  0.0264
 4876TIP3    H114592   0.976   1.247   4.131  0.3237  0.9974 -0.1561
 4876TIP3    H214593   0.854   1.239   4.041 -0.2325  1.7076  0.5150
 4877TIP3   OH214594   3.295   3.829   4.847 -0.2193  0.2318 -0.0451
 4877TIP3    H114595   3.255   3.763   4.791  0.4389 -1.5312  1.4847
 4877TIP3    H214596   3.265   3.808   4.936  1.0134  1.2070  0.6464
 4878TIP3   OH214597   4.333   5.207   0.391  0.0392  0.7229 -0.0543
 4878TIP3    H114598   4.338   5.277   0.456 -0.6881  0.3391  0.4190
 4878TIP3    H214599   4.301   5.250   0.311 -0.0288  0.9990  0.1215
 4879TIP3   OH214600   0.340   0.594   4.722 -0.0664  0.0327 -0.0073
 4879TIP3    H114601   0.353   0.629   4.810  2.1316 -0.6790 -0.0032
 4879TIP3    H214602   0.340   0.499   4.734  0.4657 -0.0731 -0.8043
 4880TIP3   OH214603   5.794   2.945   4.172  0.2381  0.2856 -1.1473
 4880TIP3    H114604   5.762   3.029   4.203 -1.9718 -0.8071 -0.3148
 4880TIP3    H214605   5.830   2.902   4.250  1.2720  0.3973 -1.5479
 4881TIP3   OH214606   4.362   3.048   4.259 -0.1379  0.2430  0.1639
 4881TIP3    H114607   4.390   3.084   4.343  2.2558  0.1011 -0.5089
 4881TIP3    H214608   4.332   3.124   4.209 -0.8801  0.4234  0.8640
 4882TIP3   OH214609   4.449   5.337   3.756 -0.4548  0.1064  0.4839
 4882TIP3    H114610   4.484   5.268   3.700 -1.0160  0.3364 -0.1620
 4882TIP3    H214611   4.403   5.291   3.826  1.1360 -0.2048  1.3772
 4883TIP3   OH214612   2.560   5.090   5.442  0.3177 -0.2470  0.0126
 4883TIP3    H114613   2.510   5.171   5.441 -1.9418 -1.5305  1.1079
 4883TIP3    H214614   2.598   5.083   5.354  3.3885  3.5124  0.7644
 4884TIP3   OH214615   3.020   4.449   5.620  0.3706 -0.1235  0.0302
 4884TIP3    H114616   3.063   4.392   5.557 -0.2406 -0.2004 -0.3238
 4884TIP3    H214617   3.056   4.423   5.705 -0.0529 -1.1806 -0.0978
 4885TIP3   OH214618   5.583   1.209   0.348 -0.3058  0.1273 -0.2192
 4885TIP3    H114619   5.647   1.273   0.379 -1.3997  1.0808  0.1395
 4885TIP3    H214620   5.618   1.124   0.377 -0.3288  0.8138  1.9884
 4886TIP3   OH214621   3.286   4.528   1.975 -0.0736  0.1377 -0.5220
 4886TIP3    H114622   3.274   4.539   2.069  1.6674  1.8596 -0.4377
 4886TIP3    H214623   3.201   4.497   1.943 -1.1615  0.9959  1.3786
 4887TIP3   OH214624   6.268   4.485   3.501 -0.1397  0.3781 -0.5587
 4887TIP3    H114625   6.360   4.476   3.525 -0.3118  0.7217  0.2970
 4887TIP3    H214626   6.264   4.465   3.408  0.5489 -1.2635 -0.2655
 4888TIP3   OH214627   4.273   3.950   5.679 -0.1122  0.8922 -0.0553
 4888TIP3    H114628   4.217   4.027   5.691 -0.0194  0.9889 -0.2286
 4888TIP3    H214629   4.218   3.886   5.635 -0.3946  0.6101  0.6898
 4889TIP3   OH214630   4.950   3.204   3.462 -0.2603  0.1259 -0.4635
 4889TIP3    H114631   5.043   3.189   3.476 -0.4225  0.3153  1.0748
 4889TIP3    H214632   4.943   3.236   3.372  0.8613 -2.3691 -1.5300
 4890TIP3   OH214633   2.487   1.329   4.450  0.5935 -0.0170 -0.2422
 4890TIP3    H114634   2.489   1.318   4.545 -0.6579 -1.3740 -0.3519
 4890TIP3    H214635   2.545   1.261   4.416 -0.3517 -0.6985 -0.5215
 4891TIP3   OH214636   1.038   0.520   0.552  0.6442 -0.3396  0.6634
 4891TIP3    H114637   1.019   0.554   0.465 -1.1280 -0.8756  0.8104
 4891TIP3    H214638   1.076   0.594   0.599  1.3460  0.0348 -0.4572
 4892TIP3   OH214639   0.092   3.184   0.803  0.4070  0.7300  0.2707
 4892TIP3    H114640   0.064   3.118   0.866 -0.1646 -0.7911 -1.4889
 4892TIP3    H214641   0.010   3.218   0.765  0.7527 -0.0657 -1.2749
 4893TIP3   OH214642   1.363   6.766   1.852 -0.3556 -0.5746 -0.3892
 4893TIP3    H114643   1.435   6.791   1.794  0.5324  0.8122  1.2231
 4893TIP3    H214644   1.374   6.672   1.864  1.2528 -0.3915 -0.1513
 4894TIP3   OH214645   6.331   3.962   5.584 -0.2129  0.1072  0.0152
 4894TIP3    H114646   6.337   4.049   5.623 -0.6778  0.6656 -1.1194
 4894TIP3    H214647   6.238   3.942   5.584  0.0329 -1.3685  2.2782
 4895TIP3   OH214648   7.177   5.942   3.547 -0.1409 -0.1421 -0.0254
 4895TIP3    H114649   7.117   6.012   3.571 -1.5709 -1.0949 -0.6804
 4895TIP3    H214650   7.240   5.939   3.618 -2.3878 -0.8261  2.0620
 4896TIP3   OH214651   0.975   4.320   4.325 -0.0896 -0.1034  0.1438
 4896TIP3    H114652   0.888   4.328   4.364  0.2104  0.0810  0.7827
 4896TIP3    H214653   1.003   4.232   4.347 -0.7680 -0.7631 -1.4541
 4897TIP3   OH214654   3.391   5.570   4.006 -0.2797  0.4669 -0.2002
 4897TIP3    H114655   3.356   5.619   4.081 -1.3773 -0.3053 -0.2041
 4897TIP3    H214656   3.486   5.569   4.021 -0.4897  0.2986  1.1927
 4898TIP3   OH214657   4.300   0.337   1.161  0.5125  0.1122  0.5590
 4898TIP3    H114658   4.392   0.347   1.188  0.4009 -0.0926  1.0191
 4898TIP3    H214659   4.272   0.256   1.202  0.4759 -0.4714 -0.5886
 4899TIP3   OH214660   5.871   1.650   1.971 -0.1077 -0.1754 -0.1866
 4899TIP3    H114661   5.812   1.710   1.926 -1.9881 -2.0600 -0.4137
 4899TIP3    H214662   5.959   1.676   1.943 -0.8297  2.3248 -0.3599
 4900TIP3   OH214663   1.847   4.790   1.408 -0.3093 -0.1816  0.1671
 4900TIP3    H114664   1.928   4.802   1.359  0.1085 -0.3668  0.7951
 4900TIP3    H214665   1.819   4.701   1.386  0.8735 -0.9884  1.6517
 4901TIP3   OH214666   0.102   4.239   0.714 -0.3916 -0.4655  0.0837
 4901TIP3    H114667   0.038   4.310   0.721  0.5413  0.4024  0.2279
 4901TIP3    H214668   0.057   4.169   0.667 -1.6345 -0.1340  0.7541
 4902TIP3   OH214669   5.117   5.149   4.092 -0.2137 -0.3048  0.2025
 4902TIP3    H114670   5.211   5.131   4.097  0.3001  1.4862 -1.6556
 4902TIP3    H214671   5.076   5.063   4.104  1.7289 -1.3868 -0.4077
 4903TIP3   OH214672   2.830   3.269   2.027 -0.1876  0.3833  0.1797
 4903TIP3    H114673   2.848   3.293   1.936 -1.0609 -3.3789 -1.1936
 4903TIP3    H214674   2.740   3.236   2.025 -0.2097  0.2014  2.4037
 4904TIP3   OH214675   4.430   5.976   4.078  0.0202  0.4527 -0.1061
 4904TIP3    H114676   4.442   5.950   4.169  0.4309  1.7281  0.2200
 4904TIP3    H214677   4.335   5.983   4.068 -0.0154  3.8234  1.3231
 4905TIP3   OH214678   0.421   4.769   1.511  0.3990  0.7023  0.6118
 4905TIP3    H114679   0.391   4.710   1.580 -1.2186  1.6015  0.7252
 4905TIP3    H214680   0.417   4.717   1.431  0.2928  0.2687  0.8938
 4906TIP3   OH214681   2.252   0.954   4.094 -0.4373 -0.4323  0.3277
 4906TIP3    H114682   2.194   0.952   4.018  0.3675 -0.2166 -0.3067
 4906TIP3    H214683   2.204   0.906   4.162 -2.3237  1.6118  0.5368
 4907TIP3   OH214684   1.950   1.949   2.204 -0.4307  0.3923 -0.6399
 4907TIP3    H114685   1.952   1.987   2.116  0.7694  1.6501 -0.1289
 4907TIP3    H214686   1.965   1.856   2.191 -0.5627  0.5181 -1.7814
 4908TIP3   OH214687   5.458   4.788   5.401 -0.1751 -0.2605 -0.1107
 4908TIP3    H114688   5.476   4.856   5.336 -0.3712  0.0618  0.1687
 4908TIP3    H214689   5.366   4.766   5.387 -0.1646 -0.3282 -0.0706
 4909TIP3   OH214690   0.516   2.444   4.288  0.0030 -0.0432  0.5449
 4909TIP3    H114691   0.551   2.505   4.353 -1.9824 -0.3653  2.0323
 4909TIP3    H214692   0.545   2.357   4.318  1.1404 -0.0245 -0.4329
 4910TIP3   OH214693   1.297   5.843   4.615  0.4747  0.0888 -0.7831
 4910TIP3    H114694   1.314   5.902   4.689 -0.9622 -1.6859  1.0635
 4910TIP3    H214695   1.374   5.786   4.613  0.7631  0.4787 -1.0277
 4911TIP3   OH214696   4.165   5.036   4.948 -0.5054  0.3290 -0.5163
 4911TIP3    H114697   4.250   4.992   4.954 -0.8790 -0.4028 -0.4211
 4911TIP3    H214698   4.186   5.126   4.925  0.3250  0.2759 -0.0150
 4912TIP3   OH214699   0.682   1.028   0.669 -0.5391 -0.0839  0.2551
 4912TIP3    H114700   0.757   1.065   0.716 -0.3091 -1.5210  1.0660
 4912TIP3    H214701   0.606   1.056   0.719 -0.5029  0.5949 -0.0459
 4913TIP3   OH214702   0.600   3.561   1.704 -0.6519 -0.0217  0.4420
 4913TIP3    H114703   0.540   3.593   1.637 -0.5111  0.3296  0.4807
 4913TIP3    H214704   0.570   3.472   1.723 -2.2342  0.7311  1.7117
 4914TIP3   OH214705   3.132   0.614   4.405  0.4980  0.0468  0.3274
 4914TIP3    H114706   3.197   0.546   4.420 -1.0266 -0.9623  2.9763
 4914TIP3    H214707   3.069   0.604   4.476 -1.4892  2.2602 -0.9569
 4915TIP3   OH214708   1.578   4.229   4.280 -0.0840 -0.0095  0.1025
 4915TIP3    H114709   1.663   4.272   4.267  0.1746 -0.4705  0.2542
 4915TIP3    H214710   1.594   4.165   4.349 -0.2166 -1.0557 -0.8220
 4916TIP3   OH214711   0.132   1.710   0.926 -0.1613  0.0139 -0.3154
 4916TIP3    H114712   0.075   1.716   0.850  2.1914  0.1892 -2.2090
 4916TIP3    H214713   0.131   1.617   0.950 -1.4067  0.0623 -0.1329
 4917TIP3   OH214714   0.586   5.123   1.870  0.5647 -0.6541 -0.4220
 4917TIP3    H114715   0.654   5.187   1.849  0.5412  0.1338  1.6503
 4917TIP3    H214716   0.611   5.044   1.822  0.7372  0.7837 -2.8517
 4918TIP3   OH214717   5.570   5.040   1.915  0.4840  0.4689 -0.2476
 4918TIP3    H114718   5.581   4.994   1.832 -0.4923  0.0258 -0.1440
 4918TIP3    H214719   5.476   5.053   1.923  0.6528  1.4134  0.3149
 4919TIP3   OH214720   4.894   1.644   1.536  0.0160  0.4308  0.7045
 4919TIP3    H114721   4.851   1.726   1.509  0.2886  0.8933  1.6404
 4919TIP3    H214722   4.893   1.647   1.632  1.8169  0.2821  0.7573
 4920TIP3   OH214723   2.576   0.700   1.283  0.4685  0.5347  0.6221
 4920TIP3    H114724   2.518   0.673   1.212 -0.1953  0.4497  1.1777
 4920TIP3    H214725   2.608   0.787   1.257  0.6371  0.2895 -0.0066
 4921TIP3   OH214726   2.090   0.742   1.908  0.2387  0.3370 -0.0095
 4921TIP3    H114727   2.178   0.704   1.912 -0.2936 -1.1309 -1.2681
 4921TIP3    H214728   2.101   0.822   1.856  0.4685 -1.2059 -2.5167
 4922TIP3   OH214729   2.709   3.371   2.647 -0.3405  0.1130 -0.2534
 4922TIP3    H114730   2.683   3.423   2.723 -2.1046  0.7551 -1.2361
 4922TIP3    H214731   2.792   3.409   2.619 -1.0880  1.7342 -0.3350
 4923TIP3   OH214732   1.713   6.193   5.341  0.1755  0.5739  0.4578
 4923TIP3    H114733   1.807   6.178   5.332 -0.0368 -0.5526 -0.1185
 4923TIP3    H214734   1.703   6.236   5.426  1.0507 -1.0354  1.4145
 4924TIP3   OH214735   2.813   3.672   5.152  0.1252 -0.1663 -0.1548
 4924TIP3    H114736   2.849   3.608   5.090  0.9028 -1.7900  1.8586
 4924TIP3    H214737   2.720   3.652   5.157 -0.1323  0.5975 -1.4540
 4925TIP3   OH214738   2.385   2.387   1.341 -0.7859  0.1377  0.6807
 4925TIP3    H114739   2.330   2.423   1.411 -1.0038  0.4190  0.3689
 4925TIP3    H214740   2.323   2.347   1.280 -0.5276 -1.0809  1.1890
 4926TIP3   OH214741   4.444   5.743   0.808  0.2073 -0.4487 -0.0096
 4926TIP3    H114742   4.424   5.775   0.896 -1.0931  1.7732 -1.0390
 4926TIP3    H214743   4.407   5.655   0.806 -0.1211 -0.3781  1.5186
 4927TIP3   OH214744   0.555   0.227   5.367 -0.0258  0.2289  0.3397
 4927TIP3    H114745   0.498   0.245   5.293  0.1333 -0.4727  0.0356
 4927TIP3    H214746   0.522   0.145   5.404 -0.0449  0.5220  0.9878
 4928TIP3   OH214747   2.366   4.898   5.207  0.3304 -0.1396 -0.4848
 4928TIP3    H114748   2.331   4.982   5.235 -1.7624 -0.8027 -0.9396
 4928TIP3    H214749   2.316   4.833   5.257  0.7376 -1.1543 -1.3438
 4929TIP3   OH214750   4.763   4.151   4.584 -0.3648  0.5765  0.0999
 4929TIP3    H114751   4.669   4.148   4.601 -0.2263 -0.1553  0.8036
 4929TIP3    H214752   4.797   4.069   4.622  0.4188  0.3718 -0.9952
 4930TIP3   OH214753   1.551   3.006   5.742  0.3382  0.7995 -0.0537
 4930TIP3    H114754   1.581   3.070   5.678  1.3052  0.9402  0.5254
 4930TIP3    H214755   1.458   3.025   5.753  0.1349  0.7274 -1.4587
 4931TIP3   OH214756   0.802   0.386   0.026  0.2194 -0.4533 -0.4889
 4931TIP3    H114757   0.747   0.328  -0.027 -1.1829  0.6489 -0.2853
 4931TIP3    H214758   0.810   0.342   0.110 -0.9940 -0.2798 -0.2697
 4932TIP3   OH214759   2.585   3.742   3.146  0.3013 -0.0526 -0.1407
 4932TIP3    H114760   2.647   3.683   3.190  1.0319  1.9026  1.6365
 4932TIP3    H214761   2.599   3.726   3.052  0.8272 -2.2679  0.2587
 4933TIP3   OH214762   2.973   0.918   5.458 -0.4682  0.9342  0.2719
 4933TIP3    H114763   2.940   0.874   5.380 -1.6927 -0.3002  1.4383
 4933TIP3    H214764   2.960   1.011   5.440 -4.1177  0.5914  0.3410
 4934TIP3   OH214765   4.444   2.809   2.057 -0.0595  0.1168  0.3158
 4934TIP3    H114766   4.517   2.833   2.000  0.0793 -1.0482 -0.0292
 4934TIP3    H214767   4.366   2.826   2.004  0.1032 -2.8821 -1.1298
 4935TIP3   OH214768   4.586   0.472   3.072 -0.1670  0.2957  0.5140
 4935TIP3    H114769   4.668   0.522   3.077  0.5634 -0.8750  0.7778
 4935TIP3    H214770   4.594   0.407   3.143 -1.2810  0.0966  0.4703
 4936TIP3   OH214771   0.193   0.662   5.478  0.0521  0.5743 -0.5119
 4936TIP3    H114772   0.170   0.754   5.461  0.2467  0.3878 -1.8719
 4936TIP3    H214773   0.287   0.664   5.497 -0.2056  0.8107  0.7833
 4937TIP3   OH214774   6.462   1.344   4.479 -0.4340  0.0715 -0.1435
 4937TIP3    H114775   6.487   1.265   4.526 -2.8131 -1.1357 -0.7635
 4937TIP3    H214776   6.501   1.335   4.393  0.5472  0.3207  0.2663
 4938TIP3   OH214777   0.600   3.839   4.014  0.6270  0.5643 -0.4096
 4938TIP3    H114778   0.541   3.913   3.997  2.4886  2.4374  0.8332
 4938TIP3    H214779   0.543   3.762   4.008 -2.0026  2.2433  0.8374
 4939TIP3   OH214780   2.022   0.605   1.270 -0.3685  0.7930  0.0368
 4939TIP3    H114781   1.936   0.616   1.311 -1.6163 -1.5235 -1.6779
 4939TIP3    H214782   2.083   0.595   1.343 -1.7165  1.5090  1.2958
 4940TIP3   OH214783   0.675   2.146   5.144 -0.6946 -0.1002 -0.0640
 4940TIP3    H114784   0.611   2.197   5.095 -2.2711 -0.1572  1.8538
 4940TIP3    H214785   0.624   2.078   5.187  0.6786 -0.2450  1.4146
 4941TIP3   OH214786   0.819   5.760   2.598 -0.8198 -0.1731  0.5764
 4941TIP3    H114787   0.739   5.724   2.559 -0.8391  1.8814 -1.5240
 4941TIP3    H214788   0.885   5.753   2.529 -0.0814  1.1275  1.1076
 4942TIP3   OH214789   2.952   0.542   4.653  0.0443  0.0850 -0.0822
 4942TIP3    H114790   2.857   0.545   4.653  0.0591  1.8794 -1.5656
 4942TIP3    H214791   2.978   0.578   4.738 -0.5808 -0.3172  0.2824
 4943TIP3   OH214792   6.518   0.521   1.220  0.7059  0.4293  0.0517
 4943TIP3    H114793   6.575   0.597   1.211  0.0350  0.9180 -0.2306
 4943TIP3    H214794   6.459   0.527   1.144  0.3713 -0.1349  0.2633
 4944TIP3   OH214795   6.283   3.310   0.376 -0.5967 -0.9311  0.3632
 4944TIP3    H114796   6.223   3.248   0.334 -0.3198  0.9027 -3.1190
 4944TIP3    H214797   6.354   3.321   0.313  1.2812  0.1629  2.5013
 4945TIP3   OH214798   6.534   6.076   0.530  0.5718 -0.2513 -0.6631
 4945TIP3    H114799   6.547   6.164   0.495 -1.0845  0.6875  0.9153
 4945TIP3    H214800   6.484   6.030   0.462 -0.5502  0.7786 -0.5600
 4946TIP3   OH214801   3.117   6.596   3.259  0.3395 -0.0149 -0.1428
 4946TIP3    H114802   3.069   6.608   3.177 -0.2177 -3.7886 -0.5549
 4946TIP3    H214803   3.197   6.648   3.248 -0.0711  0.2072 -2.7411
 4947TIP3   OH214804   3.461   0.864   0.933  0.1155  0.0146 -0.2783
 4947TIP3    H114805   3.478   0.860   1.027  0.9039 -0.2339 -0.4251
 4947TIP3    H214806   3.466   0.772   0.904 -0.8602  0.0066 -0.4389
 4948TIP3   OH214807   2.534   6.775   3.504  0.3881 -0.0258 -0.7450
 4948TIP3    H114808   2.461   6.746   3.558  0.9639  0.8816  0.5916
 4948TIP3    H214809   2.495   6.798   3.420 -0.8919  0.5350 -0.0233
 4949TIP3   OH214810  -0.002   4.672   3.362 -0.5898  0.3356  0.2997
 4949TIP3    H114811   0.040   4.695   3.445  0.5836  2.7488 -0.8610
 4949TIP3    H214812   0.064   4.621   3.315 -0.9719 -0.3632  0.4902
 4950TIP3   OH214813   5.191   0.097   2.461  0.1074  0.0060 -0.4291
 4950TIP3    H114814   5.161   0.007   2.449 -0.1403 -0.0143  0.2911
 4950TIP3    H214815   5.130   0.149   2.409 -2.0348  0.0869  1.9731
 4951TIP3   OH214816   4.351   5.524   5.161  0.1547  0.0626 -0.3102
 4951TIP3    H114817   4.399   5.579   5.223  1.0269 -1.9375  0.8878
 4951TIP3    H214818   4.327   5.583   5.091  0.0433  2.2104  1.4283
 4952TIP3   OH214819   4.114   4.414   1.508  0.0481  0.4775  0.2031
 4952TIP3    H114820   4.124   4.331   1.461 -0.2264  1.0663 -0.9311
 4952TIP3    H214821   4.029   4.407   1.552  1.1996 -0.9120  2.4111
 4953TIP3   OH214822   6.580   6.149   3.177 -0.3841  0.3998 -0.3595
 4953TIP3    H114823   6.509   6.119   3.234  0.0089 -1.8731 -0.9348
 4953TIP3    H214824   6.536   6.204   3.111 -1.0946  1.6169  1.0732
 4954TIP3   OH214825   4.986   6.080   2.096  0.1869  0.1061 -0.0836
 4954TIP3    H114826   5.007   5.991   2.125 -1.5301 -0.7500 -1.3033
 4954TIP3    H214827   5.011   6.081   2.004  0.7967  1.1206  0.0846
 4955TIP3   OH214828   4.211   1.327   4.823 -0.1177 -0.0264 -0.2799
 4955TIP3    H114829   4.296   1.328   4.780  0.0078 -1.0176 -0.0764
 4955TIP3    H214830   4.197   1.236   4.847  0.5068  0.6076  3.0945
 4956TIP3   OH214831   2.279   5.823   4.686  0.2361 -0.1193 -0.0880
 4956TIP3    H114832   2.353   5.862   4.640 -1.2247  1.5135 -1.1781
 4956TIP3    H214833   2.284   5.860   4.774  0.4883  0.3007 -0.2760
 4957TIP3   OH214834   2.928   2.369   5.133 -0.0055  0.7912  0.1787
 4957TIP3    H114835   2.880   2.346   5.053 -2.0530  1.2979  1.1760
 4957TIP3    H214836   2.987   2.440   5.107  0.9162 -0.4594 -1.2933
 4958TIP3   OH214837   7.127   5.692   5.817 -0.4681 -0.1773  0.3203
 4958TIP3    H114838   7.165   5.689   5.729 -2.3148  0.2763 -0.5549
 4958TIP3    H214839   7.184   5.751   5.866 -0.0008  0.4263 -0.8998
 4959TIP3   OH214840   7.170   4.599   1.671  0.1433  0.2234  0.0260
 4959TIP3    H114841   7.208   4.648   1.598  1.9972  0.4480  1.0702
 4959TIP3    H214842   7.082   4.635   1.681  0.8433  2.1522 -0.3314
 4960TIP3   OH214843   0.852   0.485   2.581  0.4394 -0.1711 -0.0544
 4960TIP3    H114844   0.862   0.560   2.523 -2.0603 -1.5396 -2.5098
 4960TIP3    H214845   0.922   0.424   2.554 -0.5880 -0.7179 -1.6038
 4961TIP3   OH214846   5.838   2.527   5.671  0.0210 -0.2647 -0.1638
 4961TIP3    H114847   5.811   2.529   5.579  0.4308  2.2136 -0.3066
 4961TIP3    H214848   5.929   2.557   5.670 -0.0698  0.0928  1.0689
 4962TIP3   OH214849   3.206   1.466   3.865  0.2931  0.2056  0.0221
 4962TIP3    H114850   3.166   1.507   3.941  1.2617 -0.4056  0.8745
 4962TIP3    H214851   3.278   1.524   3.841  0.2727  0.1592 -0.1550
 4963TIP3   OH214852   6.814   0.994   0.457  0.1384  0.1417  0.2077
 4963TIP3    H114853   6.736   0.943   0.434  0.5119 -1.2591  1.8428
 4963TIP3    H214854   6.866   0.996   0.377  0.0707 -2.0278  0.0630
 4964TIP3   OH214855   2.064   2.885   1.387  0.3833 -0.0741  0.4737
 4964TIP3    H114856   1.979   2.859   1.424  0.5446 -2.1876 -0.4784
 4964TIP3    H214857   2.129   2.847   1.446  0.6410 -0.5523 -0.1042
 4965TIP3   OH214858   0.408   4.032   3.977  0.3952  0.9349  0.0955
 4965TIP3    H114859   0.333   4.013   4.033  0.1521  0.5244 -0.3527
 4965TIP3    H214860   0.373   4.087   3.907  0.2507 -0.1645 -0.7275
 4966TIP3   OH214861   7.210   0.735   2.951 -0.4764  0.0473  0.3137
 4966TIP3    H114862   7.158   0.717   2.873  0.8232 -2.4222 -0.0756
 4966TIP3    H214863   7.187   0.666   3.013 -0.2821  1.0233  1.5247
 4967TIP3   OH214864   2.547   4.346   1.416  0.6395 -0.8267  0.1803
 4967TIP3    H114865   2.631   4.300   1.417  0.8728 -0.4636 -1.0594
 4967TIP3    H214866   2.492   4.293   1.359  0.8604  0.3056 -1.1389
 4968TIP3   OH214867   3.504   5.774   0.274 -0.1102  0.1387 -0.0385
 4968TIP3    H114868   3.582   5.771   0.329 -0.5174 -0.3165  0.5257
 4968TIP3    H214869   3.520   5.845   0.212  1.0652 -0.4106 -0.3976
 4969TIP3   OH214870   3.071   3.952   3.053 -0.0651  0.0279 -0.3921
 4969TIP3    H114871   3.146   3.959   3.112 -0.0172  0.4352 -0.4993
 4969TIP3    H214872   3.102   3.987   2.970 -0.0449 -0.8147 -0.7498
 4970TIP3   OH214873   3.146   5.538   2.914  0.0196  0.2559 -0.7222
 4970TIP3    H114874   3.112   5.454   2.882 -0.2405 -0.0511  0.2972
 4970TIP3    H214875   3.087   5.604   2.877 -0.3491 -0.0911 -0.7621
 4971TIP3   OH214876   6.925   1.380   3.305  0.0539  0.3582 -0.4096
 4971TIP3    H114877   6.875   1.401   3.226 -0.7175 -0.8546 -0.2723
 4971TIP3    H214878   6.906   1.452   3.365  0.1237  0.9568 -1.0969
 4972TIP3   OH214879   4.025   5.689   3.926 -0.2983 -0.3919 -0.0052
 4972TIP3    H114880   4.026   5.633   3.849 -0.8559  0.9763 -1.0486
 4972TIP3    H214881   4.093   5.653   3.983  1.9732  0.0686 -2.2581
 4973TIP3   OH214882   0.869   5.057   1.514 -0.0045  0.6989  0.3456
 4973TIP3    H114883   0.784   5.033   1.477  0.8088 -0.7483 -0.6590
 4973TIP3    H214884   0.884   5.147   1.483 -0.7317  0.6136 -0.2869
 4974TIP3   OH214885   1.803   0.261   4.917  0.1903 -0.0141 -0.9398
 4974TIP3    H114886   1.873   0.276   4.853 -0.3180 -1.3829 -1.8618
 4974TIP3    H214887   1.727   0.307   4.880  0.2568  0.3789 -0.5950
 4975TIP3   OH214888   5.691   2.269   0.018  0.3763 -0.0953 -0.1469
 4975TIP3    H114889   5.627   2.270   0.089 -0.2194 -2.1656 -0.5774
 4975TIP3    H214890   5.639   2.264  -0.062  1.0576  1.6101 -0.7488
 4976TIP3   OH214891   6.726   3.667   0.170  0.0276 -0.1352  0.2060
 4976TIP3    H114892   6.665   3.683   0.242  0.0798  0.2793  0.1636
 4976TIP3    H214893   6.713   3.742   0.111  0.8851  0.1824  0.4077
 4977TIP3   OH214894   0.389   3.049   2.627  0.4333 -0.1113 -0.4797
 4977TIP3    H114895   0.378   3.085   2.715  1.5653 -0.9867  0.0288
 4977TIP3    H214896   0.328   2.975   2.624  0.9412 -0.5457 -0.1641
 4978TIP3   OH214897   7.111   4.282   4.763  0.5060 -0.2886  0.0563
 4978TIP3    H114898   7.190   4.270   4.814  0.6977  1.2198  0.1448
 4978TIP3    H214899   7.131   4.355   4.704  0.2924 -1.9329 -2.1840
 4979TIP3   OH214900   7.213   3.020   0.976  0.0245 -0.0251 -0.5800
 4979TIP3    H114901   7.253   2.975   1.050 -1.6894 -1.0611 -0.2191
 4979TIP3    H214902   7.149   3.079   1.015  0.9797  1.4468 -1.1490
 4980TIP3   OH214903   4.453   0.064   4.186  0.6008  0.8330 -0.3452
 4980TIP3    H114904   4.426   0.035   4.099  0.0932 -0.0382  0.0839
 4980TIP3    H214905   4.515  -0.003   4.215 -2.3055 -1.2862  1.5986
 4981TIP3   OH214906   2.871   4.886   0.902  0.2887  0.0945  0.3598
 4981TIP3    H114907   2.830   4.955   0.850  2.9330  1.9859  0.5607
 4981TIP3    H214908   2.949   4.861   0.850  0.8204 -0.8377  1.5560
 4982TIP3   OH214909   1.984   2.990   5.443  0.2432 -0.5520 -0.2560
 4982TIP3    H114910   1.950   3.009   5.531  2.5399  1.3772  0.3323
 4982TIP3    H214911   2.044   2.917   5.456  0.7394 -0.1317 -0.1708
 4983TIP3   OH214912   2.968   1.856   0.687  0.1544 -0.2249  0.3081
 4983TIP3    H114913   2.906   1.812   0.629  0.7494 -1.5546  0.6446
 4983TIP3    H214914   3.054   1.827   0.657  0.5860  0.8408  0.4565
 4984TIP3   OH214915   3.004   6.620   3.535  0.0937 -0.3891 -0.0244
 4984TIP3    H114916   3.074   6.637   3.471  0.5808  1.9632  1.0527
 4984TIP3    H214917   2.962   6.704   3.548 -2.0459 -1.4627  0.4839
 4985TIP3   OH214918   6.166   1.491   0.765 -0.2398 -0.6219  0.1097
 4985TIP3    H114919   6.223   1.568   0.770 -0.4291 -0.4540 -0.3126
 4985TIP3    H214920   6.167   1.455   0.854 -0.0479 -0.2039  0.2784
 4986TIP3   OH214921   5.731   1.053   3.123 -0.8171  0.7129 -0.5349
 4986TIP3    H114922   5.810   1.098   3.153 -2.4773  2.4976  1.5065
 4986TIP3    H214923   5.677   1.122   3.085 -2.3418 -0.0172  0.2116
 4987TIP3   OH214924   6.944   0.943   1.522 -0.3551 -0.5429  0.0039
 4987TIP3    H114925   7.014   0.941   1.456  0.8183 -0.3620  1.1964
 4987TIP3    H214926   6.964   0.869   1.579  0.6754  1.2546  2.1087
 4988TIP3   OH214927   2.999   2.561   3.438 -0.5124  0.3739 -0.1392
 4988TIP3    H114928   3.088   2.545   3.407 -0.3382  0.7985  0.1305
 4988TIP3    H214929   2.947   2.571   3.358 -0.2279  0.6006 -0.2967
 4989TIP3   OH214930   1.883   4.483   1.003  0.0290 -0.0414 -0.5221
 4989TIP3    H114931   1.805   4.524   1.042  1.0533  0.0902  1.5115
 4989TIP3    H214932   1.951   4.550   1.009  0.5159 -0.4307 -1.5508
 4990TIP3   OH214933   4.532   0.299   3.313 -0.1483 -0.5352  0.6885
 4990TIP3    H114934   4.478   0.252   3.377 -2.5693 -1.6229 -1.9373
 4990TIP3    H214935   4.540   0.238   3.240  1.8175  0.9358 -0.4023
 4991TIP3   OH214936   3.044   5.716   1.819 -0.7443  0.1948 -0.6144
 4991TIP3    H114937   3.010   5.659   1.888  0.2398  0.3123 -0.0165
 4991TIP3    H214938   3.063   5.799   1.863  4.5953 -1.1501  0.2640
 4992TIP3   OH214939   3.997   4.200   5.132  0.2063 -0.2348  0.1402
 4992TIP3    H114940   4.056   4.175   5.203 -2.7624 -1.5611  2.3404
 4992TIP3    H214941   3.952   4.278   5.165 -0.3149 -0.1026 -0.8457
 4993TIP3   OH214942   5.961   2.786   0.852 -0.1339 -0.4704  0.2157
 4993TIP3    H114943   5.907   2.768   0.775 -0.5944  0.2698  0.3486
 4993TIP3    H214944   6.012   2.706   0.865 -2.1726 -1.7557  0.8771
 4994TIP3   OH214945   3.362   5.844   0.904  0.3552 -0.1374  0.0677
 4994TIP3    H114946   3.314   5.925   0.922 -1.4031 -0.9756 -0.6214
 4994TIP3    H214947   3.444   5.872   0.864  0.7656  1.3771  1.8464
 4995TIP3   OH214948   6.614   0.501   3.088 -0.4246 -0.4109  0.8490
 4995TIP3    H114949   6.673   0.556   3.139  0.2386  1.3878 -1.6696
 4995TIP3    H214950   6.667   0.426   3.062 -0.6427 -1.1190  2.3425
 4996TIP3   OH214951   6.146   3.745   5.768 -0.2434 -0.4645  0.4703
 4996TIP3    H114952   6.107   3.720   5.684  0.5526 -0.7781  0.1748
 4996TIP3    H214953   6.126   3.838   5.778 -2.6316 -1.0113  1.2291
 4997TIP3   OH214954   4.791   1.094   3.626  0.1741  0.2716 -0.2145
 4997TIP3    H114955   4.731   1.079   3.553 -0.1345  0.9740 -0.1111
 4997TIP3    H214956   4.839   1.012   3.635 -2.2183 -1.0886  1.0350
 4998TIP3   OH214957   5.872   3.768   2.346  0.2787 -0.4559  0.0787
 4998TIP3    H114958   5.948   3.792   2.293  1.1120  3.1224  2.5378
 4998TIP3    H214959   5.904   3.698   2.403  1.9911  1.2645  1.3527
 4999TIP3   OH214960   2.994   4.954   1.719 -0.1895 -0.4900 -0.0652
 4999TIP3    H114961   3.039   4.916   1.644  0.2639  0.4850 -0.2958
 4999TIP3    H214962   3.064   4.973   1.781 -0.1116  1.9715 -0.8270
 5000TIP3   OH214963   3.883   0.423   2.058  0.1540  0.1936  0.8946
 5000TIP3    H114964   3.821   0.486   2.020 -0.1130 -0.4229  0.2853
 5000TIP3    H214965   3.832   0.376   2.125 -0.0474 -0.3233  0.3836
 5001TIP3   OH214966   2.106   2.662   0.911 -0.1749 -0.5583 -0.1235
 5001TIP3    H114967   2.131   2.589   0.969 -0.8064 -0.5558  0.1614
 5001TIP3    H214968   2.011   2.661   0.912 -0.1871 -0.1553 -0.6722
 5002TIP3   OH214969   0.686   5.595   3.397  0.5197 -0.7197  0.9850
 5002TIP3    H114970   0.656   5.624   3.483  1.0198  0.8824  0.6402
 5002TIP3    H214971   0.727   5.672   3.358 -1.2080 -0.8894 -1.3928
 5003TIP3   OH214972   5.628   1.943   0.611  0.4822  0.4645  0.7430
 5003TIP3    H114973   5.682   1.915   0.537 -1.0817 -0.3412 -0.1393
 5003TIP3    H214974   5.641   1.874   0.677 -1.6658 -1.3646 -0.5931
 5004TIP3   OH214975   0.090   0.373   3.463  0.0570  0.3849 -0.1518
 5004TIP3    H114976   0.019   0.390   3.402  0.6052  2.2210 -0.3247
 5004TIP3    H214977   0.047   0.337   3.540 -0.8715  0.0095 -0.8271
 5005TIP3   OH214978   6.175   4.318   2.121  0.0177  0.8397 -0.4385
 5005TIP3    H114979   6.221   4.253   2.068 -0.2474 -1.6561  2.1274
 5005TIP3    H214980   6.091   4.277   2.142  0.1570  1.5950  1.9299
 5006TIP3   OH214981   4.471   0.676   3.827 -0.5422  0.1295 -0.1903
 5006TIP3    H114982   4.532   0.685   3.900  0.3950  1.4506 -1.0838
 5006TIP3    H214983   4.486   0.587   3.795  0.7067  0.3097 -0.1757
 5007TIP3   OH214984   3.704   5.166   4.591 -0.0575 -0.3428  0.4353
 5007TIP3    H114985   3.741   5.184   4.678  0.8513 -0.2053  0.0309
 5007TIP3    H214986   3.628   5.110   4.609  0.1868 -0.4157  1.3120
 5008TIP3   OH214987   2.140   2.812   0.369 -0.2145 -0.2389 -0.5136
 5008TIP3    H114988   2.154   2.847   0.282  3.3112  0.1229  0.0610
 5008TIP3    H214989   2.222   2.768   0.392 -2.1895 -3.4036  1.3227
 5009TIP3   OH214990   2.478   6.139   5.034 -0.1100  0.6845 -0.4798
 5009TIP3    H114991   2.568   6.157   5.061 -0.1251  0.8068 -0.5080
 5009TIP3    H214992   2.478   6.153   4.939 -0.1012  0.4415 -0.5161
 5010TIP3   OH214993   6.949   6.404   3.148 -0.1522  0.2905 -0.3586
 5010TIP3    H114994   6.951   6.315   3.183 -1.1882  0.4490  0.1270
 5010TIP3    H214995   6.886   6.450   3.203 -2.2907  0.4239 -2.7148
 5011TIP3   OH214996   6.149   0.099   5.371 -0.3071 -0.6050 -0.0808
 5011TIP3    H114997   6.131   0.188   5.401  0.6824 -0.3237 -0.2899
 5011TIP3    H214998   6.188   0.110   5.284  2.1281 -1.0539  0.8589
 5012TIP3   OH214999   5.536   6.212   0.709  0.0554  0.0094  0.4968
 5012TIP3    H115000   5.489   6.170   0.781  0.2986 -0.7833  0.2023
 5012TIP3    H215001   5.489   6.184   0.630  1.4624 -1.4520  0.1299
 5013TIP3   OH215002   5.378   5.752   4.066  0.4287 -0.3029 -0.2615
 5013TIP3    H115003   5.356   5.835   4.110 -0.3631  0.5923 -2.2545
 5013TIP3    H215004   5.474   5.748   4.071  0.4368  0.3944  0.4331
 5014TIP3   OH215005   3.646   3.521   3.588  0.1411 -0.8153 -0.6503
 5014TIP3    H115006   3.561   3.480   3.606 -0.5417 -0.0548 -1.9969
 5014TIP3    H215007   3.659   3.507   3.494  1.0352 -0.0368 -0.6497
 5015TIP3   OH215008   5.746   0.106   4.184 -0.7038 -0.6588 -0.4659
 5015TIP3    H115009   5.716   0.186   4.142 -0.3046  0.5616  1.4299
 5015TIP3    H215010   5.813   0.071   4.125 -1.2791  0.0956 -1.5924
 5016TIP3   OH215011   6.214   1.198   1.290  0.4416  0.8864 -0.5175
 5016TIP3    H115012   6.284   1.195   1.355  0.2365 -0.3717 -0.3201
 5016TIP3    H215013   6.258   1.180   1.207  0.5125  1.2214 -0.5545
 5017TIP3   OH215014   1.747   2.414   2.630 -0.0003 -0.0724 -0.4698
 5017TIP3    H115015   1.693   2.338   2.610  1.6556 -1.0155 -1.5925
 5017TIP3    H215016   1.702   2.487   2.587 -1.1079 -0.5698 -0.1829
 5018TIP3   OH215017   1.295   4.609   3.420  0.3612  0.3747 -0.7593
 5018TIP3    H115018   1.225   4.662   3.382  0.7060  0.9331 -0.6354
 5018TIP3    H215019   1.369   4.622   3.360  0.2197 -0.6006 -1.1585
 5019TIP3   OH215020   4.172   0.983   1.781  0.1702 -0.2825  0.6529
 5019TIP3    H115021   4.142   1.060   1.733  1.4028  0.7244  1.4477
 5019TIP3    H215022   4.091   0.942   1.813 -0.4738  1.5147  1.4712
 5020TIP3   OH215023   4.442   0.486   3.608  0.5225  0.2539  0.2170
 5020TIP3    H115024   4.356   0.528   3.612  0.4472  0.0826  0.4142
 5020TIP3    H215025   4.423   0.394   3.586  0.4925 -0.3099  2.3806
 5021TIP3   OH215026   3.709   6.330   4.680 -0.4171  0.1780  0.2407
 5021TIP3    H115027   3.624   6.374   4.674 -0.1740  0.7751  0.9938
 5021TIP3    H215028   3.704   6.259   4.615 -0.7825  1.3627 -1.0848
 5022TIP3   OH215029   3.689   3.679   4.845 -0.0671 -0.2069  0.1367
 5022TIP3    H115030   3.638   3.651   4.769  0.0936  0.0126 -0.0524
 5022TIP3    H215031   3.761   3.616   4.849 -0.9108 -1.1681  1.0292
 5023TIP3   OH215032   5.725   2.260   4.301  0.1637  0.8506  0.0937
 5023TIP3    H115033   5.795   2.282   4.362  0.1261 -1.2554  0.9923
 5023TIP3    H215034   5.767   2.206   4.234 -0.4482  0.0815  0.3053
 5024TIP3   OH215035   1.569   0.061   2.330  0.0144  0.1655  0.1193
 5024TIP3    H115036   1.496   0.036   2.388  0.2689  2.3398  1.5121
 5024TIP3    H215037   1.527   0.075   2.245 -1.2562  1.3373  0.8803
 5025TIP3   OH215038   5.485   3.119   2.128  0.3397  0.3841  0.4168
 5025TIP3    H115039   5.557   3.170   2.166  0.5757 -0.9071  1.7735
 5025TIP3    H215040   5.408   3.174   2.139  0.7188  0.7720  1.1549
 5026TIP3   OH215041   3.022   5.592   5.724  0.5447  0.9736  0.1609
 5026TIP3    H115042   3.074   5.605   5.803  0.6796  0.4128  0.1660
 5026TIP3    H215043   2.943   5.643   5.739  0.5039  0.7546  0.7218
 5027TIP3   OH215044   1.836   3.563   2.281 -0.1957  0.2276  0.2802
 5027TIP3    H115045   1.899   3.512   2.333  0.0239  0.0105 -0.1932
 5027TIP3    H215046   1.756   3.511   2.284  0.4178 -0.8746 -1.3550
 5028TIP3   OH215047   6.346   3.190   2.147  0.4526  0.1182  0.0229
 5028TIP3    H115048   6.283   3.120   2.163  2.6894 -1.6502  1.7173
 5028TIP3    H215049   6.372   3.178   2.055 -1.7598  1.0724 -0.8076
 5029TIP3   OH215050   0.256   2.115   1.489  0.2107 -0.3926  0.0925
 5029TIP3    H115051   0.213   2.179   1.546  0.1602 -0.6452  0.3383
 5029TIP3    H215052   0.199   2.038   1.491  0.3759 -0.5207 -0.0394
 5030TIP3   OH215053   4.660   6.592   2.827  0.3281 -0.2156  0.2246
 5030TIP3    H115054   4.586   6.598   2.767  0.7018 -0.6908 -0.2940
 5030TIP3    H215055   4.620   6.578   2.913 -0.3491  2.8832  0.5561
 5031TIP3   OH215056   0.295   5.472   3.764  0.1646  0.4661 -0.4308
 5031TIP3    H115057   0.323   5.432   3.681 -1.2172 -1.6095  0.0199
 5031TIP3    H215058   0.355   5.436   3.829  1.7568  2.7023 -0.5385
 5032TIP3   OH215059   3.034   6.316   3.868 -0.0135  0.2815  0.6872
 5032TIP3    H115060   3.070   6.263   3.938  1.8502 -0.9160 -1.0737
 5032TIP3    H215061   2.939   6.304   3.875  0.1790 -0.5311  2.3886
 5033TIP3   OH215062   1.382   1.564   4.897  0.0273  0.3378  0.2743
 5033TIP3    H115063   1.382   1.639   4.837 -0.4453  0.1776  0.0662
 5033TIP3    H215064   1.351   1.491   4.843  3.8642 -0.8850 -0.5813
 5034TIP3   OH215065   5.368   0.446   4.662  0.0333 -0.2880  0.4234
 5034TIP3    H115066   5.414   0.463   4.580 -0.7787  2.6505  0.4545
 5034TIP3    H215067   5.292   0.393   4.637 -0.7566  1.3925 -0.9700
 5035TIP3   OH215068   0.611   3.666   3.401  0.4774 -0.1633 -0.5655
 5035TIP3    H115069   0.688   3.720   3.384  0.7598 -0.3117  0.2167
 5035TIP3    H215070   0.537   3.727   3.396  0.8497  0.4582  1.0183
 5036TIP3   OH215071   5.740   1.526   4.753  0.4039  0.1210  0.4168
 5036TIP3    H115072   5.714   1.603   4.704  0.1365  0.6762  1.4133
 5036TIP3    H215073   5.660   1.474   4.760 -0.3842  1.5196  2.9147
 5037TIP3   OH215074   2.995   0.416   0.352  0.5848  0.7494  0.3288
 5037TIP3    H115075   2.989   0.504   0.315  3.5927  0.8935 -0.0689
 5037TIP3    H215076   2.932   0.364   0.302 -2.1143  2.8024  1.3431
 5038TIP3   OH215077   3.640   3.718   2.449  0.3748 -0.3946 -0.0973
 5038TIP3    H115078   3.656   3.653   2.518 -0.9192  0.0015  0.5963
 5038TIP3    H215079   3.545   3.723   2.441  0.3925  2.1127  0.5438
 5039TIP3   OH215080   0.915   4.502   4.559  0.2586  0.4208 -0.0184
 5039TIP3    H115081   0.964   4.476   4.636 -0.0203 -1.2722 -0.3721
 5039TIP3    H215082   0.824   4.485   4.581  0.1498  0.2147 -0.5888
 5040TIP3   OH215083   3.366   4.535   5.577 -0.1805  0.5206  0.0372
 5040TIP3    H115084   3.362   4.582   5.660 -0.9591  0.9135 -0.2050
 5040TIP3    H215085   3.457   4.539   5.551 -0.0160  0.8173  0.6358
 5041TIP3   OH215086   6.855   2.541   5.581 -0.4313 -0.0310  0.4699
 5041TIP3    H115087   6.811   2.541   5.666 -0.9384 -1.8716  0.2556
 5041TIP3    H215088   6.799   2.595   5.525 -2.7673 -2.5973  0.1124
 5042TIP3   OH215089   4.265   5.421   4.409 -0.3316  0.6913 -0.2985
 5042TIP3    H115090   4.286   5.364   4.484 -1.1321  1.2716  0.3875
 5042TIP3    H215091   4.326   5.393   4.341 -0.7345 -1.0340 -0.0057
 5043TIP3   OH215092   6.145   0.073   2.926  0.3987  1.1914 -0.1067
 5043TIP3    H115093   6.071   0.057   2.868  0.1866  3.4046 -0.5106
 5043TIP3    H215094   6.118   0.036   3.010 -0.0433 -0.3809 -0.8935
 5044TIP3   OH215095   5.158   4.884   4.460  0.1677  0.3832  0.0277
 5044TIP3    H115096   5.237   4.857   4.507  0.2370  1.1324  0.3530
 5044TIP3    H215097   5.127   4.961   4.507 -1.1573 -0.2921  0.3277
 5045TIP3   OH215098   0.472   5.363   3.954 -0.3418  0.2031  0.0254
 5045TIP3    H115099   0.561   5.338   3.930 -0.0332  1.5319 -0.2526
 5045TIP3    H215100   0.447   5.300   4.022  0.5057 -0.6685 -0.4552
 5046TIP3   OH215101   3.984   3.270   2.053 -0.5955  0.0453 -0.3201
 5046TIP3    H115102   4.032   3.265   1.970  0.1672 -2.3303  0.1793
 5046TIP3    H215103   4.005   3.356   2.088 -0.0958  0.6797 -2.0939
 5047TIP3   OH215104   1.165   2.193   5.311  0.3676 -0.0421  0.2736
 5047TIP3    H115105   1.073   2.209   5.291  0.7668  0.9204 -0.8927
 5047TIP3    H215106   1.189   2.120   5.253  0.3870 -0.2030  0.4809
 5048TIP3   OH215107   6.867   2.877   1.002  0.3166  0.2911  0.1861
 5048TIP3    H115108   6.918   2.803   0.969  1.6665  0.8993  0.8271
 5048TIP3    H215109   6.881   2.874   1.097 -0.1454  0.9795  0.2785
 5049TIP3   OH215110   6.441   2.554   5.629  0.1602 -0.3384 -0.4502
 5049TIP3    H115111   6.373   2.621   5.629  2.3996  2.1189  0.0299
 5049TIP3    H215112   6.432   2.511   5.544 -0.6695  1.3845 -1.2867
 5050TIP3   OH215113   4.311   1.750   3.533 -0.3668 -0.2830 -0.1843
 5050TIP3    H115114   4.385   1.713   3.485  2.1117  2.1244  1.4821
 5050TIP3    H215115   4.315   1.844   3.516 -2.4512  0.0531  0.7907
 5051TIP3   OH215116   0.400   2.973   3.098  0.6019 -0.3260 -0.3938
 5051TIP3    H115117   0.344   3.048   3.121  0.2962 -0.6402 -0.1053
 5051TIP3    H215118   0.441   2.999   3.015 -2.3792 -1.3383 -2.3243
 5052TIP3   OH215119   5.964   4.903   3.211 -0.3934 -0.7865 -0.1425
 5052TIP3    H115120   5.899   4.888   3.279 -0.2895 -0.5115  0.0207
 5052TIP3    H215121   5.979   4.817   3.172 -0.5160 -0.9308  0.1267
 5053TIP3   OH215122   5.111   3.376   4.591 -0.1060 -0.2529 -0.0236
 5053TIP3    H115123   5.078   3.286   4.584 -0.6151  0.0258 -2.0738
 5053TIP3    H215124   5.192   3.376   4.540 -0.8173  0.7168 -1.2260
 5054TIP3   OH215125   0.709   1.549   1.515 -0.3137  0.1520  0.7085
 5054TIP3    H115126   0.776   1.508   1.570 -0.2051 -0.2380  0.2944
 5054TIP3    H215127   0.737   1.640   1.506  0.1191  0.0126  0.6053
 5055TIP3   OH215128   5.247   5.000   2.818 -0.3512  0.2889  0.2819
 5055TIP3    H115129   5.314   4.988   2.751 -0.4689 -0.5283  0.2999
 5055TIP3    H215130   5.228   5.094   2.817 -0.2140  0.3089 -0.6925
 5056TIP3   OH215131   3.254   1.629   2.057 -0.4610 -0.3252 -0.5517
 5056TIP3    H115132   3.225   1.620   2.148  2.1866  2.3257  0.7297
 5056TIP3    H215133   3.173   1.629   2.006 -2.2405  0.6688  2.0615
 5057TIP3   OH215134   1.376   1.495   5.645 -0.0627 -0.0117 -0.7353
 5057TIP3    H115135   1.358   1.509   5.738 -2.4262 -1.4538 -0.8977
 5057TIP3    H215136   1.448   1.432   5.644 -0.1761 -0.1721  0.1445
 5058TIP3   OH215137   0.226   6.636   1.756  0.2033 -0.3463  0.2416
 5058TIP3    H115138   0.147   6.601   1.797 -0.3935  0.5325 -0.1263
 5058TIP3    H215139   0.295   6.575   1.781 -0.7913 -1.7897 -0.3999
 5059TIP3   OH215140   7.059   0.583   5.724  0.6099 -0.0312  0.2428
 5059TIP3    H115141   6.977   0.620   5.690  1.3960  0.1956 -1.4936
 5059TIP3    H215142   7.034   0.545   5.808 -1.3277 -0.1587 -0.3298
 5060TIP3   OH215143   1.975   6.128   4.271 -0.1164  0.1313  0.1476
 5060TIP3    H115144   2.018   6.213   4.262 -2.0223  1.4402  2.3118
 5060TIP3    H215145   1.887   6.142   4.236 -1.3185 -0.0789  2.8110
 5061TIP3   OH215146   1.398   0.133   1.861 -0.2808 -0.3992  0.6485
 5061TIP3    H115147   1.440   0.101   1.782  1.0642  1.6547  0.4539
 5061TIP3    H215148   1.310   0.160   1.833  0.0930  0.0662 -0.1029
 5062TIP3   OH215149   7.091   0.009   0.804 -0.0439  0.0224 -0.0764
 5062TIP3    H115150   7.142   0.030   0.882  0.7653 -0.8197 -0.3632
 5062TIP3    H215151   7.022   0.076   0.802 -0.3137 -0.1520  1.5520
 5063TIP3   OH215152   5.402   3.354   1.073 -0.3228 -0.3251 -0.5419
 5063TIP3    H115153   5.342   3.425   1.094  0.5330  0.3400 -0.2854
 5063TIP3    H215154   5.407   3.355   0.977 -0.2768  0.0023 -0.5384
 5064TIP3   OH215155   4.231   3.323   3.829 -0.0940  0.1104  0.1692
 5064TIP3    H115156   4.198   3.248   3.780  0.3489 -0.4409  0.7041
 5064TIP3    H215157   4.206   3.399   3.776 -0.3793 -0.4198 -0.4720
 5065TIP3   OH215158   1.278   6.000   3.615 -0.3467  0.4795 -0.0131
 5065TIP3    H115159   1.230   5.953   3.683 -1.2277  1.8908  0.3792
 5065TIP3    H215160   1.219   6.000   3.540  0.2870 -0.3523 -0.5317
 5066TIP3   OH215161   4.382   2.021   4.494 -0.5648 -0.4556  0.2356
 5066TIP3    H115162   4.307   1.973   4.528 -1.3260  1.0985  0.8647
 5066TIP3    H215163   4.379   2.106   4.538  0.2833  0.4632 -1.3499
 5067TIP3   OH215164   5.724   4.494   5.305  0.2440  0.1535 -0.4151
 5067TIP3    H115165   5.737   4.586   5.283  1.6985  0.2593  0.7466
 5067TIP3    H215166   5.630   4.486   5.323  0.0745  1.3556 -0.6917
 5068TIP3   OH215167   6.082   4.833   5.527  0.0166  0.0648 -0.4291
 5068TIP3    H115168   6.123   4.891   5.591  1.4276 -1.4422  0.0749
 5068TIP3    H215169   6.018   4.783   5.577 -0.4677  0.4305 -0.6663
 5069TIP3   OH215170   5.238   3.471   0.279  0.5186 -0.8691  0.2488
 5069TIP3    H115171   5.200   3.396   0.324  0.1619 -0.5990  0.3970
 5069TIP3    H215172   5.264   3.436   0.193  1.2304 -1.3906  0.6629
 5070TIP3   OH215173   5.223   0.948   1.454  0.8301 -0.7047  0.4194
 5070TIP3    H115174   5.183   0.986   1.376  0.2168 -1.3885  0.3842
 5070TIP3    H215175   5.313   0.978   1.453  0.4903  0.3339  0.1346
 5071TIP3   OH215176   4.956   4.193   5.823  0.3476 -0.2244 -0.7224
 5071TIP3    H115177   4.892   4.126   5.799 -0.5420  0.4097 -0.1796
 5071TIP3    H215178   4.964   4.247   5.744  1.4779 -1.2680 -1.3433
 5072TIP3   OH215179   0.766   2.104   4.362  0.2711 -0.2511  0.2400
 5072TIP3    H115180   0.687   2.147   4.397 -0.0874 -3.1704  3.6014
 5072TIP3    H215181   0.838   2.145   4.410  0.2868 -0.7769  0.6781
 5073TIP3   OH215182   0.108   6.004   2.416  0.3288 -0.0975 -0.3023
 5073TIP3    H115183   0.030   5.949   2.430  0.3469  0.0610  0.4428
 5073TIP3    H215184   0.080   6.068   2.351 -0.5857  0.7691  0.8970
 5074TIP3   OH215185   1.955   2.156   0.424  0.8514 -0.0870 -0.2651
 5074TIP3    H115186   1.992   2.068   0.414  1.7109  0.4550 -2.1397
 5074TIP3    H215187   1.860   2.142   0.424  0.9834 -1.0480 -0.0311
 5075TIP3   OH215188   3.987   6.334   4.580 -0.1318  0.1116 -0.6691
 5075TIP3    H115189   4.050   6.394   4.619  0.7180 -1.5030  0.5534
 5075TIP3    H215190   3.911   6.338   4.639  0.6840 -1.4300  0.5269
 5076TIP3   OH215191   1.942   1.910   0.712 -0.0286  0.6489  0.0616
 5076TIP3    H115192   1.850   1.938   0.710 -0.4061 -0.5228  0.0024
 5076TIP3    H215193   1.992   1.991   0.711 -1.0637  1.3051 -0.2502
 5077TIP3   OH215194   0.569   0.290   1.368  1.1030 -0.0191 -0.1883
 5077TIP3    H115195   0.497   0.322   1.422  0.8175  1.0023 -1.1476
 5077TIP3    H215196   0.587   0.202   1.402 -0.5970 -0.2986  0.0669
 5078TIP3   OH215197   1.467   1.950   2.251  0.1954  0.1397 -0.3949
 5078TIP3    H115198   1.454   2.040   2.221  0.9740  0.3003 -0.2647
 5078TIP3    H215199   1.387   1.904   2.225  1.0585  0.1103 -3.3846
 5079TIP3   OH215200   5.306   6.191   1.096  0.1726 -0.0268  0.2830
 5079TIP3    H115201   5.244   6.186   1.023 -1.5675  0.8835  1.5936
 5079TIP3    H215202   5.250   6.207   1.173  2.1119  1.9805  1.4023
 5080TIP3   OH215203   5.471   3.174   0.416 -0.2571 -0.7068  0.2394
 5080TIP3    H115204   5.535   3.106   0.396  1.0576  0.6622 -0.4218
 5080TIP3    H215205   5.523   3.247   0.449 -1.0214  1.5706 -3.0528
 5081TIP3   OH215206   1.248   4.740   1.116 -0.4475  0.2533 -0.0543
 5081TIP3    H115207   1.212   4.707   1.198  2.2182  1.0785  1.5629
 5081TIP3    H215208   1.248   4.664   1.058  0.3367 -1.1760  1.7113
 5082TIP3   OH215209   1.684   0.767   4.551 -0.5034 -0.3790 -0.3410
 5082TIP3    H115210   1.696   0.850   4.597  1.8577 -1.1113  0.4771
 5082TIP3    H215211   1.619   0.720   4.604  0.1569 -0.1189  0.7315
 5083TIP3   OH215212   2.988   1.678   3.049  0.0865 -0.5716 -0.3963
 5083TIP3    H115213   2.976   1.745   3.117 -2.3792 -0.2951 -0.9947
 5083TIP3    H215214   3.007   1.727   2.970  0.8800 -0.7665 -0.3337
 5084TIP3   OH215215   1.098   3.304   3.650 -0.4962  0.1400  0.0888
 5084TIP3    H115216   1.013   3.293   3.693 -0.0027  0.2056  1.1083
 5084TIP3    H215217   1.159   3.321   3.721  0.2633  0.7733 -0.6871
 5085TIP3   OH215218   4.306   4.745   1.045  0.1164 -0.0106  0.1285
 5085TIP3    H115219   4.388   4.783   1.078  0.1874  0.0633 -0.1328
 5085TIP3    H215220   4.237   4.791   1.093  0.1824  0.7634 -0.4902
 5086TIP3   OH215221   1.682   1.537   0.860 -0.0268 -0.4378  0.2239
 5086TIP3    H115222   1.699   1.449   0.827  1.1920 -0.7027  1.4641
 5086TIP3    H215223   1.702   1.595   0.786 -0.2706 -1.1521 -0.4144
 5087TIP3   OH215224   4.428   1.308   4.660  0.3035 -0.0774 -0.0321
 5087TIP3    H115225   4.482   1.385   4.642 -0.5385  0.6367  0.4406
 5087TIP3    H215226   4.491   1.237   4.674  1.1104  0.6986  0.3316
 5088TIP3   OH215227   2.920   0.610   3.680  0.0499  0.6640 -0.1272
 5088TIP3    H115228   2.975   0.583   3.753  0.0343  0.8716 -0.0392
 5088TIP3    H215229   2.978   0.608   3.604 -0.3937 -1.5624 -0.5060
 5089TIP3   OH215230   3.031   1.488   5.672  0.1975  0.1059 -0.6517
 5089TIP3    H115231   2.980   1.498   5.592 -1.3915 -3.3582 -0.2609
 5089TIP3    H215232   3.097   1.422   5.651  0.7221  0.2254  0.5034
 5090TIP3   OH215233   3.872   0.955   0.955 -0.1277  0.3308  0.6358
 5090TIP3    H115234   3.805   0.903   0.910  0.2096  0.3861  0.0681
 5090TIP3    H215235   3.942   0.966   0.891  1.4539 -1.6184  1.9119
 5091TIP3   OH215236   1.010   4.773   5.789 -0.5588 -0.4115  0.4337
 5091TIP3    H115237   1.018   4.725   5.872  0.7703 -2.7374 -0.9491
 5091TIP3    H215238   1.091   4.754   5.742 -0.4831  2.3312 -0.7260
 5092TIP3   OH215239   3.306   0.793   2.775 -0.1966 -0.0465  0.2705
 5092TIP3    H115240   3.317   0.724   2.841  0.9227 -0.3388 -0.2102
 5092TIP3    H215241   3.224   0.836   2.799  1.3553  1.5301  3.4303
 5093TIP3   OH215242   2.131   0.639   5.518 -0.5249  0.4524 -0.4021
 5093TIP3    H115243   2.100   0.632   5.608  0.6754 -0.7290 -0.0367
 5093TIP3    H215244   2.199   0.707   5.521  0.5108 -0.5606 -0.0803
 5094TIP3   OH215245   1.603   3.389   2.299  0.3120 -0.2332  0.0848
 5094TIP3    H115246   1.569   3.435   2.376  0.1417 -0.7029  0.2958
 5094TIP3    H215247   1.547   3.419   2.227  1.0565  0.9144 -0.0391
 5095TIP3   OH215248   5.275   6.296   4.302 -0.0868 -0.0089  0.2210
 5095TIP3    H115249   5.332   6.319   4.375 -0.2900 -1.2175  0.7937
 5095TIP3    H215250   5.229   6.217   4.332 -0.0965 -0.5894 -1.2507
 5096TIP3   OH215251   5.598   0.728   3.608 -0.2266 -0.6020 -0.7991
 5096TIP3    H115252   5.563   0.812   3.577  3.7588  1.5822 -0.0315
 5096TIP3    H215253   5.625   0.682   3.528  2.5729  1.4364 -1.1745
 5097TIP3   OH215254   5.315   2.915   0.453 -0.1131 -0.0681 -0.1486
 5097TIP3    H115255   5.397   2.961   0.469 -0.4075  0.1868  0.7032
 5097TIP3    H215256   5.331   2.862   0.376  1.0915 -0.5913  0.4461
 5098TIP3   OH215257   4.822   4.433   1.273 -0.3743  0.1444  0.3039
 5098TIP3    H115258   4.855   4.345   1.291  3.3313  1.7019  2.1552
 5098TIP3    H215259   4.836   4.445   1.179 -0.3222 -0.9720  0.1559
 5099TIP3   OH215260   2.055   5.258   0.889  0.2033  0.4516 -0.0204
 5099TIP3    H115261   2.075   5.304   0.808  0.1884  1.0246  0.2968
 5099TIP3    H215262   2.025   5.326   0.949  1.1234  0.1735  0.7701
 5100TIP3   OH215263   2.202   5.686   3.583  0.0979 -0.2780  0.4691
 5100TIP3    H115264   2.140   5.752   3.614 -0.9337 -0.2982 -1.4154
 5100TIP3    H215265   2.147   5.615   3.548  1.1284 -0.2030 -1.4470
 5101TIP3   OH215266   4.337   5.458   0.516  0.2203 -0.3429  0.0376
 5101TIP3    H115267   4.390   5.532   0.544 -0.1603  0.5430 -1.4668
 5101TIP3    H215268   4.287   5.433   0.594  1.0591  0.3596  0.8167
 5102TIP3   OH215269   6.906   2.012   1.565 -0.6510  0.2331  0.2606
 5102TIP3    H115270   6.815   2.038   1.551 -0.5824  0.5340  0.3620
 5102TIP3    H215271   6.956   2.094   1.559 -0.2456 -0.0739 -0.9897
 5103TIP3   OH215272   6.545   2.049   2.741  0.0864 -0.1810  0.3878
 5103TIP3    H115273   6.498   2.099   2.807  0.8103 -0.5469  1.2078
 5103TIP3    H215274   6.568   2.114   2.673  0.8457  0.5845  1.3366
 5104TIP3   OH215275   2.975   5.122   4.781 -0.1012  0.4547  0.1987
 5104TIP3    H115276   2.996   5.098   4.691 -0.3289  1.6366 -0.1808
 5104TIP3    H215277   2.879   5.118   4.784 -0.0536 -0.6322  0.7009
 5105TIP3   OH215278   6.761   2.557   0.994  0.0049 -0.0558  0.2714
 5105TIP3    H115279   6.741   2.620   1.063  0.4890 -1.4887  1.7904
 5105TIP3    H215280   6.853   2.572   0.974  0.3159 -0.6999  1.1370
 5106TIP3   OH215281   2.800   2.661   4.313 -0.0200 -0.1450  0.1774
 5106TIP3    H115282   2.871   2.676   4.376 -0.7224  0.4802  0.8238
 5106TIP3    H215283   2.842   2.610   4.243  0.9465 -0.2225  0.7880
 5107TIP3   OH215284   4.671   5.920   0.267  0.0710 -0.0331 -0.2595
 5107TIP3    H115285   4.686   5.939   0.175 -1.1691  1.0434 -0.2705
 5107TIP3    H215286   4.724   5.985   0.314  0.5563 -0.4593 -0.2203
 5108TIP3   OH215287   6.130   5.276   5.646 -0.0133 -0.4797 -0.0218
 5108TIP3    H115288   6.050   5.239   5.683  0.1568  0.7397  1.6952
 5108TIP3    H215289   6.101   5.329   5.572 -0.5665 -1.5613 -0.5977
 5109TIP3   OH215290   3.358   6.554   1.420 -0.3083 -0.3967  0.5740
 5109TIP3    H115291   3.445   6.592   1.411 -0.2148 -0.8710 -0.8772
 5109TIP3    H215292   3.374   6.459   1.422 -0.8764 -0.6270 -2.0726
 5110TIP3   OH215293   4.986   0.675   1.958 -0.2266  0.1759  0.5388
 5110TIP3    H115294   4.945   0.761   1.956  1.3425  0.9273 -0.2865
 5110TIP3    H215295   5.038   0.675   2.039 -1.1389 -0.4757  1.1579
 5111TIP3   OH215296   7.033   2.441   2.064  0.1351 -0.5577  0.1358
 5111TIP3    H115297   7.038   2.508   1.996  1.0216 -0.2821  0.4632
 5111TIP3    H215298   7.111   2.454   2.118 -1.5593  0.5800  2.4958
 5112TIP3   OH215299   0.272   3.174   3.435  0.5127 -0.0312  0.3959
 5112TIP3    H115300   0.277   3.181   3.339 -0.5940 -1.1579  0.2189
 5112TIP3    H215301   0.356   3.207   3.466  0.1223  2.3335 -0.8321
 5113TIP3   OH215302   2.615   4.330   0.607  0.1055  0.0840 -0.3441
 5113TIP3    H115303   2.661   4.282   0.537  0.1206 -0.3279 -0.0566
 5113TIP3    H215304   2.632   4.279   0.686 -0.6036  0.0867 -0.1796
 5114TIP3   OH215305   5.934   1.328   5.850 -0.1715  0.2164 -0.2186
 5114TIP3    H115306   5.865   1.324   5.916 -1.0873 -1.5609 -1.1715
 5114TIP3    H215307   6.005   1.276   5.886  0.5441  1.7118  0.5914
 5115TIP3   OH215308   0.915   1.796   5.293  0.2277  0.5648 -0.9619
 5115TIP3    H115309   0.880   1.825   5.208  0.3279  0.6507 -0.9736
 5115TIP3    H215310   0.920   1.701   5.285 -0.3516  0.5206 -0.8288
 5116TIP3   OH215311   3.974   6.092   2.984  0.1358 -0.0941 -0.4029
 5116TIP3    H115312   3.959   6.034   3.059 -0.3471  0.2210 -0.2488
 5116TIP3    H215313   3.889   6.135   2.971  0.0816 -0.4910 -1.4218
 5117TIP3   OH215314   3.821   2.732   4.685  0.1622  0.3663 -0.0689
 5117TIP3    H115315   3.772   2.686   4.618  0.6612 -1.7548  0.9392
 5117TIP3    H215316   3.905   2.754   4.643 -0.5125  1.4738 -0.9068
 5118TIP3   OH215317   1.590   0.687   1.786  0.4768  0.2857  0.4314
 5118TIP3    H115318   1.563   0.595   1.783  1.4649  0.0048 -0.6179
 5118TIP3    H215319   1.684   0.684   1.801  0.4916  1.1416  0.5652
 5119TIP3   OH215320   6.619   5.845   2.181  0.0967 -0.1266 -0.1464
 5119TIP3    H115321   6.688   5.837   2.114  1.2035  1.5311  0.7140
 5119TIP3    H215322   6.659   5.899   2.249 -1.5811 -0.3786  1.0855
 5120TIP3   OH215323   1.361   2.295   0.410  0.4189  0.1101  0.0905
 5120TIP3    H115324   1.288   2.233   0.420  0.8404 -0.4063  0.0152
 5120TIP3    H215325   1.413   2.259   0.338  2.2644 -1.0750  1.8721
 5121TIP3   OH215326   3.925   3.705   1.607 -0.2571  0.4034  0.5048
 5121TIP3    H115327   3.835   3.736   1.599  0.0696  1.0982 -0.6032
 5121TIP3    H215328   3.963   3.716   1.520  0.1111 -2.4058  0.1887
 5122TIP3   OH215329   1.413   5.071   0.395 -0.7447 -0.0132  0.1958
 5122TIP3    H115330   1.462   5.048   0.316 -0.6246  2.3744 -0.5018
 5122TIP3    H215331   1.340   5.010   0.397 -0.6591 -0.2267 -1.6916
 5123TIP3   OH215332   5.728   5.685   0.693 -0.5123  0.0225 -0.1161
 5123TIP3    H115333   5.640   5.661   0.721 -0.1012  0.2244  1.4302
 5123TIP3    H215334   5.758   5.747   0.759  0.3503  0.8869 -1.2797
 5124TIP3   OH215335   3.547   2.907   2.216  0.4579  0.2556 -0.5301
 5124TIP3    H115336   3.574   2.938   2.130  0.5133  0.5740 -0.3997
 5124TIP3    H215337   3.607   2.950   2.277  0.6513 -0.2450 -0.3561
 5125TIP3   OH215338   5.455   5.746   2.064  0.1850 -0.2020  0.0878
 5125TIP3    H115339   5.544   5.718   2.042  0.9418 -0.0845  2.6673
 5125TIP3    H215340   5.399   5.673   2.036  1.0343 -0.2225 -1.6741
 5126TIP3   OH215341   2.263   1.016   2.262  0.4710 -0.2276 -0.1650
 5126TIP3    H115342   2.283   1.037   2.171 -0.4379  0.3206 -0.2507
 5126TIP3    H215343   2.310   1.081   2.313 -0.4257  0.5807 -0.3316
 5127TIP3   OH215344   0.313   5.728   2.913 -0.2973  0.0458  0.0550
 5127TIP3    H115345   0.284   5.639   2.932  0.5343 -0.0199  1.0644
 5127TIP3    H215346   0.256   5.783   2.966  1.1944 -0.0718  1.8634
 5128TIP3   OH215347   3.404   4.751   0.396 -0.3274 -0.1343  0.1868
 5128TIP3    H115348   3.405   4.830   0.342 -0.5784  0.2763  0.7768
 5128TIP3    H215349   3.397   4.783   0.486 -0.6608 -0.8362  0.4178
 5129TIP3   OH215350   6.146   6.038   3.932  0.7012 -0.3549 -0.2934
 5129TIP3    H115351   6.149   6.014   4.024  1.6539 -1.8478 -0.6788
 5129TIP3    H215352   6.068   6.093   3.924 -0.4184 -1.6749  1.0631
 5130TIP3   OH215353   2.486   6.478   5.341  0.2437 -0.4791 -0.3167
 5130TIP3    H115354   2.465   6.467   5.248 -2.0703  0.0962  0.0800
 5130TIP3    H215355   2.491   6.389   5.374 -1.3527 -0.6916 -0.5491
 5131TIP3   OH215356   6.884   1.246   5.820  0.1840  0.7668  0.1200
 5131TIP3    H115357   6.793   1.273   5.835  0.1964  0.7092  0.2935
 5131TIP3    H215358   6.886   1.154   5.846 -0.0512  0.3583 -1.2132
 5132TIP3   OH215359   2.556   2.555   2.269 -0.2650 -0.3107  0.3318
 5132TIP3    H115360   2.593   2.502   2.199 -0.0523  1.1807 -0.7320
 5132TIP3    H215361   2.510   2.626   2.224  1.5831  1.8630  1.6335
 5133TIP3   OH215362   5.560   0.872   4.268  0.0370 -0.1681 -0.2277
 5133TIP3    H115363   5.631   0.932   4.291 -0.4408  1.0808 -1.7722
 5133TIP3    H215364   5.481   0.913   4.303 -0.2518 -0.0377 -1.0010
 5134TIP3   OH215365   5.923   0.730   0.579 -0.0113  0.4224  0.4585
 5134TIP3    H115366   5.907   0.797   0.644 -0.0322  0.8084  0.0624
 5134TIP3    H215367   5.837   0.713   0.539 -0.2643 -0.8098  1.4662
 5135TIP3   OH215368   5.620   2.291   3.692 -0.2055 -0.1983 -0.3107
 5135TIP3    H115369   5.671   2.369   3.675 -0.6726  0.3116  0.5491
 5135TIP3    H215370   5.545   2.298   3.633 -0.4113  0.1688 -0.0088
 5136TIP3   OH215371   6.493   0.408   3.358  0.6774  0.6780  0.1799
 5136TIP3    H115372   6.564   0.460   3.319  0.5524 -0.1699 -1.2251
 5136TIP3    H215373   6.421   0.414   3.295  0.6315 -1.1289  0.0192
 5137TIP3   OH215374   6.315   1.714   0.209 -0.4329 -0.2783 -0.4721
 5137TIP3    H115375   6.242   1.753   0.162  1.3296  0.1206 -3.0758
 5137TIP3    H215376   6.389   1.722   0.149  1.7846 -0.6237  2.0386
 5138TIP3   OH215377   5.665   5.275   4.275 -0.2254  0.0430 -0.7689
 5138TIP3    H115378   5.627   5.195   4.310 -1.2755  0.6959 -0.3462
 5138TIP3    H215379   5.620   5.288   4.191  1.7212 -1.1027 -2.0536
 5139TIP3   OH215380   2.269   1.694   2.743 -0.0033 -0.3961  0.0628
 5139TIP3    H115381   2.230   1.638   2.811  0.0509  0.2502  0.6272
 5139TIP3    H215382   2.325   1.755   2.791  0.7230 -0.4963 -0.6439
 5140TIP3   OH215383   6.901   2.738   3.351 -0.5444  0.0490 -0.1734
 5140TIP3    H115384   6.965   2.692   3.297 -1.1337 -0.4671 -0.4382
 5140TIP3    H215385   6.844   2.782   3.289 -0.2533  0.7828  0.0713
 5141TIP3   OH215386   5.482   0.076   5.283 -0.1661 -0.1492 -0.1642
 5141TIP3    H115387   5.556   0.094   5.225 -1.2549  1.1267 -1.1934
 5141TIP3    H215388   5.421   0.026   5.230 -0.0597 -1.2307  0.6983
 5142TIP3   OH215389   2.197   2.845   1.942 -0.2595 -0.3217  0.5037
 5142TIP3    H115390   2.150   2.905   2.000 -1.5560 -0.9885  0.1858
 5142TIP3    H215391   2.162   2.864   1.855  1.0534  0.0837  0.0388
 5143TIP3   OH215392   4.966   6.022   5.555 -0.3725  0.5120 -0.1641
 5143TIP3    H115393   4.952   6.111   5.522 -0.3160  1.3456  1.9172
 5143TIP3    H215394   5.043   6.029   5.611  0.6676 -1.2539 -1.2869
 5144TIP3   OH215395   0.662   0.039   1.203  0.4459  0.5111 -0.0011
 5144TIP3    H115396   0.687   0.091   1.126  1.4704 -1.2591 -0.9329
 5144TIP3    H215397   0.744   0.027   1.251 -0.0893  1.1227  1.1025
 5145TIP3   OH215398   1.165   4.749   5.437  0.3794  0.0428 -0.1882
 5145TIP3    H115399   1.184   4.682   5.504 -0.7459  1.1600  1.3067
 5145TIP3    H215400   1.070   4.755   5.436  0.3661  0.0587 -1.9537
 5146TIP3   OH215401   6.568   0.269   3.853 -0.2034 -0.4390 -0.0417
 5146TIP3    H115402   6.519   0.326   3.793  0.1975  0.1251  0.1606
 5146TIP3    H215403   6.513   0.261   3.930 -0.1349 -0.0983  0.0411
 5147TIP3   OH215404   5.335   2.641   0.612 -0.0434  0.1408  0.2430
 5147TIP3    H115405   5.340   2.588   0.532  0.4241 -0.4787  0.6703
 5147TIP3    H215406   5.243   2.662   0.620 -0.4622 -1.6692  0.7203
 5148TIP3   OH215407   7.167   3.134   2.440  0.6334 -0.7371 -0.1054
 5148TIP3    H115408   7.165   3.164   2.531  0.8207 -0.2850 -0.2481
 5148TIP3    H215409   7.255   3.156   2.410  0.8400 -1.5937 -0.1611
 5149TIP3   OH215410   1.067   0.623   4.576 -0.1016  0.3790 -0.0944
 5149TIP3    H115411   1.143   0.629   4.517 -0.3158 -0.7123 -0.5163
 5149TIP3    H215412   1.012   0.555   4.536 -0.1289 -0.5817  1.4942
 5150TIP3   OH215413   2.432   5.404   3.910  0.0585  0.2512 -0.0472
 5150TIP3    H115414   2.516   5.396   3.864 -0.6147 -1.4599 -1.0606
 5150TIP3    H215415   2.366   5.392   3.842 -1.0612  1.8442  0.6831
 5151TIP3   OH215416   2.198   4.501   0.812 -0.1066 -0.1627  0.1702
 5151TIP3    H115417   2.112   4.541   0.802  0.2348  0.5414 -0.0167
 5151TIP3    H215418   2.244   4.557   0.874  0.1012 -0.7409  0.5504
 5152TIP3   OH215419   5.862   0.558   3.286 -0.1139  0.2594  0.4670
 5152TIP3    H115420   5.883   0.478   3.237  0.9127  0.5969  0.3339
 5152TIP3    H215421   5.860   0.627   3.220 -0.5345  0.4243  0.6478
 5153TIP3   OH215422   1.627   2.694   0.067  0.1970  0.1823  0.2381
 5153TIP3    H115423   1.590   2.778   0.043 -0.4810 -0.8488 -2.7548
 5153TIP3    H215424   1.552   2.634   0.071  0.8604 -0.6703  0.3636
 5154TIP3   OH215425   6.395   0.823   3.995  0.5430  0.0756  0.9557
 5154TIP3    H115426   6.354   0.907   4.018 -1.3913 -1.0335  1.8152
 5154TIP3    H215427   6.409   0.828   3.900  0.8579  1.5217  1.0641
 5155TIP3   OH215428   5.160   4.928   1.928  0.1088  0.7287  0.4704
 5155TIP3    H115429   5.220   4.925   2.003  1.2999 -1.3421 -0.4779
 5155TIP3    H215430   5.180   5.010   1.884  1.4403  0.6089  0.8225
 5156TIP3   OH215431   2.235   0.665   0.371  0.4528 -0.0025  0.0367
 5156TIP3    H115432   2.243   0.715   0.290 -0.5044 -0.8201 -0.5847
 5156TIP3    H215433   2.311   0.692   0.424  0.8116  0.9104 -0.9133
 5157TIP3   OH215434   6.938   2.224   1.927 -0.0653 -0.3351  0.1860
 5157TIP3    H115435   6.881   2.188   1.994 -0.3150  0.5495  0.4589
 5157TIP3    H215436   6.987   2.294   1.971 -0.4064  0.4193 -0.5962
 5158TIP3   OH215437   6.692   5.858   0.505  0.0660  0.1264  0.0801
 5158TIP3    H115438   6.638   5.830   0.432 -1.3847 -1.2042  1.5878
 5158TIP3    H215439   6.650   5.937   0.538 -1.0987 -0.9492  1.2986
 5159TIP3   OH215440   6.066   4.568   5.244 -0.1670 -0.2351 -0.1750
 5159TIP3    H115441   6.098   4.550   5.155  1.3414 -0.3957  0.3577
 5159TIP3    H215442   6.012   4.492   5.266 -1.1266  0.1350 -1.2027
 5160TIP3   OH215443   0.677   6.717   5.206  0.2511 -0.1756  0.4431
 5160TIP3    H115444   0.679   6.639   5.152  1.6772  0.3312 -0.2966
 5160TIP3    H215445   0.757   6.712   5.258 -0.0691  0.3684  1.0046
 5161TIP3   OH215446   6.690   3.824   5.340 -0.2977 -0.0341 -0.2703
 5161TIP3    H115447   6.634   3.883   5.390 -1.4517 -0.5134 -0.9699
 5161TIP3    H215448   6.647   3.738   5.348  0.4800 -0.4639 -0.6109
 5162TIP3   OH215449   6.721  -0.009   2.548 -0.5491 -0.9496 -0.2295
 5162TIP3    H115450   6.628  -0.032   2.542 -0.6312 -0.3261 -2.1113
 5162TIP3    H215451   6.724   0.083   2.521  0.5602 -0.8158  0.3107
 5163TIP3   OH215452   5.439   3.152   0.115  0.1294  0.4500  0.1620
 5163TIP3    H115453   5.400   3.065   0.105  0.8572  0.2154 -0.8525
 5163TIP3    H215454   5.480   3.150   0.202  0.4213 -0.3461  0.0176
 5164TIP3   OH215455   5.900  -0.034   5.265 -0.3370 -0.4224  0.2675
 5164TIP3    H115456   5.931   0.011   5.186 -2.7860  0.4943 -0.2567
 5164TIP3    H215457   5.898   0.035   5.332  1.7961 -1.2074  1.2521
 5165TIP3   OH215458   1.123   4.239   3.478  0.6392 -0.2527 -0.1933
 5165TIP3    H115459   1.150   4.280   3.396 -0.2521  0.4486 -0.1504
 5165TIP3    H215460   1.066   4.166   3.450  1.4437 -0.8763 -0.2355
 5166TIP3   OH215461   6.724   5.070   3.538  0.3211  0.1246  0.7031
 5166TIP3    H115462   6.790   5.134   3.511 -0.9721  0.7418 -1.2670
 5166TIP3    H215463   6.652   5.124   3.572  0.1897 -0.4364  1.3242
 5167TIP3   OH215464   1.000   3.679   1.959  0.4703  0.2125 -0.6615
 5167TIP3    H115465   1.042   3.763   1.976  1.0052 -0.3896  1.2603
 5167TIP3    H215466   0.908   3.701   1.943  0.7312  1.2100 -0.8459
 5168TIP3   OH215467   0.741   0.344   2.322 -0.3259 -0.2739  0.4153
 5168TIP3    H115468   0.723   0.292   2.244 -2.1922  0.6401  0.1609
 5168TIP3    H215469   0.788   0.420   2.290  4.1311 -2.4746  1.0265
 5169TIP3   OH215470   0.657   4.360   3.427 -0.8021  0.4819  0.1523
 5169TIP3    H115471   0.615   4.370   3.512 -0.3457 -2.2780  0.7985
 5169TIP3    H215472   0.586   4.367   3.363 -1.7684 -1.0341  1.0224
 5170TIP3   OH215473   0.169   5.618   1.139  0.6737  0.0136  0.4354
 5170TIP3    H115474   0.088   5.624   1.089  2.2852  1.0551 -2.2586
 5170TIP3    H215475   0.144   5.575   1.221 -2.2476 -1.3370 -1.0260
 5171TIP3   OH215476   5.129   1.759   2.686 -0.5938  0.4092 -0.0050
 5171TIP3    H115477   5.193   1.822   2.653 -2.4397  1.5334 -1.6811
 5171TIP3    H215478   5.093   1.717   2.608 -1.4845 -0.5948  0.9053
 5172TIP3   OH215479   4.846   5.735   0.361  0.2972 -0.7318  0.2801
 5172TIP3    H115480   4.898   5.811   0.388 -0.6312 -0.4988  1.4785
 5172TIP3    H215481   4.772   5.771   0.313  0.0964 -0.9011  0.4563
 5173TIP3   OH215482   0.111   5.000   2.570 -0.4771  0.0052 -0.0242
 5173TIP3    H115483   0.147   4.954   2.646 -0.2703 -0.5064 -0.4269
 5173TIP3    H215484   0.016   5.002   2.586 -0.3381  0.8788  0.7726
 5174TIP3   OH215485   5.846   3.243   5.442  0.2806  0.5798 -0.6115
 5174TIP3    H115486   5.823   3.332   5.415 -0.5970  0.3736 -0.5918
 5174TIP3    H215487   5.790   3.227   5.518 -1.0033 -0.6645 -1.7595
 5175TIP3   OH215488   0.472   3.209   5.280 -0.1284  0.1180 -0.1611
 5175TIP3    H115489   0.386   3.176   5.257  0.2236  0.1914 -1.6535
 5175TIP3    H215490   0.506   3.248   5.199  2.9528 -3.4380 -0.8428
 5176TIP3   OH215491   6.006   4.162   2.796  0.1431  0.6493 -0.1618
 5176TIP3    H115492   6.047   4.079   2.820 -0.2917  0.2196 -0.8963
 5176TIP3    H215493   5.956   4.143   2.717 -0.4259  1.4771 -0.0160
 5177TIP3   OH215494   5.800   5.178   0.399  0.1646  0.6835 -0.0276
 5177TIP3    H115495   5.775   5.253   0.345 -0.2668  0.0399 -0.7322
 5177TIP3    H215496   5.725   5.164   0.457  0.4626  1.1160  0.4821
 5178TIP3   OH215497   5.319   2.406   0.415  0.3759  0.6853  0.1786
 5178TIP3    H115498   5.233   2.368   0.431  0.8487 -0.5875 -0.1532
 5178TIP3    H215499   5.316   2.435   0.324  0.4496  0.1758  0.0083
 5179TIP3   OH215500   7.099   5.927   1.537 -0.8222 -0.5804  0.5195
 5179TIP3    H115501   7.117   6.019   1.554  1.2083 -0.4753 -1.6266
 5179TIP3    H215502   7.006   5.924   1.515 -0.2723  1.6873 -2.9295
 5180TIP3   OH215503   1.537   3.973   3.652  0.3153  0.6085  0.0287
 5180TIP3    H115504   1.585   4.055   3.651 -0.4972  1.0955 -0.1298
 5180TIP3    H215505   1.459   3.990   3.705  0.0033  0.0262 -0.2192
 5181TIP3   OH215506   0.263   1.009   5.164  0.7953  0.4957 -0.3859
 5181TIP3    H115507   0.357   1.012   5.148  0.8318 -0.0809 -0.2778
 5181TIP3    H215508   0.234   1.100   5.155  1.2544  0.5796 -1.0809
 5182TIP3   OH215509   4.550   2.218   4.768  0.1286 -0.6567 -0.4808
 5182TIP3    H115510   4.593   2.246   4.849 -1.7170  0.1138  0.3138
 5182TIP3    H215511   4.512   2.133   4.790 -1.5412  0.1596 -0.0214
 5183TIP3   OH215512   6.984   3.026   1.984  0.4159  0.6335 -0.4140
 5183TIP3    H115513   6.960   3.072   2.064 -1.0945 -1.5341  0.4643
 5183TIP3    H215514   7.079   3.019   1.988  0.3941  0.8387  1.0433
 5184TIP3   OH215515   6.881   5.598   5.682 -0.1762 -0.9436 -0.7947
 5184TIP3    H115516   6.965   5.609   5.726 -0.4971  0.6562 -0.5421
 5184TIP3    H215517   6.903   5.561   5.596  0.8726  0.2244 -1.0546
 5185TIP3   OH215518   2.607   6.595   0.406  0.2576 -0.1772 -0.2643
 5185TIP3    H115519   2.557   6.630   0.479 -1.8618 -0.9429 -1.2639
 5185TIP3    H215520   2.697   6.591   0.438 -0.0193  2.5755  1.1454
 5186TIP3   OH215521   0.304   4.614   1.696 -0.2349  0.4538 -1.0343
 5186TIP3    H115522   0.365   4.578   1.759 -0.4440  0.4409 -0.8379
 5186TIP3    H215523   0.219   4.610   1.740 -0.3197  0.8139 -1.1670
 5187TIP3   OH215524   4.851   2.502   4.292  0.2973  0.3518 -0.2101
 5187TIP3    H115525   4.865   2.425   4.346 -1.3800 -0.3991 -0.7838
 5187TIP3    H215526   4.937   2.522   4.256  0.8379 -1.0022  0.2768
 5188TIP3   OH215527   4.301   1.823  -0.003 -0.3637 -0.4096  0.0121
 5188TIP3    H115528   4.349   1.905  -0.012 -0.1751 -0.2264  2.0621
 5188TIP3    H215529   4.368   1.759   0.022 -0.7892 -0.7120  0.4098
 5189TIP3   OH215530   1.698   0.980   5.017  0.7690 -0.2025 -0.0395
 5189TIP3    H115531   1.676   0.900   5.064 -0.1554  1.2820  2.2257
 5189TIP3    H215532   1.635   0.984   4.945 -1.1772 -0.0664  1.5964
 5190TIP3   OH215533   2.674   5.562   1.133 -0.0071  0.6194  0.2978
 5190TIP3    H115534   2.590   5.601   1.155 -0.4559  0.6003 -1.3041
 5190TIP3    H215535   2.654   5.496   1.067  1.3801  1.2894 -0.8352
 5191TIP3   OH215536   1.570   1.494   3.563 -0.5742  0.0099 -0.0164
 5191TIP3    H115537   1.652   1.455   3.533 -0.6627  0.5047 -0.9391
 5191TIP3    H215538   1.521   1.421   3.600  0.5206 -0.1854  1.1021
 5192TIP3   OH215539   7.055   6.170   3.617  0.4390 -0.1872  0.6810
 5192TIP3    H115540   6.994   6.230   3.574  0.6279  0.2743  1.0571
 5192TIP3    H215541   7.142   6.207   3.600  0.9849 -2.5939 -2.7558
 5193TIP3   OH215542   1.145   2.102   3.387 -0.7492 -0.4221  0.4410
 5193TIP3    H115543   1.086   2.124   3.460 -1.0696  1.4147 -0.2955
 5193TIP3    H215544   1.086   2.088   3.313 -0.3503 -0.2921  0.0956
 5194TIP3   OH215545   5.108   1.706   3.906 -0.2681  0.3237  0.2074
 5194TIP3    H115546   5.048   1.674   3.838 -1.7444  0.5808  1.3254
 5194TIP3    H215547   5.135   1.792   3.875 -2.6163  1.3828  0.8418
 5195TIP3   OH215548   2.807   1.922   3.967 -0.4253 -0.3978  0.3843
 5195TIP3    H115549   2.816   1.847   4.026 -0.5756  0.4952  1.5760
 5195TIP3    H215550   2.829   1.997   4.021 -0.4867  0.4411 -0.7392
 5196TIP3   OH215551   1.322   0.132   0.962  0.9290 -0.4814  0.0929
 5196TIP3    H115552   1.275   0.067   0.911  1.0626  1.7649 -3.1821
 5196TIP3    H215553   1.258   0.202   0.977  1.8610  0.4259 -0.0546
 5197TIP3   OH215554   0.747   3.129   3.067 -1.2938 -0.0015  0.9588
 5197TIP3    H115555   0.835   3.133   3.029 -1.1242  0.2807  1.3634
 5197TIP3    H215556   0.704   3.057   3.021 -1.0501  0.2416  0.3395
 5198TIP3   OH215557   3.982   6.391   3.781 -0.3153  0.0661  0.3946
 5198TIP3    H115558   4.012   6.437   3.859  0.7916 -0.6228  0.4075
 5198TIP3    H215559   3.887   6.388   3.789 -0.4026  1.9971  0.5771
 5199TIP3   OH215560   1.075   0.692   2.589 -0.0184 -0.4232  0.1439
 5199TIP3    H115561   1.001   0.722   2.537  0.2166  1.1966  0.6980
 5199TIP3    H215562   1.140   0.664   2.524 -0.4272 -0.1525 -0.3926
 5200TIP3   OH215563   4.132   3.365   1.835  0.2354 -0.1152 -0.1948
 5200TIP3    H115564   4.178   3.337   1.755 -0.1358  0.7658 -0.7371
 5200TIP3    H215565   4.201   3.406   1.888  0.5188 -0.8566  0.0187
 5201TIP3   OH215566   0.886   1.844   1.845  0.1397  0.2705  0.4612
 5201TIP3    H115567   0.934   1.926   1.835 -0.1104  0.5870  1.6301
 5201TIP3    H215568   0.795   1.867   1.824  0.1781  0.1458  0.1666
 5202TIP3   OH215569   5.884   5.988   5.201  0.2944 -0.1133 -1.0076
 5202TIP3    H115570   5.975   6.012   5.184 -0.1175  0.5720 -2.3614
 5202TIP3    H215571   5.840   6.071   5.222  0.0413 -0.4850  0.0250
 5203TIP3   OH215572   1.464   3.757   4.942  0.3614 -0.1762 -0.0605
 5203TIP3    H115573   1.523   3.778   4.869 -1.6422  3.6022 -0.8177
 5203TIP3    H215574   1.515   3.775   5.020  0.5648  2.3225 -0.6965
 5204TIP3   OH215575   6.362   5.963   0.173  0.2796 -0.0478  0.3285
 5204TIP3    H115576   6.352   6.058   0.177 -2.2538 -0.2606  0.5150
 5204TIP3    H215577   6.309   5.930   0.245  1.9545 -1.5980  0.9189
 5205TIP3   OH215578   2.317   5.266   1.698 -0.0639 -0.0431 -0.1000
 5205TIP3    H115579   2.413   5.262   1.705  0.1340  1.4306 -1.3190
 5205TIP3    H215580   2.291   5.176   1.677  1.1663 -0.2892 -0.7153
 5206TIP3   OH215581   1.398   3.809   1.890 -0.0421 -0.0559  0.1639
 5206TIP3    H115582   1.447   3.778   1.814  1.5813 -0.2734  1.2434
 5206TIP3    H215583   1.329   3.744   1.902  0.6533 -0.8786 -0.1896
 5207TIP3   OH215584   6.509   1.429   3.222 -0.2678 -0.7341 -0.4818
 5207TIP3    H115585   6.464   1.502   3.179 -1.2759 -0.3997  1.0628
 5207TIP3    H215586   6.595   1.426   3.182 -0.8201  0.1889 -1.7965
 5208TIP3   OH215587   6.991   5.157   4.764  0.8449 -0.5661  0.2389
 5208TIP3    H115588   7.069   5.102   4.774  0.5427 -1.2257 -0.8171
 5208TIP3    H215589   6.991   5.182   4.671  1.3807  1.8686  0.8358
 5209TIP3   OH215590   5.958   5.374   1.333  0.1285  0.1772  0.3336
 5209TIP3    H115591   6.049   5.399   1.322  0.7320  0.1876  3.9429
 5209TIP3    H215592   5.961   5.301   1.396 -2.2354 -1.7148 -1.5567
 5210TIP3   OH215593   0.113   0.586   4.526  0.0176 -0.9025 -0.1602
 5210TIP3    H115594   0.140   0.531   4.600 -1.5181 -1.7337 -0.1734
 5210TIP3    H215595   0.185   0.648   4.515  0.4236 -0.9271  1.8514
 5211TIP3   OH215596   5.152   0.188   0.902 -0.0058  0.1074 -0.0049
 5211TIP3    H115597   5.084   0.244   0.865  1.5247  1.0643 -1.4989
 5211TIP3    H215598   5.159   0.217   0.993 -0.8030  0.7722 -0.1399
 5212TIP3   OH215599   0.090   6.464   4.964 -0.3863 -0.0003  0.0282
 5212TIP3    H115600   0.172   6.415   4.956 -0.4729 -0.3161  0.9526
 5212TIP3    H215601   0.116   6.547   5.003 -0.3312  0.4430 -0.9272
 5213TIP3   OH215602   1.095   3.887   4.165  0.1360  0.4235  0.5007
 5213TIP3    H115603   1.049   3.919   4.087  1.3130  1.8486  0.3231
 5213TIP3    H215604   1.130   3.802   4.140 -0.0229  0.5952 -0.3318
 5214TIP3   OH215605   6.860   3.057   3.662  0.9201 -0.4458 -0.4725
 5214TIP3    H115606   6.847   2.992   3.732  1.5500  0.5026  0.5695
 5214TIP3    H215607   6.802   3.129   3.685  0.5766 -0.4229 -1.3643
 5215TIP3   OH215608   0.657   2.869   2.462 -0.2006  0.1895 -0.2363
 5215TIP3    H115609   0.743   2.890   2.499  0.0153  0.1377 -0.6947
 5215TIP3    H215610   0.654   2.919   2.380 -1.0280  1.0110  0.2640
 5216TIP3   OH215611   3.264   0.370   1.004 -0.2693  0.3257 -0.1076
 5216TIP3    H115612   3.186   0.361   1.058 -0.4340  1.8772 -0.0367
 5216TIP3    H215613   3.328   0.414   1.060  0.3820 -0.2028 -0.4224
 5217TIP3   OH215614   1.525   6.321   4.596 -0.2096 -0.0267  0.3423
 5217TIP3    H115615   1.613   6.335   4.562  0.4220 -0.9865  1.5159
 5217TIP3    H215616   1.489   6.409   4.605  0.5568  0.3689 -0.3010
 5218TIP3   OH215617   2.834   5.389   5.688 -0.5425  0.3011 -0.2900
 5218TIP3    H115618   2.904   5.454   5.680  0.3377 -0.7904 -2.8919
 5218TIP3    H215619   2.817   5.362   5.598 -2.5924 -1.2957  0.5002
 5219TIP3   OH215620   4.013   3.782   0.099 -0.4044 -0.1542 -0.2922
 5219TIP3    H115621   4.092   3.731   0.117  0.7878  1.6719 -0.0770
 5219TIP3    H215622   3.966   3.784   0.182  1.4974  2.2481  0.8576
 5220TIP3   OH215623   6.359   2.419   5.415  0.0176  0.3419 -0.3138
 5220TIP3    H115624   6.412   2.394   5.339 -1.2820  1.3099 -1.5938
 5220TIP3    H215625   6.307   2.341   5.434  1.4055 -0.4054  0.5614
 5221TIP3   OH215626   7.104   4.854   4.453  0.1397  0.2340  0.2496
 5221TIP3    H115627   7.195   4.846   4.480 -0.2260 -0.3332  1.3499
 5221TIP3    H215628   7.058   4.785   4.501 -0.8848  0.5358 -0.2600
 5222TIP3   OH215629   2.743   4.337   1.733  0.7372  0.4984  0.2523
 5222TIP3    H115630   2.795   4.339   1.814 -0.2156 -0.6888  0.9204
 5222TIP3    H215631   2.668   4.281   1.753 -1.0612  2.4745 -0.5560
 5223TIP3   OH215632   5.887   3.656   4.027  0.3494 -0.4696  0.1323
 5223TIP3    H115633   5.870   3.748   4.044 -2.2284 -0.7693 -0.4752
 5223TIP3    H215634   5.961   3.656   3.965  0.7817  1.1155  0.6025
 5224TIP3   OH215635   2.445   6.135   1.654 -0.1141  0.4538 -0.1712
 5224TIP3    H115636   2.485   6.222   1.660 -0.5451  0.7362 -1.1575
 5224TIP3    H215637   2.505   6.078   1.702  0.2256  1.2778  0.4096
 5225TIP3   OH215638   1.998   2.974   1.082 -0.2895 -0.3778 -0.4666
 5225TIP3    H115639   2.034   2.966   1.170  1.8478  0.9515 -1.1491
 5225TIP3    H215640   1.905   2.991   1.095  0.1234  0.5667  1.5681
 5226TIP3   OH215641   3.673   0.666   2.610 -0.1239 -0.1361 -0.0767
 5226TIP3    H115642   3.701   0.608   2.539 -1.3672 -2.1229  0.9810
 5226TIP3    H215643   3.580   0.645   2.624  0.2256 -0.2562  2.5433
 5227TIP3   OH215644   0.424   1.970   4.786  0.4277 -0.1237 -0.1131
 5227TIP3    H115645   0.376   2.041   4.828 -0.4818 -1.6591  1.5977
 5227TIP3    H215646   0.359   1.924   4.734  1.1430  0.5959 -1.7305
 5228TIP3   OH215647   2.421   0.646   1.060 -0.1564 -0.0231  0.1051
 5228TIP3    H115648   2.401   0.554   1.046  0.5636  0.0244 -1.4790
 5228TIP3    H215649   2.470   0.672   0.982 -1.6137  2.0769 -0.2032
 5229TIP3   OH215650   2.762   4.730   4.578 -0.4609 -0.6974 -0.4861
 5229TIP3    H115651   2.666   4.726   4.583 -0.6752  1.1585 -1.9025
 5229TIP3    H215652   2.787   4.776   4.658 -1.1054  1.5646 -1.4764
 5230TIP3   OH215653   5.314   4.496   2.629 -0.0470  0.5043 -0.7130
 5230TIP3    H115654   5.249   4.506   2.699 -0.5186  0.3536 -1.1228
 5230TIP3    H215655   5.393   4.465   2.674 -0.3493  0.3901 -0.2526
 5231TIP3   OH215656   5.899   0.204   3.352 -0.2954 -0.0582 -0.3797
 5231TIP3    H115657   5.926   0.270   3.288 -1.2185  0.0838 -0.6428
 5231TIP3    H215658   5.885   0.253   3.433  0.1715 -0.1234 -0.2578
 5232TIP3   OH215659   2.054   1.522   3.358  0.1769 -0.4741  0.4101
 5232TIP3    H115660   2.075   1.611   3.386  1.2007 -0.7954  0.6764
 5232TIP3    H215661   2.123   1.467   3.395 -1.2030 -1.6007  1.4947
 5233TIP3   OH215662   5.599   4.768   0.566 -0.2739  0.1078 -0.3378
 5233TIP3    H115663   5.621   4.806   0.481  0.5572 -1.0117 -0.6568
 5233TIP3    H215664   5.659   4.693   0.574 -0.7548 -0.1553  0.9657
 5234TIP3   OH215665   1.391   0.605   2.684  0.1144  0.2849  0.4760
 5234TIP3    H115666   1.437   0.579   2.605  1.7713  0.5040  1.3282
 5234TIP3    H215667   1.331   0.533   2.703 -0.4163  0.3025 -1.0326
 5235TIP3   OH215668   2.287   4.334   1.818  0.3044 -0.2368  0.5045
 5235TIP3    H115669   2.285   4.397   1.890 -0.0077 -0.3450  0.5925
 5235TIP3    H215670   2.372   4.291   1.826  0.2595 -0.2727  0.8312
 5236TIP3   OH215671   5.003   2.644   0.171 -0.3882 -0.3343 -0.2575
 5236TIP3    H115672   4.975   2.554   0.155  1.2930 -0.8109 -0.7150
 5236TIP3    H215673   5.008   2.684   0.084 -0.0245 -0.1632 -0.1622
 5237TIP3   OH215674   3.409   0.723   2.523 -0.0625  0.2550  0.1458
 5237TIP3    H115675   3.405   0.770   2.607  0.0097 -0.6533  0.6765
 5237TIP3    H215676   3.361   0.642   2.539  1.2520 -0.6239 -0.2241
 5238TIP3   OH215677   6.176   4.912   2.737  0.2017 -0.1453 -0.2517
 5238TIP3    H115678   6.129   4.993   2.718  1.9441  1.0926  0.3940
 5238TIP3    H215679   6.133   4.877   2.815 -1.6645 -0.8268 -1.5076
 5239TIP3   OH215680   4.647   0.321   4.622 -0.1360 -0.7054  0.3771
 5239TIP3    H115681   4.563   0.362   4.641 -0.5600 -1.2843 -0.1736
 5239TIP3    H215682   4.681   0.370   4.547 -0.9946 -1.7877 -0.7659
 5240TIP3   OH215683   4.379   5.011   1.241  0.3298  0.3656 -0.1171
 5240TIP3    H115684   4.447   4.949   1.213  0.4962  0.7706 -0.6323
 5240TIP3    H215685   4.391   5.087   1.184 -2.4187 -0.6559 -2.3032
 5241TIP3   OH215686   6.414   0.849   2.623  0.3373  0.5648  0.9753
 5241TIP3    H115687   6.345   0.901   2.663 -0.1341  1.6601 -1.1361
 5241TIP3    H215688   6.413   0.874   2.531  0.2114 -3.0626 -0.1560
 5242TIP3   OH215689   5.361   6.195   0.468  0.4155  0.1942  0.0278
 5242TIP3    H115690   5.274   6.194   0.428  0.4970 -0.8071 -0.1441
 5242TIP3    H215691   5.411   6.131   0.418  1.5804  1.4956 -0.5612
 5243TIP3   OH215692   4.308   2.123   2.904 -0.5819 -0.2429  0.2193
 5243TIP3    H115693   4.317   2.047   2.846  1.6640 -0.7609  1.1606
 5243TIP3    H215694   4.219   2.116   2.939 -1.3361 -0.9576 -1.6621
 5244TIP3   OH215695   5.766   2.680   5.441 -0.0340  0.1551 -0.2549
 5244TIP3    H115696   5.707   2.633   5.381 -0.5823 -1.8781  1.7314
 5244TIP3    H215697   5.848   2.632   5.435 -0.0432  0.0391  0.4442
 5245TIP3   OH215698   4.283   2.198   2.008 -0.0336 -0.5188 -0.2354
 5245TIP3    H115699   4.256   2.124   2.062  0.1051 -1.6514 -1.6611
 5245TIP3    H215700   4.345   2.246   2.063 -1.0967 -0.7044  1.1933
 5246TIP3   OH215701   2.760   2.004   5.687 -0.5486 -0.2008  0.6564
 5246TIP3    H115702   2.729   1.914   5.676 -1.2418  0.2712 -1.8692
 5246TIP3    H215703   2.853   1.995   5.706 -0.7488 -1.4426  1.1733
 5247TIP3   OH215704   2.306   2.516   5.621  0.0664  0.6045  0.0847
 5247TIP3    H115705   2.395   2.485   5.604 -0.4991 -0.5705 -0.9260
 5247TIP3    H215706   2.291   2.583   5.555 -0.6243 -0.9442 -1.4121
 5248TIP3   OH215707   6.322   3.101   2.510 -0.4756  0.1768  0.4241
 5248TIP3    H115708   6.292   3.011   2.505  0.3537 -0.0492 -1.6836
 5248TIP3    H215709   6.248   3.153   2.480 -0.8775  0.2105  1.4272
 5249TIP3   OH215710   5.176   0.671   4.425 -0.0708  0.2568 -0.7331
 5249TIP3    H115711   5.182   0.592   4.478 -0.9061  0.1165 -0.8273
 5249TIP3    H215712   5.121   0.731   4.476  0.4212  0.7145 -0.7350
 5250TIP3   OH215713   5.058   5.943   3.259  0.1724  0.5666 -0.0161
 5250TIP3    H115714   5.147   5.977   3.264 -0.3963  2.1455 -0.2029
 5250TIP3    H215715   5.051   5.883   3.333  1.8457 -0.7757 -0.8558
 5251TIP3   OH215716   4.657   4.778   5.842  0.3546  0.0367  0.1097
 5251TIP3    H115717   4.562   4.790   5.843  0.3058 -0.1135 -1.3080
 5251TIP3    H215718   4.686   4.807   5.929 -0.8146  1.4743  0.0504
 5252TIP3   OH215719   0.850   4.462   2.611  0.5162  0.0458 -0.1727
 5252TIP3    H115720   0.864   4.555   2.593  1.4884  0.0012  0.2447
 5252TIP3    H215721   0.931   4.435   2.655  0.2805 -1.0181 -0.3776
 5253TIP3   OH215722   3.437   6.361   1.067 -0.5841  0.1029  0.4134
 5253TIP3    H115723   3.453   6.340   0.975 -0.7004  0.5519  0.2880
 5253TIP3    H215724   3.403   6.280   1.105  2.6641 -1.1998  0.8869
 5254TIP3   OH215725   7.141   6.023   2.649 -0.1586 -0.1148 -0.0875
 5254TIP3    H115726   7.233   6.027   2.677 -0.0757  0.9987 -0.5048
 5254TIP3    H215727   7.104   5.952   2.702  0.5401  0.4987  1.2938
 5255TIP3   OH215728   4.196   2.059   5.339  0.3184 -0.5516 -0.1250
 5255TIP3    H115729   4.140   2.073   5.416  0.3839 -1.0812  0.0193
 5255TIP3    H215730   4.180   2.136   5.284 -0.1716 -0.4530  0.1480
 5256TIP3   OH215731   6.717   2.932   2.239 -0.2070  0.7523  0.4117
 5256TIP3    H115732   6.752   2.844   2.255 -0.2875  0.6046 -0.1648
 5256TIP3    H215733   6.794   2.987   2.224 -0.1857  0.1917 -2.0237
 5257TIP3   OH215734   6.669   0.732   1.204 -0.1951 -0.5890  0.5844
 5257TIP3    H115735   6.757   0.770   1.207 -0.4568  0.1766 -0.5431
 5257TIP3    H215736   6.612   0.800   1.239 -0.2883 -1.3290  1.9216
 5258TIP3   OH215737   4.665   2.347   1.643 -0.4012  0.2352 -0.2864
 5258TIP3    H115738   4.682   2.426   1.695  0.7901  0.5910 -1.1858
 5258TIP3    H215739   4.662   2.277   1.708 -0.6726  0.9031  0.4436
 5259TIP3   OH215740   4.477   4.209   2.716  0.2364  0.1450 -0.2436
 5259TIP3    H115741   4.476   4.138   2.652 -1.5105  1.5382 -1.8791
 5259TIP3    H215742   4.559   4.197   2.764  1.0735 -1.6210 -1.9735
 5260TIP3   OH215743   0.807   1.680   4.355 -0.6976  1.0252 -0.3359
 5260TIP3    H115744   0.770   1.751   4.408 -0.3203  0.3357  0.8839
 5260TIP3    H215745   0.843   1.724   4.278  1.8766  2.5470  1.5853
 5261TIP3   OH215746   4.623   3.213   2.511  0.0612  0.1864  0.3044
 5261TIP3    H115747   4.598   3.197   2.602 -0.8432 -1.5873 -0.2096
 5261TIP3    H215748   4.554   3.271   2.477 -1.1641 -1.3274  0.0545
 5262TIP3   OH215749   4.452   5.653   0.220 -0.2444 -0.1537 -0.0951
 5262TIP3    H115750   4.469   5.679   0.130  1.3401  1.4951  0.6137
 5262TIP3    H215751   4.526   5.689   0.270 -2.3432  1.2915  2.2378
 5263TIP3   OH215752   2.548   1.757   5.331 -0.6110 -0.3464 -0.0600
 5263TIP3    H115753   2.493   1.679   5.324  0.0462 -0.7394 -1.0518
 5263TIP3    H215754   2.637   1.725   5.318 -0.3589  0.6015 -0.8073
 5264TIP3   OH215755   1.890   1.608   4.394  0.0121  0.3696  0.4080
 5264TIP3    H115756   1.921   1.539   4.334  0.7857 -0.1152  1.3530
 5264TIP3    H215757   1.878   1.685   4.337 -1.1187 -0.5805 -0.7233
 5265TIP3   OH215758   6.759   6.279   5.257 -0.0740  0.3708  0.0050
 5265TIP3    H115759   6.823   6.335   5.213 -0.8834  0.8863 -0.5711
 5265TIP3    H215760   6.720   6.336   5.324  0.0440  0.0750  0.3257
 5266TIP3   OH215761   6.752   3.184   0.222  0.0170  0.1839  0.0947
 5266TIP3    H115762   6.765   3.241   0.297  4.2593 -2.0037  1.3427
 5266TIP3    H215763   6.725   3.100   0.260  1.3269 -0.6960 -0.8043
 5267TIP3   OH215764   0.550   2.042   0.839  0.1077  0.3404  0.1795
 5267TIP3    H115765   0.605   1.984   0.892  0.3797 -0.4774 -0.9508
 5267TIP3    H215766   0.484   2.075   0.900  0.2714 -0.7518  0.9754
 5268TIP3   OH215767   0.658   5.869   3.220 -0.3366 -0.0755  0.2522
 5268TIP3    H115768   0.568   5.873   3.251 -0.1917  0.2873  0.6260
 5268TIP3    H215769   0.664   5.938   3.154 -0.4193 -0.3098 -0.0022
 5269TIP3   OH215770   2.899   6.649   3.855  0.5043 -0.1408  0.0453
 5269TIP3    H115771   2.970   6.604   3.809 -0.1500 -1.5925  0.4179
 5269TIP3    H215772   2.855   6.700   3.786  1.3348  0.0487 -0.3574
 5270TIP3   OH215773   7.007   2.275   2.659 -0.2343  1.0007 -0.4119
 5270TIP3    H115774   6.945   2.226   2.604  0.4173  0.6910 -0.8810
 5270TIP3    H215775   7.087   2.224   2.656 -0.9643 -0.6527  3.2401
 5271TIP3   OH215776   1.453   1.055   4.382  0.3380 -0.1824  0.1372
 5271TIP3    H115777   1.504   0.993   4.330  0.0320  1.1086 -1.7799
 5271TIP3    H215778   1.518   1.113   4.421  0.4919 -0.2517 -0.0157
 5272TIP3   OH215779   2.803   6.691   5.822 -0.2488 -0.2197  0.2757
 5272TIP3    H115780   2.801   6.641   5.904 -1.1692  0.9312  1.0013
 5272TIP3    H215781   2.769   6.631   5.756  1.1848 -1.4069  0.5677
 5273TIP3   OH215782   0.491   1.860   1.303  0.0924 -0.3748 -0.8878
 5273TIP3    H115783   0.472   1.932   1.364  1.1603 -0.0302 -0.9492
 5273TIP3    H215784   0.408   1.844   1.258 -0.7525 -0.6985  0.7137
 5274TIP3   OH215785   6.489   6.395   3.422  0.0460  0.3782 -0.3711
 5274TIP3    H115786   6.487   6.302   3.398 -1.4729 -0.0988  1.3413
 5274TIP3    H215787   6.572   6.427   3.388  1.4173 -2.0453  0.4410
 5275TIP3   OH215788   1.845   6.317   4.431  0.4026  0.6728 -0.4001
 5275TIP3    H115789   1.940   6.311   4.438  0.2309 -1.3086  1.4268
 5275TIP3    H215790   1.819   6.236   4.387 -0.4548  0.9626 -0.4418
 5276TIP3   OH215791   5.221   3.167   3.532  1.0174  0.1226  0.0591
 5276TIP3    H115792   5.295   3.177   3.472  0.1398 -0.1955 -1.1151
 5276TIP3    H215793   5.244   3.091   3.586  1.2174 -0.4629 -0.8214
 5277TIP3   OH215794   3.617   1.383   1.028 -0.0634  0.3166 -0.0489
 5277TIP3    H115795   3.593   1.446   0.960  2.1593 -0.6488 -1.8658
 5277TIP3    H215796   3.592   1.298   0.991  1.2088 -0.2298  0.2892
 5278TIP3   OH215797   5.095   0.787   2.661  0.2124 -0.0957 -0.1419
 5278TIP3    H115798   5.116   0.743   2.579  0.4102 -0.8754  0.3105
 5278TIP3    H215799   5.156   0.750   2.725  1.2701  1.8113  0.0011
 5279TIP3   OH215800   4.087   1.176   3.925 -0.3406 -0.0733 -0.5833
 5279TIP3    H115801   4.077   1.251   3.866 -0.7598 -0.0460 -0.4852
 5279TIP3    H215802   4.000   1.165   3.964 -0.0231  0.0469  0.1889
 5280TIP3   OH215803   2.969   1.243   4.241  0.2990 -0.1614 -0.5550
 5280TIP3    H115804   3.017   1.169   4.205 -0.6720 -0.7708 -0.6295
 5280TIP3    H215805   2.879   1.212   4.249 -0.1934  1.1100 -0.8819
 5281TIP3   OH215806   3.310   5.251   0.442 -0.1078 -0.3160 -0.3315
 5281TIP3    H115807   3.398   5.274   0.413 -0.7523  0.7244 -1.5723
 5281TIP3    H215808   3.275   5.333   0.478 -0.8474 -0.5264 -0.5644
 5282TIP3   OH215809   0.513   4.902   4.218 -0.4234 -0.6486  0.3842
 5282TIP3    H115810   0.573   4.863   4.281  0.1423  0.1743  0.3679
 5282TIP3    H215811   0.567   4.922   4.142 -0.4421  1.1496  0.7994
 5283TIP3   OH215812   4.577   0.773   5.835  0.1237  0.5228  0.1394
 5283TIP3    H115813   4.586   0.822   5.754  0.0187  1.2874  0.5739
 5283TIP3    H215814   4.520   0.828   5.890 -1.1029 -0.7103  0.1506
 5284TIP3   OH215815   2.221   3.135   2.070 -0.4061 -0.1712 -0.4626
 5284TIP3    H115816   2.238   3.090   2.153 -0.1026  0.2187 -0.3115
 5284TIP3    H215817   2.129   3.162   2.076  0.0743  1.3528  0.4828
 5285TIP3   OH215818   2.691   0.142   5.095 -0.1778 -0.6557 -0.2032
 5285TIP3    H115819   2.610   0.188   5.071  0.8275  1.1541 -0.3091
 5285TIP3    H215820   2.705   0.164   5.187  1.4613  1.1870 -0.8136
 5286TIP3   OH215821   4.373   2.780   1.595 -0.1697 -0.2606 -0.2210
 5286TIP3    H115822   4.370   2.759   1.502 -0.6512  0.6613 -0.4327
 5286TIP3    H215823   4.287   2.754   1.628  0.7885 -2.8202  0.5227
 5287TIP3   OH215824   6.289   4.123   1.575  0.1520 -0.4746  0.1235
 5287TIP3    H115825   6.316   4.099   1.664  0.2493  1.1134  0.5462
 5287TIP3    H215826   6.319   4.050   1.521  0.6095 -1.1987  1.3176
 5288TIP3   OH215827   3.257   5.671   4.232  0.5261  0.1819 -0.0538
 5288TIP3    H115828   3.306   5.692   4.312  1.9228 -1.7417 -0.3347
 5288TIP3    H215829   3.228   5.581   4.245  1.5427 -0.4910 -2.0445
 5289TIP3   OH215830   5.830   1.617   0.993 -0.6691  0.1865 -0.1899
 5289TIP3    H115831   5.767   1.553   0.960  0.5993 -2.0566  1.4188
 5289TIP3    H215832   5.905   1.564   1.020  1.9322  2.7133 -1.9379
 5290TIP3   OH215833   2.301   4.238   0.848  0.1320 -0.3391 -0.5645
 5290TIP3    H115834   2.378   4.244   0.903 -0.9187  0.1795  0.9103
 5290TIP3    H215835   2.272   4.328   0.836 -1.2195 -0.6142  0.3768
 5291TIP3   OH215836   3.261   3.960   2.795  0.0173 -0.1651 -0.2929
 5291TIP3    H115837   3.350   3.992   2.811 -0.1596  0.0243  0.3469
 5291TIP3    H215838   3.273   3.870   2.764  0.4025 -0.4514  0.6383
 5292TIP3   OH215839   0.248   1.530   3.081  0.1811  0.0635  0.1256
 5292TIP3    H115840   0.340   1.552   3.070  0.4859 -1.2076 -0.0937
 5292TIP3    H215841   0.245   1.479   3.163 -0.4069  0.5201  0.3991
 5293TIP3   OH215842   0.156   0.089   3.720  0.1950  0.0811  0.0523
 5293TIP3    H115843   0.161   0.180   3.748  0.5720  0.3288 -0.7838
 5293TIP3    H215844   0.152   0.093   3.625  1.3120 -0.7986 -0.0574
 5294TIP3   OH215845   4.479   5.719   5.814  1.1640  0.1895 -0.1462
 5294TIP3    H115846   4.415   5.751   5.878 -1.2135  0.0943 -2.3020
 5294TIP3    H215847   4.521   5.645   5.857  0.5394  0.8708  1.7390
 5295TIP3   OH215848   2.396   6.035   3.321 -0.5627 -0.2675 -0.9658
 5295TIP3    H115849   2.308   5.997   3.322 -0.4949 -0.4662 -2.1813
 5295TIP3    H215850   2.449   5.973   3.272  0.9733 -1.5937  2.0716
 5296TIP3   OH215851   3.383   1.311   4.919  0.3652  0.1330 -0.7001
 5296TIP3    H115852   3.380   1.216   4.915  1.4735  0.0550 -0.0423
 5296TIP3    H215853   3.472   1.332   4.948  0.1089  1.3629 -0.7111
 5297TIP3   OH215854   5.405   5.866   5.398  0.2747  0.3242 -0.4984
 5297TIP3    H115855   5.358   5.859   5.314  1.7180 -0.3322 -1.2899
 5297TIP3    H215856   5.485   5.915   5.376 -0.1054  1.6083  0.8540
 5298TIP3   OH215857   0.554   3.594   0.155 -0.2884  0.1274  0.4940
 5298TIP3    H115858   0.581   3.685   0.149 -0.5689  0.2124  0.5027
 5298TIP3    H215859   0.460   3.598   0.173 -1.0975 -0.1314 -2.9660
 5299TIP3   OH215860   3.278   6.515   2.256  0.1875  0.0844 -0.2011
 5299TIP3    H115861   3.247   6.551   2.172  2.3411  1.3710 -0.5314
 5299TIP3    H215862   3.358   6.467   2.233  0.3068 -0.3127  0.9968
 5300TIP3   OH215863   0.429   2.061   5.607 -0.4197  0.4305  0.3252
 5300TIP3    H115864   0.439   1.980   5.556  1.9676  0.3513  0.7821
 5300TIP3    H215865   0.424   2.130   5.541 -0.0434  0.1115 -0.0440
 5301TIP3   OH215866   4.362   6.491   5.504  0.0027  0.1624  0.1355
 5301TIP3    H115867   4.303   6.528   5.437 -0.5402  1.3598  1.2232
 5301TIP3    H215868   4.362   6.556   5.574 -1.0945 -1.9737  2.2505
 5302TIP3   OH215869   7.137   1.454   2.908  0.1680 -0.5627  0.2823
 5302TIP3    H115870   7.154   1.494   2.993 -0.4836 -0.3076  0.2964
 5302TIP3    H215871   7.192   1.375   2.907  0.2117 -0.5423  0.9191
 5303TIP3   OH215872   3.679   4.188   3.995  0.5367 -0.5007 -0.2136
 5303TIP3    H115873   3.727   4.206   3.914 -0.5958 -0.1937 -0.8299
 5303TIP3    H215874   3.639   4.102   3.980  0.1672 -0.3568 -0.0622
 5304TIP3   OH215875   3.658   0.714   1.856 -0.4207 -0.1996  0.0713
 5304TIP3    H115876   3.592   0.774   1.820 -0.3539 -0.7134 -0.9285
 5304TIP3    H215877   3.661   0.641   1.794  1.6362  0.1518 -0.3190
 5305TIP3   OH215878   5.550   6.559   3.241 -0.0766  0.4456  0.3481
 5305TIP3    H115879   5.614   6.507   3.290  0.4471 -0.9854 -1.7521
 5305TIP3    H215880   5.602   6.607   3.177 -0.9851  0.1796 -0.6148
 5306TIP3   OH215881   3.726   2.307   3.424  0.0195 -0.3824  0.3532
 5306TIP3    H115882   3.730   2.328   3.518 -0.6692 -1.4345  0.6374
 5306TIP3    H215883   3.633   2.291   3.408  0.0827  0.1393 -0.6028
 5307TIP3   OH215884   4.355   6.093   1.156  0.2371 -0.3213  0.4756
 5307TIP3    H115885   4.298   6.165   1.182  0.5134  0.0255  0.1522
 5307TIP3    H215886   4.442   6.134   1.146  0.4361 -0.7351  0.4750
 5308TIP3   OH215887   3.655   5.853   4.337 -0.3106 -0.0053  0.0952
 5308TIP3    H115888   3.634   5.841   4.244  1.6195  2.4646 -0.7413
 5308TIP3    H215889   3.687   5.767   4.365 -0.5104 -0.6798 -1.6041
 5309TIP3   OH215890   3.519   1.778   4.191 -0.0511 -0.0188  0.9019
 5309TIP3    H115891   3.609   1.771   4.159  0.3797 -0.7997  2.1978
 5309TIP3    H215892   3.467   1.797   4.113  1.2296  0.4500  0.1289
 5310TIP3   OH215893   2.176   6.642   2.472 -0.0547 -0.0758  0.2535
 5310TIP3    H115894   2.190   6.735   2.457 -2.3020  0.2555 -0.2048
 5310TIP3    H215895   2.205   6.628   2.563 -0.4587  1.2660  0.6149
 5311TIP3   OH215896   1.206   6.288   0.803 -0.4013 -0.0643 -0.0675
 5311TIP3    H115897   1.298   6.308   0.818 -0.7063  0.3253  1.4454
 5311TIP3    H215898   1.194   6.299   0.709  0.8126  1.1160 -0.1106
 5312TIP3   OH215899   6.415   2.340   5.802 -0.5975  0.3566 -0.3037
 5312TIP3    H115900   6.474   2.360   5.875 -0.7737  0.5683 -0.2161
 5312TIP3    H215901   6.420   2.418   5.746 -1.0064  0.4912 -0.1542
 5313TIP3   OH215902   2.491   0.739   0.485 -0.5630  0.1007  0.5495
 5313TIP3    H115903   2.481   0.729   0.580 -0.4237  0.9847  0.6720
 5313TIP3    H215904   2.569   0.687   0.464 -0.1998  0.4260  1.0372
 5314TIP3   OH215905   5.047   4.243   1.251  0.5806 -0.3027  0.3241
 5314TIP3    H115906   5.090   4.268   1.169  1.3631  0.4020  0.9270
 5314TIP3    H215907   5.047   4.148   1.251  0.0559 -0.3109 -0.7566
 5315TIP3   OH215908   0.661   4.054   0.828  0.0192  0.3114 -0.1245
 5315TIP3    H115909   0.670   4.080   0.736  1.1391  0.3423 -0.0191
 5315TIP3    H215910   0.570   4.025   0.836  0.0913 -0.3198 -1.4004
 5316TIP3   OH215911   5.169   0.895   0.276  0.0419  0.6008  0.4846
 5316TIP3    H115912   5.184   0.939   0.193 -0.7879  0.4181  0.2312
 5316TIP3    H215913   5.249   0.845   0.292 -0.3509 -0.5635 -0.9490
 5317TIP3   OH215914   5.336   5.367   2.163 -0.1231 -0.1104 -0.2604
 5317TIP3    H115915   5.339   5.388   2.257 -1.4131  1.1405 -0.4697
 5317TIP3    H215916   5.276   5.292   2.158  0.1709 -0.3653 -0.0760
 5318TIP3   OH215917   0.157   6.799   2.591 -0.2961  0.1972  0.2437
 5318TIP3    H115918   0.241   6.793   2.547  0.0306 -0.3446  0.9123
 5318TIP3    H215919   0.103   6.732   2.549  0.3380 -1.0399  1.3049
 5319TIP3   OH215920   5.784   3.041   0.152 -0.1562  0.1104  0.8387
 5319TIP3    H115921   5.800   3.111   0.088  0.9437 -1.5394 -0.7505
 5319TIP3    H215922   5.817   3.077   0.234  3.3576  0.3664 -0.5252
 5320TIP3   OH215923   5.095   2.078   2.802  0.1357  0.5078 -0.3226
 5320TIP3    H115924   5.162   2.045   2.742 -1.7301 -0.2384 -2.1522
 5320TIP3    H215925   5.131   2.064   2.889  1.4863 -1.8174 -1.1681
 5321TIP3   OH215926   0.284   3.726   2.243  0.3876 -0.2786 -0.0983
 5321TIP3    H115927   0.315   3.642   2.278 -0.0126 -0.3482  0.0917
 5321TIP3    H215928   0.358   3.759   2.192  1.3128  0.2283  1.4999
 5322TIP3   OH215929   1.322   0.876   2.911  0.0068  0.0779  0.4803
 5322TIP3    H115930   1.271   0.796   2.894 -0.7363  0.0923  2.3565
 5322TIP3    H215931   1.264   0.947   2.882 -0.0406  0.0036  0.3899
 5323TIP3   OH215932   3.809   6.317   4.937 -0.2111  0.1482  0.1278
 5323TIP3    H115933   3.892   6.356   4.908 -0.8117  2.6018  1.4830
 5323TIP3    H215934   3.753   6.320   4.859  0.3969  0.1379 -0.3234
 5324TIP3   OH215935   1.097   1.645   1.689  0.0490  0.4789 -0.2940
 5324TIP3    H115936   1.065   1.719   1.741  4.3982  1.6515  1.1168
 5324TIP3    H215937   1.103   1.573   1.751  0.3492  0.3401 -0.4852
 5325TIP3   OH215938   4.208   2.031   0.525 -0.1727 -0.4781 -0.2381
 5325TIP3    H115939   4.228   1.950   0.479 -1.8242 -1.3575  0.4693
 5325TIP3    H215940   4.229   2.012   0.617  1.5503  0.6943 -0.3458
 5326TIP3   OH215941   3.650   5.109   2.871  0.7382 -0.1890 -0.2790
 5326TIP3    H115942   3.686   5.121   2.959 -0.5423 -1.0181  0.3816
 5326TIP3    H215943   3.717   5.144   2.813  1.7957 -0.0181  1.0028
 5327TIP3   OH215944   2.635   6.305   4.612 -0.0790 -0.1403 -0.5601
 5327TIP3    H115945   2.694   6.376   4.587 -0.7209  1.1456  1.3641
 5327TIP3    H215946   2.639   6.243   4.539  1.4466  1.2758 -1.7358
 5328TIP3   OH215947   6.858   4.277   5.157 -0.1019 -0.0470  0.2647
 5328TIP3    H115948   6.865   4.222   5.079 -0.3117  0.9524 -0.4647
 5328TIP3    H215949   6.942   4.322   5.162  0.2119 -0.6824  1.0787
 5329TIP3   OH215950   3.999   3.505   3.670 -0.1708  0.2064  0.2186
 5329TIP3    H115951   3.929   3.441   3.653  1.5512 -1.6878 -0.1394
 5329TIP3    H215952   4.002   3.559   3.591  0.2962 -1.2454 -0.8004
 5330TIP3   OH215953   4.658   4.110   1.316 -0.2772 -0.7499 -0.2028
 5330TIP3    H115954   4.735   4.065   1.351 -1.2057 -2.4085 -0.2385
 5330TIP3    H215955   4.585   4.080   1.370 -0.9688  0.5483 -0.3808
 5331TIP3   OH215956   2.667   4.698   1.190 -0.0659  0.2841 -0.2269
 5331TIP3    H115957   2.597   4.717   1.127  0.1209 -0.7699 -0.7706
 5331TIP3    H215958   2.712   4.782   1.202  0.2236  0.3934 -1.9077
 5332TIP3   OH215959   5.310   3.596   3.701  0.0927 -0.1396 -0.3857
 5332TIP3    H115960   5.231   3.609   3.649  0.6011 -1.8777 -1.6664
 5332TIP3    H215961   5.279   3.599   3.792 -0.8692  2.5728 -0.7050
 5333TIP3   OH215962   6.101   3.045   2.139  0.2384  0.3057 -0.0433
 5333TIP3    H115963   6.061   3.073   2.222  1.8232 -0.0229  0.8721
 5333TIP3    H215964   6.053   3.094   2.072 -0.4534  1.3126  1.1341
 5334TIP3   OH215965   0.325   5.506   2.165  0.5108  0.3812 -0.1378
 5334TIP3    H115966   0.239   5.521   2.206  0.7176  1.3430 -0.0377
 5334TIP3    H215967   0.336   5.580   2.105  1.2711  0.2591 -0.1514
 5335TIP3   OH215968   3.866   1.884   1.901  0.4022 -0.3115  0.3464
 5335TIP3    H115969   3.849   1.833   1.822  0.2339 -0.1897  0.3030
 5335TIP3    H215970   3.926   1.953   1.873  0.1399 -0.1139  0.2665
 5336TIP3   OH215971   3.341   2.779   0.910 -0.0177 -0.4948 -0.7668
 5336TIP3    H115972   3.405   2.772   0.981  0.6260 -0.6162 -1.3552
 5336TIP3    H215973   3.371   2.717   0.844 -1.3025 -1.3086 -0.6328
 5337TIP3   OH215974   2.960   6.382   1.248  0.2808  0.1074  0.0689
 5337TIP3    H115975   2.888   6.436   1.282 -0.3070 -0.5166 -0.1808
 5337TIP3    H215976   2.918   6.317   1.192  0.8961 -1.1033  0.9591
 5338TIP3   OH215977   5.770   0.259   4.840 -0.2689  0.7914  0.3056
 5338TIP3    H115978   5.782   0.226   4.751  0.9999 -2.6556  1.6045
 5338TIP3    H215979   5.833   0.331   4.847  0.6574  0.1781 -1.1526
 5339TIP3   OH215980   4.926   0.826   2.994  0.2261 -0.0370  0.1695
 5339TIP3    H115981   4.859   0.889   3.020 -2.7293 -2.6390 -0.5408
 5339TIP3    H215982   4.938   0.840   2.900 -1.9435 -1.6434 -0.4385
 5340TIP3   OH215983   4.070   2.764   1.585 -0.6015  0.1327 -0.1864
 5340TIP3    H115984   3.987   2.775   1.540 -0.9758  0.1307  0.4917
 5340TIP3    H215985   4.048   2.769   1.678  0.2640  0.8725 -0.0113
 5341TIP3   OH215986   5.645   3.970   0.156  0.2098  0.5575  0.2617
 5341TIP3    H115987   5.552   3.953   0.173  0.1615  1.7094  1.2776
 5341TIP3    H215988   5.692   3.912   0.218  0.1673  0.2510  0.0097
 5342TIP3   OH215989   5.645   4.469   2.359 -0.5176 -0.6269 -0.2126
 5342TIP3    H115990   5.604   4.393   2.318 -1.1949 -1.7214  2.2974
 5342TIP3    H215991   5.737   4.443   2.370 -0.8767 -1.4089  1.2089
 5343TIP3   OH215992   1.580   3.814   4.239 -0.0490 -0.3478 -0.3921
 5343TIP3    H115993   1.526   3.870   4.183 -0.1225  0.2475  0.2613
 5343TIP3    H215994   1.609   3.872   4.310  0.3299 -1.0015 -0.0070
 5344TIP3   OH215995   4.450   0.567   0.614 -0.9956  0.2967 -0.4236
 5344TIP3    H115996   4.384   0.500   0.632 -2.2271  2.2693  3.7998
 5344TIP3    H215997   4.534   0.521   0.624 -1.7871 -0.9910  0.5867
 5345TIP3   OH215998   4.521   1.764   4.558  0.3803 -0.5969  0.1070
 5345TIP3    H115999   4.435   1.758   4.518  0.1684  1.7769  0.0885
 5345TIP3    H216000   4.510   1.823   4.633  1.4670 -2.3391  1.7603
 5346TIP3   OH216001   0.713   5.808   2.223  0.0269  0.0982  0.7428
 5346TIP3    H116002   0.660   5.791   2.301 -0.1456  0.4384  0.7020
 5346TIP3    H216003   0.725   5.722   2.183  1.7794 -0.3865  2.1976
 5347TIP3   OH216004   5.877   2.147   4.107  0.5997  0.5828 -1.1527
 5347TIP3    H116005   5.872   2.145   4.012  0.7904 -2.9601 -1.2165
 5347TIP3    H216006   5.965   2.178   4.127  1.0154  0.0623 -2.1626
 5348TIP3   OH216007   2.393   5.321   2.833 -0.0150 -0.4681  0.3291
 5348TIP3    H116008   2.374   5.239   2.878 -0.5650 -0.2874  0.4322
 5348TIP3    H216009   2.340   5.318   2.753 -1.1634  0.4210  1.0396
 5349TIP3   OH216010   6.863   1.329   3.694  0.3353  0.0970 -0.2421
 5349TIP3    H116011   6.788   1.375   3.657  0.4694 -1.7134 -3.0069
 5349TIP3    H216012   6.934   1.393   3.692 -0.5677  1.1485  0.3550
 5350TIP3   OH216013   2.172   5.933   1.296 -0.4761 -0.7599  0.3465
 5350TIP3    H116014   2.209   5.931   1.207  0.6370 -0.2182  0.7728
 5350TIP3    H216015   2.240   5.892   1.350  0.1365  1.4400  1.3582
 5351TIP3   OH216016   4.294   4.833   4.325 -0.0557 -0.1677  0.2395
 5351TIP3    H116017   4.267   4.794   4.242 -2.9195  0.2026  0.8831
 5351TIP3    H216018   4.364   4.776   4.357  0.2604 -1.0128 -1.8197
 5352TIP3   OH216019   3.868   4.033   3.522  0.3687 -0.2759  0.0160
 5352TIP3    H116020   3.946   4.086   3.511  0.6005 -0.6052  0.0634
 5352TIP3    H216021   3.900   3.943   3.529  0.0699 -0.3007  1.2004
 5353TIP3   OH216022   6.573   5.644   3.700 -1.2147 -0.4279  0.0756
 5353TIP3    H116023   6.579   5.581   3.629 -1.6207  0.8333 -1.1259
 5353TIP3    H216024   6.658   5.640   3.743 -0.3223 -0.0184 -1.5643
 5354TIP3   OH216025   1.796   5.103   2.782  0.3165  0.4311 -0.3742
 5354TIP3    H116026   1.789   5.082   2.875  0.7493 -1.1124 -0.6609
 5354TIP3    H216027   1.855   5.178   2.778  0.9869 -0.0329  0.5457
 5355TIP3   OH216028   4.360   0.495   2.289 -0.1350  0.1754  0.3309
 5355TIP3    H116029   4.382   0.404   2.306 -1.0477 -0.4551 -1.5308
 5355TIP3    H216030   4.312   0.523   2.367  2.4658 -0.0257  2.1153
 5356TIP3   OH216031   4.075   1.743   5.839  0.8074 -0.2338  0.7452
 5356TIP3    H116032   4.135   1.789   5.897  0.7346 -0.1240  0.7344
 5356TIP3    H216033   4.122   1.663   5.814  1.3199  0.2780  0.0201
 5357TIP3   OH216034   1.649   3.023   1.832  0.0731 -0.0135 -0.1171
 5357TIP3    H116035   1.635   2.964   1.906 -0.1912  1.0656  0.7089
 5357TIP3    H216036   1.576   3.006   1.773 -1.4381  1.2534  1.3050
 5358TIP3   OH216037   0.972   6.329   3.117  0.2341 -0.1850 -0.1446
 5358TIP3    H116038   0.999   6.249   3.164  0.4591 -0.8226 -1.3300
 5358TIP3    H216039   1.045   6.349   3.059 -0.7985 -0.5264 -1.6205
 5359TIP3   OH216040   5.066   3.590   5.099  0.1774  0.0992  0.6086
 5359TIP3    H116041   5.025   3.647   5.034  2.7823  1.0759 -0.3006
 5359TIP3    H216042   5.022   3.505   5.087 -0.4259  0.6390 -1.4332
 5360TIP3   OH216043   3.922   3.295   5.262 -0.1176 -0.2072 -0.1115
 5360TIP3    H116044   3.972   3.308   5.182 -0.5349 -2.2068 -0.7731
 5360TIP3    H216045   3.888   3.381   5.285 -0.5188  0.3184 -2.4684
 5361TIP3   OH216046   6.761   1.964   3.110 -0.1001 -0.1896  0.1158
 5361TIP3    H116047   6.813   2.040   3.086 -0.9743  0.4309  0.1309
 5361TIP3    H216048   6.772   1.957   3.205 -0.6920  0.4546  0.2453
 5362TIP3   OH216049   6.224   4.492   2.584 -0.1164  0.2150 -0.4508
 5362TIP3    H116050   6.140   4.525   2.616 -0.5030 -0.2388 -0.9811
 5362TIP3    H216051   6.251   4.428   2.649  0.3441  1.1110  0.2694
 5363TIP3   OH216052   0.499   3.735   1.473 -0.2726  0.1642 -0.9096
 5363TIP3    H116053   0.575   3.720   1.417  1.4196  0.4528  1.1798
 5363TIP3    H216054   0.457   3.813   1.436  1.2275  0.8007 -1.3700
 5364TIP3   OH216055   2.584   3.508   5.428  0.4186  0.1975 -0.3662
 5364TIP3    H116056   2.612   3.515   5.336  0.6721  0.2634 -0.2847
 5364TIP3    H216057   2.620   3.425   5.458  0.1498  0.0709 -0.3885
 5365TIP3   OH216058   4.757   3.851   0.031 -0.1929  0.2539 -0.1706
 5365TIP3    H116059   4.850   3.864   0.046 -0.0558  0.0999 -0.8624
 5365TIP3    H216060   4.718   3.937   0.045 -0.0221  0.2161  0.6047
 5366TIP3   OH216061   7.039   3.248   0.727  0.0177 -0.5366  0.1663
 5366TIP3    H116062   7.036   3.335   0.689  2.2076 -0.2764  0.4818
 5366TIP3    H216063   7.024   3.189   0.653  1.2392  0.0525 -0.5808
 5367TIP3   OH216064   4.432   2.170   0.300 -0.1931 -0.1361  0.1235
 5367TIP3    H116065   4.360   2.108   0.314 -0.0416 -0.5126 -0.7101
 5367TIP3    H216066   4.397   2.254   0.330  0.1237 -0.8495  2.7716
 5368TIP3   OH216067   4.951   6.546   1.651  0.4112 -0.4274 -0.1743
 5368TIP3    H116068   4.995   6.629   1.631  0.6527 -0.3587  0.6091
 5368TIP3    H216069   5.012   6.500   1.710 -0.8598 -0.0186  1.5538
 5369TIP3   OH216070   6.600   5.840   3.476 -0.0607  0.0910 -0.5269
 5369TIP3    H116071   6.603   5.755   3.431  0.9726 -0.0492 -0.2088
 5369TIP3    H216072   6.589   5.817   3.568 -0.9931  0.3492 -0.5617
 5370TIP3   OH216073   1.040   4.727   3.027  1.2009 -0.1807  0.5016
 5370TIP3    H116074   0.947   4.706   3.033  0.8360  1.1588 -0.1844
 5370TIP3    H216075   1.074   4.715   3.116  0.4374 -0.9310  0.6963
 5371TIP3   OH216076   2.072   1.828   4.793 -0.0348 -0.3241  0.0956
 5371TIP3    H116077   1.995   1.872   4.829 -0.5997 -2.2768  1.3807
 5371TIP3    H216078   2.078   1.862   4.703 -3.3460 -1.2557 -0.6164
 5372TIP3   OH216079   4.443   3.585   2.888  0.4628  0.0331  0.1831
 5372TIP3    H116080   4.404   3.648   2.828 -0.2097 -1.0072 -0.5060
 5372TIP3    H216081   4.522   3.628   2.921  0.1433  1.1294 -0.4350
 5373TIP3   OH216082   5.521   2.356   2.291  0.2364  0.1947 -0.0917
 5373TIP3    H116083   5.539   2.436   2.242 -1.0444  0.7991  0.3858
 5373TIP3    H216084   5.450   2.314   2.242 -0.9240  0.7063  1.1018
 5374TIP3   OH216085   0.541   3.762   4.281  0.0754  0.4936 -0.6793
 5374TIP3    H116086   0.448   3.775   4.264 -0.3094 -2.2968 -1.1180
 5374TIP3    H216087   0.584   3.795   4.201 -0.5718  0.9778 -0.8441
 5375TIP3   OH216088   1.649   2.602   3.025  0.2178  0.2659 -0.1161
 5375TIP3    H116089   1.562   2.603   2.987 -0.4814  0.2426  1.4206
 5375TIP3    H216090   1.678   2.511   3.016 -1.0315 -0.3711  1.7168
 5376TIP3   OH216091   0.672   2.320   4.760 -0.2097 -0.3488 -0.3569
 5376TIP3    H116092   0.732   2.390   4.734  0.7753 -0.7304  0.7924
 5376TIP3    H216093   0.633   2.351   4.842 -0.5117 -0.7161 -0.3619
 5377TIP3   OH216094   2.159   2.256   4.908 -0.1984 -0.7736  0.1600
 5377TIP3    H116095   2.160   2.260   4.812 -0.0517 -1.8729  0.0995
 5377TIP3    H216096   2.185   2.166   4.928 -0.8213 -0.7356  1.2199
 5378TIP3   OH216097   3.656   2.187   2.414 -0.2738  0.0930 -0.1232
 5378TIP3    H116098   3.572   2.153   2.383 -0.3812 -0.5576  0.8443
 5378TIP3    H216099   3.700   2.112   2.452 -0.3952  0.9596  1.8186
 5379TIP3   OH216100   0.239   4.785   3.119 -0.1282  0.2351 -0.1838
 5379TIP3    H116101   0.210   4.863   3.166  0.2387  0.5645 -0.5032
 5379TIP3    H216102   0.286   4.734   3.185  1.1638  1.1170 -0.3918
 5380TIP3   OH216103   2.585   2.984   4.847 -0.2390  0.5840 -0.4463
 5380TIP3    H116104   2.529   2.906   4.845  1.3498 -0.6893  1.1869
 5380TIP3    H216105   2.524   3.057   4.853 -1.7885 -0.7639  1.5820
 5381TIP3   OH216106   6.967   4.663   4.607 -0.4589 -0.2789 -0.3129
 5381TIP3    H116107   6.900   4.682   4.542 -1.0681  0.2175  0.4479
 5381TIP3    H216108   6.946   4.720   4.681  0.3107 -0.7193  0.2630
 5382TIP3   OH216109   5.124   1.645   5.079 -0.4383  0.1519  0.1851
 5382TIP3    H116110   5.172   1.693   5.011 -0.7519 -0.6536 -0.6327
 5382TIP3    H216111   5.033   1.649   5.052 -0.6033  0.0642  0.7165
 5383TIP3   OH216112   3.623   4.917   5.676 -0.4403  0.2054 -0.4725
 5383TIP3    H116113   3.531   4.921   5.651 -1.1485 -1.6834  1.4695
 5383TIP3    H216114   3.628   4.841   5.735  2.5892 -0.4459 -1.4119
 5384TIP3   OH216115   5.697   1.454   5.684 -0.1402 -0.6451  0.3373
 5384TIP3    H116116   5.713   1.364   5.711  1.5176 -0.7256 -0.8181
 5384TIP3    H216117   5.709   1.454   5.589 -0.7282  0.6784  0.2291
 5385TIP3   OH216118   2.715   4.168   4.790 -0.1178  0.1072  0.4538
 5385TIP3    H116119   2.732   4.075   4.808  0.6233  0.3533  1.0294
 5385TIP3    H216120   2.631   4.167   4.744  0.5021 -0.9711 -0.7451
 5386TIP3   OH216121   4.265   1.130   5.065 -0.2269 -0.3505  0.1688
 5386TIP3    H116122   4.200   1.161   5.128 -0.5466  0.0460 -0.3471
 5386TIP3    H216123   4.326   1.077   5.117 -1.3711 -1.3464  0.5286
 5387TIP3   OH216124   0.262   3.937   2.005 -0.3193 -0.5961 -0.3963
 5387TIP3    H116125   0.290   3.852   1.971  0.5939 -0.9392  1.1330
 5387TIP3    H216126   0.167   3.938   1.994 -0.5146 -2.3939  0.8016
 5388TIP3   OH216127   0.437   2.318   3.610  0.1441 -0.0265 -0.3109
 5388TIP3    H116128   0.396   2.259   3.546  0.3236 -1.6438  1.0112
 5388TIP3    H216129   0.530   2.301   3.602  0.1320 -0.7321  0.8007
 5389TIP3   OH216130   0.415   4.073   4.384  0.1728  0.4805  0.1275
 5389TIP3    H116131   0.472   4.071   4.308 -0.4455  0.1685 -0.3342
 5389TIP3    H216132   0.354   4.001   4.370  0.5616 -0.1103  1.3178
 5390TIP3   OH216133   6.043   2.560   0.342  0.5696 -0.6155 -0.4082
 5390TIP3    H116134   6.082   2.475   0.322  2.4011  0.6413 -2.8097
 5390TIP3    H216135   5.957   2.557   0.301  0.6609 -1.2569 -0.5675
 5391TIP3   OH216136   5.078   1.397   0.597  0.3112 -0.5075  0.0164
 5391TIP3    H116137   5.004   1.358   0.551  1.8272 -3.5380 -0.0615
 5391TIP3    H216138   5.150   1.391   0.534  1.1936  0.1753  0.9385
 5392TIP3   OH216139   0.286   2.050   1.837  0.9957  0.2815 -0.0437
 5392TIP3    H116140   0.211   2.004   1.876 -0.8219  1.0455 -2.3749
 5392TIP3    H216141   0.356   1.985   1.837 -0.2878 -1.1756  0.3699
 5393TIP3   OH216142   4.864   0.415   4.027  0.2355  0.2634  0.4916
 5393TIP3    H116143   4.865   0.323   3.999  0.1545 -0.4831  2.7361
 5393TIP3    H216144   4.909   0.415   4.112  1.7961  2.6163 -0.2247
 5394TIP3   OH216145   7.084   5.807   5.527  0.0469 -0.2102 -0.1510
 5394TIP3    H116146   7.023   5.870   5.565  1.2593  2.1017 -1.7257
 5394TIP3    H216147   7.030   5.749   5.474 -0.8970  1.5016 -1.1642
 5395TIP3   OH216148   0.387   0.302  -0.006  0.1922 -0.2954  0.1851
 5395TIP3    H116149   0.411   0.391  -0.032  0.9943 -0.5352  0.0829
 5395TIP3    H216150   0.407   0.298   0.087 -2.9312  0.6478  1.0204
 5396TIP3   OH216151   4.301   1.103   5.729 -0.3580  0.2554 -0.7631
 5396TIP3    H116152   4.305   1.068   5.818 -1.2297  0.1126 -0.7778
 5396TIP3    H216153   4.247   1.181   5.735  1.3190  1.4827 -0.7974
 5397TIP3   OH216154   7.038   2.051   5.851 -0.0437  0.4040 -0.1874
 5397TIP3    H116155   7.014   2.088   5.766  0.2164  3.1510  0.8454
 5397TIP3    H216156   6.955   2.048   5.900 -0.3294 -1.8705 -0.7219
 5398TIP3   OH216157   2.165   4.583   5.102 -0.1519 -0.4397  0.2015
 5398TIP3    H116158   2.225   4.535   5.159 -0.3258 -3.0183 -1.6392
 5398TIP3    H216159   2.220   4.613   5.029 -0.5508 -0.2314 -0.0161
 5399TIP3   OH216160   3.400   1.156   1.203  0.1963  0.9129  0.6356
 5399TIP3    H116161   3.431   1.150   1.113 -0.9493  0.7875  0.2422
 5399TIP3    H216162   3.394   1.250   1.220 -0.1728  0.9385  0.3735
 5400TIP3   OH216163   4.888   2.357   5.572  0.2067  0.6185 -0.1219
 5400TIP3    H116164   4.984   2.350   5.576  0.2240  0.8713 -0.0852
 5400TIP3    H216165   4.861   2.282   5.519  0.2160 -0.9660  2.0139
 5401TIP3   OH216166   4.361   2.576   2.222  0.1776  0.2614  0.6035
 5401TIP3    H116167   4.270   2.561   2.197 -1.8687  3.1581  4.9767
 5401TIP3    H216168   4.388   2.652   2.170 -0.5487  0.4931  0.5601
 5402TIP3   OH216169   1.434   5.546   3.187  0.4661  0.0511  0.2990
 5402TIP3    H116170   1.467   5.635   3.199 -0.3770  0.1790  1.9266
 5402TIP3    H216171   1.507   5.489   3.213  1.1306  0.2350 -1.0932
 5403TIP3   OH216172   3.596   5.843   4.904 -1.3798  0.1628 -0.1104
 5403TIP3    H116173   3.557   5.855   4.990 -1.3095 -2.3331  0.3437
 5403TIP3    H216174   3.657   5.916   4.895 -1.6410  0.6682  1.8186
 5404TIP3   OH216175   4.631   6.533   4.193 -0.1041  0.5417 -0.4935
 5404TIP3    H116176   4.649   6.615   4.238  1.6603 -0.0106 -0.1180
 5404TIP3    H216177   4.610   6.471   4.262 -0.6268  0.4799 -0.7050
 5405TIP3   OH216178   0.747   3.855   0.573  0.4742 -0.3638  0.2971
 5405TIP3    H116179   0.788   3.941   0.560  1.2936 -0.5939  1.2342
 5405TIP3    H216180   0.766   3.807   0.492 -0.2114  0.4088 -0.3414
 5406TIP3   OH216181   5.327   4.925   4.820  0.4174 -0.0622 -0.5365
 5406TIP3    H116182   5.375   4.990   4.871 -0.1677  1.2198 -1.5648
 5406TIP3    H216183   5.286   4.869   4.886 -0.1282  1.3923  0.4165
 5407TIP3   OH216184   6.404   5.018   5.310 -0.1200 -0.1951  0.3408
 5407TIP3    H116185   6.380   5.070   5.386 -0.6565 -1.7844  1.3101
 5407TIP3    H216186   6.324   5.015   5.257 -0.3133 -0.6105  0.6474
 5408TIP3   OH216187   4.599   5.712   5.096 -0.0666  0.0509 -0.1356
 5408TIP3    H116188   4.517   5.761   5.101  0.1903  0.7033 -1.6705
 5408TIP3    H216189   4.592   5.662   5.014  0.0677 -1.8127  0.9370
 5409TIP3   OH216190   5.014   0.962   0.525 -0.3717  0.3470  0.4429
 5409TIP3    H116191   4.921   0.960   0.504 -0.5722  1.4042  1.1608
 5409TIP3    H216192   5.058   0.970   0.440 -1.0700  2.5089  0.2278
 5410TIP3   OH216193   5.187   1.336   1.364 -0.0696 -0.1116  0.3965
 5410TIP3    H116194   5.282   1.347   1.362 -0.0281 -0.1465  1.6820
 5410TIP3    H216195   5.164   1.314   1.274  1.1104  0.1238  0.0206
 5411TIP3   OH216196   4.590   3.937   4.700  0.2087 -0.1008  0.1093
 5411TIP3    H116197   4.503   3.918   4.664  0.9667 -0.8370 -1.4239
 5411TIP3    H216198   4.646   3.867   4.666  2.2029  2.3669 -2.0715
 5412TIP3   OH216199   2.117   5.277   0.321  0.1318 -0.7044 -0.4418
 5412TIP3    H116200   2.118   5.291   0.415  1.3658 -1.3213 -0.3329
 5412TIP3    H216201   2.186   5.212   0.306 -0.0138 -0.5841 -1.7720
 5413TIP3   OH216202   3.490   2.823   1.701 -0.1032 -0.6140 -0.1892
 5413TIP3    H116203   3.559   2.796   1.762 -0.2337  0.2886  0.3780
 5413TIP3    H216204   3.496   2.760   1.629  1.2411 -0.6167 -0.1027
 5414TIP3   OH216205   1.117   3.852   3.739 -0.1618 -0.4324  0.0589
 5414TIP3    H116206   1.052   3.920   3.760 -0.6554 -0.8136 -0.2233
 5414TIP3    H216207   1.077   3.771   3.771  0.0177 -0.7201 -0.4492
 5415TIP3   OH216208   6.418   4.518   0.343  0.5334  0.1496 -0.2061
 5415TIP3    H116209   6.434   4.597   0.395 -0.7799 -0.5428  1.3652
 5415TIP3    H216210   6.335   4.534   0.299  0.2579 -0.3348  0.1221
 5416TIP3   OH216211   4.555   4.130   2.394 -0.0565 -0.2132 -0.3240
 5416TIP3    H116212   4.471   4.114   2.436 -0.2376  0.1346 -0.5525
 5416TIP3    H216213   4.565   4.225   2.394  0.3213 -0.2512 -0.3239
 5417TIP3   OH216214   5.287   3.162   2.965  0.4368  0.0880  0.7172
 5417TIP3    H116215   5.243   3.185   2.884  0.3711 -0.3199  0.6351
 5417TIP3    H216216   5.263   3.071   2.981 -0.4244  0.4681  1.7601
 5418TIP3   OH216217   3.593   3.953   2.569 -0.2955 -0.3260 -0.1435
 5418TIP3    H116218   3.649   3.878   2.553 -0.6347 -0.3908 -1.0910
 5418TIP3    H216219   3.504   3.920   2.557 -0.4187  0.4705 -1.8464
 5419TIP3   OH216220   4.915   3.329   0.780  0.5541  0.2849  0.2648
 5419TIP3    H116221   4.859   3.388   0.831  1.8757  0.6292  1.3798
 5419TIP3    H216222   4.872   3.323   0.695 -1.0347  0.7241  0.9916
 5420TIP3   OH216223   0.278   1.578   0.647 -0.4069  0.0127  0.4546
 5420TIP3    H116224   0.230   1.585   0.564 -0.7012  2.2383  0.7582
 5420TIP3    H216225   0.226   1.629   0.709  0.7016 -0.1873  1.5838
 5421TIP3   OH216226   4.906   3.031   5.757 -0.1927 -0.2803 -0.0507
 5421TIP3    H116227   4.961   3.094   5.804  0.5036 -1.0258  0.1481
 5421TIP3    H216228   4.960   3.001   5.684 -1.4484  1.2444 -1.6824
 5422TIP3   OH216229   0.382   4.762   0.528 -0.7975 -0.4175  0.5478
 5422TIP3    H116230   0.413   4.803   0.447 -1.2566 -2.0989 -0.5256
 5422TIP3    H216231   0.290   4.786   0.534 -0.5387  0.4757  1.0871
 5423TIP3   OH216232   3.615   4.551   2.465 -0.0603  0.2900  0.0445
 5423TIP3    H116233   3.523   4.527   2.474  0.1767 -2.1748 -2.7122
 5423TIP3    H216234   3.622   4.585   2.376  1.7959 -0.0573  0.0217
 5424TIP3   OH216235   5.169   2.918   0.205 -0.3224  0.3455 -0.5542
 5424TIP3    H116236   5.107   2.846   0.219  0.0127  0.1104 -0.2431
 5424TIP3    H216237   5.255   2.875   0.202 -0.1100  0.7438 -0.2466
 5425TIP3   OH216238   4.526   2.672   3.644  0.1177 -0.3017  0.4789
 5425TIP3    H116239   4.496   2.648   3.732 -0.8727 -1.3024 -0.1104
 5425TIP3    H216240   4.528   2.768   3.646 -0.9199 -0.2705  1.2725
 5426TIP3   OH216241   1.585   4.842   5.810 -0.2832 -1.2276  0.3165
 5426TIP3    H116242   1.633   4.779   5.865 -0.4866 -1.3752  0.3243
 5426TIP3    H216243   1.527   4.788   5.756 -0.3984 -1.0527  0.2648
 5427TIP3   OH216244   4.048   4.731   3.336 -0.3176  0.0472 -0.3175
 5427TIP3    H116245   4.043   4.824   3.359  0.4153  0.1292 -0.4559
 5427TIP3    H216246   4.073   4.731   3.243 -0.3766 -0.2894 -0.3353
 5428TIP3   OH216247   1.196   4.278   5.514 -0.2282  0.5562  0.3552
 5428TIP3    H116248   1.119   4.258   5.461  0.4777 -0.3764 -0.3438
 5428TIP3    H216249   1.181   4.368   5.544 -0.9887  0.8441 -0.8087
 5429TIP3   OH216250   0.555   3.795   2.775 -0.6730  0.5629  0.1735
 5429TIP3    H116251   0.651   3.790   2.776 -0.7322 -1.1037  1.2451
 5429TIP3    H216252   0.534   3.823   2.686  0.7434 -1.7076 -0.9802
 5430TIP3   OH216253   2.471   0.182   1.043 -0.3275  0.2585  0.0063
 5430TIP3    H116254   2.416   0.112   1.079 -0.5144 -0.5745 -1.8029
 5430TIP3    H216255   2.411   0.255   1.029 -0.8610 -0.3914 -1.2526
 5431TIP3   OH216256   0.383   3.005   4.855  0.5578 -0.6745 -0.0981
 5431TIP3    H116257   0.395   2.963   4.940  0.5901 -0.9369 -0.2309
 5431TIP3    H216258   0.316   2.952   4.812  0.0663 -0.1599  0.0197
 5432TIP3   OH216259   6.769   4.411   1.055  0.2240 -0.1317 -0.5025
 5432TIP3    H116260   6.740   4.492   1.013 -1.9296 -0.2689  0.5606
 5432TIP3    H216261   6.751   4.343   0.989 -0.3158 -0.0104 -0.4889
 5433TIP3   OH216262   4.938   6.139   4.512 -0.1123 -0.2867  0.2331
 5433TIP3    H116263   4.863   6.166   4.565 -0.5854 -0.8061 -0.1571
 5433TIP3    H216264   4.906   6.146   4.421  0.4273 -0.1713  0.0490
 5434TIP3   OH216265   5.213   5.204   4.432 -0.0163 -0.2001  0.1240
 5434TIP3    H116266   5.182   5.292   4.410 -0.3775 -0.0841  1.0600
 5434TIP3    H216267   5.185   5.190   4.522 -1.3208 -1.8747 -0.4833
 5435TIP3   OH216268   1.560   4.670   1.353 -0.3103  0.8906  0.0101
 5435TIP3    H116269   1.484   4.641   1.404 -0.8965 -0.6517 -1.6723
 5435TIP3    H216270   1.635   4.638   1.403 -0.8173  0.6392  0.6349
 5436TIP3   OH216271   2.575   1.795   2.392  0.3443 -0.3541  0.4775
 5436TIP3    H116272   2.492   1.840   2.409  0.7769 -0.0485  1.9010
 5436TIP3    H216273   2.548   1.707   2.363 -0.4862 -0.1817  0.6884
 5437TIP3   OH216274   3.678   3.060   5.487  0.1654 -0.6701  0.4090
 5437TIP3    H116275   3.673   3.155   5.498 -0.2441 -0.6711  0.2639
 5437TIP3    H216276   3.680   3.025   5.576 -0.2269 -0.5499  0.4659
 5438TIP3   OH216277   5.914   1.353   2.809 -0.6024  0.1238 -0.3604
 5438TIP3    H116278   5.967   1.328   2.886 -1.1810 -1.7881 -0.5263
 5438TIP3    H216279   5.977   1.394   2.749  0.3464 -0.5043  0.1697
 5439TIP3   OH216280   3.625   4.444   5.625 -0.0458  0.0821  0.6280
 5439TIP3    H116281   3.617   4.369   5.684  2.2926  0.0659  1.0205
 5439TIP3    H216282   3.668   4.409   5.547 -0.0598  0.7743  0.3040
 5440TIP3   OH216283   4.915   3.660   1.032 -0.1605 -0.4530 -0.1091
 5440TIP3    H116284   4.845   3.596   1.023 -0.8420  0.3128 -0.3257
 5440TIP3    H216285   4.996   3.609   1.019 -0.7313 -1.0705 -1.4237
 5441TIP3   OH216286   6.538   3.010   3.979 -0.7564  0.2849 -0.4151
 5441TIP3    H116287   6.575   2.990   4.065 -1.9308  0.2631  0.1026
 5441TIP3    H216288   6.491   2.931   3.954 -0.1013  0.1497 -1.2687
 5442TIP3   OH216289   4.889   3.892   4.628  0.1783 -0.3021 -0.6031
 5442TIP3    H116290   4.938   3.942   4.694  0.9981 -1.7609 -0.0649
 5442TIP3    H216291   4.947   3.820   4.604 -1.4028 -1.6815 -0.4851
 5443TIP3   OH216292   2.874   6.377   2.208 -0.0241 -0.2289  0.2078
 5443TIP3    H116293   2.894   6.466   2.236 -3.1723  0.8812 -0.5840
 5443TIP3    H216294   2.846   6.332   2.287 -0.1507  0.0578  0.3264
 5444TIP3   OH216295   1.727   5.953   0.352  0.4447 -0.1023 -0.3411
 5444TIP3    H116296   1.783   5.926   0.425 -0.9910 -0.7398  0.5666
 5444TIP3    H216297   1.722   6.048   0.360 -0.3246 -0.2292  0.8882
 5445TIP3   OH216298   6.748   5.811   1.704  0.2044 -0.0888 -0.0266
 5445TIP3    H116299   6.702   5.764   1.773  1.8687 -2.1450 -0.1843
 5445TIP3    H216300   6.782   5.890   1.746 -1.4463  0.3135  0.6390
 5446TIP3   OH216301   0.874   2.995   2.691  0.0152 -0.2324 -0.3688
 5446TIP3    H116302   0.911   3.080   2.714  0.7069 -0.7668  0.6312
 5446TIP3    H216303   0.919   2.970   2.611  1.0755 -0.3942  0.2570
 5447TIP3   OH216304   5.470   6.583   0.720  0.3688 -0.2512 -0.4724
 5447TIP3    H116305   5.523   6.598   0.798  0.7771 -1.4731 -0.4901
 5447TIP3    H216306   5.415   6.507   0.742  0.4787 -0.6034 -1.3568
 5448TIP3   OH216307   0.790   5.221   5.838 -0.0017 -0.4369  0.2322
 5448TIP3    H116308   0.863   5.207   5.898  0.3734  2.1557  0.5204
 5448TIP3    H216309   0.829   5.219   5.751  0.5393  1.1577  0.3927
 5449TIP3   OH216310   2.840   6.781   3.325 -0.1254  0.0922 -0.1608
 5449TIP3    H116311   2.785   6.745   3.394 -0.9024 -1.0435 -1.3111
 5449TIP3    H216312   2.909   6.828   3.371 -0.2048 -1.2247  1.3939
 5450TIP3   OH216313   1.357   4.998   2.566  0.0727 -0.8334  0.0920
 5450TIP3    H116314   1.290   4.946   2.522  1.2904 -0.9460 -1.7416
 5450TIP3    H216315   1.310   5.076   2.597 -0.6530 -0.0062 -2.7821
 5451TIP3   OH216316   6.943   0.868   2.140 -0.1970  0.0166  0.6087
 5451TIP3    H116317   6.885   0.927   2.092 -1.3999 -0.2362  1.7004
 5451TIP3    H216318   6.922   0.882   2.232  2.5752  1.0252  1.1899
 5452TIP3   OH216319   3.191   5.484   4.461  0.4956 -0.4615 -0.1314
 5452TIP3    H116320   3.144   5.420   4.408 -0.3544 -1.1367  1.3990
 5452TIP3    H216321   3.125   5.549   4.485  0.6889 -0.5849  0.7529
 5453TIP3   OH216322   5.479   0.016   4.409 -0.6855  0.1574 -0.2138
 5453TIP3    H116323   5.426   0.058   4.342  0.3880 -0.8442 -1.7539
 5453TIP3    H216324   5.555   0.073   4.419 -1.7404  1.3564  1.6695
 5454TIP3   OH216325   1.568   5.794   1.502  0.3193  0.2917 -0.6000
 5454TIP3    H116326   1.633   5.814   1.570 -0.0945  0.7062 -0.3213
 5454TIP3    H216327   1.485   5.785   1.549  0.2594 -0.7927 -0.8862
 5455TIP3   OH216328   0.070   5.970   4.947 -0.4463 -0.1736  0.3803
 5455TIP3    H116329   0.032   5.883   4.955 -0.2595 -0.2523  0.4098
 5455TIP3    H216330   0.115   5.969   4.862 -0.7997  0.0304  0.1888
 5456TIP3   OH216331   2.728   0.632   0.489  0.5525  0.2782 -0.4503
 5456TIP3    H116332   2.794   0.628   0.420  1.0264  0.3831 -0.0086
 5456TIP3    H216333   2.778   0.643   0.570  0.0920 -1.1994  0.0694
 5457TIP3   OH216334   4.223   3.315   2.258  0.1443  0.3996  0.1918
 5457TIP3    H116335   4.214   3.401   2.218 -0.1617 -0.1642 -0.9945
 5457TIP3    H216336   4.295   3.274   2.210 -0.7878 -0.6120 -0.3759
 5458TIP3   OH216337   2.604   1.836   0.587  0.0966  0.0907  0.5791
 5458TIP3    H116338   2.542   1.765   0.571 -1.1630  1.5985 -2.0053
 5458TIP3    H216339   2.661   1.804   0.656  0.7502 -4.1458 -1.6210
 5459TIP3   OH216340   3.871   2.980   5.778 -0.1888  0.9893 -0.0832
 5459TIP3    H116341   3.871   3.071   5.748 -0.5428  0.5110 -1.6306
 5459TIP3    H216342   3.950   2.942   5.739 -0.0825  0.6029  0.4917
 5460TIP3   OH216343   2.118   5.467   2.704  0.2228 -0.2657 -0.1136
 5460TIP3    H116344   2.112   5.381   2.746 -0.6785 -0.0966  0.1201
 5460TIP3    H216345   2.028   5.498   2.698  0.3461 -0.1770 -2.0026
 5461TIP3   OH216346   3.633   0.046   2.086  0.4573 -0.0754 -0.1193
 5461TIP3    H116347   3.553   0.087   2.055  0.3038  0.8990  1.4287
 5461TIP3    H216348   3.671   0.004   2.009 -0.6090  0.9745 -1.2466
 5462TIP3   OH216349   3.257   3.890   3.312 -0.1028  0.3231  0.1476
 5462TIP3    H116350   3.336   3.935   3.282 -1.2329  0.9414 -2.1203
 5462TIP3    H216351   3.190   3.958   3.315 -0.8391 -0.4095  0.9016
 5463TIP3   OH216352   4.387   6.214   1.597 -0.4808 -0.5531  0.1226
 5463TIP3    H116353   4.359   6.128   1.566 -0.3038 -0.6459  0.2262
 5463TIP3    H216354   4.437   6.197   1.676 -1.9529 -0.2280  1.1624
 5464TIP3   OH216355   0.684   6.456   1.539  0.1427 -0.1070 -0.1604
 5464TIP3    H116356   0.606   6.467   1.485 -0.4699  0.3185  0.7851
 5464TIP3    H216357   0.745   6.521   1.505  0.0090 -0.2762 -0.7489
 5465TIP3   OH216358   3.338   1.219   3.808 -0.5859 -0.1810 -0.1947
 5465TIP3    H116359   3.303   1.295   3.855 -1.3581 -0.1326 -0.8279
 5465TIP3    H216360   3.284   1.213   3.729  0.2379 -0.6820 -0.7313
 5466TIP3   OH216361   1.326   4.760   5.039 -0.3644 -0.6009  0.1232
 5466TIP3    H116362   1.242   4.803   5.021 -1.0398 -1.5318  0.9241
 5466TIP3    H216363   1.380   4.781   4.963 -0.5322  1.9002  0.5868
 5467TIP3   OH216364   6.310   4.025   5.028 -0.0798 -0.1212  0.9448
 5467TIP3    H116365   6.322   4.041   5.122 -0.1837  0.4399  0.8678
 5467TIP3    H216366   6.298   4.112   4.991  1.4523 -0.1887  0.2013
 5468TIP3   OH216367   2.604   5.475   4.702 -0.0362  0.0774 -0.2174
 5468TIP3    H116368   2.587   5.392   4.746  0.2610 -0.7982 -1.6551
 5468TIP3    H216369   2.531   5.486   4.642  1.6949 -1.1270 -2.7477
 5469TIP3   OH216370   6.669   5.859   3.918  0.5619  0.0625 -0.4162
 5469TIP3    H116371   6.597   5.915   3.889 -0.4681  0.3880  2.4719
 5469TIP3    H216372   6.628   5.776   3.943  1.1232  0.2231  1.1863
 5470TIP3   OH216373   2.839   1.748   4.664 -0.0373 -0.8772  0.0658
 5470TIP3    H116374   2.781   1.675   4.640 -0.0323 -1.0656  0.5945
 5470TIP3    H216375   2.892   1.764   4.586 -0.7343 -0.7671 -0.3947
 5471TIP3   OH216376   1.500   0.050   4.512  0.1733  0.0859  0.4865
 5471TIP3    H116377   1.419   0.019   4.472  0.1997 -0.8851  1.1462
 5471TIP3    H216378   1.568   0.035   4.446  0.1541 -1.1422  0.7161
 5472TIP3   OH216379   1.622   2.736   4.976  0.0091 -0.0234  0.6355
 5472TIP3    H116380   1.662   2.787   4.906 -0.2413  0.7142  1.0162
 5472TIP3    H216381   1.619   2.646   4.943 -0.9903  0.4705 -0.6934
 5473TIP3   OH216382   3.190   2.934   4.530  0.0206 -0.3453 -0.3146
 5473TIP3    H116383   3.285   2.936   4.513  0.4321  1.5949  1.6840
 5473TIP3    H216384   3.152   2.984   4.458  0.7093  0.1504 -0.3468
 5474TIP3   OH216385   1.615   2.475   5.372 -0.5201  0.1288 -0.0695
 5474TIP3    H116386   1.668   2.400   5.398 -0.9179 -0.6214 -1.3353
 5474TIP3    H216387   1.525   2.444   5.376 -0.6432  0.2266 -1.4547
 5475TIP3   OH216388   6.946   6.536   3.661  0.1212  0.0125  0.4209
 5475TIP3    H116389   7.018   6.534   3.724 -1.0974  1.0740  1.9262
 5475TIP3    H216390   6.876   6.485   3.702 -0.3700 -0.1202 -0.5387
 5476TIP3   OH216391   1.846   1.560   0.489  0.4552 -0.6698  0.2871
 5476TIP3    H116392   1.890   1.524   0.412  1.2893  1.6947 -0.4378
 5476TIP3    H216393   1.894   1.523   0.563  0.5843 -1.8123 -0.3341
 5477TIP3   OH216394   2.462   1.620   3.600  0.4086  0.0353  0.0466
 5477TIP3    H116395   2.446   1.533   3.564 -0.7043  0.7481 -1.2637
 5477TIP3    H216396   2.428   1.617   3.689 -2.4114 -0.0482 -0.9390
 5478TIP3   OH216397   2.274   0.875   5.505  0.2658  0.0871  0.0467
 5478TIP3    H116398   2.367   0.882   5.482  0.3133  0.2315  0.2765
 5478TIP3    H216399   2.228   0.915   5.431  0.1791 -2.7986 -1.6298
 5479TIP3   OH216400   1.165   1.329   3.900 -0.0384  0.3664  0.5343
 5479TIP3    H116401   1.086   1.322   3.954  0.0821  0.6099  0.7434
 5479TIP3    H216402   1.144   1.397   3.836 -0.1915  0.0585  0.2544
 5480TIP3   OH216403   2.262   5.633   1.392 -0.1276  0.0026 -0.8716
 5480TIP3    H116404   2.205   5.559   1.408  1.1838 -0.9663 -0.4981
 5480TIP3    H216405   2.281   5.668   1.479  1.5960 -1.0773 -0.7682
 5481TIP3   OH216406   1.370   6.346   0.477 -0.7484  0.3489 -0.4876
 5481TIP3    H116407   1.360   6.370   0.385 -1.8995  1.5527 -0.0910
 5481TIP3    H216408   1.422   6.416   0.515  1.1793 -0.9929 -0.5223
 5482TIP3   OH216409   2.901   2.713   3.862  0.6350 -0.1359 -0.0722
 5482TIP3    H116410   2.881   2.650   3.793 -2.1924  0.8776 -0.2853
 5482TIP3    H216411   2.892   2.664   3.944  0.5570 -0.5179 -0.3116
 5483TIP3   OH216412   1.778   3.716   1.653 -0.1437  0.1830  0.7361
 5483TIP3    H116413   1.803   3.624   1.650  2.6988  0.8732 -1.9711
 5483TIP3    H216414   1.843   3.757   1.711 -1.0657  0.6060  1.5031
 5484TIP3   OH216415   7.146   4.787   5.523 -0.4590 -0.2199  0.3616
 5484TIP3    H116416   7.178   4.770   5.434 -2.0095  1.7451 -0.6568
 5484TIP3    H216417   7.224   4.779   5.578  1.2638  1.6795 -1.6162
 5485TIP3   OH216418   5.964   3.431   3.742 -0.3179  0.0200 -0.6068
 5485TIP3    H116419   5.870   3.445   3.751  0.0821  3.0540 -0.2132
 5485TIP3    H216420   5.992   3.494   3.676  1.6511  0.3593  0.4604
 5486TIP3   OH216421   3.577   3.310   4.346 -0.0099 -0.3128 -0.6238
 5486TIP3    H116422   3.513   3.294   4.415  0.6167  0.2136  0.0993
 5486TIP3    H216423   3.574   3.231   4.292  0.9254 -1.6496  1.1646
 5487TIP3   OH216424   0.769   5.546   2.196  0.0018 -0.1121 -0.2453
 5487TIP3    H116425   0.777   5.480   2.265 -1.7858 -0.4257 -0.2850
 5487TIP3    H216426   0.708   5.506   2.133  1.2895  0.3285 -1.8133
 5488TIP3   OH216427   2.253   3.029   5.717  0.1416  0.3477  0.3970
 5488TIP3    H116428   2.220   3.119   5.711 -1.6563 -0.2060  1.3209
 5488TIP3    H216429   2.213   2.983   5.644  0.6028  0.1498  0.2625
 5489TIP3   OH216430   1.881   1.288   3.703  0.5043 -0.3948 -0.0390
 5489TIP3    H116431   1.912   1.377   3.684 -0.4845 -0.0177  0.0270
 5489TIP3    H216432   1.787   1.292   3.686  0.3577 -1.2800  0.5136
 5490TIP3   OH216433   3.459   0.944   1.846 -0.1691  0.1054 -0.1358
 5490TIP3    H116434   3.546   0.982   1.831  0.1061 -0.8860 -1.1731
 5490TIP3    H216435   3.399   1.009   1.810  0.2614 -0.1285 -1.3101
 5491TIP3   OH216436   0.499   4.764   3.713 -0.5035 -0.3554  0.0602
 5491TIP3    H116437   0.418   4.814   3.727  0.3165  0.9325  0.4068
 5491TIP3    H216438   0.475   4.674   3.734 -1.8474  0.0019  0.1683
 5492TIP3   OH216439   0.961   0.164   3.523 -0.5077  0.2367  0.3623
 5492TIP3    H116440   0.948   0.117   3.605 -2.3912  1.3490  0.7651
 5492TIP3    H216441   0.954   0.256   3.547  3.0796  0.8577 -0.3943
 5493TIP3   OH216442   3.049   1.544   4.637 -0.1947 -0.3060  0.0776
 5493TIP3    H116443   2.989   1.618   4.649  1.4943  1.0080  0.8123
 5493TIP3    H216444   3.127   1.568   4.687  1.5534 -1.2793 -2.0241
 5494TIP3   OH216445   6.210   3.215   0.760 -0.1114 -0.7366 -0.1358
 5494TIP3    H116446   6.263   3.199   0.681 -0.1707  0.7336 -0.5059
 5494TIP3    H216447   6.275   3.232   0.828 -0.0735  0.6765 -0.5009
 5495TIP3   OH216448   5.718   3.047   4.506  0.0625  0.0794 -0.0887
 5495TIP3    H116449   5.773   2.968   4.507  1.0591  0.7523  0.6106
 5495TIP3    H216450   5.730   3.082   4.418  2.8445  1.5602  0.7397
 5496TIP3   OH216451   1.003   5.881   5.013  0.5690  0.2285  0.2066
 5496TIP3    H116452   0.996   5.857   4.921  0.7016  1.4533 -0.1355
 5496TIP3    H216453   0.979   5.801   5.061  1.6257 -0.7688 -0.8673
 5497TIP3   OH216454   6.205   0.169   2.163 -0.2719 -0.1090 -0.6541
 5497TIP3    H116455   6.288   0.130   2.188 -1.2472 -1.6549  0.3487
 5497TIP3    H216456   6.199   0.155   2.068 -0.2451 -1.8101 -0.4383
 5498TIP3   OH216457   5.158   4.005   1.665  0.1238  0.3357 -0.3716
 5498TIP3    H116458   5.242   3.960   1.676 -0.6204 -0.8602  0.5861
 5498TIP3    H216459   5.104   3.944   1.615 -0.0057  1.3626 -1.5609
 5499TIP3   OH216460   4.970   2.698   5.108  0.3717  0.2696  0.2283
 5499TIP3    H116461   4.984   2.680   5.202 -1.0716 -0.8236  0.2634
 5499TIP3    H216462   4.878   2.678   5.093  0.1733  1.9677 -1.1161
 5500TIP3   OH216463   4.713   3.865   4.408 -0.3173  0.1688  0.4180
 5500TIP3    H116464   4.757   3.920   4.473 -0.5634  0.2440  0.5215
 5500TIP3    H216465   4.745   3.777   4.426 -0.6236  0.1385  0.8518
 5501TIP3   OH216466   4.752   1.551   3.618  0.0017  0.2013  0.2045
 5501TIP3    H116467   4.739   1.563   3.712 -2.1131 -1.2224  0.1604
 5501TIP3    H216468   4.752   1.456   3.606  1.2667  0.3388 -1.1386
 5502TIP3   OH216469   3.037   0.176   1.544 -0.5764 -0.1569  0.4629
 5502TIP3    H116470   3.010   0.086   1.528 -0.7378 -0.0466  0.0878
 5502TIP3    H216471   3.117   0.187   1.492 -1.4156  0.3751 -0.7711
 5503TIP3   OH216472   5.976   3.287   2.107 -0.3802  0.3723  0.0296
 5503TIP3    H116473   5.933   3.310   2.025 -0.7998  0.6259  0.3192
 5503TIP3    H216474   6.058   3.336   2.106  1.0860 -1.8934 -1.6264
 5504TIP3   OH216475   6.406   5.996   3.876  0.4951  0.5707  0.1752
 5504TIP3    H116476   6.393   5.931   3.806 -0.8065 -1.7305  2.3711
 5504TIP3    H216477   6.320   6.003   3.918  1.2212  1.9098  1.5308
 5505TIP3   OH216478   2.690   3.720   1.465 -0.8203 -1.0150  0.2287
 5505TIP3    H116479   2.684   3.808   1.428  0.2979 -0.3628  1.5299
 5505TIP3    H216480   2.783   3.702   1.472 -1.0282 -2.1516  0.3532
 5506TIP3   OH216481   5.255   6.374   0.745  0.3842  0.0197  0.0185
 5506TIP3    H116482   5.191   6.312   0.780 -1.2326  2.0659  0.8274
 5506TIP3    H216483   5.254   6.358   0.650 -1.0240 -0.2563  0.0614
 5507TIP3   OH216484   3.536   0.715   5.843  0.1449 -0.4640 -0.3220
 5507TIP3    H116485   3.453   0.689   5.881  0.6590 -0.3492  0.9281
 5507TIP3    H216486   3.602   0.673   5.898  0.9284  0.1717 -0.7464
 5508TIP3   OH216487   4.818   1.114   5.614  0.3370 -0.1551 -0.0728
 5508TIP3    H116488   4.895   1.068   5.580  0.0363  0.5218 -1.7475
 5508TIP3    H216489   4.744   1.059   5.590  0.1469  0.1456 -0.1852
 5509TIP3   OH216490   1.372   1.925   4.326  0.3962  0.6054  0.1055
 5509TIP3    H116491   1.371   1.910   4.421  0.2602  1.8561  0.3220
 5509TIP3    H216492   1.283   1.952   4.306  0.3806  0.1739 -0.4235
 5510TIP3   OH216493   0.545   4.401   2.973  0.0654  0.0869  0.2616
 5510TIP3    H116494   0.579   4.376   2.888 -1.3009  0.3850 -0.4021
 5510TIP3    H216495   0.450   4.397   2.963 -0.1935 -2.4154  2.5101
 5511TIP3   OH216496   6.783   0.824   4.076  0.0570 -0.1868 -0.5170
 5511TIP3    H116497   6.755   0.732   4.074  0.1301 -0.2353  0.3871
 5511TIP3    H216498   6.770   0.854   3.986 -0.0227 -1.0628 -0.8143
 5512TIP3   OH216499   4.445   2.075   4.224  0.3430  0.2694  1.0041
 5512TIP3    H116500   4.479   2.157   4.261 -0.2423  0.1587  1.8270
 5512TIP3    H216501   4.407   2.030   4.299 -1.2874  0.2375  0.1959
 5513TIP3   OH216502   1.488   1.403   2.167  0.0697  0.8748 -0.2103
 5513TIP3    H116503   1.544   1.480   2.176 -0.3452  1.0568  1.0815
 5513TIP3    H216504   1.433   1.404   2.245 -1.6779  0.6395 -1.3793
 5514TIP3   OH216505   1.426   2.200   2.180  0.2805 -0.3331  0.2239
 5514TIP3    H116506   1.392   2.261   2.245  2.0320  0.1155  0.7981
 5514TIP3    H216507   1.392   2.232   2.097  1.1231  1.4650  0.5167
 5515TIP3   OH216508   5.450   2.882   3.024 -0.1574 -0.1550  0.7692
 5515TIP3    H116509   5.458   2.876   2.929 -0.2117 -0.2270  0.7694
 5515TIP3    H216510   5.355   2.890   3.039 -0.2658 -1.5282  0.8972
 5516TIP3   OH216511   0.048   1.141   0.863 -0.1000  0.2994 -0.2080
 5516TIP3    H116512   0.123   1.169   0.810  0.4036  0.1223  0.4004
 5516TIP3    H216513   0.022   1.057   0.824  0.3395  0.1141 -0.1081
 5517TIP3   OH216514   1.163   5.034   5.404  0.1720  0.2838  0.3841
 5517TIP3    H116515   1.180   4.941   5.417 -1.6327 -0.0846  0.3678
 5517TIP3    H216516   1.086   5.053   5.458  1.2944  2.0989  1.4537
 5518TIP3   OH216517   0.345   5.521   0.550  0.2175  0.0182 -0.2368
 5518TIP3    H116518   0.258   5.556   0.530 -0.1792 -1.7034 -1.6705
 5518TIP3    H216519   0.335   5.483   0.637 -0.6361 -0.6640 -0.6162
 5519TIP3   OH216520   5.351   2.953   1.599  0.4013  0.1411 -0.3012
 5519TIP3    H116521   5.361   2.864   1.565 -0.9676 -1.3119  2.6981
 5519TIP3    H216522   5.299   2.998   1.532 -1.2064 -2.1835 -0.7423
 5520TIP3   OH216523   5.234   1.341   2.567 -0.0535  0.3408  0.4879
 5520TIP3    H116524   5.254   1.365   2.476  1.0247 -1.5012  0.1664
 5520TIP3    H216525   5.310   1.368   2.617 -0.1265  0.2870  0.6297
 5521TIP3   OH216526   2.304   0.355   4.165 -0.7258 -0.2688  0.3650
 5521TIP3    H116527   2.335   0.350   4.075  1.4316 -1.5301  1.0985
 5521TIP3    H216528   2.249   0.434   4.168  0.7197  0.8903 -1.5792
 5522TIP3   OH216529   1.928   4.054   4.993 -0.2272  0.1572  0.0315
 5522TIP3    H116530   1.921   3.996   4.917 -0.7815  1.6738 -1.1407
 5522TIP3    H216531   2.018   4.047   5.022  0.0924 -0.1693 -1.0200
 5523TIP3   OH216532   6.444   3.506   3.969  0.5643 -0.1489  0.7787
 5523TIP3    H116533   6.361   3.497   3.921  0.1596  2.1174  0.9436
 5523TIP3    H216534   6.511   3.490   3.903 -0.0102 -0.5568  0.2800
 5524TIP3   OH216535   2.486   2.997   2.651  0.1635 -0.5393 -0.4213
 5524TIP3    H116536   2.402   3.038   2.671  0.7016  0.7607 -0.7184
 5524TIP3    H216537   2.530   3.059   2.593  1.8210 -0.6243  0.6779
 5525TIP3   OH216538   3.199   3.233   5.721 -0.0443 -1.0176 -0.4655
 5525TIP3    H116539   3.234   3.195   5.801 -0.0730 -2.1067 -0.9486
 5525TIP3    H216540   3.224   3.325   5.725  2.7403 -1.6682 -0.6697
 5526TIP3   OH216541   5.246   2.250   4.719  0.2954 -0.2170 -0.6986
 5526TIP3    H116542   5.316   2.185   4.716 -1.5081 -2.4521  1.1793
 5526TIP3    H216543   5.273   2.312   4.786  0.2631 -1.4615  0.5272
 5527TIP3   OH216544   1.412   2.781   0.968  0.1960 -0.0091 -0.0784
 5527TIP3    H116545   1.453   2.728   1.036  3.1861  3.2054  0.8850
 5527TIP3    H216546   1.463   2.762   0.889 -0.4371 -0.4331 -0.4022
 5528TIP3   OH216547   5.473   0.823   1.296 -0.8303  0.0843  0.1615
 5528TIP3    H116548   5.459   0.820   1.202 -1.3723  0.1517  0.2314
 5528TIP3    H216549   5.533   0.751   1.315 -1.2233 -0.3329 -0.1566
 5529TIP3   OH216550   4.852   4.513   0.979  0.0947  0.3252  0.1379
 5529TIP3    H116551   4.936   4.554   0.961  0.8335 -0.7249  1.0356
 5529TIP3    H216552   4.787   4.574   0.945  1.1132  2.4156  1.7159
 5530TIP3   OH216553   4.816   4.937   4.934  0.0221 -0.0204  0.0643
 5530TIP3    H116554   4.759   4.860   4.939 -0.3895  0.3678  2.7967
 5530TIP3    H216555   4.905   4.903   4.945  0.4263 -0.5481 -3.5493
 5531TIP3   OH216556   3.742   2.192   0.281  0.3218 -0.5813  0.6098
 5531TIP3    H116557   3.830   2.154   0.289  0.7654  0.5206  1.1626
 5531TIP3    H216558   3.755   2.273   0.232 -0.6421 -1.2113 -0.7595
 5532TIP3   OH216559   0.913   2.791   3.994 -0.4124 -0.3721 -0.1082
 5532TIP3    H116560   0.830   2.782   4.041  0.4571 -2.5233  1.1506
 5532TIP3    H216561   0.887   2.813   3.905 -2.2653  0.4148  0.5759
 5533TIP3   OH216562   1.411   1.424   0.198  0.2741  0.1414 -0.3602
 5533TIP3    H116563   1.505   1.430   0.213 -0.0391  0.1391  2.0251
 5533TIP3    H216564   1.372   1.454   0.280 -1.8284  0.7128 -1.4946
 5534TIP3   OH216565   2.944   4.553   1.794  0.5818 -0.1720  0.3191
 5534TIP3    H116566   2.990   4.554   1.710  0.7713 -0.2364  0.4211
 5534TIP3    H216567   2.859   4.592   1.775 -0.1907 -2.0612 -0.3597
 5535TIP3   OH216568   1.177   3.346   1.063 -0.2066 -0.3232 -0.2808
 5535TIP3    H116569   1.229   3.292   1.123 -0.6402 -0.6410 -0.1820
 5535TIP3    H216570   1.241   3.401   1.018  0.3052 -1.3019 -0.7726
 5536TIP3   OH216571   1.885   2.054   4.778 -0.0538  0.2254  0.4450
 5536TIP3    H116572   1.879   2.007   4.861 -0.0426  0.8184  0.7902
 5536TIP3    H216573   1.906   2.144   4.803  1.7264  0.0628 -0.2642
 5537TIP3   OH216574   1.968   0.338   0.328 -0.1388 -0.2004 -0.8390
 5537TIP3    H116575   2.048   0.302   0.289  0.3077 -0.0802 -0.0534
 5537TIP3    H216576   1.991   0.355   0.419 -1.4078 -1.2683 -0.2826
 5538TIP3   OH216577   1.275   2.329   4.488 -0.3325  0.0525  0.0846
 5538TIP3    H116578   1.271   2.326   4.584 -2.6090 -0.5064  0.0151
 5538TIP3    H216579   1.261   2.421   4.467 -0.7254  0.0391  0.2744
 5539TIP3   OH216580   5.690   5.027   2.891  0.2836  0.3368 -0.1838
 5539TIP3    H116581   5.643   5.093   2.839  1.2204  0.8027 -0.4619
 5539TIP3    H216582   5.621   4.982   2.940 -0.3777  1.6551  0.1659
 5540TIP3   OH216583   0.838   1.325   1.666 -0.1386 -0.9119 -0.0204
 5540TIP3    H116584   0.821   1.331   1.760 -0.7091  0.2334 -0.1720
 5540TIP3    H216585   0.902   1.255   1.657  0.2718 -0.7235  1.2698
 5541TIP3   OH216586   3.044   0.971   3.588 -0.3684 -0.5126 -0.3932
 5541TIP3    H116587   3.036   0.988   3.681 -0.3039  1.9765 -0.7935
 5541TIP3    H216588   2.954   0.967   3.556 -0.3770  0.9386 -0.5808
 5542TIP3   OH216589   4.941   1.678   1.034 -0.3114  0.1564 -0.0127
 5542TIP3    H116590   4.855   1.696   0.998 -1.7562  0.4850  3.2453
 5542TIP3    H216591   4.987   1.762   1.032 -0.9586  0.5234  0.3247
 5543TIP3   OH216592   0.038   1.842   0.418  0.5302  0.3045  0.0585
 5543TIP3    H116593   0.013   1.777   0.352  0.8201  0.0931  0.1558
 5543TIP3    H216594  -0.028   1.911   0.410 -0.1367 -0.2833  0.3653
 5544TIP3   OH216595   4.560   5.919   2.118  0.3361  0.5929  0.3907
 5544TIP3    H116596   4.590   5.862   2.189 -1.3930  0.8173  1.3750
 5544TIP3    H216597   4.605   6.002   2.134  0.2791  0.5151  0.9918
 5545TIP3   OH216598   1.000   6.551   4.372 -0.1295  0.2431 -0.3118
 5545TIP3    H116599   1.092   6.525   4.372 -0.4437 -0.9704  0.4149
 5545TIP3    H216600   0.987   6.594   4.456 -0.3859 -0.2667 -0.0828
 5546TIP3   OH216601   2.505   6.517   5.770 -0.6181  0.3615  0.8368
 5546TIP3    H116602   2.590   6.474   5.760 -0.4433  0.6455  1.0882
 5546TIP3    H216603   2.447   6.470   5.710 -0.6725 -0.8636  1.8154
 5547TIP3   OH216604   1.266   6.231   3.790  0.1552  0.3471  0.0551
 5547TIP3    H116605   1.237   6.194   3.706 -1.2798  0.8559  0.2874
 5547TIP3    H216606   1.185   6.262   3.831  1.1872  3.1002  0.1944
 5548TIP3   OH216607   2.287   6.006   4.111 -0.5194  0.2316  0.3022
 5548TIP3    H116608   2.206   6.026   4.065 -0.3599  2.2583  0.7941
 5548TIP3    H216609   2.263   5.937   4.173 -1.1808 -1.1411 -1.3885
 5549TIP3   OH216610   5.113   6.555   5.707 -0.4396 -0.3447  0.0582
 5549TIP3    H116611   5.119   6.637   5.755  0.4140 -1.0196  1.1780
 5549TIP3    H216612   5.057   6.499   5.762 -0.1548 -0.8506 -0.1529
 5550TIP3   OH216613   2.331   1.533   3.850  0.4076 -0.1502  0.0509
 5550TIP3    H116614   2.354   1.623   3.869 -1.3190  0.7696 -1.7724
 5550TIP3    H216615   2.275   1.506   3.923 -0.7380  1.0006 -0.3657
 5551TIP3   OH216616   0.419   4.827   1.973  0.1255  0.0898 -0.4480
 5551TIP3    H116617   0.441   4.892   2.040 -0.1495  0.1813 -0.4417
 5551TIP3    H216618   0.393   4.749   2.023  0.3666  0.0070 -0.4542
 5552TIP3   OH216619   5.601   5.274   2.385  0.1538  0.2968  0.0232
 5552TIP3    H116620   5.654   5.210   2.434 -2.0871 -2.1047 -0.4694
 5552TIP3    H216621   5.605   5.243   2.294 -0.9066  0.9259 -0.2517
 5553TIP3   OH216622   2.887   0.123   2.249  0.2825 -0.1201 -0.2586
 5553TIP3    H116623   2.841   0.200   2.281  1.6569  0.1515  1.1979
 5553TIP3    H216624   2.895   0.065   2.325  3.4630  0.4496 -0.0022
 5554TIP3   OH216625   1.012   1.618   2.261 -0.0543 -0.3062 -0.0088
 5554TIP3    H116626   1.038   1.553   2.327  0.5409 -1.8572 -1.6969
 5554TIP3    H216627   0.916   1.615   2.262 -0.0413 -1.8113 -0.5802
 5555TIP3   OH216628   3.261   0.451   1.302 -0.5379  0.3556 -0.1379
 5555TIP3    H116629   3.182   0.462   1.356 -1.0673  2.6048 -1.2570
 5555TIP3    H216630   3.333   0.451   1.365 -1.3003  0.5076  0.7570
 5556TIP3   OH216631   5.727   2.136   1.898  0.2626  0.0836 -0.4677
 5556TIP3    H116632   5.803   2.164   1.848 -0.5531  0.2019 -1.6593
 5556TIP3    H216633   5.741   2.172   1.986  1.7801 -0.2598 -0.5529
 5557TIP3   OH216634   1.439   6.382   5.626  0.2292  0.1126  0.7550
 5557TIP3    H116635   1.453   6.390   5.720  0.2354  0.4273  0.7302
 5557TIP3    H216636   1.346   6.402   5.613  0.1015 -0.4841  0.7561
 5558TIP3   OH216637   6.966   5.623   4.629  0.0945 -0.0941  0.0068
 5558TIP3    H116638   6.988   5.706   4.671 -1.7669  0.5870 -0.2896
 5558TIP3    H216639   7.010   5.557   4.682  1.0768  1.0169  0.6342
 5559TIP3   OH216640   3.267   5.878   3.762 -0.1739  0.5691  1.0380
 5559TIP3    H116641   3.178   5.908   3.779 -1.0050 -0.4378 -1.1332
 5559TIP3    H216642   3.258   5.784   3.745  1.1665  0.6028 -0.0534
 5560TIP3   OH216643   1.654   1.088   3.194  0.5194  0.0467  0.3915
 5560TIP3    H116644   1.647   1.181   3.213  1.9125  0.2357  0.0799
 5560TIP3    H216645   1.707   1.053   3.267 -0.6026 -0.6453  0.9005
 5561TIP3   OH216646   2.486   1.968   4.945 -0.0017  0.0044  0.1127
 5561TIP3    H116647   2.436   1.933   4.872 -0.9328 -0.5885  1.0024
 5561TIP3    H216648   2.576   1.970   4.914 -0.0671 -2.1208 -0.3823
 5562TIP3   OH216649   2.905   4.241   5.057  0.1450  0.2117  0.5589
 5562TIP3    H116650   2.973   4.192   5.012 -0.0073 -0.5660  1.1663
 5562TIP3    H216651   2.898   4.323   5.007 -0.9715 -1.1570 -1.7004
 5563TIP3   OH216652   1.758   1.715   1.268 -0.2565 -0.2821  0.1699
 5563TIP3    H116653   1.692   1.706   1.337 -1.9189 -1.5143 -1.4680
 5563TIP3    H216654   1.760   1.809   1.250 -1.0428 -0.1380  0.7634
 5564TIP3   OH216655   5.493   2.936   0.963  0.2904 -0.2360 -0.5511
 5564TIP3    H116656   5.441   2.929   1.043  0.0913  0.4919 -0.6130
 5564TIP3    H216657   5.565   2.994   0.986 -0.6032  1.2244 -1.3169
 5565TIP3   OH216658   5.999   1.439   0.267 -0.3746  0.5106  0.3459
 5565TIP3    H116659   6.044   1.488   0.336  0.6457  1.5183 -0.9751
 5565TIP3    H216660   6.012   1.492   0.188  0.7274 -1.8548 -1.1625
 5566TIP3   OH216661   6.330   4.317   5.399 -0.4032 -0.3340 -0.0871
 5566TIP3    H116662   6.424   4.301   5.409 -0.7172 -2.0219  0.5816
 5566TIP3    H216663   6.312   4.391   5.457  0.2486 -1.0739  1.1082
 5567TIP3   OH216664   6.683   4.362   2.417 -0.0052  0.3724 -0.5428
 5567TIP3    H116665   6.599   4.321   2.398  0.2850 -0.6175  0.1956
 5567TIP3    H216666   6.722   4.379   2.331 -0.2964 -0.5883 -0.8712
 5568TIP3   OH216667   1.594   6.591   4.669  0.9192 -0.1302 -0.2327
 5568TIP3    H116668   1.570   6.530   4.739  0.2041 -0.9267 -1.1404
 5568TIP3    H216669   1.600   6.676   4.713  1.6663 -0.7930  1.0139
 5569TIP3   OH216670   4.008   1.714   0.563 -0.1518 -0.5581 -0.0194
 5569TIP3    H116671   4.097   1.683   0.582 -0.0719  0.2377  1.0481
 5569TIP3    H216672   4.005   1.801   0.602 -0.9280  0.0556 -1.3905
 5570TIP3   OH216673   2.678   5.466   0.859  0.2596  0.3418 -0.2684
 5570TIP3    H116674   2.641   5.419   0.785  1.3664  0.7919 -1.1378
 5570TIP3    H216675   2.719   5.543   0.820 -0.2579  1.2776  0.9623
 5571TIP3   OH216676   6.516   5.033   2.773 -0.2373  0.9490  0.2055
 5571TIP3    H116677   6.437   4.989   2.805  0.2386 -0.3912 -0.3858
 5571TIP3    H216678   6.483   5.095   2.707 -0.9473  1.6961  1.2381
 5572TIP3   OH216679   5.141   3.296   1.966 -0.0432 -0.3819 -0.0063
 5572TIP3    H116680   5.131   3.230   1.897  0.0304 -1.7651  1.2699
 5572TIP3    H216681   5.052   3.323   1.987 -0.0820 -0.1827 -0.4170
 5573TIP3   OH216682   2.415   2.811   2.896 -0.1477 -0.2893 -0.0488
 5573TIP3    H116683   2.407   2.890   2.949  3.1651  0.4357 -0.3724
 5573TIP3    H216684   2.407   2.842   2.806 -0.1655 -0.5560 -0.1396
 5574TIP3   OH216685   3.788   5.083   2.060  0.2556 -0.6942 -0.2199
 5574TIP3    H116686   3.791   4.991   2.032  0.5402 -0.3415 -1.4027
 5574TIP3    H216687   3.747   5.129   1.987  3.8915  0.7551 -1.5633
 5575TIP3   OH216688   3.572   3.793   3.989  0.6798  0.6798  0.5868
 5575TIP3    H116689   3.541   3.710   4.025  0.9907  1.0488  1.7512
 5575TIP3    H216690   3.667   3.788   3.996  0.6593  1.6485  1.9214
 5576TIP3   OH216691   0.074   1.460   4.337  0.6128 -0.3906 -0.3110
 5576TIP3    H116692   0.044   1.430   4.251  2.1006 -2.1012 -0.2976
 5576TIP3    H216693   0.081   1.380   4.389 -1.9282  0.7406  2.0324
 5577TIP3   OH216694   0.280   6.275   1.078 -0.6420 -0.5042  0.0652
 5577TIP3    H116695   0.365   6.318   1.069  0.2463 -1.8869  1.3332
 5577TIP3    H216696   0.224   6.319   1.014  1.2393 -0.1203 -1.4067
 5578TIP3   OH216697   6.950   3.576   3.583 -0.1596 -0.4872 -0.2489
 5578TIP3    H116698   6.986   3.662   3.566  0.8535 -0.8944 -0.2163
 5578TIP3    H216699   6.967   3.560   3.676  0.2462 -0.9930 -0.4087
 5579TIP3   OH216700   6.153   1.322   3.347  0.3742  0.7597  0.2302
 5579TIP3    H116701   6.233   1.305   3.397  1.3291 -0.1215 -1.4661
 5579TIP3    H216702   6.170   1.405   3.303  0.1203  0.8544  0.3126
 5580TIP3   OH216703   0.131   4.288   5.024  0.0479 -0.8512 -0.3722
 5580TIP3    H116704   0.198   4.272   4.958  1.6819  0.5773  0.8777
 5580TIP3    H216705   0.161   4.365   5.072 -2.2022 -0.5089  0.6306
 5581TIP3   OH216706   6.741   2.257   1.748  0.0636  0.1486  0.2837
 5581TIP3    H116707   6.727   2.179   1.694 -0.3230 -0.7328  1.6324
 5581TIP3    H216708   6.824   2.242   1.792 -0.2619  0.2559  0.9458
 5582TIP3   OH216709   3.423   2.020   0.597 -0.4635  0.3665  0.0311
 5582TIP3    H116710   3.479   2.023   0.519 -0.9551 -0.8989 -0.3869
 5582TIP3    H216711   3.421   2.111   0.628  0.5813  0.7012 -0.8228
 5583TIP3   OH216712   2.214   2.105   3.700  0.3157 -0.2247 -0.0673
 5583TIP3    H116713   2.216   2.201   3.701 -0.1983 -0.2146 -0.0505
 5583TIP3    H216714   2.201   2.083   3.608  2.2460 -0.3227 -0.3642
 5584TIP3   OH216715   6.853   5.284   0.334  0.0502 -0.4985 -0.0141
 5584TIP3    H116716   6.780   5.300   0.394  1.8269  1.1437  1.8706
 5584TIP3    H216717   6.874   5.191   0.347 -0.3862 -0.4686  1.0246
 5585TIP3   OH216718   5.698   1.132   1.051 -0.0017  0.8312 -0.4683
 5585TIP3    H116719   5.771   1.079   1.084  1.2020  2.6927  0.0293
 5585TIP3    H216720   5.645   1.071   1.001  1.7288 -0.6784 -0.5668
 5586TIP3   OH216721   5.141   3.414   0.565  0.0488 -0.1562  0.1932
 5586TIP3    H116722   5.165   3.354   0.636  0.7141 -0.2878 -0.1313
 5586TIP3    H216723   5.212   3.477   0.562  0.6345 -0.8416 -1.1175
 5587TIP3   OH216724   4.349   6.477   0.093 -0.0863  0.0714  0.2001
 5587TIP3    H116725   4.381   6.475   0.003 -0.3243 -0.5321  0.1268
 5587TIP3    H216726   4.352   6.386   0.122 -0.5023  0.1882  0.6273
 5588TIP3   OH216727   0.527   1.317   3.297 -0.1157  0.4304 -0.1954
 5588TIP3    H116728   0.524   1.222   3.282 -1.2653  0.4585 -0.2607
 5588TIP3    H216729   0.436   1.345   3.291  0.2807  1.6557 -0.8060
 5589TIP3   OH216730   1.920   5.816   2.959  0.4137 -0.3038 -0.1597
 5589TIP3    H116731   1.877   5.851   2.881 -0.3355 -0.9956 -0.0754
 5589TIP3    H216732   1.948   5.893   3.008 -1.6087  0.2153  0.2537
 5590TIP3   OH216733   6.077   4.063   4.784  0.4796  0.2919  0.5743
 5590TIP3    H116734   6.081   4.099   4.872  1.9081 -0.0985  0.6874
 5590TIP3    H216735   6.008   3.996   4.788 -0.4711  1.2811  0.9962
 5591TIP3   OH216736   3.165   2.603   1.847 -0.6950 -0.4727  0.4579
 5591TIP3    H116737   3.231   2.586   1.780 -0.8638  3.0778 -0.8536
 5591TIP3    H216738   3.087   2.556   1.817 -0.0535 -0.9662 -0.4703
 5592TIP3   OH216739   3.411   1.348   1.486  0.3502  0.3079 -0.4018
 5592TIP3    H116740   3.478   1.400   1.441  0.6171  0.8373  0.5724
 5592TIP3    H216741   3.393   1.397   1.566 -0.5580 -0.2948 -0.2269
 5593TIP3   OH216742   6.932   1.361   4.414 -0.3232  0.0248 -0.0771
 5593TIP3    H116743   6.880   1.407   4.348 -1.7730 -1.1787  0.1798
 5593TIP3    H216744   6.971   1.287   4.367  0.7612  0.6207 -0.1459
 5594TIP3   OH216745   0.795   2.905   3.507  0.4795 -0.2363 -0.1738
 5594TIP3    H116746   0.858   2.840   3.477  0.6937 -1.3261  2.3687
 5594TIP3    H216747   0.797   2.973   3.440  3.3426 -0.8818 -0.8701
 5595TIP3   OH216748   4.334   5.999   1.428  0.3462 -0.0750  0.0589
 5595TIP3    H116749   4.319   6.031   1.339  0.6538  0.4763  0.2031
 5595TIP3    H216750   4.247   5.991   1.466  0.1382 -1.3147 -0.6281
 5596TIP3   OH216751   1.463   5.059   1.757  0.3191 -0.1426  0.1609
 5596TIP3    H116752   1.425   4.986   1.806 -1.9611  0.5640 -0.4320
 5596TIP3    H216753   1.538   5.021   1.711  1.6138 -1.1613  2.9194
 5597TIP3   OH216754   3.808   1.164   3.956  0.3658 -0.3490 -0.2892
 5597TIP3    H116755   3.762   1.133   4.034 -0.9139 -2.3028 -1.7257
 5597TIP3    H216756   3.744   1.156   3.885  0.9154  2.9971 -1.3455
 5598TIP3   OH216757   5.477   4.311   3.298 -0.6778 -0.4688 -0.6288
 5598TIP3    H116758   5.547   4.327   3.235 -0.9342  0.0737 -0.7903
 5598TIP3    H216759   5.419   4.387   3.287 -1.9148 -1.4788 -1.3489
 5599TIP3   OH216760   0.238   4.027   4.822  0.2170  0.5488 -0.6205
 5599TIP3    H116761   0.317   4.008   4.770  0.0360  0.7066 -0.9599
 5599TIP3    H216762   0.250   3.978   4.903 -0.5248 -1.5721 -1.6949
 5600TIP3   OH216763   5.532   6.708   5.489 -0.0611 -1.0208  0.5327
 5600TIP3    H116764   5.473   6.675   5.557 -2.6110  2.0208  0.0354
 5600TIP3    H216765   5.601   6.753   5.537  0.1009 -1.8349  1.0914
 5601TIP3   OH216766   3.077   0.678   2.940 -0.2706 -0.4288  0.1703
 5601TIP3    H116767   3.004   0.647   2.887 -2.3380  3.5858  0.3064
 5601TIP3    H216768   3.056   0.648   3.029 -1.6308  0.3443  0.1385
 5602TIP3   OH216769   3.799   1.808   4.431  0.0327 -0.5909  0.7165
 5602TIP3    H116770   3.794   1.838   4.340  0.4620 -3.0738 -0.2034
 5602TIP3    H216771   3.708   1.805   4.459 -0.1905 -0.8504 -0.0051
 5603TIP3   OH216772   6.804   6.511   1.140  0.4499 -0.0117  0.2340
 5603TIP3    H116773   6.791   6.502   1.046 -0.2755  0.4441  0.2826
 5603TIP3    H216774   6.889   6.471   1.157 -0.4975 -2.3623 -0.2452
 5604TIP3   OH216775   6.135   4.088   3.860  0.4050  0.2853 -0.4931
 5604TIP3    H116776   6.119   4.153   3.930  0.3066  0.2119 -0.4471
 5604TIP3    H216777   6.088   4.123   3.784  0.4482  0.3267 -0.5013
 5605TIP3   OH216778   0.413   4.760   0.216 -0.3340 -0.0026  0.1844
 5605TIP3    H116779   0.403   4.766   0.121  0.0801 -0.0006  0.1377
 5605TIP3    H216780   0.348   4.697   0.243  0.1055 -0.6393 -0.2060
 5606TIP3   OH216781   1.693   5.631   4.565  0.7709  0.0771 -0.6263
 5606TIP3    H116782   1.754   5.564   4.535  0.6646 -0.6431  0.7104
 5606TIP3    H216783   1.613   5.614   4.516  0.5999 -1.0725  0.0185
 5607TIP3   OH216784   0.579   4.354   5.296  0.2211  0.2510 -0.4404
 5607TIP3    H116785   0.545   4.439   5.324 -0.1830 -0.4099  1.1604
 5607TIP3    H216786   0.623   4.372   5.213 -2.7372  1.4295 -1.8826
 5608TIP3   OH216787   1.986   5.419   3.833 -0.4066 -0.5926  0.4268
 5608TIP3    H116788   1.929   5.387   3.903 -1.7207 -1.5964 -0.9974
 5608TIP3    H216789   1.925   5.455   3.768  0.6433 -0.8597 -0.7472
 5609TIP3   OH216790   2.650   0.094   2.836  0.3031 -0.0233 -0.4273
 5609TIP3    H116791   2.603   0.082   2.754 -1.5367  0.0625  0.5482
 5609TIP3    H216792   2.692   0.010   2.853  2.6255  0.6005 -2.5086
 5610TIP3   OH216793   2.742   5.748   4.624 -0.3551  0.4290 -0.3671
 5610TIP3    H116794   2.677   5.678   4.627  0.3725 -0.3563 -1.7298
 5610TIP3    H216795   2.699   5.819   4.578  0.4770 -1.0372 -3.7355
 5611TIP3   OH216796   4.722   6.159   1.093 -0.0028  0.7669  0.1077
 5611TIP3    H116797   4.751   6.168   1.002  0.3356 -0.2947  0.0985
 5611TIP3    H216798   4.657   6.228   1.105 -1.6991 -0.4517 -1.6100
 5612TIP3   OH216799   6.046   4.209   5.022  0.4795 -0.0696  0.2636
 5612TIP3    H116800   5.973   4.271   5.031 -0.9867 -1.5494 -0.7849
 5612TIP3    H216801   6.088   4.209   5.108 -1.4733 -0.0101  1.2747
 5613TIP3   OH216802   3.503   0.692   3.296  0.0280  0.1949  0.3069
 5613TIP3    H116803   3.522   0.767   3.352  1.8340  1.2196 -1.5542
 5613TIP3    H216804   3.501   0.728   3.207 -0.5003 -1.7418 -0.5270
 5614TIP3   OH216805   3.064   0.381   2.004 -0.1844 -1.3803 -0.0244
 5614TIP3    H116806   3.056   0.301   1.952 -1.1023 -0.5584 -1.2242
 5614TIP3    H216807   2.974   0.411   2.016  0.1032 -0.8180  0.9102
 5615TIP3   OH216808   6.497   5.669   4.283  0.1031  0.1759 -0.1454
 5615TIP3    H116809   6.481   5.760   4.255  0.1063  0.0464 -0.5714
 5615TIP3    H216810   6.482   5.671   4.378 -2.7167  0.0372 -0.4880
 5616TIP3   OH216811   7.137   5.764   1.282  0.0334 -0.1472 -0.1126
 5616TIP3    H116812   7.217   5.722   1.313  1.2443  1.3249 -1.0873
 5616TIP3    H216813   7.092   5.792   1.362  0.2475 -1.3679  0.4572
 5617TIP3   OH216814   6.743   2.815   5.488 -0.0136 -0.5465  0.2393
 5617TIP3    H116815   6.702   2.792   5.572  1.7983 -0.2629  1.2583
 5617TIP3    H216816   6.828   2.850   5.513 -0.3918  1.8827 -1.6016
 5618TIP3   OH216817   0.476   5.157   2.877  0.3238 -0.6482  0.8994
 5618TIP3    H116818   0.539   5.194   2.939 -1.8306  0.0233  2.8583
 5618TIP3    H216819   0.487   5.062   2.885  1.4798 -0.5455  0.7180
 5619TIP3   OH216820   2.269   6.225   0.309 -0.7064  0.4557 -1.0097
 5619TIP3    H116821   2.313   6.300   0.349  2.3004 -1.0570 -1.2488
 5619TIP3    H216822   2.232   6.177   0.383 -1.5019  1.4305 -0.7497
 5620TIP3   OH216823   2.929   1.651   2.434 -0.0633 -0.1563 -0.3643
 5620TIP3    H116824   2.850   1.598   2.421 -0.5718  0.2246  0.9125
 5620TIP3    H216825   2.898   1.728   2.483  1.0471  0.1674 -0.1354
 5621TIP3   OH216826   1.464   5.581   4.739 -0.2514 -0.3866 -0.1158
 5621TIP3    H116827   1.555   5.593   4.714 -0.4392 -0.6136 -0.9239
 5621TIP3    H216828   1.440   5.496   4.704 -0.8322 -0.2434 -0.0816
 5622TIP3   OH216829   6.323   5.567   4.640 -0.2146  0.5165  0.5341
 5622TIP3    H116830   6.242   5.617   4.653 -0.0855  1.4755 -1.8614
 5622TIP3    H216831   6.390   5.634   4.625  0.4318 -0.3103 -0.3771
 5623TIP3   OH216832   1.718   4.848   4.294 -0.0043  0.3322 -0.2966
 5623TIP3    H116833   1.711   4.918   4.229 -1.8341 -0.2225 -0.7452
 5623TIP3    H216834   1.715   4.894   4.378  1.0474  0.9410 -0.5652
 5624TIP3   OH216835   3.863   4.687   4.624 -0.0994 -0.0720  0.6245
 5624TIP3    H116836   3.927   4.617   4.616 -1.0125 -1.2705  2.7706
 5624TIP3    H216837   3.898   4.744   4.692 -0.0298  0.8124 -0.1354
 5625TIP3   OH216838   6.382   5.061   1.595 -0.3597  0.1974  0.4793
 5625TIP3    H116839   6.326   5.053   1.672  0.1951 -2.4657  0.6905
 5625TIP3    H216840   6.430   4.978   1.591 -0.1370  0.3655 -2.5543
 5626TIP3   OH216841   0.856   3.093   0.431  0.1082  0.0151  0.0499
 5626TIP3    H116842   0.871   3.023   0.367 -2.8908 -0.3465 -0.4021
 5626TIP3    H216843   0.768   3.124   0.413  1.1761  3.7774  0.4679
 5627TIP3   OH216844   3.976   4.405   4.873 -0.1154 -0.3081  0.3186
 5627TIP3    H116845   3.917   4.363   4.811  1.8450 -2.4963 -0.2109
 5627TIP3    H216846   4.013   4.479   4.826 -1.6677  0.5292  0.3501
 5628TIP3   OH216847   3.256   6.300   3.703  0.4652  0.1125 -0.4551
 5628TIP3    H116848   3.251   6.235   3.633  0.3261  0.8329 -1.1320
 5628TIP3    H216849   3.168   6.303   3.739  0.5844 -0.3995 -0.1183
 5629TIP3   OH216850   6.815   4.377   5.735 -0.4808  0.1222  0.0460
 5629TIP3    H116851   6.907   4.352   5.744 -0.8534 -1.0983  0.8265
 5629TIP3    H216852   6.812   4.429   5.655  0.7409 -0.5571 -0.4838
 5630TIP3   OH216853   5.663   2.840   3.201 -0.1269 -0.5659 -0.2373
 5630TIP3    H116854   5.593   2.890   3.158  1.8147  1.5980 -1.1360
 5630TIP3    H216855   5.674   2.883   3.286  0.0859 -0.9126 -0.0892
 5631TIP3   OH216856   1.913   2.636   2.656  0.3210 -0.1988 -0.4192
 5631TIP3    H116857   1.868   2.552   2.654  0.6352 -0.3536 -2.0413
 5631TIP3    H216858   1.949   2.647   2.568  0.2838  1.6455 -0.2543
 5632TIP3   OH216859   2.550   6.634   1.164 -0.1729  0.1314 -0.4359
 5632TIP3    H116860   2.536   6.661   1.254 -1.4746 -1.6929 -0.0241
 5632TIP3    H216861   2.464   6.642   1.122  0.9299  3.8265 -2.4848
 5633TIP3   OH216862   4.791   3.384   5.484  0.0543 -0.0456  0.2539
 5633TIP3    H116863   4.788   3.477   5.461 -1.6490 -0.0186  0.4683
 5633TIP3    H216864   4.788   3.338   5.400  0.5638  0.0910  0.1604
 5634TIP3   OH216865   4.487   2.405   5.522  0.4008 -0.7185 -1.0570
 5634TIP3    H116866   4.537   2.476   5.484  2.0092 -1.5901 -0.6626
 5634TIP3    H216867   4.460   2.351   5.448 -2.1672  1.0400 -1.5246
 5635TIP3   OH216868   1.490   6.246   0.878  0.3391 -0.9607 -0.6298
 5635TIP3    H116869   1.487   6.341   0.883 -0.4770 -0.9611 -0.8967
 5635TIP3    H216870   1.483   6.217   0.969 -0.1960 -0.7755 -0.6096
 5636TIP3   OH216871   4.692   3.405   4.887  0.7153 -0.0621  0.0221
 5636TIP3    H116872   4.743   3.332   4.922  0.1751  0.1356  1.2840
 5636TIP3    H216873   4.743   3.437   4.812  1.0430 -1.6008 -0.4372
 5637TIP3   OH216874   0.828   6.444   5.133  0.2895  0.6182  0.1973
 5637TIP3    H116875   0.847   6.486   5.050  0.7308  0.2884  0.1275
 5637TIP3    H216876   0.875   6.361   5.130 -1.3154 -0.3371 -0.0579
 5638TIP3   OH216877   4.221   5.941   5.532  0.0847 -0.0934 -0.4701
 5638TIP3    H116878   4.222   6.036   5.545  1.0497 -0.1430 -0.1286
 5638TIP3    H216879   4.175   5.929   5.448 -1.3912  0.5624  0.2171
 5639TIP3   OH216880   5.475   0.614   2.533 -0.3089  0.6171 -0.0649
 5639TIP3    H116881   5.501   0.671   2.605 -2.1948  1.6047 -0.1026
 5639TIP3    H216882   5.524   0.648   2.457 -0.6327  1.5438  0.1268
 5640TIP3   OH216883   6.846   0.921   0.192 -0.4226 -0.1168  0.0967
 5640TIP3    H116884   6.786   0.868   0.245  0.8370 -1.9504 -0.2102
 5640TIP3    H216885   6.817   0.909   0.102 -1.3672  1.4145  0.1660
 5641TIP3   OH216886   6.187   1.464   1.389 -0.3215 -0.0906 -0.1427
 5641TIP3    H116887   6.104   1.488   1.432 -1.0002  1.5341 -2.1727
 5641TIP3    H216888   6.173   1.374   1.359 -0.0405 -1.0479  2.3902
 5642TIP3   OH216889   5.798   3.255   1.875 -0.3999 -0.4482 -0.0633
 5642TIP3    H116890   5.851   3.176   1.871 -0.1365 -0.2706 -0.1076
 5642TIP3    H216891   5.708   3.223   1.877 -0.3950 -0.7065 -2.0948
 5643TIP3   OH216892   4.226   4.278   4.799 -0.1872  0.6138  0.6574
 5643TIP3    H116893   4.143   4.302   4.840  0.2841  0.9420  1.4322
 5643TIP3    H216894   4.272   4.361   4.787  1.7210  0.1804  3.9193
 5644TIP3   OH216895   7.135   2.897   5.353  0.0479 -0.4999  0.2566
 5644TIP3    H116896   7.190   2.869   5.427 -2.0455  1.1109  2.5859
 5644TIP3    H216897   7.173   2.980   5.325 -0.3262 -0.0993  0.9102
 5645TIP3   OH216898   0.668   1.458   5.518 -0.1020 -0.1438  0.3312
 5645TIP3    H116899   0.573   1.456   5.532 -0.0495 -0.1516  0.6867
 5645TIP3    H216900   0.703   1.493   5.599  0.1678  0.2992  0.0240
 5646TIP3   OH216901   4.172   0.595   1.354 -0.2966  0.5394 -0.6223
 5646TIP3    H116902   4.186   0.624   1.264  1.3312 -1.2703 -1.0391
 5646TIP3    H216903   4.155   0.675   1.404 -1.3415  1.5645 -2.5277
 5647TIP3   OH216904   2.478   4.322   3.360 -0.3113  0.3364  0.1238
 5647TIP3    H116905   2.480   4.317   3.456 -2.6646 -0.5987  0.1939
 5647TIP3    H216906   2.545   4.259   3.332 -1.0800 -0.9943  1.1775
 5648TIP3   OH216907   4.933   1.313   3.600 -0.6814  0.2164 -0.0199
 5648TIP3    H116908   5.007   1.295   3.542  0.0872  1.7026  0.4301
 5648TIP3    H216909   4.896   1.228   3.621  0.3282 -0.4853 -1.0117
 5649TIP3   OH216910   3.147   0.468   3.783  0.1402 -0.0874  0.2054
 5649TIP3    H116911   3.154   0.435   3.873 -2.3090 -1.2435  0.0718
 5649TIP3    H216912   3.201   0.408   3.731  1.9024  0.8296  0.9031
 5650TIP3   OH216913   4.798   0.501   1.294 -0.2617 -0.3504  0.1788
 5650TIP3    H116914   4.823   0.426   1.347  1.9647  1.0076  1.2052
 5650TIP3    H216915   4.740   0.552   1.350 -0.3472 -0.4222  0.1555
 5651TIP3   OH216916   5.486   0.502   4.404 -0.3895 -0.3842  0.0434
 5651TIP3    H116917   5.514   0.552   4.327 -0.0250  0.9362  0.9966
 5651TIP3    H216918   5.426   0.436   4.370  2.2705 -2.0262 -1.8473
 5652TIP3   OH216919   3.434   1.404   0.734  0.6519 -0.4243  0.5910
 5652TIP3    H116920   3.508   1.464   0.729  0.0721  0.3293  0.8130
 5652TIP3    H216921   3.365   1.448   0.684  0.3919 -1.1771  0.2781
 5653TIP3   OH216922   4.428   1.092   4.010  0.2950  0.1309 -0.2459
 5653TIP3    H116923   4.451   1.162   4.072  0.6949 -0.4947  0.3282
 5653TIP3    H216924   4.406   1.138   3.929 -0.7218  0.9917  0.5039
 5654TIP3   OH216925   0.224   2.303   4.496 -0.0273  0.1298  0.0347
 5654TIP3    H116926   0.155   2.265   4.442 -1.4729  2.7804 -0.1726
 5654TIP3    H216927   0.179   2.335   4.574  0.8055  2.3502 -0.3167
 5655TIP3   OH216928   0.595   0.788   0.666 -0.0217  0.2664 -0.2225
 5655TIP3    H116929   0.650   0.866   0.678  3.0979 -1.9901  2.1948
 5655TIP3    H216930   0.582   0.754   0.755 -2.6347 -1.1610 -1.0335
 5656TIP3   OH216931   6.102   2.915   5.417  0.0849 -0.9525  0.2867
 5656TIP3    H116932   6.069   2.884   5.333 -0.6882  0.7810 -0.1011
 5656TIP3    H216933   6.156   2.992   5.395  0.1269 -0.6601  1.3468
 5657TIP3   OH216934   2.772   2.629   1.668  0.0032  0.3597  0.0401
 5657TIP3    H116935   2.783   2.707   1.723  0.7543  0.9404 -0.8948
 5657TIP3    H216936   2.841   2.570   1.698  0.7917  0.9101 -0.6485
 5658TIP3   OH216937   5.236   2.878   5.301 -0.4162  0.2609  0.0362
 5658TIP3    H116938   5.160   2.820   5.304 -1.7540  1.9847  1.0152
 5658TIP3    H216939   5.300   2.836   5.358 -2.0155  0.5545  2.1733
 5659TIP3   OH216940   1.861   1.666   3.752  0.2917 -0.1902  0.4250
 5659TIP3    H116941   1.841   1.690   3.843  2.5037 -1.7810  1.4192
 5659TIP3    H216942   1.935   1.606   3.759 -1.0394 -2.3586 -2.2956
 5660TIP3   OH216943   0.960   6.357   0.351  0.1497 -0.0447 -0.0589
 5660TIP3    H116944   0.924   6.445   0.335  0.5889  0.0355 -0.6398
 5660TIP3    H216945   1.001   6.333   0.268 -3.1162 -2.3581 -1.2159
 5661TIP3   OH216946   1.815   4.809   4.641 -0.5143  0.3848  0.7437
 5661TIP3    H116947   1.792   4.885   4.587 -0.9920  0.2999  0.8246
 5661TIP3    H216948   1.772   4.735   4.599  0.6460  0.0078  0.1769
 5662TIP3   OH216949   3.692   5.727   1.406 -0.4912  0.1793  0.6390
 5662TIP3    H116950   3.763   5.747   1.468 -1.7213 -0.2840  2.2443
 5662TIP3    H216951   3.721   5.647   1.362  0.3787  0.4956  0.6009
 5663TIP3   OH216952   5.160   1.818   4.852 -0.1449 -0.0866 -0.9640
 5663TIP3    H116953   5.127   1.853   4.769  0.0890  3.2693  0.1855
 5663TIP3    H216954   5.253   1.803   4.836 -0.1813  0.1692 -1.4518
 5664TIP3   OH216955   3.621   5.246   5.835 -0.6272 -0.3539  0.1637
 5664TIP3    H116956   3.579   5.265   5.919 -1.2976  1.0712 -0.4635
 5664TIP3    H216957   3.678   5.171   5.854  1.1961  1.4374  2.5366
 5665TIP3   OH216958   1.114   2.806   5.630 -0.3358 -0.5722 -0.0124
 5665TIP3    H116959   1.098   2.785   5.538 -1.1684 -1.1129  0.2509
 5665TIP3    H216960   1.073   2.892   5.643 -0.2019 -0.4871 -0.1417
 5666TIP3   OH216961   0.954   3.824   2.464  0.2300  0.1567 -0.1457
 5666TIP3    H116962   0.892   3.861   2.401  1.1281  0.9179 -0.6121
 5666TIP3    H216963   0.989   3.900   2.510  0.4150 -0.3073  0.4811
 5667TIP3   OH216964   1.321   0.861   0.647  0.1611  0.7676 -0.1452
 5667TIP3    H116965   1.346   0.856   0.739 -0.7455 -1.3668  0.0269
 5667TIP3    H216966   1.230   0.832   0.644 -0.5279  2.8106 -1.4867
 5668TIP3   OH216967   6.655   0.868   2.037  0.4460  0.4188 -0.4925
 5668TIP3    H116968   6.651   0.834   1.947  2.4613  1.4607 -1.0392
 5668TIP3    H216969   6.648   0.963   2.026 -0.1426  0.5091  0.5615
 5669TIP3   OH216970   2.314   2.891   1.114  0.1508 -0.0740 -0.4031
 5669TIP3    H116971   2.242   2.953   1.121 -1.1749 -1.4779 -1.1009
 5669TIP3    H216972   2.335   2.868   1.205 -1.4528 -0.9160 -0.2065
 5670TIP3   OH216973   4.411   4.894   3.289 -0.0162  0.2485  0.0723
 5670TIP3    H116974   4.506   4.906   3.289 -0.1553  1.3840 -0.2812
 5670TIP3    H216975   4.384   4.917   3.201 -0.5154 -1.0438 -0.1308
 5671TIP3   OH216976   6.858   0.468   1.190  0.3212 -0.0115  0.2312
 5671TIP3    H116977   6.798   0.466   1.265 -0.4446 -0.9201 -0.3723
 5671TIP3    H216978   6.903   0.384   1.194  0.0997 -0.1674 -0.4497
 5672TIP3   OH216979   0.042   4.725   5.260  0.3913  0.4146  0.0732
 5672TIP3    H116980   0.136   4.708   5.248  0.6073  1.2236  0.4780
 5672TIP3    H216981   0.012   4.757   5.175  0.1862 -1.0466 -0.4208
 5673TIP3   OH216982   3.153   6.501   0.403  0.0913  0.2515 -0.0348
 5673TIP3    H116983   3.240   6.508   0.442  0.5660  0.5638 -1.0962
 5673TIP3    H216984   3.162   6.433   0.337 -0.6302 -0.1169  0.2409
 5674TIP3   OH216985   1.236   4.875   1.497  0.6155 -0.7015 -0.6210
 5674TIP3    H116986   1.230   4.913   1.585 -1.1615 -0.0258 -0.9723
 5674TIP3    H216987   1.317   4.911   1.461  0.3959  0.5556  0.0710
 5675TIP3   OH216988   6.898   1.810   1.754  0.3143  0.3078 -0.4902
 5675TIP3    H116989   6.910   1.886   1.697  0.0893  2.0337  1.6340
 5675TIP3    H216990   6.868   1.847   1.837  1.3532 -1.9952  1.0099
 5676TIP3   OH216991   5.472   0.152   4.718 -0.1335 -0.1562  0.0412
 5676TIP3    H116992   5.491   0.242   4.745 -0.5092  0.1409 -0.6368
 5676TIP3    H216993   5.539   0.131   4.653 -0.7528  0.0832 -0.6946
 5677TIP3   OH216994   5.158   2.278   5.511  1.0183  0.0911 -0.4897
 5677TIP3    H116995   5.121   2.241   5.431 -0.6988  0.8533 -0.1031
 5677TIP3    H216996   5.222   2.343   5.481 -0.0226  0.7813 -1.2814
 5678TIP3   OH216997   5.412   6.421   4.542  0.3399 -0.2850 -0.1391
 5678TIP3    H116998   5.495   6.465   4.526  0.6394 -1.2251 -1.3872
 5678TIP3    H216999   5.437   6.334   4.576 -0.1785 -0.1446  0.6277
 5679TIP3   OH217000   0.261   5.061   0.682 -0.2654  0.8542  0.2526
 5679TIP3    H117001   0.274   5.027   0.593 -1.1833 -1.4004  0.9018
 5679TIP3    H217002   0.348   5.091   0.708  0.9242 -1.8609 -0.1416
 5680TIP3   OH217003   4.032   5.550   1.378 -0.1795  0.1878 -0.3500
 5680TIP3    H117004   4.012   5.470   1.329  0.9327  0.4791 -1.3446
 5680TIP3    H217005   4.127   5.549   1.388 -0.4417 -0.4251  2.8777
 5681TIP3   OH217006   3.630   2.381   4.181  0.2225 -0.3915  0.6440
 5681TIP3    H117007   3.545   2.416   4.209  0.6421  0.6909  0.6409
 5681TIP3    H217008   3.666   2.451   4.126  0.8805 -1.0709  0.2052
 5682TIP3   OH217009   0.940   0.450   3.375 -0.6828 -0.4245 -0.0090
 5682TIP3    H117010   0.925   0.424   3.466  0.6861 -0.9705  0.0724
 5682TIP3    H217011   1.010   0.394   3.344 -0.5652  0.3121 -1.1637
 5683TIP3   OH217012   5.556   2.393   4.118 -0.0614  0.1636  0.2553
 5683TIP3    H117013   5.628   2.424   4.174 -0.6190  1.7029  0.1757
 5683TIP3    H217014   5.496   2.349   4.179  0.0336  0.5514  0.6369
 5684TIP3   OH217015   3.066   3.869   3.672 -0.4335 -0.7096  0.0090
 5684TIP3    H117016   3.001   3.809   3.636 -0.1096 -1.0961  0.0597
 5684TIP3    H217017   3.028   3.901   3.753 -2.1121  1.7872 -1.5942
 5685TIP3   OH217018   2.235   5.931   4.936  0.3322  0.2361  0.1709
 5685TIP3    H117019   2.145   5.902   4.947  0.1126  1.1181  0.8402
 5685TIP3    H217020   2.265   5.954   5.025  0.8481  0.9584 -0.1703
 5686TIP3   OH217021   2.574   5.172   2.287  0.1165  0.0537 -0.2032
 5686TIP3    H117022   2.597   5.151   2.196  0.1966  0.6714 -0.3301
 5686TIP3    H217023   2.624   5.251   2.306 -1.0295  0.7742 -0.1072
 5687TIP3   OH217024   2.488   1.118   2.407  0.2794  0.0733 -0.3909
 5687TIP3    H117025   2.581   1.097   2.413  0.6477  1.4001 -1.0787
 5687TIP3    H217026   2.484   1.214   2.410 -0.9523  0.0938 -1.4727
 5688TIP3   OH217027   6.595   2.384   0.435 -0.0251  0.5101 -0.4250
 5688TIP3    H117028   6.566   2.335   0.358  0.3816  2.3297 -1.8115
 5688TIP3    H217029   6.632   2.464   0.399 -1.3019  2.1799  1.7386
 5689TIP3   OH217030   3.066   4.599   3.498  0.1544  0.5305  0.0401
 5689TIP3    H117031   3.082   4.558   3.583 -0.0029  0.8141  0.2085
 5689TIP3    H217032   3.072   4.527   3.435  1.6015  0.5478  0.1346
 5690TIP3   OH217033   0.028   4.941   2.850  0.0406 -0.1984  0.4250
 5690TIP3    H117034   0.075   5.024   2.850  0.0727 -0.1375 -1.8508
 5690TIP3    H217035   0.095   4.875   2.834 -0.0295 -0.6762  1.9078
 5691TIP3   OH217036   5.802   5.598   5.226 -0.2147 -0.5361 -0.4118
 5691TIP3    H117037   5.748   5.536   5.177  0.0199 -0.8229 -0.3154
 5691TIP3    H217038   5.791   5.681   5.181 -0.5336 -0.6473 -0.5455
 5692TIP3   OH217039   6.129   5.918   4.203  0.3274 -0.2348  0.5777
 5692TIP3    H117040   6.178   5.865   4.266  1.0673  0.0487  0.2562
 5692TIP3    H217041   6.059   5.860   4.173 -0.4606 -0.1529  2.1361
 5693TIP3   OH217042   4.805   0.282   3.360 -0.0799  0.1998 -0.0468
 5693TIP3    H117043   4.726   0.321   3.323  0.5779  1.4228 -0.2455
 5693TIP3    H217044   4.788   0.276   3.454 -0.5629  0.0804 -0.1442
 5694TIP3   OH217045   0.582   0.313   0.249  0.0112  0.1444 -0.0375
 5694TIP3    H117046   0.644   0.306   0.322 -0.7557 -0.3410  0.5797
 5694TIP3    H217047   0.565   0.407   0.241 -0.3465  0.1599  0.7980
 5695TIP3   OH217048   6.540   2.428   3.837 -0.0490 -0.0699  0.2014
 5695TIP3    H117049   6.575   2.460   3.753 -0.5090 -0.3928 -0.1220
 5695TIP3    H217050   6.551   2.502   3.897  0.8585 -0.0498  0.0207
 5696TIP3   OH217051   2.044   2.134   3.401  0.2880  0.5331 -0.2539
 5696TIP3    H117052   1.975   2.084   3.444  0.8383  0.4016  0.4916
 5696TIP3    H217053   1.999   2.210   3.363 -0.3414  0.1790 -0.2197
 5697TIP3   OH217054   4.850   2.033   1.673  0.4791  0.5586 -0.7137
 5697TIP3    H117055   4.934   1.993   1.650  0.5458 -0.7739  1.5197
 5697TIP3    H217056   4.834   2.004   1.763 -1.7211  1.9186 -0.5990
 5698TIP3   OH217057   2.070   1.167   3.854  0.3765  0.1697 -0.1835
 5698TIP3    H117058   1.996   1.195   3.800  0.1483  0.3691  0.2245
 5698TIP3    H217059   2.090   1.243   3.908 -0.0816 -0.3623  0.7520
 5699TIP3   OH217060   3.131   2.795   2.020  0.2078 -0.0674 -0.7709
 5699TIP3    H117061   3.207   2.843   2.054 -0.0886 -0.0207 -0.1502
 5699TIP3    H217062   3.163   2.706   2.004  0.2901 -0.1685 -0.0796
 5700TIP3   OH217063   1.443   5.591   4.155  0.7167 -0.5242  0.5693
 5700TIP3    H117064   1.460   5.518   4.095 -1.2771 -1.9396  1.6076
 5700TIP3    H217065   1.368   5.637   4.116  0.0437 -0.8550  1.4581
 5701TIP3   OH217066   4.953   4.380   5.627  0.4607  0.0523 -0.1845
 5701TIP3    H117067   4.910   4.338   5.553  2.7129 -1.7050 -0.5943
 5701TIP3    H217068   4.939   4.474   5.613 -2.2595 -0.3569 -0.7999
 5702TIP3   OH217069   5.501   3.807   5.394 -0.1090 -0.4785  0.4461
 5702TIP3    H117070   5.549   3.888   5.408 -3.0219  1.4079  0.2215
 5702TIP3    H217071   5.492   3.800   5.299 -3.0508  1.0487  0.5254
 5703TIP3   OH217072   5.837   3.407   4.240  0.6522  0.2937 -0.2240
 5703TIP3    H117073   5.863   3.435   4.329  0.6968  0.1482 -0.1914
 5703TIP3    H217074   5.876   3.473   4.183  0.4358  0.5145 -0.1202
 5704TIP3   OH217075   1.068   3.942   2.015 -0.0668  0.2304 -0.0974
 5704TIP3    H117076   0.979   3.934   2.049  1.0014 -2.0520  2.6149
 5704TIP3    H217077   1.123   3.950   2.092  2.1520  1.2439 -1.6643
 5705TIP3   OH217078   0.266   3.485   3.407  0.3727  0.6223 -0.5297
 5705TIP3    H117079   0.330   3.436   3.356  0.9671 -0.2430  0.9932
 5705TIP3    H217080   0.298   3.481   3.497 -1.0078  1.5030  0.0393
 5706TIP3   OH217081   1.828   5.501   2.684  0.6268  0.1523  0.1323
 5706TIP3    H117082   1.752   5.443   2.694 -0.4965  1.2545 -1.4165
 5706TIP3    H217083   1.798   5.585   2.721  2.0070 -0.0274  1.7751
 5707TIP3   OH217084   7.225   2.190   4.371  0.8056  0.3588  0.4546
 5707TIP3    H117085   7.150   2.157   4.422  1.6755  0.1689  1.6700
 5707TIP3    H217086   7.194   2.272   4.333 -0.3672 -0.2637  0.0336
 5708TIP3   OH217087   2.945   1.515   1.978 -0.6606  0.2822  0.2436
 5708TIP3    H117088   2.940   1.448   2.046 -1.6345 -0.4296 -0.4986
 5708TIP3    H217089   2.931   1.598   2.025  0.7369  0.0069  1.1967
 5709TIP3   OH217090   6.152   1.536   4.904 -0.1143 -0.0872 -0.2434
 5709TIP3    H117091   6.176   1.535   4.811  0.4712  1.4424 -0.1375
 5709TIP3    H217092   6.057   1.551   4.904 -0.0662  0.2372 -0.5929
 5710TIP3   OH217093   4.848   4.247   5.416 -0.0681 -0.1399  0.0660
 5710TIP3    H117094   4.851   4.246   5.320  0.6104  0.5311  0.0666
 5710TIP3    H217095   4.815   4.161   5.440  0.4740 -0.5890 -0.7526
 5711TIP3   OH217096   3.817   6.667   0.634 -0.0227  0.1077 -0.0411
 5711TIP3    H117097   3.828   6.757   0.663  0.1674  0.0187  0.1655
 5711TIP3    H217098   3.864   6.663   0.551 -0.4325  0.3212 -0.2862
 5712TIP3   OH217099   2.729   1.782   2.627 -0.5052  0.0320  0.0880
 5712TIP3    H117100   2.675   1.798   2.549 -0.1180 -2.0857 -0.7004
 5712TIP3    H217101   2.707   1.692   2.652  1.1783 -0.1713  0.9575
 5713TIP3   OH217102   7.184   4.005   2.002  0.0975 -1.0188  0.6799
 5713TIP3    H117103   7.113   3.941   2.000  1.4581 -2.5762  0.7161
 5713TIP3    H217104   7.141   4.087   2.027 -1.7797 -1.7672  0.0882
 5714TIP3   OH217105   6.393   1.060   4.697  0.1904 -0.3274  0.2613
 5714TIP3    H117106   6.447   1.055   4.618 -1.4315 -1.1676 -0.8396
 5714TIP3    H217107   6.446   1.017   4.765  1.5203  0.2268 -0.3879
 5715TIP3   OH217108   3.785   6.342   0.771  0.1476  0.1838 -0.0400
 5715TIP3    H117109   3.796   6.415   0.710 -0.0630  1.3696  1.2987
 5715TIP3    H217110   3.696   6.351   0.804  0.7420  0.5397  1.6052
 5716TIP3   OH217111   4.805   3.008   5.431  0.0922  0.7533  0.0216
 5716TIP3    H117112   4.750   3.076   5.391 -0.2147  0.7921  0.4997
 5716TIP3    H217113   4.893   3.046   5.433 -0.0498  1.0769  0.1459
 5717TIP3   OH217114   0.904   0.887   0.895 -0.2744 -0.1048  0.0114
 5717TIP3    H117115   0.866   0.970   0.865  0.8439  0.8147  1.0123
 5717TIP3    H217116   0.948   0.910   0.977  1.3745 -1.3810 -0.4808
 5718TIP3   OH217117   7.087   4.848   3.080 -0.0778  0.2976  0.7947
 5718TIP3    H117118   7.133   4.864   3.162 -2.2576  3.4853  1.6088
 5718TIP3    H217119   7.140   4.892   3.013  0.2029  0.2645  0.9964
 5719TIP3   OH217120   0.432   2.225   5.353  0.4554 -0.1494 -0.5781
 5719TIP3    H117121   0.357   2.272   5.317 -0.1987 -0.2552  0.6034
 5719TIP3    H217122   0.486   2.292   5.394 -0.9621 -0.4303  1.9670
 5720TIP3   OH217123   0.715   6.643   2.125  0.1262 -0.0070  0.6306
 5720TIP3    H117124   0.721   6.739   2.119  0.6583 -0.1329 -1.4280
 5720TIP3    H217125   0.621   6.625   2.120  0.0943  0.3667 -0.4830
 5721TIP3   OH217126   1.541   6.282   3.694  0.1248 -0.3645 -0.2511
 5721TIP3    H117127   1.618   6.249   3.740  0.4764  2.2359  1.2318
 5721TIP3    H217128   1.470   6.271   3.758 -0.8706 -2.8089 -1.6294
 5722TIP3   OH217129   2.101   2.591   3.795  0.7301  0.1034  0.3615
 5722TIP3    H117130   2.053   2.629   3.868  2.1847  1.1256  0.8359
 5722TIP3    H217131   2.163   2.659   3.769  2.1338 -1.2600 -0.0130
 5723TIP3   OH217132   5.309   4.492   4.811 -1.0268 -0.2431 -0.4875
 5723TIP3    H117133   5.338   4.549   4.882 -3.8445  1.7871 -0.7968
 5723TIP3    H217134   5.357   4.410   4.824 -0.2724  0.5843  2.7742
 5724TIP3   OH217135   4.038   4.120   3.983 -0.0187 -0.0804 -0.4332
 5724TIP3    H117136   4.060   4.048   4.043 -0.6935 -0.4601 -0.6295
 5724TIP3    H217137   4.118   4.173   3.979  0.3317 -0.5536  0.0892
 5725TIP3   OH217138   1.385   6.017   0.785  0.4087  0.4443 -0.7194
 5725TIP3    H117139   1.416   6.085   0.845  0.6994 -0.6242  0.3817
 5725TIP3    H217140   1.327   6.062   0.724  0.9566  1.7509 -0.2913
 5726TIP3   OH217141   6.644   3.636   1.540 -0.6278  0.5252  0.4428
 5726TIP3    H117142   6.645   3.615   1.634 -0.0076 -0.5042  0.2166
 5726TIP3    H217143   6.717   3.697   1.529 -0.4325  0.3118  0.5527
 5727TIP3   OH217144   0.307   2.735   2.873 -0.2701 -0.1213 -0.4972
 5727TIP3    H117145   0.397   2.722   2.842 -0.8884 -0.7178 -2.1571
 5727TIP3    H217146   0.311   2.815   2.926  1.5504 -1.0631  0.8881
 5728TIP3   OH217147   3.549   6.042   0.168  0.2933  0.0765  0.1033
 5728TIP3    H117148   3.623   5.997   0.126 -0.5702 -0.3025 -1.0740
 5728TIP3    H217149   3.568   6.135   0.155  1.7508  0.0919  1.9532
 5729TIP3   OH217150   6.952   2.354   1.183  0.0155 -0.4815 -0.8447
 5729TIP3    H117151   6.879   2.415   1.192 -0.6594 -1.4123  0.4513
 5729TIP3    H217152   7.027   2.401   1.220 -0.6223 -0.5919  0.6961
 5730TIP3   OH217153   4.323   6.417   1.437 -0.6234  0.0176  0.4566
 5730TIP3    H117154   4.324   6.343   1.497  0.2062 -0.5567 -0.2357
 5730TIP3    H217155   4.240   6.462   1.456 -0.4603 -0.2394  1.8819
 5731TIP3   OH217156   4.989   5.135   0.071  0.5227  0.2096 -0.1731
 5731TIP3    H117157   4.937   5.070   0.119  0.8752  1.7566  2.5536
 5731TIP3    H217158   5.056   5.084   0.026 -1.5297 -1.5845 -1.4314
 5732TIP3   OH217159   4.234   2.413   1.348 -0.7282  0.0297  0.0353
 5732TIP3    H117160   4.248   2.463   1.268  0.9810 -0.0475  0.2473
 5732TIP3    H217161   4.302   2.444   1.408 -1.1262 -0.8693  0.9888
 5733TIP3   OH217162   5.307   2.302   2.136 -0.4288 -0.0838 -0.0762
 5733TIP3    H117163   5.247   2.377   2.136  0.4885  0.6824  1.1655
 5733TIP3    H217164   5.259   2.233   2.089 -2.4399  0.3802  1.1660
 5734TIP3   OH217165   2.063   3.923   3.740  0.2962  0.1707 -0.1057
 5734TIP3    H117166   1.994   3.907   3.675  1.5441 -2.5757 -0.8864
 5734TIP3    H217167   2.092   4.012   3.723 -0.0505 -0.1536 -2.7271
 5735TIP3   OH217168   0.351   4.417   0.312  0.3800  0.3784 -0.3477
 5735TIP3    H117169   0.412   4.378   0.250 -0.4839  1.2858 -1.8335
 5735TIP3    H217170   0.278   4.449   0.258  0.5714  3.1128  0.8260
 5736TIP3   OH217171   0.562   6.324   2.199  0.4974 -0.0916 -0.3147
 5736TIP3    H117172   0.620   6.283   2.263  0.1782  0.0140  0.0468
 5736TIP3    H217173   0.490   6.262   2.189 -0.9464  1.1771  1.6455
 5737TIP3   OH217174   0.532   3.331   0.914  0.1384 -0.1511 -0.0537
 5737TIP3    H117175   0.448   3.363   0.879  0.0844  0.8033  0.9033
 5737TIP3    H217176   0.540   3.372   0.999  0.1031 -2.7074  1.2786
 5738TIP3   OH217177   1.730   3.121   4.871  0.2779 -0.2780 -0.1673
 5738TIP3    H117178   1.763   3.114   4.960  1.8533  1.3070 -0.5827
 5738TIP3    H217179   1.759   3.040   4.828  0.8378 -0.3544  0.3526
 5739TIP3   OH217180   4.841   5.853   2.278 -0.6273  0.1800  0.0727
 5739TIP3    H117181   4.826   5.761   2.300  0.3492  0.1519  0.6539
 5739TIP3    H217182   4.935   5.865   2.286 -0.7127  1.1691 -0.2778
 5740TIP3   OH217183   2.757   1.912   4.885 -0.1080 -0.1635  0.1039
 5740TIP3    H117184   2.817   1.868   4.823 -0.7030 -2.2851  0.9395
 5740TIP3    H217185   2.815   1.952   4.950  0.4695  0.5736 -0.8345
 5741TIP3   OH217186   3.405   5.940   2.895  0.3852 -0.1969  0.1677
 5741TIP3    H117187   3.321   5.985   2.908  0.1359 -0.6903  0.3165
 5741TIP3    H217188   3.382   5.847   2.901  1.1890 -0.3257  1.7525
 5742TIP3   OH217189   5.951   1.567   1.480 -0.4414 -0.0661  0.1372
 5742TIP3    H117190   5.919   1.656   1.463  0.3444 -0.3615 -4.2433
 5742TIP3    H217191   5.872   1.514   1.487 -0.9920  0.4913 -1.3047
 5743TIP3   OH217192   3.120   6.057   3.181  0.0884 -0.3402 -0.2249
 5743TIP3    H117193   3.146   5.981   3.233 -2.2179  0.6530  2.6832
 5743TIP3    H217194   3.170   6.130   3.218  0.0652  0.0550 -0.9477
 5744TIP3   OH217195   1.620   3.155   1.330  0.1731  0.5286 -0.1751
 5744TIP3    H117196   1.679   3.146   1.404 -1.3963 -0.4625  1.0440
 5744TIP3    H217197   1.571   3.235   1.347  0.6872  0.9826 -0.8179
 5745TIP3   OH217198   5.422   6.394   3.443 -0.5768  0.1856  0.1901
 5745TIP3    H117199   5.495   6.334   3.430 -0.8928 -0.0428 -0.5869
 5745TIP3    H217200   5.437   6.464   3.379 -0.8764  0.2993  0.2436
 5746TIP3   OH217201   0.578   5.946   3.618 -0.6451  0.7023 -0.2559
 5746TIP3    H117202   0.568   5.981   3.530 -1.0815  0.1760 -0.4232
 5746TIP3    H217203   0.497   5.969   3.664 -0.5914  0.6195 -0.1164
 5747TIP3   OH217204   1.199   5.204   3.323 -0.0265 -0.1493 -0.0374
 5747TIP3    H117205   1.105   5.191   3.336 -0.0317 -0.1967 -0.1210
 5747TIP3    H217206   1.220   5.278   3.380 -0.0601 -0.3080  0.1840
 5748TIP3   OH217207   2.741   4.847   1.821 -0.1511  0.3304  0.0743
 5748TIP3    H117208   2.820   4.874   1.774 -1.3360  0.3306 -2.0451
 5748TIP3    H217209   2.709   4.771   1.771 -1.2627  0.0858  1.1387
 5749TIP3   OH217210   6.160   5.715   0.913  0.5508 -0.3354 -0.1202
 5749TIP3    H117211   6.239   5.713   0.858  1.1126  1.7582  0.4939
 5749TIP3    H217212   6.193   5.709   1.002 -0.0341 -0.1381  0.1138
 5750TIP3   OH217213   4.429   3.565   5.371  0.1231 -0.5100  0.3731
 5750TIP3    H117214   4.464   3.583   5.458  0.8166 -2.8661  0.6538
 5750TIP3    H217215   4.504   3.532   5.321 -0.9590 -2.6062  0.0144
 5751TIP3   OH217216   3.318   0.870   5.219  0.1359  0.8490 -0.1915
 5751TIP3    H117217   3.276   0.931   5.159  2.4564  2.2467 -0.5360
 5751TIP3    H217218   3.411   0.893   5.215  0.7215 -0.8148  1.9028
 5752TIP3   OH217219   6.766   6.096   0.778  0.1668  0.0607 -0.3339
 5752TIP3    H117220   6.822   6.133   0.710  0.8415  0.6472  0.5082
 5752TIP3    H217221   6.681   6.138   0.763  0.5882  1.0115 -0.1777
 5753TIP3   OH217222   7.139   1.686   5.839  0.1263 -0.1307  0.1422
 5753TIP3    H117223   7.138   1.713   5.747 -2.3895 -0.8316 -0.1193
 5753TIP3    H217224   7.167   1.764   5.887 -2.6285  1.6895 -0.9419
 5754TIP3   OH217225   4.570   5.763   2.346 -0.2577 -0.0612 -0.1799
 5754TIP3    H117226   4.656   5.727   2.364  0.4664  1.8579  0.4301
 5754TIP3    H217227   4.514   5.730   2.416  0.0745 -0.9378 -0.3175
 5755TIP3   OH217228   4.090   0.755   4.195 -0.1495  0.2323  0.2423
 5755TIP3    H117229   4.085   0.845   4.164 -0.2503  0.0530 -0.2797
 5755TIP3    H217230   4.006   0.739   4.236 -0.6035 -0.0046 -0.7502
 5756TIP3   OH217231   2.981   3.846   2.659 -0.0467  0.0755 -0.5375
 5756TIP3    H117232   2.886   3.856   2.657 -0.1120 -0.6284 -1.6486
 5756TIP3    H217233   2.996   3.773   2.719 -0.1533  0.5362  0.0701
 5757TIP3   OH217234   6.910   2.538   1.791  0.6472  0.7294  0.5638
 5757TIP3    H117235   6.846   2.485   1.839  1.7280 -0.1486  1.0712
 5757TIP3    H217236   6.885   2.629   1.810 -0.5525  0.4098  0.5944
 5758TIP3   OH217237   1.790   6.507   3.297 -0.1131  0.3289 -0.4586
 5758TIP3    H117238   1.722   6.570   3.320  0.4642  0.1409  1.9996
 5758TIP3    H217239   1.837   6.491   3.378  0.6608 -2.2268 -1.3109
 5759TIP3   OH217240   1.912   5.286   5.493  0.6221 -0.2177 -0.0939
 5759TIP3    H117241   1.933   5.198   5.464 -1.3360 -0.5827 -0.5658
 5759TIP3    H217242   1.822   5.300   5.464  0.7494  1.7924  0.3194
 5760TIP3   OH217243   3.342   1.686   1.087 -0.5973 -0.3967 -0.2516
 5760TIP3    H117244   3.335   1.735   1.005 -1.7983 -0.7797 -0.3962
 5760TIP3    H217245   3.420   1.723   1.130  0.0454 -0.1860 -1.5413
 5761TIP3   OH217246   3.190   0.020   4.351  0.1732 -0.5491  0.4772
 5761TIP3    H117247   3.122  -0.047   4.361  0.0652 -0.4543  0.3848
 5761TIP3    H217248   3.225   0.032   4.439 -0.0949 -0.4254  0.5682
 5762TIP3   OH217249   0.538   1.594   5.175 -0.1093  0.4495  0.6477
 5762TIP3    H117250   0.511   1.685   5.183 -1.2132  0.1468  0.5274
 5762TIP3    H217251   0.501   1.552   5.253  2.2796  0.5180  1.8886
 5763TIP3   OH217252   7.052   4.344   3.546  0.3278  1.1451  0.5170
 5763TIP3    H117253   6.983   4.411   3.545  0.2315  1.0474  0.6475
 5763TIP3    H217254   7.028   4.286   3.618 -1.4922 -1.0294 -1.6800
 5764TIP3   OH217255   3.420   1.523   0.237 -0.2898 -0.2403 -0.1461
 5764TIP3    H117256   3.332   1.557   0.253 -0.4413 -0.0682 -1.2752
 5764TIP3    H217257   3.467   1.597   0.198  0.2276 -0.4636  0.0437
 5765TIP3   OH217258   2.816   3.876   3.359  0.3840  0.2244  0.5691
 5765TIP3    H117259   2.799   3.923   3.440  1.8290 -0.2040  1.1524
 5765TIP3    H217260   2.743   3.815   3.350  0.1447  0.3763  1.4680
 5766TIP3   OH217261   6.779   0.905   2.414  0.1769 -0.4033 -0.6009
 5766TIP3    H117262   6.695   0.943   2.387  0.2873  0.5717  0.3352
 5766TIP3    H217263   6.760   0.863   2.498  0.3633 -1.2282 -0.9699
 5767TIP3   OH217264   0.814   3.993   2.291  0.0802  0.3632  0.0646
 5767TIP3    H117265   0.802   4.045   2.211  2.1000 -1.5264 -1.6177
 5767TIP3    H217266   0.819   4.058   2.361 -0.3481  2.2188 -1.5147
 5768TIP3   OH217267   5.782   2.513   1.878 -0.1159 -1.1899  0.2954
 5768TIP3    H117268   5.730   2.537   1.802  0.4479 -0.5596  0.1014
 5768TIP3    H217269   5.855   2.462   1.843 -0.1674 -1.3994  0.4832
 5769TIP3   OH217270   5.742   4.985   4.332 -0.1361  0.4146  0.0469
 5769TIP3    H117271   5.745   4.949   4.244  0.7976  2.1354 -0.6841
 5769TIP3    H217272   5.762   4.912   4.389  0.2353 -0.5213 -1.2345
 5770TIP3   OH217273   2.430   0.549   3.201 -0.5270  0.2228 -0.0779
 5770TIP3    H117274   2.485   0.473   3.178  1.5586  0.6991  2.8655
 5770TIP3    H217275   2.433   0.604   3.123  0.1631 -1.4468 -1.3040
 5771TIP3   OH217276   0.396   1.057   0.036 -0.0063 -0.1048 -0.5365
 5771TIP3    H117277   0.371   1.141   0.075 -0.7527 -0.4047 -0.3477
 5771TIP3    H217278   0.427   1.080  -0.051  0.3413  0.4279 -0.2790
 5772TIP3   OH217279   1.290   4.905   3.100  0.4540  0.0515  0.7377
 5772TIP3    H117280   1.268   4.972   3.035 -2.5074 -0.8242  0.7207
 5772TIP3    H217281   1.345   4.843   3.052 -0.8756 -0.0683 -0.7176
 5773TIP3   OH217282   5.632   6.246   4.891  0.6510  0.1963 -0.2487
 5773TIP3    H117283   5.600   6.220   4.804 -0.1332  1.6707 -0.4382
 5773TIP3    H217284   5.560   6.225   4.950  0.9480 -0.2525 -0.0450
 5774TIP3   OH217285   5.297   5.936   1.955 -0.0798 -0.2421  0.5630
 5774TIP3    H117286   5.331   5.848   1.973  0.1781 -0.4036 -0.6145
 5774TIP3    H217287   5.366   5.977   1.903 -1.3935 -0.3525 -1.3629
 5775TIP3   OH217288   5.324   6.261   1.829 -0.0486 -0.3011 -0.1336
 5775TIP3    H117289   5.365   6.183   1.790 -0.1363 -0.8244  0.8045
 5775TIP3    H217290   5.373   6.276   1.909 -0.7110 -0.0143  0.2238
 5776TIP3   OH217291   0.593   4.972   5.002 -0.3023 -0.1141 -0.2397
 5776TIP3    H117292   0.658   4.902   4.996 -1.1329 -0.8990 -0.4127
 5776TIP3    H217293   0.631   5.035   5.063  0.7756 -0.3725 -0.6217
 5777TIP3   OH217294   2.535   5.383   0.539  0.2842 -0.2511  0.1625
 5777TIP3    H117295   2.550   5.476   0.556  1.4948 -0.4561  0.3570
 5777TIP3    H217296   2.465   5.358   0.599  0.0672  0.4978  0.2290
 5778TIP3   OH217297   1.786   3.271   2.986  0.2394  0.0765  0.3081
 5778TIP3    H117298   1.834   3.201   2.942 -0.1405 -0.6729  1.0483
 5778TIP3    H217299   1.767   3.236   3.073 -0.0291  1.0764  0.6662
 5779TIP3   OH217300   6.619   6.006   1.103 -0.0724  0.1239 -0.3026
 5779TIP3    H117301   6.676   5.930   1.102  1.9187  1.5362  0.1644
 5779TIP3    H217302   6.678   6.081   1.109 -1.9834  1.6346  1.2599
 5780TIP3   OH217303   0.583   4.337   1.498 -0.1212 -0.4033  0.0381
 5780TIP3    H117304   0.594   4.431   1.483 -1.2735 -0.1588  0.6055
 5780TIP3    H217305   0.489   4.325   1.506 -0.0757 -1.7853 -1.0359
 5781TIP3   OH217306   1.163   3.694   3.239  0.2646 -0.0973 -1.0278
 5781TIP3    H117307   1.192   3.776   3.279  1.0345 -0.2089 -1.3483
 5781TIP3    H217308   1.222   3.627   3.275  0.8063 -0.2384 -2.1316
 5782TIP3   OH217309   3.577   0.396   5.222  0.3377  0.4668  0.7593
 5782TIP3    H117310   3.509   0.433   5.278  0.1114 -0.1542  0.9075
 5782TIP3    H217311   3.577   0.452   5.144  0.6448  1.3276  1.3627
 5783TIP3   OH217312   5.761   3.151   2.211  0.0948 -0.7536  0.3040
 5783TIP3    H117313   5.726   3.211   2.277  0.4944 -2.0194  1.7363
 5783TIP3    H217314   5.815   3.206   2.155 -0.3847  0.4041  0.9439
 5784TIP3   OH217315   3.044   0.925   3.869 -0.2245 -0.3228  0.3618
 5784TIP3    H117316   3.079   0.840   3.898  0.1187 -0.5628 -0.7029
 5784TIP3    H217317   2.991   0.956   3.943 -1.3934 -2.0504  0.3009
 5785TIP3   OH217318   2.516   3.327   3.600  0.3068 -0.0814 -0.2445
 5785TIP3    H117319   2.522   3.326   3.695  0.8282  0.6724 -0.2706
 5785TIP3    H217320   2.421   3.327   3.582  0.2095 -0.1555  0.2621
 5786TIP3   OH217321   3.743   5.968   2.483  0.0018  0.3196 -0.0244
 5786TIP3    H117322   3.725   6.058   2.510  0.7725  0.2667  0.7047
 5786TIP3    H217323   3.670   5.917   2.519  0.7509  0.3252  1.6203
 5787TIP3   OH217324   4.310   4.217   3.979  0.0425  0.2462 -0.0828
 5787TIP3    H117325   4.346   4.306   3.971 -1.1176  0.8035  0.6511
 5787TIP3    H217326   4.373   4.162   3.932 -0.3678  1.7362 -2.5786
 5788TIP3   OH217327   1.802   1.701   3.467  0.1536 -0.0430 -0.3292
 5788TIP3    H117328   1.845   1.705   3.552  0.5576 -0.7063 -0.4928
 5788TIP3    H217329   1.781   1.608   3.455 -4.5972  0.5889  1.3038
 5789TIP3   OH217330   2.380   5.427   4.474 -0.1200  0.1416  0.0423
 5789TIP3    H117331   2.417   5.428   4.386 -1.7475 -2.2012 -0.7511
 5789TIP3    H217332   2.288   5.403   4.461 -0.5174  0.2164  2.3485
 5790TIP3   OH217333   1.062   2.114   0.664 -0.7889 -0.6051 -0.0742
 5790TIP3    H117334   1.019   2.061   0.730 -2.9451 -1.8698 -2.3324
 5790TIP3    H217335   1.006   2.191   0.654 -1.6169 -1.3835 -1.7662
 5791TIP3   OH217336   4.671   1.925   4.019 -0.0628  0.1069 -0.4936
 5791TIP3    H117337   4.589   1.950   4.063 -1.9139 -1.6280 -2.7144
 5791TIP3    H217338   4.665   1.964   3.932  0.7151 -1.3750 -1.2453
 5792TIP3   OH217339   2.418   5.168   4.203  0.5414 -0.4144  0.3940
 5792TIP3    H117340   2.333   5.145   4.165  0.2569 -0.4416  1.0373
 5792TIP3    H217341   2.422   5.263   4.194 -0.6464 -0.0961  2.5212
 5793TIP3   OH217342   1.562   5.486   0.123 -0.3613 -0.4133 -0.3955
 5793TIP3    H117343   1.624   5.558   0.123 -0.7278 -0.0946 -0.4029
 5793TIP3    H217344   1.477   5.527   0.105 -0.5753 -0.8407 -0.3817
 5794TIP3   OH217345   5.424   3.979   1.690  0.2163 -0.1898 -0.0937
 5794TIP3    H117346   5.497   4.006   1.633 -0.3685 -0.6891 -1.1082
 5794TIP3    H217347   5.445   4.018   1.775  1.9034 -0.7070 -0.2249
 5795TIP3   OH217348   6.119   3.782   3.924 -0.0732  0.2813  0.3197
 5795TIP3    H117349   6.171   3.729   3.865  0.9819 -1.4634  2.6517
 5795TIP3    H217350   6.138   3.872   3.899  0.9581 -0.3816 -1.4279
 5796TIP3   OH217351   5.590   0.013   0.186  0.0385 -0.1707  0.2830
 5796TIP3    H117352   5.666   0.011   0.127 -0.4676 -0.4439 -0.3741
 5796TIP3    H217353   5.628   0.007   0.274  0.8069  0.2605 -0.0090
 5797TIP3   OH217354   2.914   5.041   2.007 -0.1992 -0.1948  0.2209
 5797TIP3    H117355   2.819   5.045   2.010 -0.1557  0.6074  1.5062
 5797TIP3    H217356   2.939   5.094   1.932 -0.7688 -0.7984 -0.4092
 5798TIP3   OH217357   5.384   3.220   5.130  0.1218  0.1813 -0.1855
 5798TIP3    H117358   5.343   3.220   5.216  1.2445  3.9211  0.5231
 5798TIP3    H217359   5.371   3.309   5.097  2.3585 -0.2426 -2.5518
 5799TIP3   OH217360   6.689   0.748   5.053  0.6234  0.2509 -0.1071
 5799TIP3    H117361   6.627   0.736   5.125  0.6249  0.4036 -0.0806
 5799TIP3    H217362   6.741   0.668   5.053  0.2568  0.0069 -0.2952
 5800TIP3   OH217363   5.878   4.803   1.168 -0.8101 -0.2329  0.8474
 5800TIP3    H117364   5.888   4.720   1.214  1.6365 -0.8712 -0.6140
 5800TIP3    H217365   5.859   4.778   1.078 -0.4502  0.7752  0.4712
 5801TIP3   OH217366   4.186   4.153   5.313 -0.0504  0.8206  0.0663
 5801TIP3    H117367   4.245   4.079   5.321 -1.3453 -0.6707 -2.6869
 5801TIP3    H217368   4.128   4.146   5.389 -0.9292 -1.8040 -0.7445
 5802TIP3   OH217369   5.033   5.649   5.760  0.1611  0.0533 -0.0525
 5802TIP3    H117370   5.096   5.720   5.771 -0.2357  0.3868  0.0600
 5802TIP3    H217371   4.989   5.643   5.845  0.0816 -0.2230 -0.1117
 5803TIP3   OH217372   2.410   1.822   0.051 -0.6217  0.5418 -0.1592
 5803TIP3    H117373   2.468   1.866  -0.011  0.8694 -0.4324  0.4562
 5803TIP3    H217374   2.341   1.784  -0.003  0.4607 -0.0099 -1.2077
 5804TIP3   OH217375   5.566   1.840   4.072  0.3865  0.0070  0.6996
 5804TIP3    H117376   5.551   1.928   4.108 -2.1100 -0.2493  0.4321
 5804TIP3    H217377   5.578   1.855   3.978  0.8910  0.1144  0.7747
 5805TIP3   OH217378   6.138   4.513   4.971  0.0747  0.0314 -0.0556
 5805TIP3    H117379   6.074   4.536   4.903 -1.2275 -1.1267  0.7205
 5805TIP3    H217380   6.223   4.537   4.933 -0.8139  1.9066 -0.9964
 5806TIP3   OH217381   5.739   6.163   1.853  0.0538 -0.0148 -0.1763
 5806TIP3    H117382   5.723   6.068   1.853  3.0272 -0.6803  2.2441
 5806TIP3    H217383   5.814   6.174   1.795 -0.8910  1.0711 -1.2362
 5807TIP3   OH217384   6.152   4.817   5.060 -0.1590  0.0662 -0.1053
 5807TIP3    H117385   6.143   4.738   5.114 -1.0762  1.4126  1.8613
 5807TIP3    H217386   6.246   4.826   5.046 -0.0602 -1.6032 -0.7981
 5808TIP3   OH217387   4.155   6.113   0.451 -0.4256 -0.3836  0.4056
 5808TIP3    H117388   4.107   6.049   0.398  0.2706 -0.6812  0.1308
 5808TIP3    H217389   4.246   6.104   0.424 -0.1437 -0.1102  1.2279
 5809TIP3   OH217390   1.748   2.582   3.809  0.5015  0.5250 -0.1999
 5809TIP3    H117391   1.682   2.570   3.876  1.3982 -2.3783  0.3076
 5809TIP3    H217392   1.828   2.604   3.857  0.3363  2.3411 -0.6805
 5810TIP3   OH217393   1.624   0.740   1.097 -0.5321 -0.4555  0.4672
 5810TIP3    H117394   1.710   0.748   1.139 -0.0263  1.2235 -0.7937
 5810TIP3    H217395   1.561   0.757   1.167  0.1300 -1.5880  1.3803
 5811TIP3   OH217396   1.198   3.615   2.850  0.5111 -0.0058  0.3197
 5811TIP3    H117397   1.175   3.549   2.915 -0.7262  0.1716  0.0787
 5811TIP3    H217398   1.181   3.573   2.766 -2.1142  1.1885  0.1643
 5812TIP3   OH217399   6.882   2.261   1.450  0.3152  0.2311 -0.0698
 5812TIP3    H117400   6.828   2.312   1.511  0.1245 -1.2095  1.0298
 5812TIP3    H217401   6.860   2.296   1.364 -1.0241  0.9049  0.5059
 5813TIP3   OH217402   0.922   6.180   1.939 -0.5836  0.5320  0.6292
 5813TIP3    H117403   0.831   6.161   1.961 -0.4167  0.3160  1.1426
 5813TIP3    H217404   0.924   6.180   1.843 -1.2855  1.3363  0.6001
 5814TIP3   OH217405   0.450   5.244   2.199  0.0867  0.0690  0.0002
 5814TIP3    H117406   0.521   5.270   2.139 -0.5224 -2.1259 -1.8468
 5814TIP3    H217407   0.383   5.311   2.187 -0.1334 -0.4445 -2.1015
 5815TIP3   OH217408   6.621   4.111   5.494  0.2910 -0.1572 -0.3525
 5815TIP3    H117409   6.587   4.181   5.550  1.8757  0.9680 -0.7201
 5815TIP3    H217410   6.636   4.038   5.554  1.3211  0.7989  0.6170
 5816TIP3   OH217411   4.093   6.573   0.763  0.7353 -0.3711  0.5957
 5816TIP3    H117412   4.173   6.603   0.807  0.7042  1.3637 -0.4606
 5816TIP3    H217413   4.116   6.486   0.730  2.3412  0.2431 -0.0196
 5817TIP3   OH217414   4.549   0.296   1.600  0.4223  0.0866  0.1193
 5817TIP3    H117415   4.591   0.286   1.514 -0.3001 -0.5833 -0.1622
 5817TIP3    H217416   4.604   0.359   1.645 -0.0837  1.7134 -1.4228
 5818TIP3   OH217417   3.990   1.159   0.269 -0.2457 -0.1299 -0.1458
 5818TIP3    H117418   4.020   1.247   0.246  2.2295 -1.1802 -1.2725
 5818TIP3    H217419   4.017   1.148   0.360 -2.3633  0.9149  0.6873
 5819TIP3   OH217420   4.723   3.272   0.129 -0.0669  0.0917  0.3550
 5819TIP3    H117421   4.810   3.304   0.152  1.2749 -1.7918 -1.5947
 5819TIP3    H217422   4.682   3.343   0.080  0.0207  1.2790  1.9439
 5820TIP3   OH217423   3.876   6.159   5.617  1.0711 -0.1131 -0.1170
 5820TIP3    H117424   3.811   6.195   5.678  0.2374 -0.0481 -1.0362
 5820TIP3    H217425   3.952   6.217   5.627  0.8806  0.0050  0.7239
 5821TIP3   OH217426   0.864   4.851   2.282  0.1119 -0.6468  0.3717
 5821TIP3    H117427   0.893   4.785   2.218  0.2570  0.8351 -1.1563
 5821TIP3    H217428   0.802   4.906   2.234 -1.9774 -1.1365  2.3471
 5822TIP3   OH217429   6.816   0.310   3.911 -0.0244 -0.3014  0.2659
 5822TIP3    H117430   6.727   0.282   3.893 -0.0019 -0.2134  0.0201
 5822TIP3    H217431   6.836   0.271   3.996  0.2005 -1.5085 -0.3099
 5823TIP3   OH217432   0.882   0.300   3.059 -0.2899 -0.5331 -0.3058
 5823TIP3    H117433   0.975   0.296   3.036 -0.0071 -0.8953  0.8487
 5823TIP3    H217434   0.868   0.225   3.116 -1.7627 -1.6679 -2.0350
 5824TIP3   OH217435   3.228   5.432   1.143  0.2040 -0.4344 -0.4053
 5824TIP3    H117436   3.232   5.479   1.060  0.7765  1.4494  0.6183
 5824TIP3    H217437   3.198   5.498   1.206 -0.8048 -1.9692  0.7930
 5825TIP3   OH217438   2.219   5.382   3.730 -0.3648 -0.0926 -0.3516
 5825TIP3    H117439   2.241   5.473   3.711 -0.4154 -0.4585 -2.4120
 5825TIP3    H217440   2.142   5.388   3.787  0.2084  1.1312  0.3377
 5826TIP3   OH217441   3.491   6.507   5.000 -0.6518 -0.1448  0.5569
 5826TIP3    H117442   3.421   6.568   5.022 -0.3902 -0.4735  2.5127
 5826TIP3    H217443   3.571   6.559   5.008 -0.5493 -0.2306  0.1318
 5827TIP3   OH217444   4.859   3.779   4.052  0.3370 -0.0213 -0.1765
 5827TIP3    H117445   4.780   3.736   4.087  1.0395  0.1529  1.7630
 5827TIP3    H217446   4.837   3.872   4.049  0.3110 -0.0249 -0.0964
 5828TIP3   OH217447   4.933   4.758   2.338 -0.1865 -0.1848 -0.6908
 5828TIP3    H117448   4.957   4.685   2.396 -0.8020  0.2619  0.1632
 5828TIP3    H217449   4.873   4.811   2.391 -2.3839 -0.8172 -2.3861
 5829TIP3   OH217450   5.117   4.603   0.986 -0.1067 -0.0121 -0.4309
 5829TIP3    H117451   5.182   4.648   0.933  0.4056 -1.7211 -1.3238
 5829TIP3    H217452   5.136   4.631   1.076  1.1189  0.4104 -0.8066
 5830TIP3   OH217453   2.271   2.394   3.738 -0.5986 -0.4759  0.1161
 5830TIP3    H117454   2.284   2.423   3.648  0.7562 -2.1885 -0.2937
 5830TIP3    H217455   2.235   2.471   3.783 -0.8546  0.5570 -1.7529
 5831TIP3   OH217456   2.010   3.849   0.368  0.5530  0.5911  0.1710
 5831TIP3    H117457   2.048   3.776   0.415 -0.1042  0.6636  0.8395
 5831TIP3    H217458   2.083   3.888   0.320  1.3034  0.6873  1.3647
 5832TIP3   OH217459   4.275   5.474   3.579  0.0128  0.2353  0.4768
 5832TIP3    H117460   4.180   5.463   3.584 -0.1147  0.7130 -0.6216
 5832TIP3    H217461   4.309   5.429   3.657 -1.1223  0.2982  1.0206
 5833TIP3   OH217462   5.340   3.558   2.226 -0.1073  0.3641 -0.0799
 5833TIP3    H117463   5.421   3.607   2.236 -0.0882  0.3238 -0.0425
 5833TIP3    H217464   5.343   3.524   2.137  1.0727 -1.7575  0.7210
 5834TIP3   OH217465   5.278   6.828   2.885 -0.5169 -1.0085  0.5085
 5834TIP3    H117466   5.277   6.793   2.796 -1.1659 -1.8320  0.8255
 5834TIP3    H217467   5.302   6.753   2.940  5.6095  0.5259  0.6666
 5835TIP3   OH217468   5.568   2.321   4.533  0.5073 -0.0631 -0.0427
 5835TIP3    H117469   5.556   2.405   4.489  0.4893  2.1340  3.7283
 5835TIP3    H217470   5.663   2.313   4.544  0.4490  1.7895  3.2319
 5836TIP3   OH217471   2.660   2.107   4.674 -0.4136 -0.0208  0.4860
 5836TIP3    H117472   2.704   2.039   4.725 -0.4063 -0.3211  0.0782
 5836TIP3    H217473   2.724   2.135   4.609 -1.1198 -1.1187 -0.7222
 5837TIP3   OH217474   2.395   2.426   4.117 -0.2023  0.4379 -0.1520
 5837TIP3    H117475   2.348   2.402   4.038  0.3886 -0.8319 -0.1415
 5837TIP3    H217476   2.402   2.345   4.167  1.0957  0.8077  0.3136
 5838TIP3   OH217477   5.951   3.155   3.001 -0.3073  0.1386 -0.0469
 5838TIP3    H117478   5.941   3.155   3.097 -0.7326 -1.9296 -0.0356
 5838TIP3    H217479   6.045   3.146   2.987 -0.1222  1.6475  0.1424
 5839TIP3   OH217480   5.272   4.715   2.419  0.6062  0.4489 -0.4374
 5839TIP3    H117481   5.250   4.646   2.482 -0.4791  0.5013 -0.7355
 5839TIP3    H217482   5.189   4.735   2.377  0.9646  1.7622 -0.5387
 5840TIP3   OH217483   6.590   4.358   0.550  0.1340  0.2357  0.1415
 5840TIP3    H117484   6.598   4.407   0.631  0.5670 -0.9117  0.8249
 5840TIP3    H217485   6.516   4.398   0.504 -0.1637  0.8468  1.1340
 5841TIP3   OH217486   1.436   2.223   3.160 -0.3154  0.0909 -0.1328
 5841TIP3    H117487   1.369   2.291   3.174 -0.3592  0.3676 -1.5619
 5841TIP3    H217488   1.451   2.187   3.247 -3.4341 -1.0084  0.0850
 5842TIP3   OH217489   5.377   0.369   1.859 -0.1195 -0.0943 -0.1403
 5842TIP3    H117490   5.336   0.369   1.945 -1.2674 -1.1533 -0.6520
 5842TIP3    H217491   5.384   0.277   1.835  2.6173  0.0183 -0.1121
 5843TIP3   OH217492   6.847   5.044   3.833 -0.1611  0.7836  0.1260
 5843TIP3    H117493   6.844   5.096   3.752 -1.2363  1.9561  0.8857
 5843TIP3    H217494   6.893   5.101   3.896  0.2523  0.0702  0.4769
 5844TIP3   OH217495   0.135   5.974   0.815 -0.0693  0.8085  0.2748
 5844TIP3    H117496   0.224   5.941   0.804  0.7223  2.3135  1.7377
 5844TIP3    H217497   0.079   5.902   0.786  1.5943  0.3841 -2.1880
 5845TIP3   OH217498   1.893   1.321   1.214 -0.0457 -1.2143 -0.6261
 5845TIP3    H117499   1.808   1.347   1.178 -0.1229 -0.1246  0.2712
 5845TIP3    H217500   1.938   1.404   1.231  0.8910 -1.7595 -0.3564
 5846TIP3   OH217501   2.166   4.253   0.402  0.4526  0.0716  0.4803
 5846TIP3    H117502   2.098   4.246   0.470 -0.1648 -0.6115 -0.1911
 5846TIP3    H217503   2.231   4.312   0.440  0.4254 -0.7644  1.9291
 5847TIP3   OH217504   1.236   1.828   0.617 -0.6955  0.0871  0.4087
 5847TIP3    H117505   1.198   1.768   0.681 -0.7422  0.9371  1.1916
 5847TIP3    H217506   1.164   1.849   0.558 -0.3850 -1.5577 -0.6050
 5848TIP3   OH217507   5.367   5.914   1.223  0.5257  0.3001 -0.1926
 5848TIP3    H117508   5.359   6.009   1.218 -1.4803  0.2835  1.4495
 5848TIP3    H217509   5.366   5.895   1.317  1.7519 -1.3178 -0.4611
 5849TIP3   OH217510   1.414   5.595   0.650 -0.1627  0.2208 -0.3211
 5849TIP3    H117511   1.470   5.538   0.597 -0.8186  0.1562 -0.9552
 5849TIP3    H217512   1.436   5.684   0.621 -1.3216  0.1329 -1.5194
 5850TIP3   OH217513   6.089   1.445   3.712  0.3532  0.0435 -0.1234
 5850TIP3    H117514   6.154   1.398   3.660  0.0567 -0.9430  0.3698
 5850TIP3    H217515   6.053   1.510   3.652 -0.8960 -1.8944 -1.6248
 5851TIP3   OH217516   1.282   1.264   1.998 -0.1272  0.4040 -0.3704
 5851TIP3    H117517   1.321   1.338   2.045  1.3225  0.7965 -2.0865
 5851TIP3    H217518   1.335   1.255   1.919 -2.5844 -0.0755 -2.0764
 5852TIP3   OH217519   1.203   5.552   5.682  0.1051 -0.1162  0.2443
 5852TIP3    H117520   1.169   5.597   5.759 -2.9729  1.8672 -2.0855
 5852TIP3    H217521   1.129   5.502   5.648  2.1493 -3.2939  0.0252
 5853TIP3   OH217522   0.047   5.909   0.270 -0.1768  0.1549 -0.1447
 5853TIP3    H117523   0.080   5.830   0.228  1.2104  1.2616 -1.2268
 5853TIP3    H217524   0.042   5.887   0.363 -0.8610 -1.5269 -0.5502
 5854TIP3   OH217525   1.151   3.391   5.490 -0.0963  0.1460  0.1408
 5854TIP3    H117526   1.085   3.428   5.432  0.1057  0.6279  0.2156
 5854TIP3    H217527   1.127   3.422   5.577  0.0200  0.0279  0.2147
 5855TIP3   OH217528   6.774   5.862   4.298 -0.2997 -0.1623  0.6847
 5855TIP3    H117529   6.680   5.862   4.313 -0.3276  0.8639  0.5425
 5855TIP3    H217530   6.787   5.801   4.226 -1.2046  1.8182 -1.2569
 5856TIP3   OH217531   0.793   5.226   5.521  0.6635 -0.0285 -0.0305
 5856TIP3    H117532   0.706   5.250   5.554 -0.9285 -1.7695 -2.6264
 5856TIP3    H217533   0.778   5.148   5.468  3.9388 -0.6771 -0.2303
 5857TIP3   OH217534   0.277   3.683   5.351 -0.0371  0.0686 -0.0845
 5857TIP3    H117535   0.257   3.592   5.329  1.5725  0.0331 -1.6413
 5857TIP3    H217536   0.372   3.689   5.344 -0.0716  1.7940  0.3586
 5858TIP3   OH217537   1.451   4.878   4.589  0.0777 -0.2619  0.4135
 5858TIP3    H117538   1.437   4.796   4.541 -3.8121  0.3316  0.2225
 5858TIP3    H217539   1.444   4.854   4.681 -1.5932 -0.1880  0.3495
 5859TIP3   OH217540   0.651   3.483   4.879 -0.0344  0.3598 -0.5019
 5859TIP3    H117541   0.620   3.394   4.898  0.2221  0.5909  1.0503
 5859TIP3    H217542   0.714   3.471   4.808  0.3128 -0.7575 -0.0268
 5860TIP3   OH217543   2.713   5.499   1.423 -0.1372  0.4546  0.3808
 5860TIP3    H117544   2.783   5.434   1.411 -1.4320 -1.0244  0.4687
 5860TIP3    H217545   2.690   5.526   1.334 -2.5998 -2.6367 -0.0857
 5861TIP3   OH217546   1.513   4.557   2.034 -0.1012  0.2435  0.1120
 5861TIP3    H117547   1.588   4.550   2.092 -1.1278  0.1023  1.4711
 5861TIP3    H217548   1.531   4.497   1.962  0.8461 -0.1589  0.6821
 5862TIP3   OH217549   5.958   5.132   1.937 -0.5165  0.1064  0.5399
 5862TIP3    H117550   5.985   5.215   1.898  2.7430 -1.1931 -0.3132
 5862TIP3    H217551   5.951   5.072   1.863 -3.8016 -0.2952  1.0162
 5863TIP3   OH217552   1.623   2.831   2.047 -0.2549  0.2557  0.4947
 5863TIP3    H117553   1.571   2.876   2.114  0.9893  0.0712  1.6098
 5863TIP3    H217554   1.644   2.746   2.085 -0.3630 -0.2562 -0.5490
 5864TIP3   OH217555   5.998   5.272   1.071 -0.1948 -0.4583 -0.4150
 5864TIP3    H117556   5.966   5.253   1.159  0.1785 -1.3927 -0.4664
 5864TIP3    H217557   5.955   5.353   1.047 -0.5474 -0.3559  0.5072
 5865TIP3   OH217558   3.899   6.250   0.213  0.4750 -0.3884 -0.6585
 5865TIP3    H117559   3.929   6.175   0.160 -0.1050  0.1677 -1.8167
 5865TIP3    H217560   3.812   6.270   0.178  0.0812  0.0121  0.5266
 5866TIP3   OH217561   5.966   6.331   3.145 -0.1158 -0.6703 -0.0309
 5866TIP3    H117562   5.905   6.318   3.217 -0.0070 -2.0446 -0.1625
 5866TIP3    H217563   6.050   6.350   3.188 -0.1140 -1.2010  0.2072
 5867TIP3   OH217564   1.721   3.671   3.034 -0.3692 -0.1652  0.0959
 5867TIP3    H117565   1.663   3.608   2.992  0.3844 -0.8734  0.1078
 5867TIP3    H217566   1.779   3.701   2.964 -0.7990  0.6143  0.0612
 5868TIP3   OH217567   4.475   4.093   3.760 -0.4170 -0.0037  0.2072
 5868TIP3    H117568   4.566   4.101   3.731 -0.3925 -1.1957 -0.0766
 5868TIP3    H217569   4.424   4.137   3.691 -0.0313  1.3506  0.7424
 5869TIP3   OH217570   3.798   6.399   2.209 -0.2788  0.4221 -0.2916
 5869TIP3    H117571   3.844   6.398   2.294 -0.8479 -0.8823  0.0297
 5869TIP3    H217572   3.868   6.409   2.145  0.3457 -0.3171  0.2508
 5870TIP3   OH217573   0.316   1.376   1.874  0.4514  0.3021 -0.0802
 5870TIP3    H117574   0.294   1.438   1.944 -0.4218  1.0165 -0.9467
 5870TIP3    H217575   0.308   1.427   1.794  0.7692 -0.6748 -0.7538
 5871TIP3   OH217576   1.295   3.770   1.483  0.2843  0.3303 -0.2011
 5871TIP3    H117577   1.346   3.737   1.557  0.7331 -1.1659 -1.1385
 5871TIP3    H217578   1.327   3.859   1.470 -0.1640  0.8116  1.6922
 5872TIP3   OH217579   1.420   0.824   2.259 -0.2972 -0.3946 -0.6819
 5872TIP3    H117580   1.443   0.846   2.169 -1.2007 -0.7804 -1.0202
 5872TIP3    H217581   1.334   0.865   2.273 -0.8404 -1.5459 -0.4938
 5873TIP3   OH217582   2.951   0.462   5.091 -0.1549 -0.1146 -0.7850
 5873TIP3    H117583   2.937   0.372   5.122 -1.1151  0.3387  0.1505
 5873TIP3    H217584   3.029   0.491   5.138  0.5459 -0.6659 -1.5804
 5874TIP3   OH217585   6.684   2.441   1.556 -0.1460  0.6531  0.1303
 5874TIP3    H117586   6.698   2.383   1.631 -2.0415 -1.0289 -0.7223
 5874TIP3    H217587   6.655   2.524   1.596  0.4369  0.3237  1.3007
 5875TIP3   OH217588   4.524   2.736   1.007 -0.0548 -0.4839 -0.3355
 5875TIP3    H117589   4.608   2.729   0.962 -1.0780  2.2770 -3.0172
 5875TIP3    H217590   4.529   2.818   1.055 -0.4709 -1.4288  1.4095
 5876TIP3   OH217591   6.808   3.639   0.564  0.5700 -0.2861 -0.3934
 5876TIP3    H117592   6.747   3.687   0.508  0.4282 -1.0808 -0.9260
 5876TIP3    H217593   6.767   3.554   0.578  0.0311  0.2932  1.9165
 5877TIP3   OH217594   6.172   3.426   2.621 -0.3313  0.3432  0.4596
 5877TIP3    H117595   6.213   3.388   2.543 -1.0498  0.7468 -0.1276
 5877TIP3    H217596   6.114   3.358   2.653 -0.1573  0.2353  0.5427
 5878TIP3   OH217597   2.247   4.354   2.695 -0.4466 -0.2364 -0.4325
 5878TIP3    H117598   2.236   4.438   2.650  0.2499  0.6550  0.9609
 5878TIP3    H217599   2.162   4.337   2.735 -0.2385  0.4732  0.3334
 5879TIP3   OH217600   6.611   4.327   5.321  0.1693 -0.6885 -0.1321
 5879TIP3    H117601   6.661   4.270   5.262  0.3104 -2.0111  1.1990
 5879TIP3    H217602   6.660   4.324   5.403  0.2360  1.4838 -0.0223
 5880TIP3   OH217603   0.425   6.505   5.211 -0.1418 -0.1969 -0.3495
 5880TIP3    H117604   0.462   6.430   5.256  0.1885  0.7553  1.0167
 5880TIP3    H217605   0.453   6.495   5.120  0.3985 -1.3958 -0.0637
 5881TIP3   OH217606   5.563   6.141   1.103 -0.0981  0.5434  0.9933
 5881TIP3    H117607   5.588   6.233   1.099 -0.2115  0.6619  2.4849
 5881TIP3    H217608   5.467   6.142   1.093  0.1505  0.2406 -2.7562
 5882TIP3   OH217609   5.520   5.735   1.073  0.0663  0.2005 -0.9789
 5882TIP3    H117610   5.495   5.716   0.983  0.8293  1.2432 -1.4373
 5882TIP3    H217611   5.457   5.801   1.102 -0.1423 -0.0903 -0.7632
 5883TIP3   OH217612   6.505   3.826   3.385  0.0427 -0.3470 -0.8421
 5883TIP3    H117613   6.486   3.812   3.478 -0.2518  1.0702 -0.6565
 5883TIP3    H217614   6.519   3.739   3.349  0.2236 -0.9056  0.5503
 5884TIP3   OH217615   2.783   0.953   3.496 -0.3954 -0.7998  0.4917
 5884TIP3    H117616   2.718   1.002   3.446  0.3643  0.0023  0.2678
 5884TIP3    H217617   2.733   0.886   3.543 -1.4383  0.1419  0.7383
 5885TIP3   OH217618   6.899   1.378   5.550  0.4020  0.2197  0.1907
 5885TIP3    H117619   6.895   1.299   5.495  0.9393 -0.0471  0.5285
 5885TIP3    H217620   6.877   1.346   5.638 -2.5298  0.9707 -0.1423
 5886TIP3   OH217621   5.563   4.529   3.571  0.0044 -0.0263  0.0708
 5886TIP3    H117622   5.516   4.447   3.558  0.5334 -0.0953 -1.7338
 5886TIP3    H217623   5.647   4.515   3.528  0.1177  1.4330 -0.2264
 5887TIP3   OH217624   6.263   6.472   4.678  0.6425  0.2245  0.1042
 5887TIP3    H117625   6.319   6.489   4.602  1.9663  1.3620  1.2716
 5887TIP3    H217626   6.322   6.480   4.753 -0.7440 -0.3292  1.2904
 5888TIP3   OH217627   2.096   0.385   0.580 -0.3848  0.3310 -0.4867
 5888TIP3    H117628   2.189   0.382   0.558 -0.0089  0.1219  1.0333
 5888TIP3    H217629   2.083   0.471   0.620 -0.6107 -0.0479  0.2690
 5889TIP3   OH217630   1.557   0.409   1.753 -0.1623 -0.4748  0.1553
 5889TIP3    H117631   1.471   0.386   1.790 -0.6341 -1.3416 -1.3856
 5889TIP3    H217632   1.616   0.342   1.787 -0.5877 -1.2555 -0.6066
 5890TIP3   OH217633   2.736   5.251   3.279  0.1612  0.1107  0.0036
 5890TIP3    H117634   2.664   5.303   3.314  0.8204  0.4561  0.8912
 5890TIP3    H217635   2.791   5.314   3.232 -1.3931 -0.5388 -2.9382
 5891TIP3   OH217636   4.034   4.491   3.422 -0.4202  0.3406  0.1683
 5891TIP3    H117637   4.023   4.581   3.391 -1.8322  0.5210  1.0989
 5891TIP3    H217638   3.978   4.485   3.500 -0.1193 -1.2591  0.3042
 5892TIP3   OH217639   4.555   0.224   5.876  0.1993 -0.5591 -0.4730
 5892TIP3    H117640   4.617   0.243   5.806  0.0195 -1.6468 -0.9437
 5892TIP3    H217641   4.474   0.268   5.849  0.3486 -0.3321 -0.5578
 5893TIP3   OH217642   2.925   0.551   0.987 -0.5977 -0.2616 -0.2401
 5893TIP3    H117643   2.970   0.492   1.047  1.1550  1.7689  0.5823
 5893TIP3    H217644   2.876   0.493   0.928  0.5572 -2.4599  0.8422
 5894TIP3   OH217645   1.908   1.992   1.091 -0.2445 -0.0907  0.3906
 5894TIP3    H117646   1.990   1.971   1.136  0.2878 -1.9869 -1.3252
 5894TIP3    H217647   1.926   2.076   1.048  0.6481 -0.2439  0.4318
 5895TIP3   OH217648   6.215   3.930   2.851 -0.8143 -0.0273  0.1549
 5895TIP3    H117649   6.266   3.932   2.770 -0.6959 -0.0672  0.2283
 5895TIP3    H217650   6.253   3.858   2.901  0.2515  1.0704  0.9876
 5896TIP3   OH217651   1.902   4.020   5.794  0.1712  0.2416 -0.2388
 5896TIP3    H117652   1.963   4.093   5.791 -0.2170  0.5363 -1.7112
 5896TIP3    H217653   1.957   3.942   5.782  0.5360  0.2943  0.9560
 5897TIP3   OH217654   4.493   6.410   2.018  0.4826  0.2179 -0.0962
 5897TIP3    H117655   4.458   6.491   1.980  1.3541  1.4969  1.7184
 5897TIP3    H217656   4.583   6.431   2.041  1.3219 -1.8672 -1.2308
 5898TIP3   OH217657   5.137   1.333   2.086  0.4398  0.0172  0.0378
 5898TIP3    H117658   5.198   1.314   2.015  0.0098 -4.5754  0.5811
 5898TIP3    H217659   5.070   1.390   2.047  1.8594  0.2176 -2.2564
 5899TIP3   OH217660   3.751   4.704   5.187 -0.4731 -0.0325 -0.7133
 5899TIP3    H117661   3.736   4.712   5.281 -1.5204 -1.3690 -0.7523
 5899TIP3    H217662   3.670   4.667   5.152 -0.6681  1.7713 -2.3753
 5900TIP3   OH217663   1.980   1.143   0.491  0.3527  0.3852 -0.4429
 5900TIP3    H117664   1.952   1.234   0.502 -0.7373 -0.0725  0.7645
 5900TIP3    H217665   1.996   1.135   0.397  0.3097  1.7697 -0.6030
 5901TIP3   OH217666   5.689   4.270   1.844  0.1847  0.1482 -0.0718
 5901TIP3    H117667   5.678   4.312   1.759 -0.1568  0.1042 -0.0497
 5901TIP3    H217668   5.720   4.182   1.823 -0.1504  0.0515 -0.1594
 5902TIP3   OH217669   0.617   1.196   3.852 -0.0744 -0.5134  0.6236
 5902TIP3    H117670   0.696   1.143   3.865  0.5253  0.5787  1.6206
 5902TIP3    H217671   0.552   1.135   3.817  1.8643 -1.0203 -2.5717
 5903TIP3   OH217672   4.484   4.374   2.457  0.5792  0.5509 -0.0787
 5903TIP3    H117673   4.494   4.339   2.546  0.6788 -0.9825 -0.6699
 5903TIP3    H217674   4.495   4.469   2.468 -1.1088  0.6031  1.7875
 5904TIP3   OH217675   0.176   5.655   0.774 -0.1260 -0.1983  0.1375
 5904TIP3    H117676   0.215   5.587   0.829  2.9945 -0.7957 -2.5080
 5904TIP3    H217677   0.150   5.610   0.694 -0.9976  1.2328 -0.4278
 5905TIP3   OH217678   1.950   6.181   0.073  0.3208 -0.6112 -0.0456
 5905TIP3    H117679   1.995   6.100   0.099  1.0624 -0.3930 -0.6084
 5905TIP3    H217680   1.957   6.237   0.150  0.2031 -0.9108  0.1898
 5906TIP3   OH217681   0.209   2.607   4.451  0.1515 -0.0705 -0.4268
 5906TIP3    H117682   0.253   2.524   4.437  0.6918 -0.0495  0.9627
 5906TIP3    H217683   0.203   2.615   4.547  1.2401  2.0579 -0.4727
 5907TIP3   OH217684   1.701   0.985   2.028 -0.2626 -0.0127  0.0587
 5907TIP3    H117685   1.684   1.075   1.997 -0.2245  0.5915  1.7206
 5907TIP3    H217686   1.776   0.994   2.087 -0.2244 -1.1634  0.1951
 5908TIP3   OH217687   2.713   4.114   4.332  0.1903 -0.0841  0.3677
 5908TIP3    H117688   2.661   4.039   4.299 -0.0456 -0.7107  2.0569
 5908TIP3    H217689   2.647   4.174   4.368  0.2977  1.4440 -1.8178
 5909TIP3   OH217690   0.974   3.383   4.886 -0.0586 -0.1991  0.3432
 5909TIP3    H117691   1.042   3.338   4.937  0.0483 -1.6221 -0.9728
 5909TIP3    H217692   0.947   3.456   4.941  1.6154 -0.3687  1.4597
 5910TIP3   OH217693   5.121   5.873   2.206 -0.1488 -0.2722 -0.0815
 5910TIP3    H117694   5.158   5.853   2.120 -1.6189  1.7590 -1.2662
 5910TIP3    H217695   5.162   5.809   2.264  3.2207  0.1779 -1.6817
 5911TIP3   OH217696   2.804   2.809   0.690  0.4592  0.3262  0.3907
 5911TIP3    H117697   2.842   2.869   0.626  1.3457 -0.1130  0.4889
 5911TIP3    H217698   2.877   2.782   0.745 -0.0880 -0.1517  0.9082
 5912TIP3   OH217699   3.398   5.184   1.551 -0.4127 -0.3395  0.2622
 5912TIP3    H117700   3.468   5.174   1.615 -0.9363  0.0204  0.9035
 5912TIP3    H217701   3.443   5.200   1.468  0.2583  0.6601  0.7968
 5913TIP3   OH217702   4.195   0.064   2.420  0.1881  0.1932 -0.2378
 5913TIP3    H117703   4.228   0.072   2.509 -0.0771 -0.4082 -0.0795
 5913TIP3    H217704   4.251   0.121   2.368  0.3437  0.5474  0.3130
 5914TIP3   OH217705   5.509   0.627   4.153  0.0042 -0.0470  0.5595
 5914TIP3    H117706   5.524   0.712   4.193 -2.4898  0.1268  1.3192
 5914TIP3    H217707   5.489   0.646   4.061  2.5076 -0.1635 -0.0854
 5915TIP3   OH217708   5.421   4.247   4.928 -0.8940 -0.0598  0.1478
 5915TIP3    H117709   5.357   4.249   4.999  0.5706 -0.2313  1.5349
 5915TIP3    H217710   5.485   4.182   4.955  0.0792  0.3770 -1.0139
 5916TIP3   OH217711   0.966   4.544   0.547 -0.1151  0.0229 -0.7724
 5916TIP3    H117712   0.874   4.556   0.568 -0.5143 -1.1172 -1.7579
 5916TIP3    H217713   0.995   4.473   0.604  0.0520  0.0865 -0.7746
 5917TIP3   OH217714   1.768   0.530   0.924 -0.7941 -0.5468  0.0804
 5917TIP3    H117715   1.736   0.546   0.835 -0.3788  0.0953  0.0378
 5917TIP3    H217716   1.713   0.585   0.980  0.4996  0.9401 -0.0419
 5918TIP3   OH217717   0.307   3.460   1.975 -0.7105 -0.3907 -0.1523
 5918TIP3    H117718   0.280   3.368   1.970 -0.7698 -0.5467  1.9445
 5918TIP3    H217719   0.226   3.507   1.996 -0.4218 -0.0727  0.2681
 5919TIP3   OH217720   6.675   1.549   5.548  0.1401  0.3586 -0.0981
 5919TIP3    H117721   6.679   1.643   5.532 -1.5482  0.5062  0.0761
 5919TIP3    H217722   6.765   1.519   5.540  0.4323  1.6228 -2.3635
 5920TIP3   OH217723   5.205   6.064   3.746  0.4879  0.0901 -0.0947
 5920TIP3    H117724   5.151   6.104   3.678 -0.3451  1.0281  1.0802
 5920TIP3    H217725   5.264   6.134   3.774  0.1634 -0.0037  0.8250
 5921TIP3   OH217726   4.414   3.142   1.834  0.7059  0.4809 -0.4829
 5921TIP3    H117727   4.408   3.135   1.739 -0.3876 -1.0895 -0.3371
 5921TIP3    H217728   4.483   3.206   1.849  2.6819 -1.0436 -2.3349
 5922TIP3   OH217729   5.098   5.248   2.158  0.7676  0.3150 -0.7813
 5922TIP3    H117730   5.059   5.267   2.243  0.6576 -2.2222 -0.2033
 5922TIP3    H217731   5.024   5.251   2.097 -0.1698 -2.6532  0.0324
 5923TIP3   OH217732   3.746   2.053   4.716  0.0821 -0.2386  0.0524
 5923TIP3    H117733   3.724   2.142   4.743 -2.9781 -0.7258 -0.4716
 5923TIP3    H217734   3.768   2.008   4.798  0.7104  0.7481  0.4372
 5924TIP3   OH217735   1.412   2.691   3.237 -0.0116 -1.0042  0.7439
 5924TIP3    H117736   1.500   2.693   3.199 -0.2855 -2.2962 -0.0179
 5924TIP3    H217737   1.363   2.756   3.186  0.0198 -1.6392 -0.1174
 5925TIP3   OH217738   0.462   1.867   2.548 -0.0954 -0.0777  0.5761
 5925TIP3    H117739   0.471   1.931   2.619 -0.9011  0.6201  0.0746
 5925TIP3    H217740   0.368   1.866   2.529 -0.2896 -2.2677  1.3295
 5926TIP3   OH217741   4.059   3.624   3.917  0.3568 -0.1115  0.2027
 5926TIP3    H117742   4.141   3.602   3.960  0.6214  0.1586 -0.1656
 5926TIP3    H217743   4.075   3.606   3.824 -0.1128 -0.4018  0.1728
 5927TIP3   OH217744   1.308   5.599   2.927 -0.0321 -0.3523  0.2602
 5927TIP3    H117745   1.264   5.520   2.896 -1.5465 -0.1856  1.8447
 5927TIP3    H217746   1.339   5.576   3.014 -0.4834  0.7826  0.7336
 5928TIP3   OH217747   7.170   6.196   5.068 -0.5771  0.0392  0.5087
 5928TIP3    H117748   7.183   6.115   5.019 -1.3542 -0.5939  1.2976
 5928TIP3    H217749   7.254   6.212   5.110 -0.1439  0.1537 -0.3900
 5929TIP3   OH217750   3.545   3.440   0.011  1.0291  0.3079 -0.2188
 5929TIP3    H117751   3.495   3.513   0.047  1.4849  0.6703 -0.3086
 5929TIP3    H217752   3.480   3.384  -0.031  0.7903  1.1393 -0.9680
 5930TIP3   OH217753   4.871   6.269   5.489  0.2257 -0.1244  0.3557
 5930TIP3    H117754   4.842   6.356   5.516 -1.9440  0.1532 -2.3434
 5930TIP3    H217755   4.926   6.284   5.412 -1.5144 -1.0959 -1.1720
 5931TIP3   OH217756   4.848   5.510   1.051  0.0290 -0.4163  0.0396
 5931TIP3    H117757   4.758   5.543   1.054  0.2648  0.2401  0.3149
 5931TIP3    H217758   4.874   5.504   1.143  0.6989  0.6723 -0.0547
 5932TIP3   OH217759   5.160   2.101   1.974 -0.1308  0.5332 -0.3700
 5932TIP3    H117760   5.204   2.016   1.963 -1.0946 -0.3642  2.0020
 5932TIP3    H217761   5.149   2.133   1.885 -1.4477 -2.7390 -1.5535
 5933TIP3   OH217762   2.804   1.203   4.669 -0.1705  0.5797  0.5332
 5933TIP3    H117763   2.814   1.163   4.755 -0.2779  1.1537  0.8196
 5933TIP3    H217764   2.723   1.164   4.634 -0.1165  0.3309  0.6829
 5934TIP3   OH217765   1.177   3.735   4.940  0.3513  0.4153 -0.4051
 5934TIP3    H117766   1.266   3.760   4.965  0.7179 -0.3684 -0.8907
 5934TIP3    H217767   1.170   3.756   4.847  0.2559 -0.1166 -0.5249
 5935TIP3   OH217768   2.977   3.336   5.561 -0.0500  0.1412  0.1874
 5935TIP3    H117769   3.046   3.283   5.601  0.2216 -0.0209 -0.4775
 5935TIP3    H217770   2.916   3.353   5.632  0.4556 -0.0804  0.6866
 5936TIP3   OH217771   5.656   6.773   4.256 -0.1656  0.0136  0.2263
 5936TIP3    H117772   5.572   6.730   4.271  0.0174 -0.7474 -0.8443
 5936TIP3    H217773   5.675   6.758   4.163  0.4339  1.4712  0.0772
 5937TIP3   OH217774   0.088   3.548   0.593 -0.1253  0.5255  0.0027
 5937TIP3    H117775   0.056   3.638   0.590  0.3240  0.9044  3.2952
 5937TIP3    H217776   0.183   3.557   0.583  0.0036  0.5322  1.1406
 5938TIP3   OH217777   5.893   1.749   3.798  0.0931  0.3761  0.0500
 5938TIP3    H117778   5.931   1.685   3.857  1.0801  0.2749 -0.6691
 5938TIP3    H217779   5.913   1.716   3.710  1.4224  2.0956 -0.3521
 5939TIP3   OH217780   4.785   6.179   0.497 -0.5118 -0.7326  0.1762
 5939TIP3    H117781   4.765   6.242   0.429 -1.6690 -0.6126  0.6137
 5939TIP3    H217782   4.701   6.142   0.523  0.0533 -1.8597  0.5104
 5940TIP3   OH217783   7.165   3.944   1.729  0.5793  0.1960  0.3348
 5940TIP3    H117784   7.085   3.893   1.743  1.3179 -0.8943  0.8171
 5940TIP3    H217785   7.170   4.002   1.805 -0.1277  0.7958 -0.0725
 5941TIP3   OH217786   5.995   5.436   3.732  0.7225 -0.2064  0.5861
 5941TIP3    H117787   5.902   5.419   3.744  0.7562 -2.5237 -1.6927
 5941TIP3    H217788   5.999   5.502   3.663  0.7962 -0.2601  0.5393
 5942TIP3   OH217789   4.170   5.955   2.587  0.4107  0.0274 -0.4364
 5942TIP3    H117790   4.193   6.047   2.573  0.5050 -0.1360 -1.3655
 5942TIP3    H217791   4.088   5.958   2.636  0.9200  0.6028  0.4059
 5943TIP3   OH217792   3.128   2.897   4.950 -0.4031 -0.1243  0.7236
 5943TIP3    H117793   3.107   2.883   4.858  1.4508  0.2964  0.1939
 5943TIP3    H217794   3.059   2.955   4.983 -1.1482 -0.3767 -0.3545
 5944TIP3   OH217795   2.478   3.708   0.958  0.2491 -0.4257 -0.3866
 5944TIP3    H117796   2.565   3.685   0.989  0.5089  1.1739  0.1514
 5944TIP3    H217797   2.452   3.784   1.010 -1.2840 -0.5895 -0.8406
 5945TIP3   OH217798   6.628   0.642   2.426  0.3970 -0.0243  0.0854
 5945TIP3    H117799   6.622   0.622   2.333  0.6090  0.7008 -0.0876
 5945TIP3    H217800   6.567   0.715   2.439  0.1243 -0.3350  0.5751
 5946TIP3   OH217801   1.618   0.108   3.033 -0.0755  0.4022 -0.4117
 5946TIP3    H117802   1.524   0.115   3.048 -0.0926 -1.4821  0.7316
 5946TIP3    H217803   1.650   0.198   3.039 -1.2964  0.7586  3.1174
 5947TIP3   OH217804   1.732   2.226   5.154  0.3442  0.2892 -0.1648
 5947TIP3    H117805   1.791   2.234   5.079  1.4640 -1.3075  0.4969
 5947TIP3    H217806   1.790   2.227   5.231 -0.9108  4.2924  0.9632
 5948TIP3   OH217807   4.764   4.872   2.511  0.0883  0.4447  0.0637
 5948TIP3    H117808   4.787   4.885   2.603 -1.3915 -0.8438  0.6730
 5948TIP3    H217809   4.677   4.831   2.514  0.6629 -1.0719 -1.8493
 5949TIP3   OH217810   4.695   6.032   2.436 -0.3454  0.3118 -0.5353
 5949TIP3    H117811   4.717   5.952   2.388  1.0679  0.5709 -0.3467
 5949TIP3    H217812   4.720   6.103   2.378 -2.6070  0.6851 -1.1671
 5950TIP3   OH217813   2.045   4.841   5.159  0.2285 -0.4508 -0.3540
 5950TIP3    H117814   2.072   4.896   5.086 -0.5262 -1.0434 -1.1002
 5950TIP3    H217815   2.086   4.756   5.143 -0.7442 -0.8783 -0.6364
 5951TIP3   OH217816   2.593   3.433   4.908  0.2316  0.1224  0.3282
 5951TIP3    H117817   2.647   3.402   4.835 -1.5304  1.9322 -1.9298
 5951TIP3    H217818   2.527   3.365   4.919  0.0879  0.1469 -0.3068
 5952TIP3   OH217819   4.099   5.929   5.300  0.5017 -0.9271  0.2375
 5952TIP3    H117820   4.137   5.947   5.214  0.7592  0.5199  0.6228
 5952TIP3    H217821   4.025   5.990   5.307  1.4258  0.0930  1.6378
 5953TIP3   OH217822   6.765   0.704   2.846  0.5855 -0.2200  0.2042
 5953TIP3    H117823   6.715   0.630   2.812 -0.0326 -0.3223  1.2970
 5953TIP3    H217824   6.749   0.703   2.941  0.3395  1.4603  0.2190
 5954TIP3   OH217825   4.453   3.805   3.844 -0.2953 -0.4650 -0.5059
 5954TIP3    H117826   4.546   3.806   3.822 -0.3591  0.4031 -0.8012
 5954TIP3    H217827   4.419   3.888   3.808 -0.6116  0.5801  1.9824
 5955TIP3   OH217828   4.333   4.837   5.249 -0.2799 -0.3690 -0.2707
 5955TIP3    H117829   4.281   4.757   5.242 -0.0514 -0.5129 -0.3564
 5955TIP3    H217830   4.411   4.811   5.298  0.7904 -0.7183 -2.0603
 5956TIP3   OH217831   2.739   0.250   4.225 -0.4654 -0.5483 -0.3937
 5956TIP3    H117832   2.833   0.264   4.233 -0.4843 -0.6127 -0.0576
 5956TIP3    H217833   2.700   0.305   4.292 -0.5859 -1.5365  0.3673
 5957TIP3   OH217834   6.334   4.934   2.274  0.4031 -0.7464  0.1364
 5957TIP3    H117835   6.245   4.927   2.308  0.3768 -0.6433  0.0904
 5957TIP3    H217836   6.389   4.901   2.345  0.3757 -0.1656  0.4361
 5958TIP3   OH217837   1.479   3.856   0.589  0.3469  0.0636 -0.2991
 5958TIP3    H117838   1.407   3.890   0.536  0.7049  0.0981 -0.7665
 5958TIP3    H217839   1.554   3.852   0.530  1.2191  1.7171  0.6138
 5959TIP3   OH217840   3.662   0.463   1.125 -0.0993  0.3577  0.5494
 5959TIP3    H117841   3.749   0.426   1.110  1.0658  3.0093  0.3118
 5959TIP3    H217842   3.670   0.555   1.101 -3.6523  0.2471 -1.8898
 5960TIP3   OH217843   3.209   3.975   2.456 -0.6887 -0.0223 -0.3102
 5960TIP3    H117844   3.260   3.899   2.430 -0.4173  0.6694 -1.9031
 5960TIP3    H217845   3.208   4.032   2.379  0.1674  2.1627  1.1833
 5961TIP3   OH217846   2.199   3.341   5.330  0.4232 -0.3143 -0.5060
 5961TIP3    H117847   2.223   3.262   5.281 -1.1722 -0.8703 -0.4465
 5961TIP3    H217848   2.120   3.373   5.287  1.1729  1.4044 -0.6610
 5962TIP3   OH217849   2.219   1.377   4.573  1.0510 -0.0944  0.2841
 5962TIP3    H117850   2.260   1.317   4.511 -0.7291  0.5362 -1.5857
 5962TIP3    H217851   2.261   1.462   4.556 -0.0416  0.2634 -0.6905
 5963TIP3   OH217852   3.470   4.108   5.518  0.3955 -0.3238 -0.1072
 5963TIP3    H117853   3.456   4.165   5.594 -1.6215  0.1134 -0.7465
 5963TIP3    H217854   3.407   4.139   5.453  0.7520 -1.9140 -1.2761
 5964TIP3   OH217855   5.283   6.409   0.226  0.2954  0.1284 -0.6392
 5964TIP3    H117856   5.374   6.399   0.253  0.4118 -0.0719 -1.0888
 5964TIP3    H217857   5.248   6.320   0.228 -0.2546  0.3541  0.7568
 5965TIP3   OH217858   6.657   0.655   4.371  0.2605 -0.2884 -0.4956
 5965TIP3    H117859   6.620   0.650   4.460 -0.0712 -1.0502 -0.6631
 5965TIP3    H217860   6.746   0.623   4.381 -0.0752 -1.2870 -0.5874
 5966TIP3   OH217861   4.930   1.233   4.230 -0.0720 -0.0226 -0.3304
 5966TIP3    H117862   4.868   1.256   4.298 -0.0231 -0.8951  0.0197
 5966TIP3    H217863   4.955   1.143   4.249  1.5127  0.3928 -0.2933
 5967TIP3   OH217864   0.887   4.167   2.531 -0.0522  0.0460  0.1721
 5967TIP3    H117865   0.976   4.202   2.518 -0.5166  2.1912  2.0454
 5967TIP3    H217866   0.846   4.229   2.591 -2.0421 -2.2118  1.3124
 5968TIP3   OH217867   0.135   4.097   0.982  0.4933  0.1526 -0.0984
 5968TIP3    H117868   0.060   4.081   0.925  0.0957 -0.6370  0.6282
 5968TIP3    H217869   0.191   4.157   0.932 -1.0553  1.5248 -0.2600
 5969TIP3   OH217870   6.003   0.732   5.661 -0.8616 -0.2936 -0.2396
 5969TIP3    H117871   5.988   0.727   5.755 -1.1135 -0.6938 -0.2997
 5969TIP3    H217872   6.045   0.817   5.648 -1.8423  0.2496  0.0892
 5970TIP3   OH217873   1.100   1.648   4.268  0.2515  0.1800 -0.2711
 5970TIP3    H117874   1.034   1.580   4.280 -0.7556  1.5544  2.7039
 5970TIP3    H217875   1.125   1.640   4.176 -2.3175 -1.9329 -0.9098
 5971TIP3   OH217876   0.662   4.145   5.443  0.3095  0.4111 -0.2169
 5971TIP3    H117877   0.631   4.221   5.393 -0.4963 -0.2841 -0.8127
 5971TIP3    H217878   0.594   4.131   5.509  0.0575 -0.2329 -0.5953
 5972TIP3   OH217879   5.679   1.576   2.364 -0.1425 -0.1195  0.6920
 5972TIP3    H117880   5.735   1.643   2.405  1.0241  0.4165 -1.5849
 5972TIP3    H217881   5.596   1.620   2.350  0.4837  0.7781 -0.4065
 5973TIP3   OH217882   4.054   2.757   2.112  0.1128  0.6776 -0.3490
 5973TIP3    H117883   4.094   2.687   2.061 -0.2500  1.9219 -2.4579
 5973TIP3    H217884   4.124   2.787   2.171  0.1829 -1.5804  0.8440
 5974TIP3   OH217885   1.667   3.125   2.285  0.3631  0.2409  0.0464
 5974TIP3    H117886   1.614   3.068   2.229  0.0926  0.4946  0.0438
 5974TIP3    H217887   1.639   3.214   2.262 -0.7724  0.3152  1.5634
 5975TIP3   OH217888   0.735   2.705   2.252 -0.6985  0.1591 -0.3374
 5975TIP3    H117889   0.745   2.736   2.342 -1.8080 -1.7945  0.4964
 5975TIP3    H217890   0.702   2.616   2.260  1.4861 -0.9713 -2.6539
 5976TIP3   OH217891   3.062   3.339   3.795 -0.0710  1.0673  0.4246
 5976TIP3    H117892   3.084   3.302   3.709  1.8365  1.4594  0.6996
 5976TIP3    H217893   3.080   3.433   3.786  0.2725  1.0944  1.2665
 5977TIP3   OH217894   0.477   3.046   3.634 -0.3114 -0.2829  0.0517
 5977TIP3    H117895   0.397   3.026   3.585  0.6501 -1.3180 -1.1460
 5977TIP3    H217896   0.506   2.962   3.668  0.4323  0.0519  0.2640
 5978TIP3   OH217897   2.663   2.211   3.654  0.8462 -0.4621  0.2303
 5978TIP3    H117898   2.728   2.240   3.589  0.0028 -1.5456 -1.1584
 5978TIP3    H217899   2.679   2.118   3.665 -0.6416 -0.8242 -0.3789
 5979TIP3   OH217900   0.706   0.910   1.572  0.1542 -0.3099 -0.5618
 5979TIP3    H117901   0.779   0.890   1.513 -0.4828 -2.2303 -0.7574
 5979TIP3    H217902   0.652   0.971   1.521  0.6735 -0.3028 -1.1281
 5980TIP3   OH217903   1.496   3.693   1.073 -0.6095 -0.3633  0.4862
 5980TIP3    H117904   1.463   3.603   1.078 -1.1393 -0.3381 -1.4945
 5980TIP3    H217905   1.437   3.743   1.129 -1.2703 -1.0273  0.4067
 5981TIP3   OH217906   1.720   4.607   5.855  0.3016  0.4442 -0.0692
 5981TIP3    H117907   1.752   4.642   5.772  0.6628  2.5948  0.9103
 5981TIP3    H217908   1.796   4.612   5.913 -0.6544  1.6522  1.1390
 5982TIP3   OH217909   1.212   1.016   1.666 -0.3739  0.5266  0.2524
 5982TIP3    H117910   1.215   1.108   1.691 -2.6773  0.6808  0.1927
 5982TIP3    H217911   1.132   1.008   1.613 -0.2479 -1.5066  0.2840
 5983TIP3   OH217912   0.929   3.461   1.231  0.3149 -0.4287  0.3823
 5983TIP3    H117913   0.935   3.541   1.283 -1.2462  0.6424 -1.0310
 5983TIP3    H217914   1.016   3.452   1.191  0.5042  0.5390  0.5559
 5984TIP3   OH217915   5.369   3.883   3.129  0.0066 -0.0571 -0.4541
 5984TIP3    H117916   5.404   3.908   3.043  0.3789  0.8196 -0.0636
 5984TIP3    H217917   5.321   3.961   3.158 -0.0028 -0.2967  0.1893
 5985TIP3   OH217918   6.999   4.241   3.846 -0.7343  0.0471 -0.5380
 5985TIP3    H117919   6.979   4.330   3.875 -0.2967 -0.1161  0.2960
 5985TIP3    H217920   7.059   4.207   3.913  1.2143  0.0368 -2.1869
 5986TIP3   OH217921   0.054   1.058   2.363  0.1471  0.2241  0.2401
 5986TIP3    H117922   0.125   1.000   2.336  0.0859 -0.0154  0.5896
 5986TIP3    H217923  -0.005   1.061   2.288 -0.2308 -0.7592  0.4837
 5987TIP3   OH217924   4.630   6.141   5.257  0.3839 -0.5639  0.5272
 5987TIP3    H117925   4.673   6.090   5.326  1.2767 -0.2638  0.2005
 5987TIP3    H217926   4.551   6.176   5.299  0.7920 -0.5801  1.3210
 5988TIP3   OH217927   5.959   1.007   1.164  0.3012 -0.4897 -0.1020
 5988TIP3    H117928   6.043   0.963   1.176  0.6398 -0.4400 -2.0547
 5988TIP3    H217929   5.981   1.097   1.141 -0.3135 -0.2645  0.1430
 5989TIP3   OH217930   4.329   3.933   0.763 -0.1564 -0.3839 -0.4338
 5989TIP3    H117931   4.397   3.913   0.698 -1.0127 -0.8968 -1.2062
 5989TIP3    H217932   4.372   3.918   0.847  0.8710 -0.0833 -0.8784
 5990TIP3   OH217933   5.795   3.056   4.870 -0.9371  0.0778  0.1494
 5990TIP3    H117934   5.720   3.081   4.923 -0.2030 -0.5262  1.5131
 5990TIP3    H217935   5.868   3.106   4.905 -0.4086 -0.4198 -0.2186
 5991TIP3   OH217936   5.337   2.696   1.504  0.1451  0.6705  0.5679
 5991TIP3    H117937   5.366   2.643   1.430 -3.2129 -1.2261  0.3955
 5991TIP3    H217938   5.385   2.659   1.579  0.9741  0.2344 -0.1532
 5992TIP3   OH217939   7.043   6.522   0.571 -0.1289 -0.1840  0.1724
 5992TIP3    H117940   7.096   6.461   0.520  0.8182  0.4956  0.3185
 5992TIP3    H217941   6.990   6.568   0.506  2.7491  2.3694 -0.6148
 5993TIP3   OH217942   6.034   2.165   3.363 -0.1119 -0.3947  0.9442
 5993TIP3    H117943   6.122   2.189   3.394 -0.5484  1.8097  0.6280
 5993TIP3    H217944   5.982   2.244   3.376 -0.8184  0.1332 -3.5387
 5994TIP3   OH217945   1.917   1.239   1.560  0.5971  0.0691  0.1261
 5994TIP3    H117946   1.965   1.298   1.618  0.0923  0.9038 -0.2860
 5994TIP3    H217947   1.870   1.297   1.500  0.9983 -0.7608 -1.0486
 5995TIP3   OH217948   6.503   3.498   0.647 -0.0658 -0.1585  0.0479
 5995TIP3    H117949   6.478   3.562   0.714 -0.5530  0.0958 -0.3724
 5995TIP3    H217950   6.570   3.444   0.689 -0.8362 -0.4208  0.9591
 5996TIP3   OH217951   3.603   6.094   2.746 -0.2140 -0.8058  0.3174
 5996TIP3    H117952   3.583   6.128   2.659  1.3341  0.2299  0.3234
 5996TIP3    H217953   3.517   6.076   2.785 -0.9466 -0.9212 -1.2648
 5997TIP3   OH217954   4.815   5.611   4.796  0.3035 -0.2289  0.0514
 5997TIP3    H117955   4.726   5.580   4.813  0.5712 -0.3320  1.4114
 5997TIP3    H217956   4.822   5.692   4.848  0.6752  0.3534 -0.8678
 5998TIP3   OH217957   3.873   0.783   0.389  0.1250 -0.6011  0.2733
 5998TIP3    H117958   3.814   0.822   0.453 -0.3699 -0.9661  0.0443
 5998TIP3    H217959   3.847   0.691   0.385 -0.3139 -0.4466 -0.9449
 5999TIP3   OH217960   4.421   3.164   3.561 -0.2940 -0.1000 -0.4310
 5999TIP3    H117961   4.377   3.173   3.477  1.9182 -0.0239 -1.6629
 5999TIP3    H217962   4.424   3.252   3.597  0.6532  0.2695 -1.3495
 6000TIP3   OH217963   4.420   3.672   4.803 -0.0507 -0.6316  0.0924
 6000TIP3    H117964   4.386   3.728   4.734 -0.8456 -0.9889  0.1804
 6000TIP3    H217965   4.511   3.657   4.779 -0.4502 -1.1734 -1.1546
 6001TIP3   OH217966   2.874   2.504   0.526  0.1643  0.1278 -0.2624
 6001TIP3    H117967   2.943   2.569   0.517 -0.1820  0.4653 -0.5036
 6001TIP3    H217968   2.834   2.522   0.611  1.1949 -0.8833  0.4785
 6002TIP3   OH217969   2.353   3.801   4.953 -0.3002 -0.0335  0.6168
 6002TIP3    H117970   2.279   3.747   4.980 -0.9302  1.2162  1.4710
 6002TIP3    H217971   2.388   3.757   4.875 -1.8401 -0.7327  0.2940
 6003TIP3   OH217972   3.451   6.416   2.724 -0.5627  0.4629  0.1506
 6003TIP3    H117973   3.490   6.417   2.637 -0.9373  0.3535 -0.0213
 6003TIP3    H217974   3.446   6.323   2.747  0.5881  0.5311  0.7729
 6004TIP3   OH217975   0.701   1.707   1.215 -0.7457  0.2163 -0.6916
 6004TIP3    H117976   0.767   1.725   1.283  0.3020 -0.9343 -1.3477
 6004TIP3    H217977   0.630   1.768   1.233 -0.3447  0.1859  1.2293
 6005TIP3   OH217978   0.505   0.781   1.768  0.3359 -0.9687 -0.7723
 6005TIP3    H117979   0.585   0.805   1.723  1.0046 -0.1326  0.7756
 6005TIP3    H217980   0.436   0.830   1.724  1.1513  0.8795 -0.0797
 6006TIP3   OH217981   5.947   0.271   2.217  0.2009  0.2457 -0.2367
 6006TIP3    H117982   5.922   0.233   2.301  0.1342 -1.4005 -0.9414
 6006TIP3    H217983   6.038   0.243   2.205 -0.0266 -0.1934 -1.0296
 6007TIP3   OH217984   2.245   3.643   3.318 -0.0240  0.1065 -0.0857
 6007TIP3    H117985   2.260   3.563   3.369 -0.5166  0.3104  0.3828
 6007TIP3    H217986   2.242   3.612   3.227  0.8180 -0.2640  0.0001
 6008TIP3   OH217987   1.197   5.623   4.478 -0.4469 -0.0653 -0.2489
 6008TIP3    H117988   1.105   5.598   4.472 -0.8632  1.2821  0.1988
 6008TIP3    H217989   1.198   5.698   4.537  1.0801 -0.7336  0.6279
 6009TIP3   OH217990   1.952   0.414   5.325 -0.0913  0.3414  0.2141
 6009TIP3    H117991   1.985   0.344   5.382 -2.2193 -1.2173 -0.3688
 6009TIP3    H217992   2.009   0.411   5.249  0.2667 -0.2810  0.4980
 6010TIP3   OH217993   0.149   1.999   0.855 -0.1508  0.8308 -0.0482
 6010TIP3    H117994   0.175   1.908   0.871  0.2196  1.2102  1.6907
 6010TIP3    H217995   0.232   2.047   0.851 -0.4071  1.4807  1.7387
 6011TIP3   OH217996   1.184   5.757   0.386  0.3088  0.0308 -0.4268
 6011TIP3    H117997   1.225   5.702   0.454 -0.3933 -0.4147 -0.3612
 6011TIP3    H217998   1.090   5.750   0.403 -0.0659 -1.7579 -2.6785
 6012TIP3   OH217999   2.669   3.117   3.456 -0.3262  0.6436  0.5271
 6012TIP3    H118000   2.624   3.187   3.503  0.9391  1.1448  1.0413
 6012TIP3    H218001   2.758   3.117   3.493 -0.0438 -0.6298 -0.1064
 6013TIP3   OH218002   6.347   2.207   2.419 -0.0617  0.4143  0.6508
 6013TIP3    H118003   6.325   2.117   2.442 -1.6067  0.3239 -1.0546
 6013TIP3    H218004   6.277   2.260   2.457  1.3677  1.0918  2.5546
 6014TIP3   OH218005   4.200   1.298   4.475  0.4130  0.4656 -0.0527
 6014TIP3    H118006   4.210   1.392   4.459 -1.1679  0.7458  0.4723
 6014TIP3    H218007   4.271   1.277   4.537  1.4131  1.0720 -0.9493
 6015TIP3   OH218008   6.557   1.011   0.929  0.2542  0.5677  0.0157
 6015TIP3    H118009   6.568   1.052   0.842  1.2874 -0.4849 -0.3702
 6015TIP3    H218010   6.505   0.933   0.912  0.2474  0.4887  0.4004
 6016TIP3   OH218011   4.957   6.647   0.826 -0.0196 -1.0851 -0.4282
 6016TIP3    H118012   5.051   6.659   0.840 -0.1656  0.4269 -0.5681
 6016TIP3    H218013   4.917   6.713   0.883 -0.9509 -1.0233 -1.1416
 6017TIP3   OH218014   6.612   3.139   5.451  0.1111 -0.2375 -0.2137
 6017TIP3    H118015   6.535   3.114   5.399 -0.1304  2.0085 -1.0305
 6017TIP3    H218016   6.579   3.141   5.541 -0.5281 -0.2887 -0.4362
 6018TIP3   OH218017   1.496   4.330   3.101  0.7065 -0.1484  0.2240
 6018TIP3    H118018   1.565   4.354   3.040  1.4849 -0.3299  1.0179
 6018TIP3    H218019   1.433   4.403   3.097  0.2048 -0.6389 -1.5525
 6019TIP3   OH218020   0.459   5.467   2.428  0.2178 -0.1099  0.5789
 6019TIP3    H118021   0.532   5.404   2.423 -0.2124 -0.5594 -0.1450
 6019TIP3    H218022   0.413   5.457   2.345  0.3367  1.4182  0.3008
 6020TIP3   OH218023   4.116   0.490   0.347 -0.5244 -0.3034 -0.0798
 6020TIP3    H118024   4.199   0.521   0.311 -1.1767 -0.6787 -1.9855
 6020TIP3    H218025   4.094   0.413   0.294 -2.1449 -0.1496  0.3394
 6021TIP3   OH218026   1.168   3.258   2.154 -0.5960  0.4051 -0.4702
 6021TIP3    H118027   1.086   3.295   2.122 -0.4948  0.8957 -0.1759
 6021TIP3    H218028   1.211   3.222   2.076 -0.6425  1.0155 -0.7819
 6022TIP3   OH218029   0.892   3.560   0.613  0.3442 -0.0388 -0.0851
 6022TIP3    H118030   0.951   3.484   0.612  0.3911 -0.0184  0.6234
 6022TIP3    H218031   0.925   3.616   0.542  0.5340 -0.5073 -0.3737
 6023TIP3   OH218032   3.447   0.431   3.215 -0.3046  0.0384 -0.0713
 6023TIP3    H118033   3.522   0.372   3.226 -0.5541  0.0225  2.0089
 6023TIP3    H218034   3.480   0.517   3.240 -1.2787 -0.2239  2.4504
 6024TIP3   OH218035   4.898   0.152   4.557 -0.0531  0.3406  0.6072
 6024TIP3    H118036   4.864   0.225   4.609 -1.0036 -0.2286  0.8161
 6024TIP3    H218037   4.934   0.091   4.622  2.0690  1.2256  0.3605
 6025TIP3   OH218038   2.705   3.974   2.633  0.2948 -0.5601 -0.1342
 6025TIP3    H118039   2.699   3.933   2.719  0.1546  0.5944  0.4253
 6025TIP3    H218040   2.615   4.000   2.612  0.2725 -1.1372 -0.7923
 6026TIP3   OH218041   4.927   4.961   1.132 -0.1127 -0.4010  0.8760
 6026TIP3    H118042   4.997   4.967   1.067 -0.3803 -0.3907  0.5846
 6026TIP3    H218043   4.971   4.971   1.216 -0.1002  2.3793  0.6222
 6027TIP3   OH218044   3.761   3.684   3.070  0.0247 -0.0765 -0.5884
 6027TIP3    H118045   3.690   3.621   3.056  0.9476 -1.2199 -0.2184
 6027TIP3    H218046   3.767   3.692   3.165 -0.0288  0.5184 -0.6310
 6028TIP3   OH218047   5.902   3.138   1.438 -0.7247  0.1389 -0.1873
 6028TIP3    H118048   5.846   3.177   1.505 -0.2580  1.1221 -0.3429
 6028TIP3    H218049   5.892   3.044   1.450 -0.0271  0.2749  1.8046
 6029TIP3   OH218050   0.396   4.565   3.852  0.4495  0.6808 -0.1657
 6029TIP3    H118051   0.384   4.635   3.917 -1.0375  1.3424 -1.0912
 6029TIP3    H218052   0.328   4.501   3.873  3.2446 -1.8064  2.1653
 6030TIP3   OH218053   0.418   3.509   2.354  0.1330 -0.0030 -0.3826
 6030TIP3    H118054   0.387   3.430   2.398 -1.5630  0.2343 -1.0980
 6030TIP3    H218055   0.502   3.528   2.396 -1.1899 -0.0244  2.4862
 6031TIP3   OH218056   1.825   2.517   4.595 -0.2950 -0.0366  0.3671
 6031TIP3    H118057   1.891   2.514   4.526 -1.5117 -0.6353 -0.8370
 6031TIP3    H218058   1.753   2.463   4.561 -1.9839  1.6966  0.9767
 6032TIP3   OH218059   0.085   4.695   1.993  0.1595  0.1240 -0.7681
 6032TIP3    H118060   0.113   4.754   1.923 -1.1990  0.6787 -0.8757
 6032TIP3    H218061  -0.003   4.726   2.016 -0.3006 -1.4369 -0.3539
 6033TIP3   OH218062   4.999   5.976   1.470 -0.2723  0.2058  0.3257
 6033TIP3    H118063   4.991   5.903   1.409  1.0738 -0.8737  1.3558
 6033TIP3    H218064   5.021   5.935   1.554 -1.6625  1.6577  1.4713
 6034TIP3   OH218065   4.827   6.287   2.900 -0.2159 -0.1044  1.1699
 6034TIP3    H118066   4.914   6.259   2.871  0.2248  2.7889 -0.6427
 6034TIP3    H218067   4.781   6.308   2.819 -1.8106  0.6007  2.2204
 6035TIP3   OH218068   7.142   6.496   5.300 -0.3928  0.0762  0.1597
 6035TIP3    H118069   7.225   6.454   5.277 -0.3744 -0.1563  0.6428
 6035TIP3    H218070   7.136   6.486   5.395 -1.4276 -0.7651  0.0299
 6036TIP3   OH218071   5.307   6.279   3.079 -0.0235  0.0246 -0.7075
 6036TIP3    H118072   5.231   6.335   3.065  1.1872  1.9694  0.0982
 6036TIP3    H218073   5.296   6.207   3.016 -1.0924  1.7331 -2.6009
 6037TIP3   OH218074   0.267   3.920   0.240  0.2134  0.8438 -0.0094
 6037TIP3    H118075   0.253   3.848   0.179  1.8045  1.1536 -0.7945
 6037TIP3    H218076   0.276   3.877   0.326 -0.5780  0.2819 -0.1933
 6038TIP3   OH218077   3.653   5.729   0.809  0.0423  0.4823 -0.2445
 6038TIP3    H118078   3.639   5.822   0.788  0.5623  0.7624  0.6144
 6038TIP3    H218079   3.737   5.708   0.767  0.6602  0.8127  0.7931
 6039TIP3   OH218080   1.862   1.684   5.843 -0.4765 -0.0958 -0.3414
 6039TIP3    H118081   1.821   1.673   5.929 -0.8737  1.5687 -0.2796
 6039TIP3    H218082   1.792   1.713   5.786  0.2522  1.2768 -0.6027
 6040TIP3   OH218083   2.859   2.220   2.971 -0.0057  0.3915 -0.0630
 6040TIP3    H118084   2.884   2.222   2.879  2.6969  2.1347  0.5887
 6040TIP3    H218085   2.868   2.310   3.000 -3.2716  0.3873  1.4025
 6041TIP3   OH218086   4.767   4.842   4.100  0.1151  0.2524 -0.1110
 6041TIP3    H118087   4.775   4.936   4.084  0.6102 -0.0345 -1.8312
 6041TIP3    H218088   4.676   4.821   4.077  0.1976  0.2053 -0.3985
 6042TIP3   OH218089   0.261   2.682   0.666 -0.1168  0.7151  0.0635
 6042TIP3    H118090   0.311   2.759   0.693 -0.6801  1.0052  0.2875
 6042TIP3    H218091   0.219   2.708   0.584 -0.9212  0.9196  0.5280
 6043TIP3   OH218092   4.425   6.373   0.505  0.0007 -0.4670  0.3453
 6043TIP3    H118093   4.346   6.401   0.459 -0.4518  0.5296  1.6662
 6043TIP3    H218094   4.398   6.366   0.597  0.9563 -2.0632  0.5459
 6044TIP3   OH218095   2.023   5.060  -0.021 -0.3137  0.4506 -0.0479
 6044TIP3    H118096   1.984   5.020   0.056 -0.4345 -0.7919 -0.7231
 6044TIP3    H218097   2.110   5.021  -0.027 -0.4177  0.3013 -0.6922
 6045TIP3   OH218098   1.380   6.551   2.446 -0.2068  0.1454 -0.6901
 6045TIP3    H118099   1.340   6.633   2.418  1.7979  1.6742  0.6076
 6045TIP3    H218100   1.357   6.542   2.538  0.0789 -0.4538 -0.6676
 6046TIP3   OH218101   2.705   5.139   4.775  0.1360 -0.2843  0.4078
 6046TIP3    H118102   2.651   5.080   4.722  0.1099 -0.0815  0.2081
 6046TIP3    H218103   2.642   5.195   4.821  0.1684 -0.2702  0.4355
 6047TIP3   OH218104   4.955   0.404   0.835  0.2569 -1.0563 -0.3000
 6047TIP3    H118105   4.993   0.473   0.888  1.1570 -2.0811  0.4343
 6047TIP3    H218106   4.956   0.439   0.746 -2.4097  1.1804  0.4128
 6048TIP3   OH218107   6.290   1.226   4.150  0.0964 -0.4381  0.8978
 6048TIP3    H118108   6.227   1.297   4.139 -0.5802 -1.1968 -0.4479
 6048TIP3    H218109   6.362   1.265   4.200  0.2457  1.5015 -0.7128
 6049TIP3   OH218110   0.620   4.505   2.438  0.2939  0.3548  0.4398
 6049TIP3    H118111   0.612   4.423   2.389  2.1589  1.6278 -2.2261
 6049TIP3    H218112   0.707   4.500   2.478  1.2457  1.7435 -1.3372
 6050TIP3   OH218113   0.282   6.298   2.253  0.4878 -0.1253 -0.3314
 6050TIP3    H118114   0.191   6.271   2.263  0.3307  0.5606  0.1880
 6050TIP3    H218115   0.331   6.237   2.308  0.2452  0.0581  0.0895
 6051TIP3   OH218116   5.210   4.378   4.117 -0.1705  0.6849 -0.1318
 6051TIP3    H118117   5.240   4.444   4.180 -1.4671  1.6874 -0.5290
 6051TIP3    H218118   5.259   4.398   4.037  0.2653  0.4424  0.0687
 6052TIP3   OH218119   3.892   6.045   3.846 -0.3473  0.2936  0.2771
 6052TIP3    H118120   3.925   6.057   3.935  0.1042 -0.1020  0.1641
 6052TIP3    H218121   3.805   6.086   3.847 -0.7343 -0.5193  1.1566
 6053TIP3   OH218122   0.710   1.478   4.992  0.4624 -0.2764  0.1691
 6053TIP3    H118123   0.749   1.551   4.944 -1.0780  0.2722 -0.2848
 6053TIP3    H218124   0.672   1.518   5.070  0.7151 -0.7912  0.5618
 6054TIP3   OH218125   5.080   1.226   1.602  0.3538  0.1371  0.2855
 6054TIP3    H118126   5.128   1.277   1.537  1.7749 -0.5914  0.7274
 6054TIP3    H218127   5.139   1.154   1.625 -1.2518 -1.2486  0.2890
 6055TIP3   OH218128   1.818   0.116   2.219 -0.1736 -0.1019  0.1169
 6055TIP3    H118129   1.813   0.204   2.182 -1.2534  0.9447  2.5179
 6055TIP3    H218130   1.726   0.091   2.234 -0.0950 -2.8234 -2.8904
 6056TIP3   OH218131   4.901   2.739   2.470  0.3006  0.2370 -0.0377
 6056TIP3    H118132   4.837   2.808   2.486  0.1611  0.1554 -0.2350
 6056TIP3    H218133   4.964   2.778   2.409 -0.3231 -0.1199 -0.9376
 6057TIP3   OH218134   0.120   1.459   4.699 -0.4320  0.1013  0.0502
 6057TIP3    H118135   0.060   1.532   4.688 -1.7880 -1.3166 -3.0018
 6057TIP3    H218136   0.175   1.485   4.773 -2.3481  3.1085  0.6104
 6058TIP3   OH218137   4.773   1.668   3.289  0.1916  0.0596 -0.0222
 6058TIP3    H118138   4.848   1.728   3.286  0.1334  0.1117 -2.5222
 6058TIP3    H218139   4.812   1.582   3.303  0.5582  0.2832  0.3644
 6059TIP3   OH218140   7.055   1.710   4.821  1.0132 -0.0162 -0.7742
 6059TIP3    H118141   7.064   1.788   4.766  0.5084  2.6705  2.6005
 6059TIP3    H218142   7.136   1.706   4.871  0.1705 -0.2953  0.6290
 6060TIP3   OH218143   4.692   4.743   2.130 -0.1237  0.5492  0.2730
 6060TIP3    H118144   4.674   4.748   2.036 -1.7919  1.5403  0.5957
 6060TIP3    H218145   4.764   4.804   2.144  1.2308 -0.7875 -0.5520
 6061TIP3   OH218146   3.396   0.197   3.992 -0.3631  0.3737 -0.0235
 6061TIP3    H118147   3.384   0.286   4.024  3.3434  1.1185 -0.2685
 6061TIP3    H218148   3.371   0.200   3.900  0.6711  1.4821 -0.2939
 6062TIP3   OH218149   2.112   3.899   4.030  0.1655  0.2847  0.2372
 6062TIP3    H118150   2.093   3.893   3.937 -0.1200 -0.9273  0.3634
 6062TIP3    H218151   2.027   3.893   4.073  0.1944  1.7726  0.5611
 6063TIP3   OH218152   2.641   0.872   5.506  0.4161  0.6249 -0.0017
 6063TIP3    H118153   2.612   0.894   5.594 -0.7099  2.0389 -0.6922
 6063TIP3    H218154   2.736   0.866   5.513  0.2792 -0.6025  1.5618
 6064TIP3   OH218155   5.830   3.217   0.707  0.7189  0.3820  0.0248
 6064TIP3    H118156   5.872   3.173   0.781  3.0936  1.1398 -0.7620
 6064TIP3    H218157   5.864   3.173   0.630 -0.4600  0.6462 -0.6701
 6065TIP3   OH218158   0.199   1.108   3.055  0.5470  0.2425  0.4020
 6065TIP3    H118159   0.115   1.140   3.086  0.1085 -1.3530  0.9780
 6065TIP3    H218160   0.247   1.086   3.134  1.3170  0.6507  0.0596
 6066TIP3   OH218161   6.054   2.095   2.466  0.3063 -0.1983 -0.5017
 6066TIP3    H118162   5.984   2.066   2.525 -1.0747  0.7982 -1.5873
 6066TIP3    H218163   6.051   2.033   2.393  0.2281  0.1211 -0.7739
 6067TIP3   OH218164   4.350   4.193   1.035  0.2946  0.1964 -0.1137
 6067TIP3    H118165   4.424   4.254   1.031 -0.5779  1.4978  2.2327
 6067TIP3    H218166   4.297   4.215   0.959  2.1484 -0.6689 -1.7781
 6068TIP3   OH218167   5.069   1.689   0.705 -0.4923 -0.3005  0.5381
 6068TIP3    H118168   5.067   1.618   0.640  0.1919 -0.0719  0.2639
 6068TIP3    H218169   4.983   1.730   0.697 -0.3597 -0.1714 -0.3505
 6069TIP3   OH218170   1.174   6.452   5.590 -0.4394  0.0228 -0.1556
 6069TIP3    H118171   1.101   6.454   5.652  1.1093 -1.5980  1.8140
 6069TIP3    H218172   1.197   6.544   5.578 -1.3439  0.4251  0.9617
 6070TIP3   OH218173   5.869   2.464   2.702  0.7122  0.4792  0.1420
 6070TIP3    H118174   5.799   2.406   2.732 -0.4347  2.2100  0.9487
 6070TIP3    H218175   5.945   2.437   2.754  0.8332 -1.6774 -1.0249
 6071TIP3   OH218176   6.411   4.603   3.845  0.2225 -0.1245 -0.0110
 6071TIP3    H118177   6.464   4.528   3.874  0.2957  0.4267  1.3872
 6071TIP3    H218178   6.474   4.674   3.837  0.1836 -0.2345 -1.5226
 6072TIP3   OH218179   1.523   0.797   0.412  0.2616 -0.0949  0.1922
 6072TIP3    H118180   1.462   0.843   0.469  0.4302  0.8379 -0.3617
 6072TIP3    H218181   1.475   0.720   0.382  0.1302 -0.5465  1.4919
 6073TIP3   OH218182   6.694   1.865   5.506  0.1688  0.0060 -0.5877
 6073TIP3    H118183   6.709   1.954   5.537 -0.0691  0.3126 -1.3338
 6073TIP3    H218184   6.781   1.826   5.502  0.1097 -0.6551  2.1590
 6074TIP3   OH218185   4.191   5.885   4.605  0.5302 -0.6309  0.4894
 6074TIP3    H118186   4.184   5.799   4.562 -0.0064  0.0094 -0.7808
 6074TIP3    H218187   4.133   5.879   4.681 -1.7567 -0.5548 -1.1256
 6075TIP3   OH218188   2.044   6.416   4.257 -1.0838  0.0039  0.1826
 6075TIP3    H118189   2.120   6.465   4.226  0.1842 -2.7344 -1.4375
 6075TIP3    H218190   1.968   6.470   4.234  0.1001  0.4019 -3.3529
 6076TIP3   OH218191   3.991   3.706   3.442  0.0873  0.0624  0.4435
 6076TIP3    H118192   4.040   3.744   3.515 -0.0088  0.8769  0.0914
 6076TIP3    H218193   4.017   3.758   3.366 -0.9215  0.1763  0.1592
 6077TIP3   OH218194   5.565   3.435   5.313  0.3566 -0.7838 -0.8692
 6077TIP3    H118195   5.561   3.348   5.351  1.5326 -0.6448 -0.3882
 6077TIP3    H218196   5.474   3.466   5.314  0.1052 -1.5255  0.0644
 6078TIP3   OH218197   4.921   3.351   3.965 -0.7562  0.1627  0.0764
 6078TIP3    H118198   4.976   3.353   3.887  0.2120  1.7228  0.7406
 6078TIP3    H218199   4.930   3.262   3.999 -0.6083 -0.3166 -1.1581
 6079TIP3   OH218200   3.951   0.345   1.110 -0.0861 -0.0987 -0.1645
 6079TIP3    H118201   4.044   0.346   1.133 -0.1405 -2.2222  0.4035
 6079TIP3    H218202   3.949   0.310   1.021 -0.3195  0.4984 -0.3972
 6080TIP3   OH218203   1.144   0.233   5.277 -0.2799  0.4561 -0.2495
 6080TIP3    H118204   1.104   0.160   5.324 -0.4249  1.1626  0.7652
 6080TIP3    H218205   1.206   0.192   5.217 -1.5093 -0.5720 -0.8580
 6081TIP3   OH218206   6.045   5.940   1.818  0.4479 -0.1822  0.4735
 6081TIP3    H118207   5.995   5.903   1.745 -0.2180  0.0052  0.8215
 6081TIP3    H218208   5.982   5.945   1.889  1.0161 -0.0869  0.9760
 6082TIP3   OH218209   2.442   3.305   2.967 -0.1225  1.0068 -0.2690
 6082TIP3    H118210   2.530   3.283   2.937  1.1755  0.6920  3.3114
 6082TIP3    H218211   2.402   3.220   2.988 -1.8267  1.0406 -2.8363
 6083TIP3   OH218212   1.933   0.128   2.934  0.4127 -0.3496 -0.0996
 6083TIP3    H118213   1.839   0.145   2.925  0.3531 -0.4027  0.3740
 6083TIP3    H218214   1.961   0.185   3.005  0.9091  0.2451 -0.7637
 6084TIP3   OH218215   5.524   6.347   0.262 -0.6183  0.0729 -0.3350
 6084TIP3    H118216   5.582   6.272   0.250  0.2901  0.9818 -2.0348
 6084TIP3    H218217   5.547   6.382   0.348  0.2108 -0.5443 -0.2950
 6085TIP3   OH218218   0.540   5.156   5.800  0.5336  0.6703 -0.4520
 6085TIP3    H118219   0.630   5.179   5.824  1.3983 -3.8910  1.9286
 6085TIP3    H218220   0.551   5.090   5.731 -1.0000  0.2324 -0.2971
 6086TIP3   OH218221   0.242   5.681   3.924 -0.9418  0.2168 -0.0865
 6086TIP3    H118222   0.154   5.664   3.959 -1.3383  1.4700 -0.4105
 6086TIP3    H218223   0.253   5.616   3.855 -0.3988 -1.8919  1.8624
 6087TIP3   OH218224   4.632   5.216   1.332 -0.1067 -0.9424 -0.2085
 6087TIP3    H118225   4.581   5.287   1.293  1.3928  0.4665  0.3356
 6087TIP3    H218226   4.649   5.156   1.260  0.8082  0.5632 -1.2848
 6088TIP3   OH218227   2.914   1.193   5.460  0.3691  0.0895 -0.0192
 6088TIP3    H118228   2.853   1.198   5.534  1.4161  0.6976  0.8477
 6088TIP3    H218229   2.913   1.281   5.423  0.1236 -0.1169 -0.5081
 6089TIP3   OH218230   4.985   2.092   1.374  0.8482 -0.0883  0.7219
 6089TIP3    H118231   4.978   2.018   1.434  1.1247  0.1566  1.0575
 6089TIP3    H218232   5.026   2.161   1.425 -1.7312  1.1947  1.2393
 6090TIP3   OH218233   2.746   0.349   0.873  0.1328 -0.2070 -0.5594
 6090TIP3    H118234   2.789   0.288   0.933 -1.9850 -1.4532 -0.1954
 6090TIP3    H218235   2.787   0.332   0.788 -0.4689 -2.3048 -0.4986
 6091TIP3   OH218236   4.966   0.177   4.245  0.0214 -0.2481 -0.3513
 6091TIP3    H118237   4.952   0.163   4.339 -1.5813  0.8795 -0.3926
 6091TIP3    H218238   5.013   0.260   4.239  1.2637 -0.9326 -0.5252
 6092TIP3   OH218239   1.213   1.822   3.638 -0.1200  0.0553 -0.3712
 6092TIP3    H118240   1.129   1.861   3.662  0.1831  0.8664 -0.6097
 6092TIP3    H218241   1.278   1.875   3.683  0.3488  0.3595 -1.3720
 6093TIP3   OH218242   3.703   4.626   1.019 -0.0388 -0.5438 -0.0752
 6093TIP3    H118243   3.767   4.688   1.054  0.8932 -1.3412 -0.3339
 6093TIP3    H218244   3.635   4.621   1.087  0.6956 -0.4843  0.6800
 6094TIP3   OH218245   1.630   0.374   3.777  0.4083  0.4115  0.5884
 6094TIP3    H118246   1.594   0.396   3.862  0.5987 -1.9162  1.3458
 6094TIP3    H218247   1.724   0.388   3.786  0.1654  3.1653 -0.2996
 6095TIP3   OH218248   5.966   0.192   0.690  0.3248 -0.0894 -0.0710
 6095TIP3    H118249   5.970   0.190   0.594  1.8644  0.0401 -0.0286
 6095TIP3    H218250   6.040   0.139   0.718 -0.0917 -0.0920  1.0605
 6096TIP3   OH218251   1.967   3.601   3.687 -0.3478  0.5795  0.2127
 6096TIP3    H118252   1.921   3.685   3.688  1.2330  1.5024  0.0936
 6096TIP3    H218253   1.970   3.577   3.594 -2.1514 -0.4414  0.3737
 6097TIP3   OH218254   3.867   4.837   2.007 -0.2458 -0.1649  0.2413
 6097TIP3    H118255   3.872   4.802   2.096  1.1909 -0.0042  0.2453
 6097TIP3    H218256   3.953   4.819   1.969 -0.3297  1.1062 -0.6132
 6098TIP3   OH218257   0.587   2.992   2.870  0.2420  0.4890 -0.2715
 6098TIP3    H118258   0.587   3.063   2.805  0.3288  0.6048 -0.1449
 6098TIP3    H218259   0.627   2.918   2.824 -0.8796  0.1687 -0.7770
 6099TIP3   OH218260   1.845   6.234   2.967 -0.2890 -0.1024 -0.2528
 6099TIP3    H118261   1.801   6.315   2.942 -0.4725  0.1868  0.9116
 6099TIP3    H218262   1.793   6.201   3.041 -1.7714 -2.6559 -2.2394
 6100TIP3   OH218263   2.380   4.777   2.460 -0.3914 -0.6931 -0.3573
 6100TIP3    H118264   2.356   4.863   2.424 -0.6797 -1.4335 -2.0185
 6100TIP3    H218265   2.387   4.792   2.554 -2.3860  0.7267 -0.3561
 6101TIP3   OH218266   4.458   6.642   0.291  0.0348 -0.8693 -0.5100
 6101TIP3    H118267   4.522   6.695   0.244  0.0387 -0.2677  0.1655
 6101TIP3    H218268   4.416   6.589   0.222  0.0707 -0.0344 -1.1937
 6102TIP3   OH218269   1.792   6.592   4.223  0.5115 -0.2746 -0.0855
 6102TIP3    H118270   1.769   6.616   4.133 -1.2623 -0.4765  0.2848
 6102TIP3    H218271   1.782   6.674   4.272 -0.9853 -0.6756  0.3413
 6103TIP3   OH218272   6.756   6.002   2.355 -0.2647  0.1978 -0.2631
 6103TIP3    H118273   6.848   5.977   2.363 -0.0800  0.7616 -0.5853
 6103TIP3    H218274   6.719   5.985   2.442  0.1581  0.0481 -0.1110
 6104TIP3   OH218275   2.035   2.293   5.547 -0.1479  0.2012 -0.0445
 6104TIP3    H118276   2.115   2.240   5.541  0.3610  0.6562  2.0426
 6104TIP3    H218277   2.066   2.379   5.575 -1.3061  0.5900  0.0859
 6105TIP3   OH218278   6.008   3.619   1.133 -0.3747 -0.0254 -0.3639
 6105TIP3    H118279   6.029   3.566   1.210  0.4480 -0.0202 -0.5666
 6105TIP3    H218280   5.959   3.694   1.167  0.8881  0.5232  0.3148
 6106TIP3   OH218281   0.476   0.738   1.270 -0.2103  0.7506  0.8138
 6106TIP3    H118282   0.472   0.831   1.247 -1.9547  0.6253  0.5089
 6106TIP3    H218283   0.432   0.731   1.354 -0.4896  0.1498  0.6277
 6107TIP3   OH218284   6.541   0.110   2.952  0.1308  0.5746  0.3057
 6107TIP3    H118285   6.629   0.115   2.915 -0.3032 -1.2113 -1.1274
 6107TIP3    H218286   6.482   0.120   2.877 -0.8212 -0.5025  0.8723
 6108TIP3   OH218287   4.320   6.687   5.310  0.5262  0.1132  0.7701
 6108TIP3    H118288   4.351   6.774   5.336  2.8955 -0.6319  0.6755
 6108TIP3    H218289   4.396   6.646   5.268 -0.7077 -1.8060  0.2825
 6109TIP3   OH218290   1.858   1.870   5.456  0.3389  0.5886  0.3038
 6109TIP3    H118291   1.801   1.829   5.521  0.7959 -0.0847  0.2860
 6109TIP3    H218292   1.821   1.842   5.372  0.4239  0.5330  0.2856
 6110TIP3   OH218293   6.583   2.672   0.041  0.6705  0.5589  1.0308
 6110TIP3    H118294   6.543   2.586   0.031  1.3150  0.4130 -0.6789
 6110TIP3    H218295   6.669   2.654   0.078  0.1874  0.6413  2.2373
 6111TIP3   OH218296   7.030   0.893   4.040 -0.5466  0.4358  0.4422
 6111TIP3    H118297   6.939   0.878   4.067 -0.7820  1.4999  0.2654
 6111TIP3    H218298   7.023   0.919   3.948  0.1170 -1.5114 -0.2031
 6112TIP3   OH218299   5.537   1.952   2.794 -0.5120  0.1720  0.0673
 6112TIP3    H118300   5.478   1.890   2.838 -1.0983 -0.5696 -1.6684
 6112TIP3    H218301   5.478   2.012   2.748  0.0569 -0.0529 -0.9879
 6113TIP3   OH218302   0.927   5.399   0.824  0.3327  0.1879  0.1959
 6113TIP3    H118303   1.021   5.382   0.824 -0.0193 -2.0943  0.2675
 6113TIP3    H218304   0.917   5.480   0.776  2.3502  0.5871  0.3676
 6114TIP3   OH218305   4.147   4.323   0.849 -0.1536  0.2652 -0.5763
 6114TIP3    H118306   4.108   4.273   0.777 -3.5690  1.4583  0.2876
 6114TIP3    H218307   4.194   4.394   0.806 -0.7763  0.0406 -1.6690
 6115TIP3   OH218308   1.094   2.254   3.882 -0.3472 -0.5033 -0.1075
 6115TIP3    H118309   1.072   2.345   3.901 -1.0084 -0.5622 -0.5665
 6115TIP3    H218310   1.042   2.203   3.945 -1.1517 -0.6221 -0.8576
 6116TIP3   OH218311   1.305   0.907   5.297 -0.4806 -0.2444  0.8607
 6116TIP3    H118312   1.343   0.964   5.365  1.7617 -0.0077 -0.4884
 6116TIP3    H218313   1.242   0.962   5.252  0.1481  0.5256  0.8986
 6117TIP3   OH218314   4.047   6.670   2.590  0.1157  0.4694  0.3561
 6117TIP3    H118315   4.063   6.591   2.539 -1.8373 -0.1660  0.6432
 6117TIP3    H218316   4.015   6.638   2.675 -0.3667  1.5358  0.5981
 6118TIP3   OH218317   1.053   6.243   1.139 -0.0103 -0.1697  0.3015
 6118TIP3    H118318   1.139   6.278   1.162  0.7907 -0.6669 -1.7115
 6118TIP3    H218319   1.009   6.232   1.223  1.9569 -0.0791  1.4205
 6119TIP3   OH218320   3.560   1.661   2.173  0.0033  0.2795  0.1138
 6119TIP3    H118321   3.470   1.635   2.153  0.6264 -0.9493 -1.3499
 6119TIP3    H218322   3.554   1.714   2.252 -1.8815 -0.6856  0.6554
 6120TIP3   OH218323   4.105   1.619   3.270 -0.4231  0.4222  0.1450
 6120TIP3    H118324   4.076   1.676   3.199  0.0370  0.3122 -0.1321
 6120TIP3    H218325   4.184   1.577   3.237 -0.7543 -0.3828  0.3408
 6121TIP3   OH218326   5.329   1.202   1.919  0.4878  0.0335 -0.3695
 6121TIP3    H118327   5.371   1.260   1.855  1.1679  2.4663  2.0586
 6121TIP3    H218328   5.402   1.158   1.962  0.4441  1.5932  1.4538
 6122TIP3   OH218329   3.240   5.586   0.917 -0.5386  0.3836  0.2201
 6122TIP3    H118330   3.154   5.615   0.885  0.0942  1.0209 -0.9865
 6122TIP3    H218331   3.294   5.665   0.914 -0.0760  0.1392  1.6111
 6123TIP3   OH218332   3.445   6.742   0.098  0.0314  0.2149 -0.8588
 6123TIP3    H118333   3.472   6.818   0.149 -0.4759  0.0384 -0.3233
 6123TIP3    H218334   3.527   6.696   0.080  0.1867  0.0753  0.1258
 6124TIP3   OH218335   2.780   3.246   5.066  0.2289  0.1156  0.2490
 6124TIP3    H118336   2.771   3.328   5.017 -1.3739  0.1984  0.6019
 6124TIP3    H218337   2.779   3.273   5.158  0.2733 -0.2468  0.3564
 6125TIP3   OH218338   6.559   0.516   5.778  0.0035  0.1030 -0.0316
 6125TIP3    H118339   6.502   0.490   5.851 -0.1936  0.1770 -0.1583
 6125TIP3    H218340   6.631   0.453   5.780  0.9295  1.1369  1.3158
 6126TIP3   OH218341   4.216   0.400   2.814 -0.3943  0.0087 -0.2315
 6126TIP3    H118342   4.264   0.425   2.893 -0.0672 -0.4616 -0.2788
 6126TIP3    H218343   4.284   0.377   2.750 -0.5805  2.1229 -1.2697
 6127TIP3   OH218344   2.309   5.342   0.690  0.1707  0.0419 -0.5753
 6127TIP3    H118345   2.361   5.261   0.696  2.1705  1.0771 -2.3649
 6127TIP3    H218346   2.304   5.374   0.780 -0.0413 -1.6825  0.0603
 6128TIP3   OH218347   1.645   5.510   5.145  0.4470 -0.2940  0.5192
 6128TIP3    H118348   1.596   5.549   5.217 -0.3242  0.1908 -0.2502
 6128TIP3    H218349   1.590   5.439   5.112  1.0249 -0.8529  0.7313
 6129TIP3   OH218350   6.085   0.386   4.488  0.2846 -0.0945  0.0502
 6129TIP3    H118351   5.995   0.410   4.464 -0.1701 -1.7193 -0.0031
 6129TIP3    H218352   6.102   0.436   4.568 -0.5093  0.5411 -0.1571
 6130TIP3   OH218353   4.932   2.565   4.587 -0.2973  0.0250  0.2139
 6130TIP3    H118354   4.885   2.648   4.594 -3.8416 -1.7227 -0.6023
 6130TIP3    H218355   4.895   2.510   4.656  0.8353 -1.4018 -0.2584
 6131TIP3   OH218356   6.989   4.728   2.555 -0.6182 -0.1703  0.2148
 6131TIP3    H118357   6.930   4.803   2.565 -1.7335 -1.0366  0.4117
 6131TIP3    H218358   6.987   4.685   2.640 -0.7245 -0.9301 -0.1595
 6132TIP3   OH218359   2.366   0.678   1.514  0.0378  0.1399  0.5273
 6132TIP3    H118360   2.419   0.654   1.438  0.0536  0.6704  0.3683
 6132TIP3    H218361   2.285   0.628   1.504  0.7530 -1.2003  1.1219
 6133TIP3   OH218362   1.028   6.087   3.242 -0.3162  0.0061  0.9082
 6133TIP3    H118363   0.984   6.005   3.265  0.5150 -0.1609  1.9841
 6133TIP3    H218364   1.071   6.114   3.322  1.1301  0.4211  0.0256
 6134TIP3   OH218365   1.645   5.518   1.488  0.0712 -0.5103  0.2366
 6134TIP3    H118366   1.560   5.481   1.514  0.1976 -1.2964 -0.4152
 6134TIP3    H218367   1.630   5.612   1.484 -1.3529 -0.7702 -1.8524
 6135TIP3   OH218368   7.159   1.964   5.005  0.4976  0.1912 -0.1211
 6135TIP3    H118369   7.160   2.041   4.949  2.2821 -1.0422 -1.9440
 6135TIP3    H218370   7.203   1.896   4.953  1.7183 -1.2057  2.5504
 6136TIP3   OH218371   6.722   4.298   2.821  0.0382 -0.6578 -0.3421
 6136TIP3    H118372   6.658   4.251   2.874  0.4945 -1.6994 -0.6811
 6136TIP3    H218373   6.770   4.352   2.884 -1.8922  1.0591 -0.2275
 6137TIP3   OH218374   3.317   3.862   2.216 -0.3405  0.1413  0.4183
 6137TIP3    H118375   3.359   3.800   2.274 -1.3386 -1.5523 -0.5976
 6137TIP3    H218376   3.371   3.941   2.223  2.2278 -1.4657  0.1666
 6138TIP3   OH218377   3.656   0.242   4.128 -0.1405 -0.1729 -0.1603
 6138TIP3    H118378   3.683   0.252   4.037  1.1351  0.1254  0.2307
 6138TIP3    H218379   3.566   0.210   4.123  0.6598 -2.4570 -1.5481
 6139TIP3   OH218380   2.463   1.324   3.723 -0.3890 -0.4864  0.0156
 6139TIP3    H118381   2.447   1.398   3.781 -1.8324  1.6382 -2.9016
 6139TIP3    H218382   2.558   1.325   3.710 -0.3607  0.7381  0.1715
 6140TIP3   OH218383   0.994   6.091   4.080 -0.1662  0.3132  0.3576
 6140TIP3    H118384   0.938   6.118   4.152  1.1268  0.8284  1.1913
 6140TIP3    H218385   1.001   6.169   4.024  1.5808  1.0274  1.4887
 6141TIP3   OH218386   0.409   6.380   5.593 -0.1831 -0.0665 -0.2097
 6141TIP3    H118387   0.320   6.409   5.572  0.4522  1.8882 -0.4453
 6141TIP3    H218388   0.447   6.357   5.508 -0.6047 -1.4205 -0.0505
 6142TIP3   OH218389   6.976   1.107   1.805  0.1120  0.2367 -0.9281
 6142TIP3    H118390   6.917   1.182   1.795 -0.7385 -0.1554  0.8743
 6142TIP3    H218391   7.053   1.142   1.850 -1.5760 -0.4585  2.7967
 6143TIP3   OH218392   1.144   2.118   0.403 -0.0070  0.0217 -0.1757
 6143TIP3    H118393   1.120   2.104   0.495 -1.2318 -0.5363 -0.5617
 6143TIP3    H218394   1.080   2.181   0.371 -0.7078 -1.1552 -1.1228
 6144TIP3   OH218395   5.915   4.454   2.279  0.2040  0.2611 -0.3567
 6144TIP3    H118396   5.876   4.442   2.193 -0.0435  1.0124 -0.3597
 6144TIP3    H218397   5.989   4.513   2.264 -1.0021  2.0080  0.2060
 6145TIP3   OH218398   1.018   2.038   3.732 -0.4508  0.7109 -0.4100
 6145TIP3    H118399   0.938   2.089   3.724 -0.6327  0.8085  1.5489
 6145TIP3    H218400   1.079   2.095   3.778  0.4173  0.2778 -0.9898
 6146TIP3   OH218401   1.551   2.767   4.585  0.1409 -0.8667 -0.1220
 6146TIP3    H118402   1.560   2.676   4.559  0.0378 -0.5001 -1.5012
 6146TIP3    H218403   1.456   2.781   4.589  0.1564 -0.8260  0.1444
 6147TIP3   OH218404   3.188   3.269   0.145  0.2672 -0.0580 -0.7968
 6147TIP3    H118405   3.231   3.290   0.228  0.0656 -0.2310 -0.6485
 6147TIP3    H218406   3.260   3.244   0.086  0.4383  0.3499 -0.7628
 6148TIP3   OH218407   4.413   4.946   5.019  0.5664 -0.6961  0.4143
 6148TIP3    H118408   4.466   4.877   4.979  2.1526  0.6137  0.1301
 6148TIP3    H218409   4.421   4.931   5.113  2.2810  0.0064  0.4209
 6149TIP3   OH218410   5.391   2.248   2.877 -0.2769 -0.6428  0.2554
 6149TIP3    H118411   5.346   2.325   2.911 -1.0129 -0.3681 -1.2535
 6149TIP3    H218412   5.366   2.177   2.937 -1.5611 -0.1892  0.2772
 6150TIP3   OH218413   2.058   0.893   3.876  0.1792  0.3066 -0.0033
 6150TIP3    H118414   2.016   0.857   3.797 -1.0080 -1.7812  1.4615
 6150TIP3    H218415   2.038   0.986   3.873  0.8530  0.4623 -2.5421
 6151TIP3   OH218416   0.339   1.473   4.884  0.1572  0.1444 -0.0210
 6151TIP3    H118417   0.351   1.415   4.959 -1.6828 -1.0156 -0.5664
 6151TIP3    H218418   0.389   1.552   4.906  0.3493 -0.4997  2.0134
 6152TIP3   OH218419   1.278   1.004   1.184 -0.2780 -0.2606  0.0508
 6152TIP3    H118420   1.328   0.991   1.265  0.5782 -0.5490 -0.5149
 6152TIP3    H218421   1.292   1.097   1.163 -1.0617 -0.0058  0.5828
 6153TIP3   OH218422   2.852   5.045   2.939 -0.7099  0.1092  0.0353
 6153TIP3    H118423   2.836   4.953   2.915 -0.9202  0.6505 -2.1078
 6153TIP3    H218424   2.926   5.041   2.999 -1.0914 -1.5014  0.4628
 6154TIP3   OH218425   6.663   3.869   1.336  0.0621 -0.0909 -0.1691
 6154TIP3    H118426   6.600   3.866   1.407  0.7325  1.4647  0.5244
 6154TIP3    H218427   6.610   3.879   1.257 -0.6113 -0.2591  0.2542
 6155TIP3   OH218428   1.071   1.060   2.817 -0.5961  0.0562  0.2181
 6155TIP3    H118429   1.037   1.134   2.767 -0.6340  0.0858  0.2877
 6155TIP3    H218430   1.057   1.084   2.908 -1.1983 -0.3167  0.2314
 6156TIP3   OH218431   4.691   2.256   4.997  0.3356  0.3884 -0.2407
 6156TIP3    H118432   4.700   2.310   5.076 -1.0243 -0.2604  0.3990
 6156TIP3    H218433   4.728   2.171   5.021 -0.5611  0.0255 -0.0997
 6157TIP3   OH218434   4.933   3.922   0.954 -1.1371 -0.1700  0.3544
 6157TIP3    H118435   4.863   3.971   0.997  0.3297  0.5122  2.0662
 6157TIP3    H218436   4.927   3.834   0.992 -1.1460 -0.1363  0.4323
 6158TIP3   OH218437   0.264   1.140   0.456  0.6427  0.5105  0.0117
 6158TIP3    H118438   0.210   1.061   0.460  0.9495  0.2460 -0.9135
 6158TIP3    H218439   0.245   1.178   0.370  0.9706  1.1060  0.1949
 6159TIP3   OH218440   2.914   3.634   3.693  0.1937  0.5826 -0.0210
 6159TIP3    H118441   2.871   3.556   3.659  1.8882  0.4575 -2.1420
 6159TIP3    H218442   2.851   3.673   3.753 -1.4606 -1.3579 -0.4107
 6160TIP3   OH218443   2.953   5.934   2.653  0.5096  0.7311 -1.0493
 6160TIP3    H118444   3.048   5.933   2.646  0.7783  0.3214  1.5948
 6160TIP3    H218445   2.932   6.021   2.686  0.0981  0.4180 -0.4689
 6161TIP3   OH218446   4.006   3.249   2.673 -0.0204 -0.2143  0.0252
 6161TIP3    H118447   3.921   3.206   2.661  0.5556 -0.7947 -2.6775
 6161TIP3    H218448   3.988   3.321   2.734 -2.9941  0.9760 -1.9938
 6162TIP3   OH218449   1.710   2.403   5.674 -0.2523  0.1154  0.0441
 6162TIP3    H118450   1.735   2.410   5.766 -0.0790  2.5697 -0.1186
 6162TIP3    H218451   1.640   2.338   5.673  1.2113 -1.5606  1.5612
 6163TIP3   OH218452   6.031   4.628   3.033  0.5452  0.3620 -0.0734
 6163TIP3    H118453   6.030   4.597   3.123 -1.0273  2.3135  0.6537
 6163TIP3    H218454   6.079   4.560   2.985  1.0752 -0.9275  2.1247
 6164TIP3   OH218455   2.474   4.137   5.134 -0.0621  0.2418 -0.3107
 6164TIP3    H118456   2.504   4.089   5.057 -1.0831 -0.1692 -0.4723
 6164TIP3    H218457   2.493   4.229   5.115  0.4880  0.0564 -0.6724
 6165TIP3   OH218458   1.830   3.928   0.724  0.1810  0.1616  0.1624
 6165TIP3    H118459   1.767   3.999   0.741  1.1465  0.7640  1.3857
 6165TIP3    H218460   1.815   3.904   0.633  0.6386  2.8240 -0.7095
 6166TIP3   OH218461   2.258   0.208   5.232  0.3077  0.1335  0.3756
 6166TIP3    H118462   2.294   0.122   5.209  1.0628  0.3021  0.9080
 6166TIP3    H218463   2.192   0.225   5.164  2.2480  0.4845 -1.5539
 6167TIP3   OH218464   2.939   3.934   5.226 -0.1586 -0.1566 -0.5192
 6167TIP3    H118465   2.882   4.004   5.258  0.5459  0.0947  0.2314
 6167TIP3    H218466   2.879   3.862   5.206 -0.8816  0.6108 -1.2028
 6168TIP3   OH218467   2.992   0.862   1.554  0.1103 -0.1211 -0.0138
 6168TIP3    H118468   2.937   0.932   1.519  1.2731  1.2014  0.7324
 6168TIP3    H218469   2.993   0.876   1.649  2.4559  0.4888 -0.0660
 6169TIP3   OH218470   4.146   4.104   0.643 -0.4627  0.2810  0.1204
 6169TIP3    H118471   4.183   4.135   0.560 -0.9481  1.2246  0.2437
 6169TIP3    H218472   4.219   4.062   0.687 -0.2425 -0.4244 -0.8743
 6170TIP3   OH218473   2.665   2.761   5.259  0.1905 -0.5192 -0.1787
 6170TIP3    H118474   2.743   2.708   5.274  0.7888 -0.1192 -1.6796
 6170TIP3    H218475   2.687   2.816   5.184 -0.6539  1.3729  0.8802
 6171TIP3   OH218476   0.478   2.416   3.045 -0.1240  0.0350 -0.5164
 6171TIP3    H118477   0.469   2.338   3.099 -0.0361  0.3259 -0.0769
 6171TIP3    H218478   0.406   2.473   3.071 -0.8572 -0.3539 -1.6281
 6172TIP3   OH218479   3.714   5.012   0.298 -0.1582 -0.1551 -0.7047
 6172TIP3    H118480   3.619   5.018   0.293 -0.2804 -2.0321 -1.4656
 6172TIP3    H218481   3.731   4.962   0.378  0.1070 -0.8746 -1.1993
 6173TIP3   OH218482   5.150   1.691   3.282 -0.0421  0.4835 -0.5539
 6173TIP3    H118483   5.236   1.730   3.270 -0.0051  0.7611  0.5228
 6173TIP3    H218484   5.161   1.627   3.353 -0.4857 -0.2528 -1.1308
 6174TIP3   OH218485   2.142   0.100   3.426  0.7237  0.3006 -0.2189
 6174TIP3    H118486   2.057   0.135   3.454  0.9498  0.5801  0.1399
 6174TIP3    H218487   2.126   0.008   3.407 -0.1743  0.8280 -2.3767
 6175TIP3   OH218488   4.535   5.900   1.590  0.0213 -0.3937 -0.4086
 6175TIP3    H118489   4.609   5.935   1.540 -0.3195  2.8499  1.0763
 6175TIP3    H218490   4.458   5.921   1.538 -0.0987 -0.5112 -0.2796
 6176TIP3   OH218491   2.637   3.530   5.723 -0.0593 -0.1532 -0.6509
 6176TIP3    H118492   2.548   3.564   5.716 -0.6072 -1.3089  0.1916
 6176TIP3    H218493   2.680   3.587   5.787 -0.4555 -0.0891 -0.4395
 6177TIP3   OH218494   3.821   3.728   3.690  0.1153  0.2535  0.0948
 6177TIP3    H118495   3.738   3.756   3.728 -0.4721 -1.6075  0.3040
 6177TIP3    H218496   3.799   3.650   3.639  2.0480 -1.9096  2.2689
 6178TIP3   OH218497   4.153   4.657   5.795  0.2082  0.2317  0.3307
 6178TIP3    H118498   4.064   4.627   5.775  1.3769 -2.4008 -1.4724
 6178TIP3    H218499   4.206   4.624   5.722  2.3019  4.2096 -0.2485
 6179TIP3   OH218500   7.151   5.440   4.776 -0.1392  0.0617  0.1630
 6179TIP3    H118501   7.143   5.400   4.863  1.3057  0.5285  0.5261
 6179TIP3    H218502   7.211   5.384   4.729  0.7751  0.9911  0.1981
 6180TIP3   OH218503   3.693   6.111   3.004 -0.0271 -0.3961  0.0880
 6180TIP3    H118504   3.684   6.120   2.910  1.4480  0.1848 -0.0237
 6180TIP3    H218505   3.664   6.021   3.023  1.0047 -1.0191 -1.1232
 6181TIP3   OH218506   3.197   3.685   0.333  0.3518 -0.2902  0.0203
 6181TIP3    H118507   3.197   3.776   0.304 -1.5974 -0.2959 -0.1553
 6181TIP3    H218508   3.202   3.690   0.428 -2.1155  0.1900  0.2100
 6182TIP3   OH218509   6.398   5.222   2.290 -0.0922  0.0010  0.7278
 6182TIP3    H118510   6.402   5.306   2.245  3.2248  0.3558  1.4461
 6182TIP3    H218511   6.330   5.173   2.243 -2.2246  3.0561  0.3728
 6183TIP3   OH218512   1.492   4.755   2.936  0.0158 -0.2099  0.3353
 6183TIP3    H118513   1.412   4.741   2.885  0.1761 -2.9741  0.7095
 6183TIP3    H218514   1.563   4.744   2.873  0.1762 -2.3763  0.8237
 6184TIP3   OH218515   3.784   4.396   2.616  0.2409 -0.3040 -0.3934
 6184TIP3    H118516   3.845   4.470   2.612 -1.2372  0.9179 -1.1804
 6184TIP3    H218517   3.718   4.415   2.549 -1.6128 -1.0260  1.1326
 6185TIP3   OH218518   5.796   4.410   3.430 -0.0191 -0.2592 -0.3325
 6185TIP3    H118519   5.809   4.337   3.491 -0.3509  0.6715  0.8909
 6185TIP3    H218520   5.743   4.373   3.359  0.5963 -1.4320 -0.2099
 6186TIP3   OH218521   5.491   4.120   1.942  0.2230  0.0251 -0.4795
 6186TIP3    H118522   5.431   4.188   1.913  0.7388 -0.1058 -1.9784
 6186TIP3    H218523   5.578   4.161   1.936  0.4254 -0.3404 -0.0760
 6187TIP3   OH218524   4.979   5.219   3.285  0.1389  0.0169 -0.4727
 6187TIP3    H118525   5.070   5.242   3.302  0.2807 -0.2489 -0.8526
 6187TIP3    H218526   4.928   5.276   3.343  0.6240 -1.4658  1.5023
 6188TIP3   OH218527   3.516   1.354   4.214  0.3979 -0.3442 -0.1955
 6188TIP3    H118528   3.514   1.344   4.309  0.7010  2.3639  0.1628
 6188TIP3    H218529   3.426   1.378   4.191  0.5208 -0.1675 -0.4871
 6189TIP3   OH218530   5.125   3.471   0.919 -0.0750  0.2934  0.3718
 6189TIP3    H118531   5.206   3.467   0.867 -0.4852 -0.7067 -0.2127
 6189TIP3    H218532   5.087   3.384   0.910 -0.4742  0.2962  1.8656
 6190TIP3   OH218533   1.742   0.995   0.768 -1.1187  0.0611 -0.1777
 6190TIP3    H118534   1.743   1.055   0.843  1.7793 -0.8095  0.6053
 6190TIP3    H218535   1.678   1.033   0.708 -2.6278  1.4797  2.1579
 6191TIP3   OH218536   5.863   3.999   0.414  0.3689 -0.2831  0.3971
 6191TIP3    H118537   5.878   4.084   0.457 -0.8197  0.1738 -0.0384
 6191TIP3    H218538   5.940   3.986   0.360  0.4371  0.6802  0.2416
 6192TIP3   OH218539   2.637   5.882   3.108  0.0683  0.5313 -0.0195
 6192TIP3    H118540   2.611   5.896   3.017  0.1743 -0.5635 -0.2255
 6192TIP3    H218541   2.575   5.818   3.141 -0.1593  1.1513  0.7841
 6193TIP3   OH218542   0.022   5.540   1.892 -0.2504 -0.5980 -0.0751
 6193TIP3    H118543   0.014   5.446   1.906 -1.3126 -0.5964 -0.4959
 6193TIP3    H218544   0.114   5.555   1.873 -0.2873 -1.7665 -1.3532
 6194TIP3   OH218545   2.041   3.839   3.407  0.0023  0.5538 -0.5386
 6194TIP3    H118546   2.120   3.826   3.356 -0.7555  1.6791 -2.0551
 6194TIP3    H218547   2.053   3.924   3.449  0.5466 -0.2828  1.1195
 6195TIP3   OH218548   2.058   0.562   0.980 -0.1859 -0.3146 -0.5858
 6195TIP3    H118549   2.036   0.570   1.073  0.7553  1.1067 -0.4532
 6195TIP3    H218550   1.973   0.561   0.935 -0.6571  2.5387  0.0770
 6196TIP3   OH218551   1.684   4.550   3.743  0.6096 -0.1441 -0.2148
 6196TIP3    H118552   1.733   4.563   3.662  0.7618  1.7181  0.1253
 6196TIP3    H218553   1.594   4.572   3.721  0.2967 -1.4038 -0.2908
 6197TIP3   OH218554   5.105   6.189   0.356  0.0379  0.1710 -0.5811
 6197TIP3    H118555   5.062   6.248   0.417  0.2112  1.5203 -1.6914
 6197TIP3    H218556   5.041   6.174   0.287  0.0927 -0.7548 -0.4480
 6198TIP3   OH218557   2.839   4.758   2.649 -0.5134  0.2060  0.2282
 6198TIP3    H118558   2.857   4.691   2.715  0.8558  0.2385 -0.0767
 6198TIP3    H218559   2.744   4.760   2.642 -0.6016 -2.5013 -0.5574
 6199TIP3   OH218560   6.074   2.389   4.915  0.1182 -0.3319 -0.3362
 6199TIP3    H118561   6.100   2.297   4.906 -0.4882 -0.4174 -1.4638
 6199TIP3    H218562   6.047   2.398   5.006  1.7949 -0.8318  0.2507
 6200TIP3   OH218563   1.105   1.887   3.102 -0.1032 -0.0715 -0.4345
 6200TIP3    H118564   1.110   1.796   3.073  0.1919  0.0100 -0.6546
 6200TIP3    H218565   1.196   1.912   3.118 -0.3039 -0.3034  1.2084
 6201TIP3   OH218566   0.319   0.652   2.969  0.3457  0.0892  0.1798
 6201TIP3    H118567   0.321   0.567   3.015 -0.2479  0.3845  0.7737
 6201TIP3    H218568   0.294   0.630   2.880  0.6672 -0.4106  0.2045
 6202TIP3   OH218569   5.918   0.838   1.435 -0.3744 -0.0378  0.2430
 6202TIP3    H118570   5.995   0.786   1.410 -0.1027  0.3128  0.3368
 6202TIP3    H218571   5.864   0.841   1.356  0.7872  1.6117 -0.5451
 6203TIP3   OH218572   3.279   2.390   1.061 -0.3489  0.7327 -0.1619
 6203TIP3    H118573   3.280   2.444   0.982 -0.0159 -1.2287 -1.5865
 6203TIP3    H218574   3.252   2.303   1.030  2.6396 -0.8881  1.2664
 6204TIP3   OH218575   5.427   3.269   4.728 -0.4664 -0.0883  0.3200
 6204TIP3    H118576   5.431   3.173   4.737  0.4125 -0.0707  0.2022
 6204TIP3    H218577   5.407   3.283   4.635  1.3915 -0.1537 -0.1280
 6205TIP3   OH218578   1.147   2.643   3.736 -0.0576 -0.4188  0.2617
 6205TIP3    H118579   1.055   2.617   3.730  0.1899 -1.4815  0.7976
 6205TIP3    H218580   1.148   2.735   3.707 -1.2924 -0.3573  0.3560
 6206TIP3   OH218581   3.921   1.048   5.051  0.4835 -0.2816 -0.1830
 6206TIP3    H118582   3.878   1.105   4.988 -0.5618 -0.4899  0.3148
 6206TIP3    H218583   3.950   0.972   5.001 -0.6055 -0.5835 -0.3665
 6207TIP3   OH218584   1.440   5.062   5.755  0.0087  0.6691  0.4066
 6207TIP3    H118585   1.430   5.053   5.660  1.1193  0.0467  0.3390
 6207TIP3    H218586   1.500   4.993   5.780 -0.2744  0.8244  1.5827
 6208TIP3   OH218587   5.496   3.981   2.889  0.3861 -0.3685  0.2770
 6208TIP3    H118588   5.577   3.941   2.856  1.8102  3.1101 -0.9128
 6208TIP3    H218589   5.479   4.053   2.829 -2.4767  0.3074  1.7441
 6209TIP3   OH218590   5.933   4.220   0.556  0.1709  0.1581 -0.1164
 6209TIP3    H118591   5.981   4.280   0.498 -1.0753  1.5402  0.2045
 6209TIP3    H218592   5.848   4.262   0.568 -0.0747 -0.7547  1.6577
 6210TIP3   OH218593   1.630   0.038   0.937  0.0490  0.0060  0.0552
 6210TIP3    H118594   1.594  -0.005   0.859  0.3938  1.0741 -0.7161
 6210TIP3    H218595   1.554   0.080   0.978 -0.0844 -0.3056  0.1284
 6211TIP3   OH218596   3.788   3.692   1.016  0.4460 -0.6700  0.3161
 6211TIP3    H118597   3.770   3.655   0.930  1.8701 -1.3498  0.2777
 6211TIP3    H218598   3.788   3.787   1.001 -0.0342 -0.7568 -0.2734
 6212TIP3   OH218599   4.517   0.710   4.791 -0.5571 -0.1841  0.3391
 6212TIP3    H118600   4.482   0.798   4.783  0.1723  0.0712 -0.0542
 6212TIP3    H218601   4.604   0.714   4.752  0.5462 -0.4480  2.6300
 6213TIP3   OH218602   3.732   1.951   2.559 -0.1468 -0.3364  0.0289
 6213TIP3    H118603   3.670   1.891   2.600 -1.1861  0.0342 -0.9561
 6213TIP3    H218604   3.818   1.921   2.589 -0.8187 -0.3644  2.0767
 6214TIP3   OH218605   6.064   6.242   1.828 -0.1357  0.1915  0.0516
 6214TIP3    H118606   6.082   6.151   1.805 -1.0735  0.1890 -0.7191
 6214TIP3    H218607   6.037   6.239   1.920  1.9114 -0.0169  0.7050
 6215TIP3   OH218608   0.125   5.012   3.206 -0.4410 -0.6297  0.2058
 6215TIP3    H118609   0.106   5.038   3.296 -1.0442 -2.0738  0.5322
 6215TIP3    H218610   0.124   5.094   3.156 -3.2578 -0.0714  0.9677
 6216TIP3   OH218611   5.037   3.645   4.607 -0.0371 -0.1231  0.1487
 6216TIP3    H118612   5.116   3.699   4.610 -0.1232  0.2603 -2.3967
 6216TIP3    H218613   5.069   3.555   4.608  0.4052  0.0260 -0.4524
 6217TIP3   OH218614   1.366   5.349   5.629  0.3823  0.4261 -0.0070
 6217TIP3    H118615   1.298   5.416   5.630  0.8429  0.8936  0.6591
 6217TIP3    H218616   1.356   5.306   5.544 -1.6490 -0.4597  0.6123
 6218TIP3   OH218617   6.753   1.758   4.826  0.2954  0.3082 -0.1540
 6218TIP3    H118618   6.837   1.729   4.790 -0.4834 -1.7169 -0.4218
 6218TIP3    H218619   6.707   1.678   4.848 -0.1824  1.3789  3.3663
 6219TIP3   OH218620   5.763   0.191   2.902 -0.4810  0.0388  0.1517
 6219TIP3    H118621   5.700   0.139   2.852 -0.1414  0.3534 -0.6112
 6219TIP3    H218622   5.780   0.267   2.847  2.5202 -1.2545 -0.8949
 6220TIP3   OH218623   0.552   3.280   1.716  0.3774 -0.1255  0.6756
 6220TIP3    H118624   0.566   3.209   1.779  2.5846  1.3063  1.9403
 6220TIP3    H218625   0.589   3.248   1.634  0.3426 -0.8541  0.9399
 6221TIP3   OH218626   5.816   1.863   0.423  0.1446 -0.8850 -0.4080
 6221TIP3    H118627   5.852   1.820   0.345 -0.3656 -0.4543 -0.8904
 6221TIP3    H218628   5.860   1.947   0.426 -1.2380 -0.0739 -1.3797
 6222TIP3   OH218629   2.425   2.235   4.706 -0.1117  0.2454 -0.0907
 6222TIP3    H118630   2.370   2.170   4.662  0.4358 -0.1182 -0.2443
 6222TIP3    H218631   2.511   2.193   4.713 -0.0661  0.4862  0.8838
 6223TIP3   OH218632   5.396   1.566   3.789 -0.2111  0.1459 -1.2298
 6223TIP3    H118633   5.331   1.556   3.719 -0.2480 -0.3323 -1.1267
 6223TIP3    H218634   5.479   1.573   3.742 -0.5322  3.4606 -1.5410
 6224TIP3   OH218635   3.371   3.297   1.558 -0.1234 -0.1133  0.1995
 6224TIP3    H118636   3.329   3.300   1.471  1.3503 -0.6612 -0.5640
 6224TIP3    H218637   3.418   3.214   1.559  0.4315  0.2033  1.2751
 6225TIP3   OH218638   0.731   4.358   5.790 -0.1951 -0.4969  0.2952
 6225TIP3    H118639   0.784   4.282   5.815 -0.3033 -0.6347  0.1076
 6225TIP3    H218640   0.641   4.330   5.808 -0.2546 -0.5102 -0.0279
 6226TIP3   OH218641   5.166   2.673   5.660  0.2494 -0.4897 -0.3802
 6226TIP3    H118642   5.257   2.693   5.682 -0.0445 -1.6423  2.1294
 6226TIP3    H218643   5.133   2.621   5.733 -2.5403  0.1282 -1.0477
 6227TIP3   OH218644   6.429   0.830   2.342  0.0380 -0.2269 -0.1108
 6227TIP3    H118645   6.443   0.778   2.263  0.0090 -0.7823  0.2505
 6227TIP3    H218646   6.461   0.918   2.318 -0.2493 -0.3099 -0.8358
 6228TIP3   OH218647   4.929   4.906   2.102  0.2615  0.1682 -1.2962
 6228TIP3    H118648   4.962   4.863   2.181 -1.6008 -0.9175 -1.0377
 6228TIP3    H218649   5.007   4.935   2.056  1.4542  2.6799  1.8763
 6229TIP3   OH218650   1.880   4.051   0.261  0.1277 -0.2337  0.6185
 6229TIP3    H118651   1.841   4.086   0.341  0.2667 -2.0310  1.5373
 6229TIP3    H218652   1.935   3.979   0.291  2.4524  0.8115 -0.8610
 6230TIP3   OH218653   4.931   3.857   2.531  0.7852  0.1591  0.5147
 6230TIP3    H118654   4.944   3.890   2.620 -2.9493 -0.5951  1.5128
 6230TIP3    H218655   4.939   3.762   2.539  0.1797  0.0683  0.1502
 6231TIP3   OH218656   7.119   4.566   0.318  0.0452  0.3907  0.2637
 6231TIP3    H118657   7.121   4.496   0.384 -0.5199  1.2929  1.2650
 6231TIP3    H218658   7.155   4.525   0.239  2.0846 -0.3449  1.4791
 6232TIP3   OH218659   6.339   4.158   3.520 -0.0054  0.2930  0.3969
 6232TIP3    H118660   6.292   4.219   3.577  0.9445  0.4348  1.0473
 6232TIP3    H218661   6.423   4.145   3.563  0.4365 -0.2014 -0.5863
 6233TIP3   OH218662   5.094   0.702   1.354 -0.4801 -0.3138  0.2689
 6233TIP3    H118663   5.164   0.730   1.295 -1.9960  2.1336 -0.4979
 6233TIP3    H218664   5.092   0.769   1.422 -1.4465 -0.8835  0.8198
 6234TIP3   OH218665   5.181   0.967   0.768 -0.2607 -0.3691 -1.3641
 6234TIP3    H118666   5.118   0.965   0.696 -1.0528 -1.0809 -0.6819
 6234TIP3    H218667   5.129   0.944   0.846  0.6141  0.1739 -0.6020
 6235TIP3   OH218668   4.028   4.085   5.825 -0.3830  0.3073 -0.0084
 6235TIP3    H118669   4.022   4.147   5.898  1.5958 -0.3369  0.7640
 6235TIP3    H218670   3.987   4.005   5.858  0.2654  0.1039  0.3287
 6236TIP3   OH218671   4.808   1.257   5.053  0.0141 -0.6494  0.3052
 6236TIP3    H118672   4.754   1.273   5.131 -0.0150  1.1969 -0.0372
 6236TIP3    H218673   4.856   1.177   5.073 -3.0335 -2.5780  0.5040
 6237TIP3   OH218674   7.084   0.377   3.915  0.4176  0.0901  0.1632
 6237TIP3    H118675   6.992   0.350   3.905  0.3762 -0.5161  1.8635
 6237TIP3    H218676   7.085   0.428   3.995  1.7991 -1.0542  0.9143
 6238TIP3   OH218677   2.337   2.190   4.249 -0.2815  0.1183  0.0549
 6238TIP3    H118678   2.320   2.260   4.312  0.9364  2.1830 -1.7535
 6238TIP3    H218679   2.423   2.156   4.273  0.5271  1.4252 -0.8573
 6239TIP3   OH218680   1.413   2.001   0.770  0.0395 -0.0800  0.2231
 6239TIP3    H118681   1.363   2.078   0.795  1.3543  0.6023  0.8741
 6239TIP3    H218682   1.349   1.941   0.731 -0.7691  1.9742 -1.8181
 6240TIP3   OH218683   3.111   3.091   5.392  0.0716  0.4217  0.4193
 6240TIP3    H118684   3.022   3.055   5.391 -0.0954  0.8406 -0.2332
 6240TIP3    H218685   3.142   3.082   5.302  0.6235  0.4440  0.6040
 6241TIP3   OH218686   0.210   0.634   1.730 -0.9565 -0.0369  0.5507
 6241TIP3    H118687   0.124   0.666   1.703 -0.6814 -0.2065 -0.5799
 6241TIP3    H218688   0.265   0.643   1.652 -0.2118 -0.9005  0.9511
 6242TIP3   OH218689   6.402   5.342   3.435 -0.8187  0.3420 -0.5500
 6242TIP3    H118690   6.335   5.307   3.376 -1.6439  0.6967  0.1517
 6242TIP3    H218691   6.352   5.383   3.506  0.1522  0.1273  0.2751
 6243TIP3   OH218692   1.024   2.609   0.753 -0.1138  0.2578  0.9039
 6243TIP3    H118693   1.009   2.653   0.670  2.6251 -1.8462 -0.8972
 6243TIP3    H218694   1.099   2.654   0.791  0.6724 -0.7769  0.6142
 6244TIP3   OH218695   3.021   2.714   4.463  0.3567  0.0107 -0.0694
 6244TIP3    H118696   3.074   2.792   4.482  0.5395 -0.0949 -0.1476
 6244TIP3    H218697   3.078   2.640   4.483  0.5335 -0.1027 -0.9526
 6245TIP3   OH218698   5.437   3.402   1.477 -0.0907 -0.6398  0.2308
 6245TIP3    H118699   5.530   3.423   1.476  0.5661 -3.1487  0.8584
 6245TIP3    H218700   5.431   3.318   1.431 -2.1706 -0.1597 -0.4780
 6246TIP3   OH218701   1.901   3.493   0.670 -0.1726  0.7811  0.0784
 6246TIP3    H118702   1.844   3.502   0.593  0.2014  1.1082 -0.1652
 6246TIP3    H218703   1.896   3.578   0.713 -1.4390  0.1862  1.1757
 6247TIP3   OH218704   3.251   4.654   2.418  0.1758  0.0486 -0.3131
 6247TIP3    H118705   3.243   4.706   2.338  0.6533  0.5607 -0.0287
 6247TIP3    H218706   3.259   4.563   2.387 -3.8952 -0.3639 -0.7936
 6248TIP3   OH218707   6.788   2.570   5.308 -0.1510  0.8072 -0.1723
 6248TIP3    H118708   6.767   2.655   5.347 -0.9449  0.4058  0.3089
 6248TIP3    H218709   6.866   2.586   5.256  0.6453  1.4805  1.1749
 6249TIP3   OH218710   4.341   5.775   3.676  0.1600  0.6753 -0.6866
 6249TIP3    H118711   4.249   5.788   3.654  0.2103  1.3187 -0.5502
 6249TIP3    H218712   4.361   5.686   3.647 -0.9308 -0.0710  0.7545
 6250TIP3   OH218713   6.097   3.778   0.584 -0.0836 -0.3987  0.3647
 6250TIP3    H118714   6.094   3.734   0.670  4.1736 -0.2024  0.8543
 6250TIP3    H218715   6.091   3.871   0.605  1.5053 -0.3182  0.6164
 6251TIP3   OH218716   2.661   2.347   2.084 -0.0887 -0.2417 -0.2561
 6251TIP3    H118717   2.639   2.372   1.994 -0.0775  1.0930  0.1005
 6251TIP3    H218718   2.627   2.258   2.093 -1.3272  0.1192 -1.1362
 6252TIP3   OH218719   3.291   1.103   2.978 -0.2680  0.4991 -0.5527
 6252TIP3    H118720   3.313   1.193   3.002 -1.3104  0.7879 -0.6295
 6252TIP3    H218721   3.304   1.053   3.059 -2.5143  1.2479  0.3511
 6253TIP3   OH218722   3.872   1.983   0.621 -0.0902 -0.1597 -0.4483
 6253TIP3    H118723   3.820   1.915   0.664  1.4903 -0.9248  0.3366
 6253TIP3    H218724   3.886   1.951   0.532 -0.7615 -0.0499 -0.5968
 6254TIP3   OH218725   1.767   1.136   4.156 -0.4020 -0.1418 -0.5303
 6254TIP3    H118726   1.859   1.120   4.134 -0.4043 -0.8581 -0.0546
 6254TIP3    H218727   1.739   1.057   4.203 -0.6359  0.9531  1.2823
 6255TIP3   OH218728   1.860   1.013   3.390 -0.3295  0.5424 -0.4596
 6255TIP3    H118729   1.916   0.989   3.316  0.6180  1.0315  0.0895
 6255TIP3    H218730   1.916   1.064   3.448 -0.8160 -0.5311  1.0183
 6256TIP3   OH218731   2.690   0.187   3.917 -0.0569 -0.1394 -0.5997
 6256TIP3    H118732   2.693   0.216   4.009 -1.8792 -0.8362 -0.2854
 6256TIP3    H218733   2.704   0.267   3.867 -2.5496  0.9588  0.2755
 6257TIP3   OH218734   5.719   0.144   0.856  0.5148 -0.0081 -0.1031
 6257TIP3    H118735   5.781   0.160   0.785  1.2735 -1.2852  0.2438
 6257TIP3    H218736   5.711   0.049   0.860 -0.7457  0.1071  0.4899
 6258TIP3   OH218737   2.536   0.352   4.947 -0.7992 -0.0806 -0.0272
 6258TIP3    H118738   2.565   0.418   4.884  0.1594 -0.5737 -0.1101
 6258TIP3    H218739   2.512   0.403   5.025  0.0137  0.3658 -0.0569
 6259TIP3   OH218740   6.061   1.990   5.489 -0.1431 -0.4445 -0.2441
 6259TIP3    H118741   6.047   1.927   5.418 -0.2526 -2.1800  1.2615
 6259TIP3    H218742   6.005   1.960   5.560 -1.6180  2.4454 -0.0520
 6260TIP3   OH218743   2.113   6.443   2.908  0.1654  0.2181 -0.0148
 6260TIP3    H118744   2.021   6.436   2.936 -1.0143  0.6995 -3.2914
 6260TIP3    H218745   2.157   6.371   2.952 -2.2255 -1.2124  0.2192
 6261TIP3   OH218746   1.536   2.061   4.099 -0.1912  0.6951 -0.4642
 6261TIP3    H118747   1.457   2.016   4.128  0.6622 -0.8225 -0.4228
 6261TIP3    H218748   1.542   2.137   4.157 -0.5669 -0.2281  0.8445
 6262TIP3   OH218749   2.225   3.288   3.336  0.0829  0.3925 -0.6152
 6262TIP3    H118750   2.205   3.307   3.245  0.2975 -1.4950 -1.0900
 6262TIP3    H218751   2.180   3.206   3.354  1.3093 -0.0660  0.5121
 6263TIP3   OH218752   1.355   6.715   3.915 -0.3626  0.9292 -0.1071
 6263TIP3    H118753   1.323   6.687   3.829 -0.0497 -0.2805  0.1453
 6263TIP3    H218754   1.295   6.674   3.977  0.4667  0.2989  0.2976
 6264TIP3   OH218755   5.833   5.033   4.692 -0.4930  0.5790  0.0600
 6264TIP3    H118756   5.829   5.128   4.705  2.3499  0.8652 -0.5885
 6264TIP3    H218757   5.890   5.001   4.761 -1.4924 -0.7019  0.3220
 6265TIP3   OH218758   2.696   2.734   2.027  0.4785  0.5110  0.4408
 6265TIP3    H118759   2.754   2.765   1.957  1.2925  0.0038  0.8680
 6265TIP3    H218760   2.742   2.658   2.064  0.4215  1.1798  1.9763
 6266TIP3   OH218761   2.029   1.427   1.738 -0.1555 -0.3330  0.9961
 6266TIP3    H118762   2.113   1.472   1.729 -0.6673  0.6016  0.7789
 6266TIP3    H218763   1.974   1.488   1.787 -1.6712  0.4297 -1.4684
 6267TIP3   OH218764   4.080   1.548   2.531 -0.2110  0.1676  0.3439
 6267TIP3    H118765   4.122   1.626   2.568 -2.4719  2.1011 -0.7913
 6267TIP3    H218766   3.987   1.571   2.529 -0.8136 -2.0881 -1.2339
 6268TIP3   OH218767   3.377   6.557   3.892  0.3810  0.4467  0.0281
 6268TIP3    H118768   3.360   6.533   3.800 -2.4201  1.1260  0.3000
 6268TIP3    H218769   3.357   6.477   3.941 -0.4416  0.7551  0.2118
 6269TIP3   OH218770   1.805   1.829   1.555  0.0596  0.0277  0.1501
 6269TIP3    H118771   1.879   1.886   1.532 -0.5297  1.0747  0.7644
 6269TIP3    H218772   1.732   1.863   1.504 -0.5293  0.4549  1.2429
 6270TIP3   OH218773   6.145   5.266   3.245  0.0748  0.2210 -0.1959
 6270TIP3    H118774   6.122   5.342   3.299 -0.0248 -0.0611  0.1651
 6270TIP3    H218775   6.075   5.202   3.264  0.7276 -0.3585  0.3207
 6271TIP3   OH218776   4.031   4.239   2.153 -0.2414  0.2309  0.1387
 6271TIP3    H118777   4.010   4.172   2.087 -0.4607  1.2724 -0.8811
 6271TIP3    H218778   4.069   4.189   2.226 -1.4975 -1.1380 -0.0889
 6272TIP3   OH218779   6.135   1.498   2.149 -0.2933  0.2790 -0.0886
 6272TIP3    H118780   6.080   1.533   2.219  0.1047  0.3771  0.1782
 6272TIP3    H218781   6.163   1.575   2.099 -0.1714  0.2551 -0.0570
 6273TIP3   OH218782   5.017   1.174   2.556  0.2061 -0.2973  1.0067
 6273TIP3    H118783   5.033   1.106   2.491  0.8278 -0.6432  1.5109
 6273TIP3    H218784   5.096   1.228   2.556 -0.5247  0.8188  0.1702
 6274TIP3   OH218785   5.170   6.050   4.405 -0.1711 -0.3170  0.4636
 6274TIP3    H118786   5.083   6.069   4.438 -0.4949 -0.8547 -0.0566
 6274TIP3    H218787   5.221   6.026   4.483 -0.7860 -1.0740  0.6478
 6275TIP3   OH218788   3.424   6.242   5.686 -0.1576 -0.2299 -0.0655
 6275TIP3    H118789   3.453   6.310   5.625  1.5049 -0.7807  0.0749
 6275TIP3    H218790   3.336   6.219   5.656  0.1506  0.3706 -1.5159
 6276TIP3   OH218791   3.781   6.449   5.581  0.1929  0.0549 -0.6784
 6276TIP3    H118792   3.722   6.385   5.542  0.5893 -0.8344  0.1491
 6276TIP3    H218793   3.796   6.514   5.512 -0.5095 -0.5449 -1.4015
 6277TIP3   OH218794   4.746   5.138   4.129 -0.5137 -1.0675 -0.3053
 6277TIP3    H118795   4.787   5.220   4.102  0.2160 -1.2996  0.0745
 6277TIP3    H218796   4.796   5.110   4.205 -2.2435 -0.6683  1.0415
 6278TIP3   OH218797   3.661   3.167   0.991 -0.6077  0.5364 -0.3083
 6278TIP3    H118798   3.587   3.124   0.948 -0.8277  2.1214 -1.6279
 6278TIP3    H218799   3.703   3.218   0.922 -0.6456  2.7829  1.1955
 6279TIP3   OH218800   4.823   1.277   2.680  0.4852 -0.5335 -0.5725
 6279TIP3    H118801   4.879   1.251   2.607  0.7940 -3.1363  0.4995
 6279TIP3    H218802   4.883   1.314   2.745  0.6658 -1.2900 -0.3080
 6280TIP3   OH218803   4.489   5.745   0.539  0.3772 -0.5594  0.0166
 6280TIP3    H118804   4.497   5.752   0.634 -0.0323  1.0842 -0.0360
 6280TIP3    H218805   4.571   5.780   0.505  0.3510 -0.7385 -0.2282
 6281TIP3   OH218806   3.575   3.390   2.796  0.4194 -0.3222 -0.4682
 6281TIP3    H118807   3.576   3.486   2.795  0.1818 -0.2738  1.1083
 6281TIP3    H218808   3.655   3.365   2.750  0.7850  0.6392 -0.3885
 6282TIP3   OH218809   5.337   3.773   2.666 -0.2242 -0.6275  0.8043
 6282TIP3    H118810   5.271   3.812   2.722  1.1957  0.8157  1.5540
 6282TIP3    H218811   5.357   3.689   2.707 -1.0038 -0.7125  1.0195
 6283TIP3   OH218812   5.067   5.547   0.781 -0.1737  0.2892  0.1428
 6283TIP3    H118813   5.054   5.486   0.709  0.6794 -0.1555  0.3524
 6283TIP3    H218814   5.105   5.625   0.740 -0.8127  0.4944 -0.0579
 6284TIP3   OH218815   0.725   3.508   3.200 -0.5238  0.9246  0.2526
 6284TIP3    H118816   0.743   3.583   3.142 -1.7436  0.8518 -0.2408
 6284TIP3    H218817   0.666   3.543   3.266 -0.3090  0.6394  0.5947
 6285TIP3   OH218818   3.532   3.963   4.212 -0.0656  0.4010 -0.4040
 6285TIP3    H118819   3.572   3.900   4.272 -1.9815 -0.9454 -0.4406
 6285TIP3    H218820   3.529   3.917   4.128 -0.4854  0.9848 -0.7146
 6286TIP3   OH218821   2.292   0.784   0.135  0.0531  0.2944 -0.3842
 6286TIP3    H118822   2.291   0.876   0.111 -0.1795  0.8046  1.4564
 6286TIP3    H218823   2.341   0.741   0.064  0.9507  1.9468 -0.8016
 6287TIP3   OH218824   1.551   6.083   4.731  0.5939 -0.1022  0.3122
 6287TIP3    H118825   1.559   6.164   4.681  1.8545  0.2064  0.9573
 6287TIP3    H218826   1.485   6.102   4.798  0.1581  0.0513 -0.1579
 6288TIP3   OH218827   2.456   0.983   2.695 -0.1920 -0.0014 -0.2466
 6288TIP3    H118828   2.482   0.937   2.615  0.7680  1.2690 -0.7101
 6288TIP3    H218829   2.368   1.017   2.677 -0.2072 -0.2012 -0.5426
 6289TIP3   OH218830   4.422   1.979   4.840  0.4737  0.2753  0.4765
 6289TIP3    H118831   4.362   1.969   4.913 -1.0179  0.6352 -0.6544
 6289TIP3    H218832   4.371   1.956   4.762  1.9358  0.1195 -0.4924
 6290TIP3   OH218833   3.459   2.971   3.941 -0.3170  0.5146  0.3555
 6290TIP3    H118834   3.471   2.911   3.868 -1.6250  1.5095 -0.7180
 6290TIP3    H218835   3.414   3.047   3.903 -2.4808  0.4115  2.4481
 6291TIP3   OH218836   1.088   6.179   4.362 -0.1533 -0.8888  0.0216
 6291TIP3    H118837   1.082   6.089   4.330  0.8867 -0.7019 -0.7751
 6291TIP3    H218838   1.111   6.230   4.285 -1.9047  0.2686  0.2146
 6292TIP3   OH218839   0.685   0.390   1.920 -0.4258  0.1484  0.3268
 6292TIP3    H118840   0.596   0.422   1.909  0.9600  4.2039 -0.9617
 6292TIP3    H218841   0.705   0.346   1.838 -0.6492  1.0725 -0.2435
 6293TIP3   OH218842   1.457   0.254   0.751 -0.1321 -0.3797  0.2234
 6293TIP3    H118843   1.408   0.241   0.832  0.8968  0.3030  0.9838
 6293TIP3    H218844   1.399   0.306   0.696 -0.4683  0.0089  0.9252
 6294TIP3   OH218845   4.316   1.007   5.471 -0.2216 -0.4217 -0.6222
 6294TIP3    H118846   4.227   0.999   5.436  0.4531  0.1349 -2.6091
 6294TIP3    H218847   4.303   1.028   5.564 -2.1578 -0.4887 -0.8311
 6295TIP3   OH218848   0.961   4.842   0.183 -0.7887 -0.6953 -0.3062
 6295TIP3    H118849   0.993   4.871   0.269 -0.9735 -1.1675 -0.0746
 6295TIP3    H218850   0.866   4.835   0.194 -1.0173  0.9139 -1.0542
 6296TIP3   OH218851   1.765   0.120   1.200 -0.3236  0.0939 -0.0528
 6296TIP3    H118852   1.819   0.165   1.134  0.2999  0.4313  0.6647
 6296TIP3    H218853   1.675   0.136   1.173 -0.0904  1.0978 -0.2645
 6297TIP3   OH218854   3.289   4.321   0.295 -0.2829 -0.2971 -0.2436
 6297TIP3    H118855   3.373   4.322   0.249 -0.4337  0.2992 -0.5211
 6297TIP3    H218856   3.263   4.413   0.298 -2.3662 -0.6788 -2.8473
 6298TIP3   OH218857   4.374   5.706   1.287  0.2675 -0.1096 -0.8720
 6298TIP3    H118858   4.353   5.763   1.362 -1.2849 -0.0371 -1.3284
 6298TIP3    H218859   4.340   5.621   1.312 -3.5599  0.6242 -2.7973
 6299TIP3   OH218860   2.726   4.047   3.564 -0.3496 -0.5307  0.4121
 6299TIP3    H118861   2.686   4.134   3.569  0.9213  0.0266  1.4992
 6299TIP3    H218862   2.688   4.000   3.638 -0.2748 -0.5717  0.4238
 6300TIP3   OH218863   1.070   0.344   2.530  0.0885 -0.1057  0.1055
 6300TIP3    H118864   1.132   0.278   2.500  1.0388  1.0011 -0.4922
 6300TIP3    H218865   1.118   0.396   2.594 -0.4613  0.3042  0.2016
 6301TIP3   OH218866   1.799   2.711   1.810 -0.0533 -0.4769 -0.2457
 6301TIP3    H118867   1.780   2.698   1.903  0.4098 -1.8134 -0.3217
 6301TIP3    H218868   1.730   2.663   1.765  0.6077 -1.1189 -0.5731
 6302TIP3   OH218869   4.183   0.586   3.708  0.3605 -0.0813 -0.4746
 6302TIP3    H118870   4.115   0.555   3.767  0.8156 -1.3186 -0.5706
 6302TIP3    H218871   4.253   0.618   3.766  1.3966 -2.5477 -0.2317
 6303TIP3   OH218872   1.402   5.601   0.981  0.6381  0.1491  0.1640
 6303TIP3    H118873   1.435   5.512   0.970  0.8767  0.4011 -1.3961
 6303TIP3    H218874   1.395   5.635   0.891  1.0359  1.8715  0.7535
 6304TIP3   OH218875   4.034   3.543   2.119  0.3393  0.0592 -0.0886
 6304TIP3    H118876   4.096   3.605   2.080 -1.1415  0.2123 -2.3929
 6304TIP3    H218877   3.949   3.587   2.112 -0.7967 -2.2295 -2.0282
 6305TIP3   OH218878   0.508   0.191   4.276  0.0865  0.2271 -0.0520
 6305TIP3    H118879   0.454   0.121   4.314  0.9691 -0.0665  0.7079
 6305TIP3    H218880   0.450   0.266   4.270 -0.6010 -0.2862  0.0810
 6306TIP3   OH218881   6.094   6.757   4.015 -0.0679  0.1639  0.6307
 6306TIP3    H118882   6.047   6.829   3.973  0.8952  0.9143  0.8084
 6306TIP3    H218883   6.035   6.728   4.084 -0.2115  1.1997  0.9635
 6307TIP3   OH218884   0.747   6.175   5.605 -0.8426 -0.2489 -0.3673
 6307TIP3    H118885   0.740   6.258   5.559  0.2224 -0.7789 -1.5474
 6307TIP3    H218886   0.773   6.199   5.695 -0.2748  0.6854 -0.7660
 6308TIP3   OH218887   0.681   4.371   4.343 -0.6498 -0.1484  0.0553
 6308TIP3    H118888   0.707   4.313   4.271  0.9016  0.7444 -0.1410
 6308TIP3    H218889   0.659   4.453   4.300  0.5339  0.4710  0.5906
 6309TIP3   OH218890   1.952   1.909   2.488 -0.2538 -0.3261 -0.1750
 6309TIP3    H118891   1.884   1.974   2.474 -2.3120 -1.8669  1.7565
 6309TIP3    H218892   1.996   1.899   2.403 -0.5219  2.7394 -0.7567
 6310TIP3   OH218893   5.768   1.354   1.535  0.3455  0.1261  0.2006
 6310TIP3    H118894   5.770   1.281   1.473 -1.3449 -0.0101  0.2390
 6310TIP3    H218895   5.775   1.312   1.621 -1.0021 -0.0732  0.2421
 6311TIP3   OH218896   0.330   0.433   2.132  0.2345 -0.6431  0.5079
 6311TIP3    H118897   0.306   0.522   2.158 -2.0106 -0.9096 -0.4680
 6311TIP3    H218898   0.381   0.446   2.051  0.2315 -0.2355  0.5672
 6312TIP3   OH218899   3.350   3.298   4.506  0.1672 -0.0131 -0.1619
 6312TIP3    H118900   3.271   3.310   4.454  0.5429  0.0845 -0.7176
 6312TIP3    H218901   3.318   3.269   4.592 -0.4030 -1.1616 -0.7414
 6313TIP3   OH218902   6.561   0.775   3.247 -0.3524  0.3048  0.1212
 6313TIP3    H118903   6.627   0.752   3.182 -1.1894  0.0885 -0.6672
 6313TIP3    H218904   6.605   0.838   3.305  0.6177 -0.0410 -0.2313
 6314TIP3   OH218905   2.190   1.743   5.353  0.4717  0.3175  0.1883
 6314TIP3    H118906   2.125   1.806   5.322 -0.8116 -0.7492  0.6047
 6314TIP3    H218907   2.252   1.734   5.281 -0.9913 -0.1527 -1.0726
 6315TIP3   OH218908   3.737   6.183   2.054  0.4723 -0.4625  0.4609
 6315TIP3    H118909   3.760   6.248   2.121 -0.3351  0.0735  0.2408
 6315TIP3    H218910   3.706   6.107   2.104  1.2124 -0.5973  0.7169
 6316TIP3   OH218911   1.578   2.118   2.636  0.0713 -0.1871 -0.0418
 6316TIP3    H118912   1.639   2.119   2.563  0.2368 -0.4660  0.0933
 6316TIP3    H218913   1.517   2.190   2.617  1.7815  1.6371  0.9725
 6317TIP3   OH218914   1.640   1.279   5.332 -0.0801  0.3716  0.0783
 6317TIP3    H118915   1.721   1.265   5.283 -1.1084 -2.2606 -1.0740
 6317TIP3    H218916   1.573   1.293   5.265 -0.7300  1.7388  0.9724
 6318TIP3   OH218917   6.712   4.532   5.526  0.0755  0.1787  0.1682
 6318TIP3    H118918   6.660   4.610   5.547 -2.5767 -1.1304 -1.1664
 6318TIP3    H218919   6.783   4.566   5.472 -0.6071  1.7605  0.1943
 6319TIP3   OH218920   3.042   4.817   1.311  0.5206 -0.2921 -0.0154
 6319TIP3    H118921   3.063   4.725   1.323  0.7700 -0.4775 -1.6286
 6319TIP3    H218922   3.088   4.862   1.382 -0.4016 -1.4701  1.3917
 6320TIP3   OH218923   6.648   1.558   5.226 -0.2839  0.6003 -0.0259
 6320TIP3    H118924   6.673   1.468   5.247 -0.7858  0.5039  0.1864
 6320TIP3    H218925   6.729   1.601   5.199 -0.3540 -0.4725 -2.1450
 6321TIP3   OH218926   2.937   0.318   2.590 -0.2118 -0.3015 -0.0811
 6321TIP3    H118927   3.024   0.341   2.558 -0.1135 -1.6646 -0.8867
 6321TIP3    H218928   2.952   0.238   2.642 -0.8189  0.1361  0.7861
 6322TIP3   OH218929   3.174   2.334   0.253 -0.6622 -0.6336 -0.0125
 6322TIP3    H118930   3.112   2.328   0.325 -1.9096 -0.1792 -1.0098
 6322TIP3    H218931   3.135   2.279   0.184 -0.3139  0.2151 -0.8960
 6323TIP3   OH218932   6.698   2.723   4.933  0.3366 -0.4834 -0.1280
 6323TIP3    H118933   6.688   2.813   4.902 -0.8339 -0.8861 -1.0337
 6323TIP3    H218934   6.646   2.719   5.013 -0.4578 -0.5939 -0.6365
 6324TIP3   OH218935   4.157   2.491   3.644 -0.1659  0.7582 -0.2593
 6324TIP3    H118936   4.091   2.423   3.628  2.8753 -2.6182  0.3587
 6324TIP3    H218937   4.131   2.530   3.727 -1.6177 -0.1221 -0.2642
 6325TIP3   OH218938   6.607   2.628   3.409  0.4859 -0.4167  0.4946
 6325TIP3    H118939   6.666   2.677   3.353 -1.2944  1.7176  0.3535
 6325TIP3    H218940   6.542   2.591   3.348  0.4959 -0.9989  0.8297
 6326TIP3   OH218941   0.113   3.612   2.709 -0.8595 -0.5368  0.1051
 6326TIP3    H118942   0.135   3.694   2.755 -0.4566 -0.8680  0.5082
 6326TIP3    H218943   0.101   3.639   2.618  0.1843 -0.1762  0.0670
 6327TIP3   OH218944   6.197   3.319   2.362  0.3194  0.0679 -0.1017
 6327TIP3    H118945   6.269   3.288   2.306  0.2427 -1.0445  0.3930
 6327TIP3    H218946   6.174   3.405   2.326 -0.5354 -1.0867 -2.5744
 6328TIP3   OH218947   2.575   5.950   4.394  0.4983  0.1533  0.2010
 6328TIP3    H118948   2.568   5.855   4.399 -1.2362  0.2856  1.5434
 6328TIP3    H218949   2.492   5.982   4.432  0.8392  2.1872 -0.6258
 6329TIP3   OH218950   6.199   0.976   2.405 -0.0266  0.5767  0.3049
 6329TIP3    H118951   6.137   1.003   2.337  0.0120 -1.6783 -0.7288
 6329TIP3    H218952   6.273   0.938   2.357  1.9002  2.5185  1.5309
 6330TIP3   OH218953   0.966   5.655   0.696 -0.0638  0.7544 -0.3258
 6330TIP3    H118954   0.946   5.706   0.617 -1.6300  1.1471  0.2748
 6330TIP3    H218955   1.011   5.716   0.754 -2.9318  1.9370  0.8488
 6331TIP3   OH218956   0.906   4.135   5.809 -0.7117 -0.2135  0.9364
 6331TIP3    H118957   0.990   4.123   5.853 -0.3639  0.1711  0.3885
 6331TIP3    H218958   0.900   4.063   5.747  0.1768  0.8956 -0.4925
 6332TIP3   OH218959   1.411   3.323   5.728  0.4137  0.7433 -0.7979
 6332TIP3    H118960   1.367   3.408   5.734  0.7201  1.0745 -2.6732
 6332TIP3    H218961   1.502   3.344   5.708  0.6486 -0.0232 -0.5855
 6333TIP3   OH218962   6.124   4.708   0.945  0.6658  0.3388  0.0950
 6333TIP3    H118963   6.058   4.702   0.876  1.2927 -0.5558 -0.4602
 6333TIP3    H218964   6.169   4.791   0.928 -0.8650  1.4000  1.0212
 6334TIP3   OH218965   4.437   3.112   2.193  0.1098  0.3793 -0.3565
 6334TIP3    H118966   4.530   3.119   2.217 -0.2056  1.4199  0.6714
 6334TIP3    H218967   4.438   3.094   2.099  1.3538 -0.0706 -0.2824
 6335TIP3   OH218968   3.159   3.548   0.096  0.0047 -0.0885 -0.5961
 6335TIP3    H118969   3.115   3.464   0.087 -0.6009  0.2220 -0.5842
 6335TIP3    H218970   3.177   3.556   0.190 -0.0625 -0.1417 -0.5788
 6336TIP3   OH218971   0.750   2.049   0.576 -0.5658 -0.2816 -0.2122
 6336TIP3    H118972   0.770   2.052   0.670  1.4076 -1.4893 -0.5351
 6336TIP3    H218973   0.691   1.974   0.567 -0.2658 -0.5469 -0.0041
 6337TIP3   OH218974   2.496   4.143   5.416  0.4962 -0.4435  0.3068
 6337TIP3    H118975   2.555   4.219   5.416  0.8443 -0.5620  3.6402
 6337TIP3    H218976   2.489   4.119   5.324  1.0168  3.1145 -0.8405
 6338TIP3   OH218977   0.425   2.201   5.866 -0.0030  0.0057 -0.5348
 6338TIP3    H118978   0.452   2.139   5.798  0.1943 -0.7927  0.2550
 6338TIP3    H218979   0.450   2.287   5.832 -0.6228 -0.2994 -1.8144
 6339TIP3   OH218980   5.041   4.477   3.012 -0.4545 -0.0538  0.2701
 6339TIP3    H118981   5.112   4.487   3.075  1.0036  1.1271 -1.4823
 6339TIP3    H218982   4.977   4.543   3.036  1.0813  1.8736 -0.6911
 6340TIP3   OH218983   0.654   1.963   3.695  0.4160 -0.7128  0.0018
 6340TIP3    H118984   0.676   2.048   3.735  0.0363 -1.1473  1.1904
 6340TIP3    H218985   0.575   1.935   3.741 -0.8122 -0.6592 -1.9882
 6341TIP3   OH218986   5.746   6.041   2.567 -0.1539  0.3571 -0.4934
 6341TIP3    H118987   5.652   6.042   2.580 -0.1753 -0.8233 -0.4236
 6341TIP3    H218988   5.779   5.982   2.636  0.5991  0.5587 -0.6728
 6342TIP3   OH218989   3.001   6.329   3.066 -0.0143 -0.1346  0.8059
 6342TIP3    H118990   2.992   6.256   3.126 -1.1051 -1.1338 -0.5145
 6342TIP3    H218991   3.093   6.354   3.072  0.0529 -0.6679  2.3291
 6343TIP3   OH218992   5.470   3.518   4.848 -0.2691  0.2456 -0.4894
 6343TIP3    H118993   5.456   3.428   4.819 -2.1231 -0.1798  1.4198
 6343TIP3    H218994   5.528   3.510   4.924 -0.7029  0.6168 -0.1122
 6344TIP3   OH218995   0.398   6.247   0.132 -0.0943 -0.2744 -0.3798
 6344TIP3    H118996   0.312   6.219   0.101 -0.5953  0.0542  0.6719
 6344TIP3    H218997   0.444   6.165   0.151 -1.0296 -0.4496  1.2937
 6345TIP3   OH218998   0.248   4.793   2.374 -0.1282 -0.0377 -0.3065
 6345TIP3    H118999   0.287   4.717   2.331 -1.0179  0.1857 -1.5360
 6345TIP3    H219000   0.155   4.771   2.382 -0.2297  0.5414  0.1854
 6346TIP3   OH219001   6.124   5.492   2.353  0.8036  0.5055  0.0920
 6346TIP3    H119002   6.083   5.481   2.267 -0.0103  2.3473  0.1884
 6346TIP3    H219003   6.074   5.433   2.410  0.1398  0.6191 -0.3534
 6347TIP3   OH219004   0.921   3.221   1.086 -0.7014 -0.2757  0.0588
 6347TIP3    H119005   0.878   3.305   1.105 -0.3128  0.3351 -1.6122
 6347TIP3    H219006   1.013   3.244   1.071 -0.7470 -0.8782 -1.2351
 6348TIP3   OH219007   1.212   4.424   4.333  0.0225 -0.1777 -0.1678
 6348TIP3    H119008   1.117   4.414   4.339  0.1335 -2.2898 -1.0773
 6348TIP3    H219009   1.234   4.400   4.243  1.4416  0.2470  0.0243
 6349TIP3   OH219010   0.260   6.561   1.358 -0.1219  0.0195 -0.1040
 6349TIP3    H119011   0.209   6.594   1.284  1.5656  1.3299 -0.7455
 6349TIP3    H219012   0.258   6.632   1.422  2.6373  1.0654 -1.0427
 6350TIP3   OH219013   6.302   3.541   1.799 -0.4898  0.5375  0.4070
 6350TIP3    H119014   6.367   3.532   1.729 -1.5231  2.4684 -0.8934
 6350TIP3    H219015   6.313   3.631   1.831 -1.6625  0.4771  1.0531
 6351TIP3   OH219016   1.371   5.781   4.937 -0.0757 -0.2207  0.4937
 6351TIP3    H119017   1.426   5.740   4.870  1.2358  0.5858  1.0300
 6351TIP3    H219018   1.431   5.801   5.009 -0.9965  1.0340  0.9629
 6352TIP3   OH219019   2.415   6.458   2.099 -0.2478  0.4369 -0.2011
 6352TIP3    H119020   2.345   6.466   2.164 -0.4954  0.7392 -0.4974
 6352TIP3    H219021   2.413   6.542   2.052 -1.1496 -0.3719 -1.6755
 6353TIP3   OH219022   6.038   3.245   5.195  0.2425  0.1017 -0.5594
 6353TIP3    H119023   6.052   3.184   5.267  1.8598 -0.2554 -1.1437
 6353TIP3    H219024   6.001   3.323   5.237  0.4475 -0.3732  0.5310
 6354TIP3   OH219025   2.621   0.730   0.188 -0.7422 -0.5217 -0.1557
 6354TIP3    H119026   2.543   0.752   0.239 -1.1405 -0.6337 -0.7142
 6354TIP3    H219027   2.606   0.770   0.103  0.3095  0.4010  0.0750
 6355TIP3   OH219028   1.622   6.652   4.004  0.1960  0.0074  0.4678
 6355TIP3    H119029   1.622   6.557   4.011  0.7767 -0.0991 -0.8006
 6355TIP3    H219030   1.530   6.677   4.011 -0.1014 -0.7628 -0.5739
 6356TIP3   OH219031   5.121   1.756   1.997  0.5422 -0.1596  0.5449
 6356TIP3    H119032   5.194   1.695   2.007  1.7964  1.5089  2.1845
 6356TIP3    H219033   5.073   1.750   2.079  0.8668  1.2648  0.8626
 6357TIP3   OH219034   4.865   0.924   1.912  0.1284  0.1644 -0.1632
 6357TIP3    H119035   4.785   0.975   1.929  0.2836  0.8448 -1.3672
 6357TIP3    H219036   4.935   0.978   1.949  0.0638 -0.3792  0.7915
 6358TIP3   OH219037   6.905   5.848   3.041  0.3417  0.2372 -0.1537
 6358TIP3    H119038   6.953   5.828   3.122 -0.0555 -1.3014 -0.2609
 6358TIP3    H219039   6.925   5.940   3.023  1.0856  0.3791  1.2521
 6359TIP3   OH219040   5.848   5.610   5.770 -0.6693  0.2368  0.2184
 6359TIP3    H119041   5.835   5.653   5.854 -1.5330 -0.0231  0.2275
 6359TIP3    H219042   5.794   5.531   5.774 -1.7376  0.8466 -1.0305
 6360TIP3   OH219043   5.279   0.018   0.724 -0.1975 -0.2505 -0.7299
 6360TIP3    H119044   5.270   0.075   0.800 -0.3259  0.3498 -1.1962
 6360TIP3    H219045   5.369   0.030   0.695  0.5557 -2.1306  0.6260
 6361TIP3   OH219046   3.806   1.539   2.725  0.1257 -0.1866 -0.0634
 6361TIP3    H119047   3.793   1.634   2.723  1.5066  0.1178  1.9045
 6361TIP3    H219048   3.886   1.527   2.777 -0.3595 -2.4718  0.2678
 6362TIP3   OH219049   4.326   0.757   5.579 -0.1079  0.0174  0.6255
 6362TIP3    H119050   4.383   0.687   5.546 -0.7597 -0.2752  0.1002
 6362TIP3    H219051   4.338   0.828   5.515 -1.2397 -0.4861 -0.1733
 6363TIP3   OH219052   1.710   1.377   1.733  0.0101  0.1097 -0.2520
 6363TIP3    H119053   1.679   1.466   1.716 -0.1598  0.2136  0.5502
 6363TIP3    H219054   1.802   1.377   1.706  0.5653  1.0907  1.4730
 6364TIP3   OH219055   7.085   3.306   3.037  0.0743  0.5401  0.1082
 6364TIP3    H119056   7.041   3.304   3.122 -0.4252 -1.4602 -0.1395
 6364TIP3    H219057   7.178   3.314   3.059 -0.0405 -0.0592  0.8732
 6365TIP3   OH219058   5.699   6.814   1.337 -0.0289 -0.3289 -0.3420
 6365TIP3    H119059   5.711   6.719   1.335 -2.4553 -0.7381  0.9769
 6365TIP3    H219060   5.718   6.839   1.427 -1.0597  0.1470 -0.2408
 6366TIP3   OH219061   0.507   0.386   3.151  0.8522 -0.0135  0.2123
 6366TIP3    H119062   0.491   0.413   3.061 -0.9213  0.4720  0.6399
 6366TIP3    H219063   0.589   0.430   3.175  0.5187  1.1253 -0.6610
 6367TIP3   OH219064   1.004   5.684   3.113  0.1010 -0.1542 -0.2298
 6367TIP3    H119065   1.076   5.633   3.151 -0.8646 -0.3353  1.4187
 6367TIP3    H219066   0.980   5.635   3.034  2.4246  0.4692 -1.4398
 6368TIP3   OH219067   1.195   6.268   2.927 -0.3918 -0.2991  0.2692
 6368TIP3    H119068   1.285   6.301   2.926 -0.9906  1.7037  2.6075
 6368TIP3    H219069   1.193   6.202   2.858  3.4772 -2.1064  1.5868
 6369TIP3   OH219070   2.971   0.753   2.205  0.0732 -0.6357 -0.5103
 6369TIP3    H119071   2.933   0.678   2.250 -2.1869 -0.1360 -1.4366
 6369TIP3    H219072   2.949   0.738   2.112 -0.3204  1.0865 -0.7187
 6370TIP3   OH219073   5.573   5.318   1.463  0.3721 -0.1597 -0.4963
 6370TIP3    H119074   5.652   5.267   1.482  0.9613  0.0323 -2.3033
 6370TIP3    H219075   5.603   5.391   1.410 -0.7813  0.9526  0.3053
 6371TIP3   OH219076   6.324   1.012   3.228 -0.0256  0.3361 -0.4456
 6371TIP3    H119077   6.339   1.106   3.227  0.2363  0.2941 -1.8358
 6371TIP3    H219078   6.411   0.973   3.219 -0.0238 -0.0740  1.0945
 6372TIP3   OH219079   4.845   4.334   4.850 -0.1839  0.5511  0.2273
 6372TIP3    H119080   4.908   4.341   4.777  0.5774  1.1270  0.9230
 6372TIP3    H219081   4.762   4.363   4.813 -0.3148 -1.2468 -1.0202
 6373TIP3   OH219082   5.656   1.879   0.898 -0.8334 -0.7546  0.5349
 6373TIP3    H119083   5.660   1.962   0.946 -1.9953  0.1103 -0.7532
 6373TIP3    H219084   5.588   1.829   0.943 -0.8128 -0.6043  0.7346
 6374TIP3   OH219085   4.136   6.040   3.322 -0.2530  0.5673 -0.2223
 6374TIP3    H119086   4.082   6.084   3.387  0.4162  0.9386  0.0900
 6374TIP3    H219087   4.214   6.095   3.313 -0.2814  0.4703 -1.2554
 6375TIP3   OH219088   0.796   6.741   1.852 -0.3257 -0.4082  0.3090
 6375TIP3    H119089   0.824   6.651   1.873  0.4274  0.0183  1.2129
 6375TIP3    H219090   0.828   6.755   1.763  3.2720  0.3379  1.5603
 6376TIP3   OH219091   1.073   3.731   1.314  0.0685  0.0688  0.2887
 6376TIP3    H119092   1.017   3.808   1.304  1.1597  0.8092 -0.3406
 6376TIP3    H219093   1.135   3.755   1.383  0.1298 -0.4346  0.4178
 6377TIP3   OH219094   3.493   2.794   5.773  0.2501  0.2648  0.4810
 6377TIP3    H119095   3.564   2.761   5.718  0.3030  0.9807  0.1137
 6377TIP3    H219096   3.509   2.755   5.859  0.6448 -0.1907  0.2047
 6378TIP3   OH219097   6.557   1.249   4.953 -0.4313  0.4160  0.2090
 6378TIP3    H119098   6.504   1.169   4.950  0.8483 -0.5136  1.1396
 6378TIP3    H219099   6.644   1.221   4.927 -0.3622  1.9395 -1.3714
 6379TIP3   OH219100   7.001   2.590   5.138  0.0350 -0.1132  0.0334
 6379TIP3    H119101   7.083   2.626   5.107  0.0665 -0.7630 -0.6767
 6379TIP3    H219102   6.949   2.576   5.058 -1.5553  2.0847  0.5754
 6380TIP3   OH219103   5.417   2.469   5.460  0.4334 -0.1324  0.2234
 6380TIP3    H119104   5.417   2.377   5.434  0.8003 -0.4741  1.3714
 6380TIP3    H219105   5.412   2.467   5.556 -2.0838  1.0794  0.1932
 6381TIP3   OH219106   4.130   1.601   1.452 -0.0797 -0.4929 -0.1125
 6381TIP3    H119107   4.142   1.583   1.545  1.0338  2.1032  0.3267
 6381TIP3    H219108   4.218   1.599   1.415 -0.2888  0.3747 -0.7035
 6382TIP3   OH219109   5.993   1.130   1.473 -0.2570 -0.3588  0.2370
 6382TIP3    H119110   5.945   1.056   1.437  0.9523 -1.4377  0.7764
 6382TIP3    H219111   6.072   1.137   1.419  0.1268 -0.1147  0.8116
 6383TIP3   OH219112   3.337   6.711   4.648 -0.3015 -0.3300 -0.1109
 6383TIP3    H119113   3.367   6.720   4.557  0.0968 -0.1577  0.0363
 6383TIP3    H219114   3.401   6.760   4.699 -0.7429 -0.1020  0.2288
 6384TIP3   OH219115   4.072   5.288   1.236  0.4642 -0.2104 -0.2541
 6384TIP3    H119116   4.035   5.207   1.272  1.1301 -0.5288 -0.2758
 6384TIP3    H219117   4.101   5.264   1.148 -1.2591  0.5914 -1.0768
 6385TIP3   OH219118   0.481   4.502   1.862 -0.3337  0.3671  0.2115
 6385TIP3    H119119   0.571   4.474   1.846 -0.9259 -1.3337 -0.3652
 6385TIP3    H219120   0.478   4.523   1.956  0.5269 -0.1010  0.3498
 6386TIP3   OH219121   4.274   1.619   0.609  0.0948  0.0758  0.0020
 6386TIP3    H119122   4.260   1.526   0.589 -0.4297 -0.1328  1.2484
 6386TIP3    H219123   4.347   1.619   0.670 -1.1458  0.2919  1.5439
 6387TIP3   OH219124   4.078   5.892   4.854 -0.1976  0.7139  0.0676
 6387TIP3    H119125   4.007   5.828   4.858  0.7708 -0.3609  0.5115
 6387TIP3    H219126   4.050   5.963   4.912 -1.1416  0.5599 -0.1787
 6388TIP3   OH219127   1.818   0.586   4.785  0.4850 -0.6301  0.1821
 6388TIP3    H119128   1.871   0.578   4.706  0.2461 -1.9460  0.1435
 6388TIP3    H219129   1.881   0.602   4.855  0.7444 -0.0617 -0.1779
 6389TIP3   OH219130   1.892   6.400   5.796  0.2209 -0.3977  0.1307
 6389TIP3    H119131   1.908   6.352   5.715 -1.1558  0.3565 -0.6104
 6389TIP3    H219132   1.829   6.345   5.844  1.5223 -1.1735  1.0391
 6390TIP3   OH219133   0.865   4.253   3.309 -0.0796 -0.0551  0.5236
 6390TIP3    H119134   0.789   4.274   3.363 -0.7329 -0.4522 -0.2103
 6390TIP3    H219135   0.933   4.314   3.337 -1.5532  2.3578 -0.8108
 6391TIP3   OH219136   2.353   2.816   1.395  0.0557 -0.0532  0.1338
 6391TIP3    H119137   2.399   2.898   1.412 -1.3040  0.7889 -0.1296
 6391TIP3    H219138   2.411   2.748   1.432  1.7433  0.8854 -0.6545
 6392TIP3   OH219139   3.205   5.384   1.779 -0.4792 -0.1975 -0.1372
 6392TIP3    H119140   3.273   5.320   1.800 -0.7709 -0.2653  0.6360
 6392TIP3    H219141   3.223   5.459   1.835  0.7075  1.0227 -2.0542
 6393TIP3   OH219142   6.099   2.350   3.890  0.1329  0.2014 -0.1446
 6393TIP3    H119143   6.078   2.385   3.976  0.4407 -0.1695  0.0838
 6393TIP3    H219144   6.164   2.281   3.907  0.1955  0.1263 -0.6692
 6394TIP3   OH219145   4.798   5.721   5.292 -0.3668  0.3116 -0.8119
 6394TIP3    H119146   4.770   5.804   5.332 -1.9258 -0.9363  0.8270
 6394TIP3    H219147   4.724   5.695   5.238 -0.7507 -0.9796  0.2888
 6395TIP3   OH219148   0.342   0.937   2.637 -0.0282 -0.1055  0.2527
 6395TIP3    H119149   0.349   0.853   2.591  0.3607  0.2867 -0.4296
 6395TIP3    H219150   0.285   0.919   2.711  2.1415 -1.6543  1.6950
 6396TIP3   OH219151   3.169   2.132   1.981 -0.8753 -0.6661 -0.0186
 6396TIP3    H119152   3.104   2.173   2.039 -1.4408 -0.1995 -0.9634
 6396TIP3    H219153   3.201   2.057   2.031  1.1290  1.5489  2.3071
 6397TIP3   OH219154   2.544   6.402   4.026  0.2547  0.3629 -0.0224
 6397TIP3    H119155   2.588   6.318   4.031 -1.0314 -0.3545 -0.2320
 6397TIP3    H219156   2.612   6.464   3.998  0.7361 -1.0170 -2.1006
 6398TIP3   OH219157   4.993   3.620   2.826  0.3279  0.2716  0.2591
 6398TIP3    H119158   4.991   3.715   2.819  0.0282  0.2949  0.6383
 6398TIP3    H219159   4.966   3.589   2.739 -1.4398  0.5457  0.6583
 6399TIP3   OH219160   3.983   5.589   2.766  0.4455  0.0749 -0.3960
 6399TIP3    H119161   3.953   5.554   2.849 -0.0559 -2.8100 -1.6761
 6399TIP3    H219162   3.956   5.681   2.768 -1.2602 -0.3792  1.8252
 6400TIP3   OH219163   3.235   5.402   2.507 -0.6416  0.5368 -0.2728
 6400TIP3    H119164   3.276   5.474   2.458  0.3666  0.0175 -0.2197
 6400TIP3    H219165   3.278   5.323   2.473  1.4445  0.2531  2.6364
 6401TIP3   OH219166   4.184   6.620   2.227  0.1878 -0.5052  0.1072
 6401TIP3    H119167   4.274   6.640   2.254 -0.0551  0.7580  0.0390
 6401TIP3    H219168   4.181   6.524   2.222  1.6600 -0.5482 -0.3323
 6402TIP3   OH219169   3.259   6.066   0.109  0.4211  0.0247  0.1660
 6402TIP3    H119170   3.227   6.013   0.036 -0.5059  1.8404 -0.8205
 6402TIP3    H219171   3.352   6.044   0.116  0.4284 -0.4956 -1.3076
 6403TIP3   OH219172   5.115   3.408   1.245 -0.2113  0.3597 -0.0934
 6403TIP3    H119173   5.050   3.357   1.198  0.1879  0.2234 -0.5021
 6403TIP3    H219174   5.161   3.344   1.299 -1.7146  0.7282  1.7379
 6404TIP3   OH219175   4.420   2.828   4.902  0.0482 -0.8641  0.2427
 6404TIP3    H119176   4.404   2.794   4.990 -1.8479  0.0949  0.3303
 6404TIP3    H219177   4.421   2.751   4.846 -1.9923 -1.2826  0.7132
 6405TIP3   OH219178   3.465   4.409   2.686  0.0641  0.9582 -0.4467
 6405TIP3    H119179   3.401   4.465   2.730 -0.7239 -0.9428  0.9368
 6405TIP3    H219180   3.535   4.397   2.750 -1.3844 -2.3397  0.7349
 6406TIP3   OH219181   4.135   2.384   2.358  0.2084  0.0157  0.4956
 6406TIP3    H119182   4.110   2.345   2.275  1.2372 -1.4611  0.8468
 6406TIP3    H219183   4.058   2.373   2.414 -2.5631  5.4646 -1.4932
 6407TIP3   OH219184   6.904   5.938   0.941  0.5999  0.0287 -0.1022
 6407TIP3    H119185   6.979   5.911   0.888  1.4024  0.2295  0.8971
 6407TIP3    H219186   6.847   5.984   0.880  2.6429  2.4601 -0.3243
 6408TIP3   OH219187   3.157   3.489   2.116 -0.1226 -0.4947 -0.5557
 6408TIP3    H119188   3.083   3.524   2.165  0.7682 -0.1472  0.6018
 6408TIP3    H219189   3.218   3.562   2.111  0.2688 -0.8613 -1.2259
 6409TIP3   OH219190   7.022   1.947   4.386 -0.0295  0.3185  0.0528
 6409TIP3    H119191   7.097   1.918   4.439 -0.5594  0.0537  0.6712
 6409TIP3    H219192   7.048   1.928   4.296 -0.0433 -1.4139  0.3802
 6410TIP3   OH219193   4.496   4.045   3.384 -0.2518 -0.3944 -0.3477
 6410TIP3    H119194   4.566   4.072   3.325  0.2817 -0.8903  0.0393
 6410TIP3    H219195   4.493   4.113   3.451  2.2799 -2.0294  1.6158
 6411TIP3   OH219196   1.623   4.730   0.781 -0.4165  1.1116  0.6099
 6411TIP3    H119197   1.601   4.703   0.870 -2.5860  1.1147  0.1371
 6411TIP3    H219198   1.543   4.770   0.748  0.4983  1.5628 -1.1832
 6412TIP3   OH219199   0.543   5.406   4.872  0.1630  0.5938 -0.4388
 6412TIP3    H119200   0.512   5.491   4.905  2.2323  1.7733 -1.3375
 6412TIP3    H219201   0.574   5.425   4.783  0.2584 -1.2140 -0.8251
 6413TIP3   OH219202   6.301   4.433   3.172  0.0842 -0.4471  0.0056
 6413TIP3    H119203   6.373   4.386   3.213 -0.3583 -0.5701  0.6676
 6413TIP3    H219204   6.286   4.387   3.089  0.5912 -0.5797 -0.0149
 6414TIP3   OH219205   0.515   2.588   0.561  0.1843 -0.4562  0.3972
 6414TIP3    H119206   0.512   2.683   0.550 -2.0674 -0.6054 -0.9831
 6414TIP3    H219207   0.435   2.567   0.609  0.6691 -1.6848  0.7119
 6415TIP3   OH219208   5.750   5.555   3.547 -0.1358 -0.3141  0.3320
 6415TIP3    H119209   5.736   5.475   3.597 -0.7658 -0.9924 -0.8870
 6415TIP3    H219210   5.662   5.593   3.538 -0.4727 -1.5127 -2.3312
 6416TIP3   OH219211   2.571   0.596   5.464 -0.8007 -0.5007 -0.0146
 6416TIP3    H119212   2.599   0.684   5.439 -1.4121 -0.4289 -0.4703
 6416TIP3    H219213   2.501   0.610   5.528 -2.5837 -0.5869 -1.8626
 6417TIP3   OH219214   3.397   3.248   0.624 -0.0712  0.0664  0.1019
 6417TIP3    H119215   3.451   3.169   0.626  0.7373  0.5999  0.0013
 6417TIP3    H219216   3.346   3.245   0.705  0.8638  0.0553  0.7032
 6418TIP3   OH219217   3.499   3.775   5.813  0.0459  0.6722  0.3692
 6418TIP3    H119218   3.406   3.772   5.832  0.0464  1.1203  0.4573
 6418TIP3    H219219   3.532   3.849   5.865  0.9818 -1.1832  2.6250
 6419TIP3   OH219220   3.867   2.570   2.222 -0.4137 -0.2000 -0.1784
 6419TIP3    H119221   3.885   2.534   2.308  0.4542 -1.3693 -0.8243
 6419TIP3    H219222   3.930   2.641   2.211 -0.3884 -0.1877  0.0584
 6420TIP3   OH219223   5.246   5.353   5.201  0.4043  0.5408  0.1516
 6420TIP3    H119224   5.188   5.343   5.125  0.3507  0.1387  0.2418
 6420TIP3    H219225   5.208   5.425   5.251  0.9867  1.4722 -0.6987
 6421TIP3   OH219226   3.670   0.264   3.222 -0.6581 -0.3802 -0.3040
 6421TIP3    H119227   3.728   0.209   3.169  2.3307  0.6282  1.6581
 6421TIP3    H219228   3.651   0.212   3.299  1.3563  0.8017  1.0898
 6422TIP3   OH219229   4.077   3.932   0.425  0.2690 -0.3751  0.7945
 6422TIP3    H119230   4.008   3.870   0.450 -0.0389 -0.0613  0.7254
 6422TIP3    H219231   4.099   3.977   0.506  0.4534 -0.5316  0.8331
 6423TIP3   OH219232   6.111   5.498   0.581  0.0845 -0.0785  0.4992
 6423TIP3    H119233   6.156   5.430   0.531 -1.6084 -0.5813 -0.4173
 6423TIP3    H219234   6.177   5.529   0.644  1.7880 -0.5389 -0.9646
 6424TIP3   OH219235   6.782   4.394   0.369 -0.4170  0.2654  0.0974
 6424TIP3    H119236   6.713   4.376   0.433 -0.5330 -2.6666 -0.6857
 6424TIP3    H219237   6.739   4.449   0.303 -1.5728 -0.1919  0.4295
 6425TIP3   OH219238   6.421   1.740   5.388  0.5835 -0.3674 -0.0707
 6425TIP3    H119239   6.369   1.700   5.457  0.4584  0.1329  0.1273
 6425TIP3    H219240   6.463   1.815   5.430  1.3832 -0.7076 -0.2539
 6426TIP3   OH219241   4.328   2.759   3.456 -0.1929 -0.1765  0.3520
 6426TIP3    H119242   4.340   2.825   3.525 -1.3046 -0.4876  0.8738
 6426TIP3    H219243   4.246   2.784   3.413  0.3746 -0.1192 -0.7270
 6427TIP3   OH219244   1.107   4.567   3.614  0.7117  0.9710 -0.1454
 6427TIP3    H119245   1.023   4.570   3.569  0.6073  0.3387 -0.0026
 6427TIP3    H219246   1.172   4.570   3.544  0.5606 -2.4122 -0.6083
 6428TIP3   OH219247   2.336   1.048   0.069 -0.0787 -0.0415  0.7634
 6428TIP3    H119248   2.427   1.072   0.050 -0.4053  0.3050 -0.4348
 6428TIP3    H219249   2.296   1.129   0.101 -0.2070  0.0595  0.3562
 6429TIP3   OH219250   1.059   0.278   5.563 -0.5950 -0.0145 -0.6977
 6429TIP3    H119251   0.981   0.314   5.605  0.4300 -0.5242  1.8731
 6429TIP3    H219252   1.055   0.184   5.582 -0.4081 -0.3907 -2.3978
 6430TIP3   OH219253   3.852   2.927   2.216 -0.1961  0.0339 -0.2070
 6430TIP3    H119254   3.794   2.956   2.146  1.6663 -0.0993 -1.9148
 6430TIP3    H219255   3.908   2.861   2.175  1.6156  0.6543  1.1314
 6431TIP3   OH219256   2.864   1.891   2.816 -0.4377  0.2341  0.0603
 6431TIP3    H119257   2.832   1.835   2.745  0.3130 -0.2983  0.1285
 6431TIP3    H219258   2.785   1.928   2.855 -0.8961 -0.0857 -0.5577
 6432TIP3   OH219259   1.659   5.643   1.136 -0.6280 -0.1860 -0.0535
 6432TIP3    H119260   1.678   5.563   1.185  0.2467 -1.1096 -1.8149
 6432TIP3    H219261   1.604   5.615   1.063 -1.9462  1.1588  0.3659
 6433TIP3   OH219262   4.476   6.105   5.888  0.4494 -0.4743  0.5142
 6433TIP3    H119263   4.407   6.065   5.941 -0.3390 -0.3988 -0.4198
 6433TIP3    H219264   4.488   6.045   5.814  1.5671 -0.6059  0.7943
 6434TIP3   OH219265   5.427   5.089   4.313  0.2103 -0.0918 -0.4863
 6434TIP3    H119266   5.346   5.102   4.362  1.2807  0.5517  1.2357
 6434TIP3    H219267   5.494   5.081   4.381  2.1606  3.2963 -1.7658
 6435TIP3   OH219268   1.984   0.603   5.756  0.2304  1.0873 -0.4101
 6435TIP3    H119269   1.897   0.604   5.797 -0.3703  4.3288 -1.4711
 6435TIP3    H219270   2.044   0.627   5.827  0.4322 -1.5767  0.4313
 6436TIP3   OH219271   1.522   6.661   3.326  0.2000 -0.5416  0.4322
 6436TIP3    H119272   1.454   6.612   3.279  1.7584 -2.6365  0.2046
 6436TIP3    H219273   1.477   6.698   3.402 -1.4844 -0.6240 -0.4783
 6437TIP3   OH219274   0.924   3.051   4.582  0.3680  0.4116  0.5776
 6437TIP3    H119275   0.980   2.976   4.566 -1.0578 -0.4309 -0.7170
 6437TIP3    H219276   0.976   3.127   4.556  1.1993 -0.2699  0.2336
 6438TIP3   OH219277   6.000   0.776   4.148  0.1164  0.1537  0.2767
 6438TIP3    H119278   6.045   0.729   4.079  0.2826 -1.6255  1.5412
 6438TIP3    H219279   6.042   0.862   4.150  1.4743 -0.4696 -0.4750
 6439TIP3   OH219280   1.821   5.019   5.716  0.0071 -0.0303  0.0833
 6439TIP3    H119281   1.757   5.037   5.647 -0.6829  0.8885  0.9338
 6439TIP3    H219282   1.776   4.958   5.775  0.1185  0.1568  0.3685
 6440TIP3   OH219283   4.531   4.846   3.919  0.4472  0.7949  0.4149
 6440TIP3    H119284   4.456   4.845   3.861 -0.2107  0.5114  1.2544
 6440TIP3    H219285   4.602   4.807   3.867 -0.3175 -0.1577  0.0618
 6441TIP3   OH219286   4.293   6.299   3.430  0.2477  0.4198 -0.1250
 6441TIP3    H119287   4.209   6.340   3.451  0.0253 -0.9392  1.9013
 6441TIP3    H219288   4.346   6.370   3.393 -2.0306  1.1195 -2.3148
 6442TIP3   OH219289   2.814   2.504   5.469 -0.6638 -0.0636  0.0826
 6442TIP3    H119290   2.875   2.437   5.500 -0.5376 -0.2946 -0.6381
 6442TIP3    H219291   2.860   2.586   5.485 -0.1758 -0.2339 -0.3996
 6443TIP3   OH219292   3.545   5.286   3.240  0.7487  0.7886 -0.3777
 6443TIP3    H119293   3.464   5.256   3.197  0.0340  1.6468  0.3411
 6443TIP3    H219294   3.608   5.216   3.222  0.3852  0.9337 -2.5005
 6444TIP3   OH219295   4.033   2.207   0.391  0.6697  0.0177 -0.0927
 6444TIP3    H119296   4.084   2.199   0.310  1.6245  2.0084  0.2488
 6444TIP3    H219297   4.083   2.157   0.456  1.2148  0.3983 -0.2050
 6445TIP3   OH219298   1.436   1.852   5.241 -0.5917  0.1915  0.3395
 6445TIP3    H119299   1.432   1.770   5.289  1.3703 -0.7995 -1.0505
 6445TIP3    H219300   1.483   1.911   5.300  2.6827 -1.2997 -0.5455
 6446TIP3   OH219301   1.207   2.617   4.073  0.0419 -0.9257  0.1886
 6446TIP3    H119302   1.126   2.568   4.060  0.2316 -1.0179 -0.6829
 6446TIP3    H219303   1.208   2.682   4.003  0.3006 -0.3569  0.7137
 6447TIP3   OH219304   4.132   5.968   1.589 -0.2296 -0.2711 -0.0418
 6447TIP3    H119305   4.049   5.924   1.571 -0.4906  0.1102  0.2255
 6447TIP3    H219306   4.107   6.050   1.631  0.3569 -1.0795  2.0135
 6448TIP3   OH219307   7.092   5.322   2.168  0.7795  0.4123 -0.6029
 6448TIP3    H119308   7.105   5.295   2.258 -0.0977  0.7485 -0.3608
 6448TIP3    H219309   7.096   5.417   2.170  2.0011  0.3887 -1.1360
 6449TIP3   OH219310   6.551   2.647   1.694  0.2300  0.0001 -0.0796
 6449TIP3    H119311   6.461   2.677   1.712 -0.7165 -2.0108 -1.1728
 6449TIP3    H219312   6.588   2.715   1.639 -0.7638  0.6680  0.0424
 6450TIP3   OH219313   0.190   1.274   5.806  0.5110  0.8558  0.3896
 6450TIP3    H119314   0.107   1.309   5.774  1.5174  1.5527 -1.6234
 6450TIP3    H219315   0.184   1.283   5.901 -2.6715 -1.3384  0.5735
 6451TIP3   OH219316   4.795   0.107   1.079 -0.2506  0.0244 -0.1368
 6451TIP3    H119317   4.720   0.080   1.131 -1.3335 -0.5020 -1.9077
 6451TIP3    H219318   4.780   0.200   1.062 -0.3534 -0.0091 -0.2327
 6452TIP3   OH219319   0.760   4.961   5.378  0.5121  0.5822  0.3992
 6452TIP3    H119320   0.816   5.005   5.314 -0.4520 -0.0009 -0.8825
 6452TIP3    H219321   0.786   4.869   5.375 -0.7089  0.2466 -0.4503
 6453TIP3   OH219322   1.564   3.897   4.546  0.2464  0.0634 -0.3066
 6453TIP3    H119323   1.493   3.937   4.596  1.3409  0.1540  1.2268
 6453TIP3    H219324   1.559   3.804   4.567 -0.2699 -0.1517 -1.3107
 6454TIP3   OH219325   4.994   2.115   3.091  0.3859  0.1846  0.0711
 6454TIP3    H119326   4.915   2.107   3.037  0.6504 -0.1007 -0.2685
 6454TIP3    H219327   5.027   2.202   3.071 -0.1456  0.5301  0.6312
 6455TIP3   OH219328   4.764   2.947   2.819 -0.2589  0.0038 -0.5216
 6455TIP3    H119329   4.801   3.008   2.883 -2.9186  1.4924 -0.2827
 6455TIP3    H219330   4.707   2.890   2.869  2.6087 -3.3206 -0.6378
 6456TIP3   OH219331   1.444   5.674   3.795 -0.5163  0.5409 -0.2033
 6456TIP3    H119332   1.448   5.763   3.830 -0.6610  0.8113 -0.8445
 6456TIP3    H219333   1.352   5.660   3.776 -0.4400  0.4072 -0.4829
 6457TIP3   OH219334   1.549   4.991   0.162 -0.5826 -0.0566 -0.4633
 6457TIP3    H119335   1.583   5.081   0.160  0.3808 -0.4040 -0.1279
 6457TIP3    H219336   1.623   4.938   0.191 -1.6406 -0.7314  1.1504
 6458TIP3   OH219337   0.825   3.770   2.729 -0.5350 -0.1591  0.4258
 6458TIP3    H119338   0.824   3.771   2.633 -0.1332  0.1484  0.4182
 6458TIP3    H219339   0.916   3.792   2.752 -0.2890 -1.5329  0.8737
 6459TIP3   OH219340   4.626   5.951   0.809 -0.3053 -0.0608  0.5960
 6459TIP3    H119341   4.592   5.994   0.731  0.5676  0.4696  0.4865
 6459TIP3    H219342   4.576   5.870   0.816 -2.1724  1.0691  0.9587
 6460TIP3   OH219343   5.198   3.333   5.358 -0.2248  0.4046  0.1612
 6460TIP3    H119344   5.156   3.359   5.439 -0.9564  1.5693 -0.5693
 6460TIP3    H219345   5.223   3.415   5.316  1.2491 -0.2058 -0.2412
 6461TIP3   OH219346   0.038   5.803   0.528 -0.5584  0.3320 -0.1027
 6461TIP3    H119347  -0.008   5.851   0.598 -0.5185  0.1440  0.0550
 6461TIP3    H219348   0.021   5.711   0.548 -1.0655  0.2883 -0.6953
 6462TIP3   OH219349   2.022   3.258   1.837 -0.2214 -0.0863 -0.5275
 6462TIP3    H119350   1.995   3.167   1.828 -0.8239 -0.0381  0.6163
 6462TIP3    H219351   1.940   3.308   1.835 -0.1957  0.1583  1.8221
 6463TIP3   OH219352   3.528   5.853   1.770 -0.2478  0.2295  0.5818
 6463TIP3    H119353   3.462   5.862   1.701 -1.9352  0.0089  2.1247
 6463TIP3    H219354   3.479   5.857   1.852  1.7518  0.9121  1.8186
 6464TIP3   OH219355   0.748   5.519   2.732  0.5257 -0.3097 -0.0855
 6464TIP3    H119356   0.694   5.589   2.768 -0.4155  0.4710 -2.7761
 6464TIP3    H219357   0.686   5.452   2.704  1.1816 -0.7714 -0.4789
 6465TIP3   OH219358   0.126   1.714   4.928 -0.1273 -0.1580  0.0301
 6465TIP3    H119359   0.095   1.638   4.977 -0.3158  0.1039  0.3222
 6465TIP3    H219360   0.219   1.720   4.949 -0.5616  1.0541  1.8803
 6466TIP3   OH219361   3.992   0.605   0.747 -0.1411 -0.1995 -0.2350
 6466TIP3    H119362   3.922   0.540   0.750 -0.6307  0.2312 -1.5066
 6466TIP3    H219363   4.064   0.561   0.702 -0.2069 -0.1100 -0.4308
 6467TIP3   OH219364   4.602   0.119   3.108  0.2784  0.0923  0.5007
 6467TIP3    H119365   4.562   0.034   3.091 -0.0147 -0.0249  1.6834
 6467TIP3    H219366   4.684   0.118   3.058 -0.1551 -0.5112 -0.2171
 6468TIP3   OH219367   0.310   0.980   1.223  0.7635  0.2226  0.0930
 6468TIP3    H119368   0.368   0.970   1.148 -0.5259  1.7898 -1.2106
 6468TIP3    H219369   0.244   1.043   1.194 -0.7131 -0.3225  2.0194
 6469TIP3   OH219370   2.953   2.302   5.821  0.0833  0.5102 -0.2085
 6469TIP3    H119371   2.987   2.225   5.777  3.7207  1.0912  1.2318
 6469TIP3    H219372   2.976   2.375   5.764  0.6257  0.8648  0.4451
 6470TIP3   OH219373   4.009   6.631   5.762 -0.1499 -0.3731 -0.1170
 6470TIP3    H119374   4.057   6.700   5.716 -0.4038  0.0441  0.2408
 6470TIP3    H219375   3.954   6.678   5.824  1.2330 -0.9630  1.6354
 6471TIP3   OH219376   5.292   0.161   1.457 -0.4322 -0.0556 -0.0625
 6471TIP3    H119377   5.255   0.239   1.415 -0.9853 -1.3871 -2.2319
 6471TIP3    H219378   5.355   0.128   1.393 -1.2424 -2.1568  0.1606
 6472TIP3   OH219379   6.470   3.487   2.501  0.0795 -0.2977  0.0002
 6472TIP3    H119380   6.470   3.413   2.440 -2.2999  1.4024 -2.2916
 6472TIP3    H219381   6.544   3.541   2.472  3.3252 -2.6177  3.1273
 6473TIP3   OH219382   1.946   5.294   2.436 -0.4108 -0.4572  0.3434
 6473TIP3    H119383   1.880   5.353   2.474  0.7888 -0.5689  2.7890
 6473TIP3    H219384   2.002   5.351   2.384 -1.6367 -0.1528 -0.6885
 6474TIP3   OH219385   4.215   1.355   2.115  0.0320 -0.7825  0.0111
 6474TIP3    H119386   4.303   1.390   2.100 -0.7785  1.3323 -0.0568
 6474TIP3    H219387   4.167   1.427   2.155 -1.9917 -1.5234 -0.9596
 6475TIP3   OH219388   3.504   0.183   5.821 -0.4357  0.0001  0.3489
 6475TIP3    H119389   3.502   0.145   5.733 -2.5388 -1.6213  1.0115
 6475TIP3    H219390   3.431   0.244   5.823 -1.1281 -0.8344  1.3034
 6476TIP3   OH219391   5.199   3.031   4.002 -0.2859  0.2065 -0.0989
 6476TIP3    H119392   5.110   3.051   4.032  0.3333  2.4656  0.4336
 6476TIP3    H219393   5.196   3.046   3.908 -0.3835  0.6118 -0.0318
 6477TIP3   OH219394   1.843   6.529   0.663  0.5027 -0.6284 -0.0340
 6477TIP3    H119395   1.765   6.585   0.668 -0.8974 -2.4898  0.2139
 6477TIP3    H219396   1.879   6.546   0.576 -0.5481 -0.1724 -0.4049
 6478TIP3   OH219397   5.072   0.241   4.887  0.5714  0.3279 -0.0735
 6478TIP3    H119398   5.129   0.216   4.959  0.9838  1.2457 -0.0633
 6478TIP3    H219399   5.124   0.223   4.808 -0.3656 -1.9114 -0.2309
 6479TIP3   OH219400   3.687   3.890   2.027  0.2580  0.0465  0.2777
 6479TIP3    H119401   3.617   3.865   1.967  0.1946  0.7734  0.0439
 6479TIP3    H219402   3.704   3.982   2.008  0.7083  0.1020  0.9022
 6480TIP3   OH219403   6.452   4.081   3.287 -0.2860 -0.1992 -0.1234
 6480TIP3    H119404   6.457   3.987   3.302 -2.7601 -0.4909 -0.6782
 6480TIP3    H219405   6.412   4.116   3.366 -2.4411 -0.1272 -1.1754
 6481TIP3   OH219406   6.935   3.196   5.462 -0.0521 -0.3534 -0.3823
 6481TIP3    H119407   6.876   3.262   5.424 -0.4428 -1.0654 -1.0351
 6481TIP3    H219408   6.941   3.220   5.554 -0.4826  0.3812 -0.5332
 6482TIP3   OH219409   4.955   0.141   3.948 -0.1934 -0.3676 -0.1743
 6482TIP3    H119410   4.949   0.049   3.926 -0.7763 -0.6382  1.0045
 6482TIP3    H219411   4.976   0.142   4.042 -2.3699  0.6527  0.3878
 6483TIP3   OH219412   4.577   5.250   4.966  0.0987  0.1057 -0.5737
 6483TIP3    H119413   4.617   5.305   5.033 -0.2644 -0.8351  0.4661
 6483TIP3    H219414   4.484   5.249   4.989  0.3811 -2.9307  1.0663
 6484TIP3   OH219415   0.978   1.624   0.250  0.2219 -0.2812  0.4151
 6484TIP3    H119416   0.912   1.577   0.201 -0.1666  1.0675 -0.3999
 6484TIP3    H219417   0.987   1.708   0.205  0.1182  0.8721  2.4120
 6485TIP3   OH219418   0.178   5.592   5.547 -0.4630  0.2788  0.0227
 6485TIP3    H119419   0.185   5.664   5.484 -1.1410  0.5949  0.3056
 6485TIP3    H219420   0.147   5.518   5.495 -0.7852  0.4759 -0.0711
 6486TIP3   OH219421   6.069   3.659   5.536  0.3072  0.0385  0.0019
 6486TIP3    H119422   6.054   3.746   5.498  0.5549 -0.3175 -0.9526
 6486TIP3    H219423   6.156   3.635   5.506  0.6407 -0.1340  1.0829
 6487TIP3   OH219424   1.790   1.823   1.836  0.2210  0.1507  0.0285
 6487TIP3    H119425   1.707   1.847   1.877 -1.0719 -2.3076 -0.9175
 6487TIP3    H219426   1.775   1.836   1.743 -0.0097 -2.4802 -0.3696
 6488TIP3   OH219427   2.450   1.945   2.831 -0.6985 -0.6470 -0.3723
 6488TIP3    H119428   2.535   1.937   2.875 -1.0482  1.6650  0.8803
 6488TIP3    H219429   2.471   1.962   2.740  0.2291  0.7774  0.0876
 6489TIP3   OH219430   0.205   5.910   1.123 -0.0493 -0.4144 -0.1982
 6489TIP3    H119431   0.160   5.931   1.042 -0.5894  0.6117  0.3457
 6489TIP3    H219432   0.185   5.818   1.139 -0.6753 -0.3805 -0.7685
 6490TIP3   OH219433   0.476   5.621   5.487 -0.3725 -0.4257 -0.4960
 6490TIP3    H119434   0.436   5.702   5.454 -1.1502 -0.2371  0.8427
 6490TIP3    H219435   0.428   5.551   5.444 -1.7787 -0.1906  0.6132
 6491TIP3   OH219436   1.092   1.451   0.597 -0.0858  0.3168  0.3672
 6491TIP3    H119437   1.045   1.390   0.655 -2.0240  1.8742  0.5292
 6491TIP3    H219438   1.131   1.515   0.657 -1.7068  1.6659  0.0341
 6492TIP3   OH219439   3.467   2.594   1.525 -0.3227 -0.4953 -0.1064
 6492TIP3    H119440   3.490   2.507   1.558  0.6614 -0.9305 -1.7847
 6492TIP3    H219441   3.400   2.577   1.459  0.9251 -0.1827 -1.5022
 6493TIP3   OH219442   2.263   6.438   5.627 -0.1576  0.3020  0.3249
 6493TIP3    H119443   2.212   6.426   5.547  0.0926  2.0664 -0.1480
 6493TIP3    H219444   2.201   6.478   5.689  0.0122  0.2081  0.5562
 6494TIP3   OH219445   3.660   3.052   2.896  0.1104 -0.4391  0.4766
 6494TIP3    H119446   3.567   3.062   2.879  0.0502 -0.3964  0.8162
 6494TIP3    H219447   3.664   2.996   2.974  0.3433  0.4869  1.1392
 6495TIP3   OH219448   4.478   1.997   3.827  0.6026 -0.3340  0.1695
 6495TIP3    H119449   4.408   2.040   3.876  0.4010 -0.3517 -0.1038
 6495TIP3    H219450   4.484   2.045   3.745  1.1553 -0.1087  0.3404
 6496TIP3   OH219451   1.155   2.874   4.545 -0.2080 -0.7101  0.0576
 6496TIP3    H119452   1.184   2.872   4.453 -0.0848  0.4173  0.0535
 6496TIP3    H219453   1.232   2.848   4.595  0.3143  0.5174 -0.0650
 6497TIP3   OH219454   4.466   2.006   1.400  0.2632  0.4544  0.6060
 6497TIP3    H119455   4.372   2.003   1.419  0.0821  0.7436 -0.2527
 6497TIP3    H219456   4.482   2.094   1.369  0.4310 -0.1759 -1.2051
 6498TIP3   OH219457   5.591   5.568   3.861 -0.0743 -0.2514 -0.1783
 6498TIP3    H119458   5.633   5.653   3.849 -0.7368  0.2994  1.1577
 6498TIP3    H219459   5.648   5.506   3.816 -0.6760  1.1373 -3.0652
 6499TIP3   OH219460   3.258   0.114   2.989 -0.6872 -0.2599 -0.9360
 6499TIP3    H119461   3.215   0.135   3.071  0.6479 -2.7123  0.5011
 6499TIP3    H219462   3.343   0.159   2.994 -0.4026 -0.8104 -0.7226
 6500TIP3   OH219463   2.429   3.686   1.907  0.3540 -0.3032  0.6434
 6500TIP3    H119464   2.501   3.657   1.850  0.4862  0.7526  0.2612
 6500TIP3    H219465   2.370   3.611   1.910 -0.1131 -0.0827 -1.6283
 6501TIP3   OH219466   4.478   2.345   2.143 -0.1662 -0.0553  0.2035
 6501TIP3    H119467   4.448   2.434   2.164  0.4902 -0.1989  1.9517
 6501TIP3    H219468   4.500   2.307   2.228 -0.4359 -1.9112 -0.5173
 6502TIP3   OH219469   3.677   4.527   0.779  0.0460 -0.0485  0.0065
 6502TIP3    H119470   3.678   4.562   0.868 -0.1359 -0.2733  0.0987
 6502TIP3    H219471   3.631   4.593   0.727 -1.0869 -0.5365  0.3466
 6503TIP3   OH219472   5.747   0.226   4.549 -0.4794 -0.0441 -0.1036
 6503TIP3    H119473   5.731   0.282   4.473 -1.4432  0.6750  0.6004
 6503TIP3    H219474   5.805   0.157   4.517  1.5968  1.8897 -0.7515
 6504TIP3   OH219475   0.730   6.451   0.638 -0.1177 -0.4692  0.2335
 6504TIP3    H119476   0.689   6.401   0.568  0.4442 -0.0957 -0.3637
 6504TIP3    H219477   0.823   6.453   0.617 -0.0945  0.6244  0.3677
 6505TIP3   OH219478   6.129   5.148   2.184  1.0960  0.6419  0.0903
 6505TIP3    H119479   6.090   5.094   2.115 -0.5026 -0.0635  1.4731
 6505TIP3    H219480   6.156   5.228   2.139 -0.0387  0.2766 -1.3226
 6506TIP3   OH219481   5.263   5.605   1.470  0.4928  0.7513 -0.3842
 6506TIP3    H119482   5.207   5.592   1.547  1.2514  1.7162  0.3603
 6506TIP3    H219483   5.241   5.533   1.411 -1.0592  0.7434  0.1702
 6507TIP3   OH219484   4.472   4.471   1.725 -0.2911  0.6908  0.3056
 6507TIP3    H119485   4.559   4.485   1.763 -0.4256 -0.6839  1.1922
 6507TIP3    H219486   4.484   4.488   1.632  0.9169  0.5528  0.4155
 6508TIP3   OH219487   0.057   6.357   2.755  0.6496  0.0668 -0.4674
 6508TIP3    H119488   0.019   6.348   2.842  0.9315  1.0711 -0.2301
 6508TIP3    H219489  -0.017   6.351   2.696  0.0562  2.0652 -0.0064
 6509TIP3   OH219490   6.110   3.208   4.947 -0.1192  0.1402  0.1418
 6509TIP3    H119491   6.071   3.267   5.012 -1.1816  0.3928 -0.7023
 6509TIP3    H219492   6.191   3.179   4.988  0.5321  2.3029  0.5409
 6510TIP3   OH219493   7.203   0.418   0.703  0.2832  0.2780 -0.4581
 6510TIP3    H119494   7.203   0.499   0.653 -1.8818  0.6534  0.0446
 6510TIP3    H219495   7.171   0.443   0.790 -0.6856 -1.1112 -0.3640
 6511TIP3   OH219496   4.676   2.812   5.526  0.1412 -0.0684  0.6651
 6511TIP3    H119497   4.733   2.857   5.464  1.5100  0.1521  2.0459
 6511TIP3    H219498   4.625   2.882   5.567 -2.1167 -0.3462 -1.4073
 6512TIP3   OH219499   4.191   5.550   0.304 -0.4544  0.0815  0.7061
 6512TIP3    H119500   4.255   5.522   0.369  0.4939 -0.9344 -0.6211
 6512TIP3    H219501   4.231   5.627   0.263  0.1276 -0.7866 -0.3946
 6513TIP3   OH219502   3.399   5.678   2.766  0.0189 -0.1267 -0.2152
 6513TIP3    H119503   3.458   5.656   2.838 -1.0699  0.5523  0.9195
 6513TIP3    H219504   3.446   5.651   2.687  0.8558 -1.7310  0.7958
 6514TIP3   OH219505   4.754   1.577   4.312 -0.0865 -0.1406  0.2284
 6514TIP3    H119506   4.782   1.511   4.248 -0.2349  0.6651 -0.7011
 6514TIP3    H219507   4.777   1.660   4.270 -2.0415  0.4795  0.3257
 6515TIP3   OH219508   3.954   1.806   2.621 -0.1285 -0.4323 -0.0344
 6515TIP3    H119509   3.921   1.816   2.710 -0.1448 -1.0781  0.0419
 6515TIP3    H219510   4.049   1.811   2.631 -0.1292 -0.5223  0.0275
 6516TIP3   OH219511   1.444   1.579   0.668  0.3173 -0.5399  0.4925
 6516TIP3    H119512   1.499   1.657   0.665  0.2687 -0.5243 -0.2394
 6516TIP3    H219513   1.472   1.528   0.592 -0.2340 -0.8353  0.4840
 6517TIP3   OH219514   6.398   3.126   0.591 -0.1022 -0.3596  0.1594
 6517TIP3    H119515   6.492   3.123   0.613  0.5960  0.3046 -2.4033
 6517TIP3    H219516   6.388   3.209   0.545 -2.2347  0.0857  1.3107
 6518TIP3   OH219517   4.115   1.900   1.179  0.4203  0.2129  0.7230
 6518TIP3    H119518   4.175   1.860   1.116  0.2144  0.1989  0.5372
 6518TIP3    H219519   4.126   1.994   1.167 -0.6642  0.2208 -0.3327
 6519TIP3   OH219520   4.394   3.402   4.890 -0.4418  0.2128 -0.4573
 6519TIP3    H119521   4.349   3.485   4.873  0.6961  0.3950 -3.1886
 6519TIP3    H219522   4.487   3.426   4.894 -0.2927 -0.5095  2.3690
 6520TIP3   OH219523   0.150   2.091   5.701 -0.0197  0.3673 -0.3887
 6520TIP3    H119524   0.144   2.142   5.782  1.9099 -0.9229  0.6331
 6520TIP3    H219525   0.244   2.084   5.683 -0.2813 -1.6770 -1.2266
 6521TIP3   OH219526   6.469   5.574   0.554  0.0222  0.5579  0.0486
 6521TIP3    H119527   6.408   5.578   0.628 -0.3179  0.6853 -0.2335
 6521TIP3    H219528   6.430   5.632   0.488  0.5101  0.7297 -0.0925
 6522TIP3   OH219529   6.209   2.475   1.917 -0.3587  0.4249 -0.0585
 6522TIP3    H119530   6.213   2.403   1.854 -0.5521  0.2214  0.1558
 6522TIP3    H219531   6.203   2.554   1.864 -1.9348  0.1687 -0.3058
 6523TIP3   OH219532   5.655   1.596   3.956  0.0398  0.5233 -0.2941
 6523TIP3    H119533   5.616   1.684   3.951 -1.7280 -0.2088 -0.0593
 6523TIP3    H219534   5.678   1.575   3.866 -0.9336  0.6412 -0.5845
 6524TIP3   OH219535   4.432   4.023   1.418 -0.3830  0.2789 -0.1448
 6524TIP3    H119536   4.398   3.992   1.502 -0.8503  0.6584 -0.1909
 6524TIP3    H219537   4.374   4.096   1.393  0.6983  1.2202 -0.0227
 6525TIP3   OH219538   0.084   4.594   2.974 -0.3044  0.1299 -0.1670
 6525TIP3    H119539   0.125   4.670   3.016 -1.3601  0.1703  0.8196
 6525TIP3    H219540   0.102   4.521   3.034  0.0143 -0.2478 -0.7144
 6526TIP3   OH219541   2.273   3.823   2.939 -0.2850 -0.5891 -0.3689
 6526TIP3    H119542   2.326   3.747   2.912 -0.2010 -0.2742 -1.1149
 6526TIP3    H219543   2.338   3.892   2.955 -0.4179 -0.4265 -0.5300
 6527TIP3   OH219544   2.219   2.540   1.865 -0.2682  0.6822  0.4551
 6527TIP3    H119545   2.230   2.629   1.900 -0.3338  1.5381 -1.5684
 6527TIP3    H219546   2.126   2.522   1.875  0.0391 -0.0325  2.7064
 6528TIP3   OH219547   6.406   1.147   1.481 -0.1628  0.0070 -0.4981
 6528TIP3    H119548   6.400   1.226   1.536  0.1233  0.1199 -0.6254
 6528TIP3    H219549   6.406   1.075   1.544 -1.9866  0.0087 -0.4390
 6529TIP3   OH219550   1.718   3.358   3.293 -0.1649 -0.6329  0.0359
 6529TIP3    H119551   1.633   3.335   3.256  0.4465 -0.0010 -1.8539
 6529TIP3    H219552   1.703   3.441   3.339 -0.2966  0.2736 -1.5710
 6530TIP3   OH219553   0.524   2.717   5.687 -0.1204  0.0692  0.1296
 6530TIP3    H119554   0.577   2.647   5.725 -0.2076  0.4041  0.8903
 6530TIP3    H219555   0.509   2.778   5.759 -0.3281  0.7068 -0.4376
 6531TIP3   OH219556   5.744   6.595   0.108 -0.1229 -0.1511  0.8183
 6531TIP3    H119557   5.797   6.556   0.039 -1.9515 -0.6529 -0.3771
 6531TIP3    H219558   5.725   6.523   0.167 -2.1358 -0.7863 -0.5159
 6532TIP3   OH219559   6.918   6.639   3.414 -0.2363 -0.1104  0.1916
 6532TIP3    H119560   7.011   6.629   3.392 -0.3668 -2.0164  0.3199
 6532TIP3    H219561   6.911   6.602   3.502 -0.9722  0.8458  0.5391
 6533TIP3   OH219562   0.912   1.073   5.759  0.3970  0.1016  0.1647
 6533TIP3    H119563   0.824   1.110   5.771  0.4458 -0.3047  2.1907
 6533TIP3    H219564   0.901   0.979   5.771  0.8540 -0.1889 -1.4045
 6534TIP3   OH219565   4.494   1.704   1.543  0.3049  0.3520  0.4248
 6534TIP3    H119566   4.431   1.717   1.472  0.4547 -0.8014  0.0496
 6534TIP3    H219567   4.566   1.763   1.523  0.0082  0.5840  0.0286
 6535TIP3   OH219568   2.879   5.957   0.421 -0.1746 -0.2562 -0.2785
 6535TIP3    H119569   2.934   5.885   0.391  0.2638 -0.3757  0.7612
 6535TIP3    H219570   2.905   6.032   0.367  3.3536  0.5466  2.2309
 6536TIP3   OH219571   2.868   1.750   0.437 -0.0930  0.0395  0.2188
 6536TIP3    H119572   2.796   1.769   0.377  1.9183  0.9111 -2.0608
 6536TIP3    H219573   2.887   1.657   0.425  0.1286  0.1510 -0.2925
 6537TIP3   OH219574   1.747   3.285   1.913  0.1065  0.0331 -0.9067
 6537TIP3    H119575   1.803   3.211   1.938 -0.3111 -0.3307 -1.0277
 6537TIP3    H219576   1.661   3.245   1.898 -0.1287  0.5514 -0.9425
 6538TIP3   OH219577   3.942   3.496   0.347  0.0886 -0.1127  0.1814
 6538TIP3    H119578   3.976   3.435   0.413  2.1270  1.0393  0.2711
 6538TIP3    H219579   4.001   3.485   0.272 -1.1380 -0.1306 -0.8113
 6539TIP3   OH219580   4.885   3.761   4.959 -0.6084  0.4300 -0.2842
 6539TIP3    H119581   4.958   3.796   4.909  0.6014  0.2387  1.2771
 6539TIP3    H219582   4.810   3.812   4.931  0.5355  2.1630 -0.3049
 6540TIP3   OH219583   5.650   1.197   5.828 -0.2975  0.3036  0.1106
 6540TIP3    H119584   5.556   1.187   5.838 -0.1322 -0.7099  0.8551
 6540TIP3    H219585   5.687   1.122   5.875  0.8387 -0.3681 -1.7649
 6541TIP3   OH219586   4.306   3.363   2.907  0.3173  0.2852  0.5320
 6541TIP3    H119587   4.370   3.433   2.917 -0.6578  1.2890 -0.1085
 6541TIP3    H219588   4.287   3.336   2.997  2.1286 -0.5194  0.7136
 6542TIP3   OH219589   0.586   5.849   5.631 -0.2877  0.3191  0.1364
 6542TIP3    H119590   0.613   5.825   5.543 -1.1205 -3.2486  0.7034
 6542TIP3    H219591   0.663   5.893   5.669  1.1405 -0.7188 -1.4279
 6543TIP3   OH219592   0.508   0.033   0.747 -0.7166  0.3219 -0.2190
 6543TIP3    H119593   0.519  -0.058   0.718 -0.7580 -0.1953  1.3200
 6543TIP3    H219594   0.463   0.076   0.674  0.1088 -0.6536 -1.3445
 6544TIP3   OH219595   0.657   2.650   3.822 -0.0239 -0.0258 -0.2703
 6544TIP3    H119596   0.590   2.586   3.847  0.9339 -0.3210  1.7542
 6544TIP3    H219597   0.657   2.714   3.894  2.4940 -0.5930  0.3353
 6545TIP3   OH219598   2.300   3.710   3.686 -0.1750  0.4488 -0.4261
 6545TIP3    H119599   2.289   3.615   3.684  0.1179  0.3887  0.4137
 6545TIP3    H219600   2.211   3.744   3.691 -0.2875  0.2276 -0.8469
 6546TIP3   OH219601   2.808   6.405   3.542  0.2143 -0.1531  0.0704
 6546TIP3    H119602   2.878   6.470   3.553 -0.1963  0.1480  0.9699
 6546TIP3    H219603   2.821   6.343   3.613  0.4056 -0.8977 -0.5907
 6547TIP3   OH219604   2.862   2.681   1.414 -0.0594  0.6052  0.1504
 6547TIP3    H119605   2.822   2.700   1.499 -1.3721 -0.1400 -0.2830
 6547TIP3    H219606   2.826   2.596   1.389  2.0497 -0.2687 -0.1259
 6548TIP3   OH219607   6.851   6.539   4.166 -0.2390 -0.0660  0.0865
 6548TIP3    H119608   6.928   6.486   4.145 -0.0440 -0.9649  2.6772
 6548TIP3    H219609   6.800   6.484   4.225  0.0270  2.6282  3.0842
 6549TIP3   OH219610   2.648   3.069   0.861 -0.3733  0.3768 -1.1748
 6549TIP3    H119611   2.737   3.057   0.826 -0.1984  0.8829 -0.9190
 6549TIP3    H219612   2.598   2.996   0.825  0.5949 -1.0310  0.1886
 6550TIP3   OH219613   2.416   1.781   3.904  0.4493  0.1855 -0.1220
 6550TIP3    H119614   2.487   1.758   3.964  0.3429 -0.6782 -0.3094
 6550TIP3    H219615   2.441   1.866   3.868  1.2237  0.0427  0.0662
 6551TIP3   OH219616   4.865   2.046   1.132 -0.2303 -0.2626  0.1415
 6551TIP3    H119617   4.922   2.049   1.208  0.2417 -3.0679  0.0047
 6551TIP3    H219618   4.918   2.007   1.063 -1.4210 -0.1750 -0.8704
 6552TIP3   OH219619   0.430   1.724   4.928 -0.0614  0.4433  0.2538
 6552TIP3    H119620   0.507   1.728   4.984  0.5273  0.0661 -0.5178
 6552TIP3    H219621   0.432   1.806   4.878  0.8405 -0.3520 -1.0494
 6553TIP3   OH219622   2.294   0.696   2.656  0.1270 -0.2633  0.7679
 6553TIP3    H119623   2.324   0.771   2.603 -1.3815  0.9430  1.5436
 6553TIP3    H219624   2.206   0.677   2.623  1.4099 -3.5576 -1.2724
 6554TIP3   OH219625   4.319   2.985   3.992  0.9310 -0.3780 -0.0569
 6554TIP3    H119626   4.295   3.077   3.987  0.7659 -0.4404 -0.5001
 6554TIP3    H219627   4.353   2.973   4.081 -2.6594 -0.7772  1.4130
 6555TIP3   OH219628   5.675   4.120   3.870  0.2087  0.0671 -0.0513
 6555TIP3    H119629   5.728   4.190   3.909 -0.5126  0.9470 -0.6045
 6555TIP3    H219630   5.585   4.151   3.877 -0.0456 -0.3525 -1.1808
 6556TIP3   OH219631   4.636   0.377   0.696 -0.4028  0.3274  0.2578
 6556TIP3    H119632   4.622   0.284   0.713  0.4677  0.1935  0.2871
 6556TIP3    H219633   4.729   0.391   0.711  0.0003  0.6850 -2.2021
 6557TIP3   OH219634   2.974   4.673   2.418 -0.4636  0.2298  0.4968
 6557TIP3    H119635   3.062   4.710   2.417 -0.2851 -0.1297  1.7569
 6557TIP3    H219636   2.932   4.712   2.495 -0.4650 -1.7096  1.5448
 6558TIP3   OH219637   0.358   4.124   2.766 -0.4845  0.2352  0.2093
 6558TIP3    H119638   0.340   4.216   2.781  0.4435  0.3278  0.8464
 6558TIP3    H219639   0.439   4.123   2.715  1.0651 -0.2243  2.5019
 6559TIP3   OH219640   3.804   4.832   5.465  0.2166  0.0127  0.2777
 6559TIP3    H119641   3.735   4.842   5.530  0.7124  1.1405  0.6441
 6559TIP3    H219642   3.826   4.921   5.439  2.3319 -0.2293  1.0274
 6560TIP3   OH219643   2.115   6.570   4.598 -0.3594 -0.3904  0.7716
 6560TIP3    H119644   2.159   6.654   4.594 -0.5616 -0.3064 -2.6210
 6560TIP3    H219645   2.022   6.592   4.592 -0.6247 -0.8000  2.7107
 6561TIP3   OH219646   5.058   3.541   3.591  0.2072 -0.1792 -0.3336
 6561TIP3    H119647   5.062   3.612   3.527 -0.2066  0.3569  0.2190
 6561TIP3    H219648   4.987   3.567   3.650 -0.5927 -1.5266 -0.6794
 6562TIP3   OH219649   5.779   5.395   3.043  0.0108 -0.2524 -0.0452
 6562TIP3    H119650   5.776   5.305   3.076 -0.3775  0.0404  0.7400
 6562TIP3    H219651   5.728   5.446   3.106 -0.4741  0.3859 -0.9364
 6563TIP3   OH219652   3.706   5.903   0.014  0.3754 -0.3790  0.9649
 6563TIP3    H119653   3.771   5.835   0.033  0.9322 -0.0506  0.3000
 6563TIP3    H219654   3.755   5.969  -0.035  0.1998  1.1506  2.7096
 6564TIP3   OH219655   4.733   4.817   2.876 -0.1396 -0.3960 -0.0475
 6564TIP3    H119656   4.676   4.891   2.854 -0.8321 -0.7280  0.5993
 6564TIP3    H219657   4.820   4.844   2.844 -0.6305  0.1526 -0.9634
 6565TIP3   OH219658   2.664   3.602   1.146  0.6077  0.6469  0.1544
 6565TIP3    H119659   2.745   3.556   1.123  0.7061  1.4044 -1.1454
 6565TIP3    H219660   2.685   3.648   1.227  1.3074  0.4139  0.1125
 6566TIP3   OH219661   3.600   0.191   1.554 -0.1307  0.6303 -0.5039
 6566TIP3    H119662   3.679   0.229   1.516  0.1088 -0.6175 -1.3111
 6566TIP3    H219663   3.546   0.266   1.578  0.8364  1.4814 -0.9187
 6567TIP3   OH219664   5.803   4.351   2.887  0.2513 -0.2196  0.2972
 6567TIP3    H119665   5.865   4.423   2.879  1.2750 -1.2376 -1.4746
 6567TIP3    H219666   5.846   4.276   2.846 -1.4619 -1.4326  0.5527
 6568TIP3   OH219667   4.207   0.883   2.508  0.6094 -0.1827  0.2400
 6568TIP3    H119668   4.180   0.941   2.580  0.0223 -1.6986  1.3000
 6568TIP3    H219669   4.259   0.815   2.551  0.1352 -1.1953 -0.7648
 6569TIP3   OH219670   6.877   0.369   3.503  0.1763  0.4819  0.2425
 6569TIP3    H119671   6.956   0.318   3.520 -0.7555 -1.2448 -0.3223
 6569TIP3    H219672   6.805   0.313   3.534 -0.8378  1.9083  0.5404
 6570TIP3   OH219673   3.384   3.054   1.802 -0.1124  0.1449 -0.0350
 6570TIP3    H119674   3.377   3.042   1.897  0.0066  1.3930  0.1484
 6570TIP3    H219675   3.442   2.983   1.773 -0.1325 -0.2350  0.8303
 6571TIP3   OH219676   0.304   5.019   4.372  0.0821  0.5984  0.0295
 6571TIP3    H119677   0.364   4.964   4.322  0.1723 -0.1706  0.9571
 6571TIP3    H219678   0.357   5.056   4.442 -0.3466  0.5594  0.3790
 6572TIP3   OH219679   0.582   4.903   0.749  0.1327  0.6010 -0.0059
 6572TIP3    H119680   0.535   4.844   0.689 -0.3624  1.4615 -0.4852
 6572TIP3    H219681   0.614   4.973   0.692 -0.6323  1.6115  0.7800
 6573TIP3   OH219682   4.526   1.536   4.861 -0.4138  0.4026 -0.3995
 6573TIP3    H119683   4.542   1.465   4.799 -0.4858 -0.0397  0.0814
 6573TIP3    H219684   4.524   1.493   4.947  0.8204  1.1527  0.0328
 6574TIP3   OH219685   7.120   0.670   2.072 -0.4997 -0.6421 -0.1376
 6574TIP3    H119686   7.180   0.731   2.031 -1.7536  0.0504 -1.0172
 6574TIP3    H219687   7.041   0.721   2.089 -0.3818 -1.1342  2.3579
 6575TIP3   OH219688   0.207   6.667   5.116  0.8728 -0.6920 -0.2768
 6575TIP3    H119689   0.242   6.756   5.108 -1.1783  0.1385 -0.6534
 6575TIP3    H219690   0.265   6.624   5.178  1.6885  1.0376  0.2203
 6576TIP3   OH219691   2.100   0.921   1.370  0.3863  0.2262  0.0344
 6576TIP3    H119692   2.171   0.886   1.316  0.8876  2.7919 -1.1413
 6576TIP3    H219693   2.125   0.900   1.460  3.9849  2.9230 -0.0721
 6577TIP3   OH219694   4.998   5.920   0.469  0.7817 -0.1492  0.6209
 6577TIP3    H119695   4.958   5.933   0.555  1.2750 -2.2385  1.2296
 6577TIP3    H219696   5.036   6.005   0.447 -1.7032  1.1988  1.1887
 6578TIP3   OH219697   5.997   0.739   3.793  0.3950  0.4643 -0.1264
 6578TIP3    H119698   6.071   0.757   3.735  0.3408  0.6768 -0.1291
 6578TIP3    H219699   5.974   0.824   3.830  1.5053  0.0849  1.5198
 6579TIP3   OH219700   3.807   3.183   1.207 -0.3265  0.0932  0.2539
 6579TIP3    H119701   3.737   3.168   1.144  0.3338  0.4613 -0.5920
 6579TIP3    H219702   3.887   3.155   1.161  0.1496  0.2456  0.9756
 6580TIP3   OH219703   0.964   5.754   4.773  0.5003 -0.1186  0.4181
 6580TIP3    H119704   0.929   5.665   4.773 -2.9006  1.0771  0.0032
 6580TIP3    H219705   0.966   5.780   4.681 -0.3271  0.8337  0.6502
 6581TIP3   OH219706   6.598   5.469   5.280 -0.1898 -0.0061 -0.3074
 6581TIP3    H119707   6.592   5.558   5.247 -0.1805  1.1241  2.4445
 6581TIP3    H219708   6.514   5.429   5.258  0.1824  0.2871 -2.4707
 6582TIP3   OH219709   2.838   6.187   2.441 -0.1612  0.2726 -0.2480
 6582TIP3    H119710   2.836   6.202   2.536  0.5620  0.6938 -0.2882
 6582TIP3    H219711   2.747   6.173   2.417 -0.3595  0.2050  0.5040
 6583TIP3   OH219712   2.302   1.285   0.254  0.4083  0.5908 -0.2685
 6583TIP3    H119713   2.276   1.375   0.272  2.0032  0.8335  1.1097
 6583TIP3    H219714   2.323   1.248   0.340  0.3928 -0.8965 -0.8711
 6584TIP3   OH219715   4.774   5.779   4.315 -0.5659 -0.4911 -0.5643
 6584TIP3    H119716   4.734   5.696   4.292 -0.0782 -1.1442  0.8382
 6584TIP3    H219717   4.849   5.788   4.255 -0.9904 -0.7423 -1.1346
 6585TIP3   OH219718   6.877   2.450   4.009 -0.2640  0.0564 -0.2299
 6585TIP3    H119719   6.964   2.462   3.972 -0.3507  0.2945 -0.3569
 6585TIP3    H219720   6.890   2.458   4.104 -0.3982  1.7240 -0.3251
 6586TIP3   OH219721   6.365   0.672   4.671 -0.3647  0.5126  0.4720
 6586TIP3    H119722   6.460   0.657   4.673 -0.6572 -2.2280 -1.2913
 6586TIP3    H219723   6.352   0.735   4.601  0.1617  1.5754  1.2947
 6587TIP3   OH219724   0.981   0.848   3.127  0.2802  0.0159 -0.4831
 6587TIP3    H119725   0.894   0.858   3.086  0.2341  1.9730  0.0166
 6587TIP3    H219726   1.037   0.816   3.056 -0.7430 -0.9100 -0.9105
 6588TIP3   OH219727   2.606   4.328   4.987 -0.0963  0.1448  0.4312
 6588TIP3    H119728   2.570   4.396   4.930  0.0673  1.5641  1.9631
 6588TIP3    H219729   2.687   4.301   4.944  0.0999  1.2829  0.0436
 6589TIP3   OH219730   2.758   1.568   2.934  0.4135 -0.2848 -0.0299
 6589TIP3    H119731   2.822   1.575   3.004  0.0951 -0.4744  0.2814
 6589TIP3    H219732   2.677   1.604   2.970  0.9125  2.2491 -1.2166
 6590TIP3   OH219733   3.948   3.951   2.111 -0.3755  0.3243  0.3778
 6590TIP3    H119734   3.860   3.919   2.128  1.0315 -3.2014  2.0399
 6590TIP3    H219735   3.995   3.876   2.074  1.9821  2.0049 -0.2974
 6591TIP3   OH219736   4.577   0.373   5.176  0.4214 -0.6491  0.0341
 6591TIP3    H119737   4.603   0.464   5.164 -0.1954 -0.4795 -0.0639
 6591TIP3    H219738   4.562   0.339   5.088 -0.0187 -0.6363  0.0979
 6592TIP3   OH219739   0.580   0.928   2.247 -0.5447  0.1984 -0.0206
 6592TIP3    H119740   0.626   0.916   2.330  0.3754  1.9686 -0.2230
 6592TIP3    H219741   0.646   0.905   2.181 -0.3715  1.3990 -0.2868
 6593TIP3   OH219742   0.466   6.775   5.906  0.0922  0.1510 -0.2655
 6593TIP3    H119743   0.536   6.711   5.917  0.5259  0.3787 -1.5890
 6593TIP3    H219744   0.422   6.750   5.825 -1.3716  0.0301  0.5226
 6594TIP3   OH219745   4.093   3.924   2.348  0.3069  0.1219  0.6504
 6594TIP3    H119746   4.025   3.988   2.372 -1.0318 -0.9257 -0.1929
 6594TIP3    H219747   4.092   3.923   2.252  0.7051 -0.7633  0.6494
 6595TIP3   OH219748   5.837   4.722   2.853  0.5991  0.5521 -0.5712
 6595TIP3    H119749   5.893   4.688   2.922 -0.4481  1.1351  0.6226
 6595TIP3    H219750   5.811   4.809   2.885 -0.6967  0.4284 -1.2321
 6596TIP3   OH219751   2.126   2.914   4.245  0.1414  0.2368 -0.1879
 6596TIP3    H119752   2.158   2.830   4.279  1.1636  1.1155  1.0779
 6596TIP3    H219753   2.031   2.902   4.241  0.0493 -0.2656  2.0903
 6597TIP3   OH219754   2.604   1.100   0.045 -0.2925 -0.0479 -0.0154
 6597TIP3    H119755   2.623   1.016   0.004 -1.2945 -0.4219  0.2525
 6597TIP3    H219756   2.690   1.141   0.058  0.5363 -2.3283  2.5874
 6598TIP3   OH219757   6.826   4.573   3.539  0.0789 -0.0195  0.4852
 6598TIP3    H119758   6.836   4.659   3.580  0.8154  0.0724  0.1317
 6598TIP3    H219759   6.790   4.592   3.452 -0.3022 -0.1162  0.6212
 6599TIP3   OH219760   3.443   2.037   1.191 -0.1452 -0.2810  0.4450
 6599TIP3    H119761   3.505   2.081   1.249  0.1117  0.9704 -0.7120
 6599TIP3    H219762   3.357   2.059   1.225 -0.0284  1.4789 -0.3164
 6600TIP3   OH219763   1.942   3.077   3.895 -0.8018  0.1152  0.0152
 6600TIP3    H119764   1.917   3.133   3.821 -2.1940 -0.0093  0.3719
 6600TIP3    H219765   1.894   3.113   3.970 -1.7554 -1.5492  0.2490
 6601TIP3   OH219766   5.259   5.807   0.889 -0.3501 -0.2367 -0.6488
 6601TIP3    H119767   5.188   5.805   0.953  1.1708 -0.6150  1.1153
 6601TIP3    H219768   5.219   5.844   0.810 -1.5384  3.5978  1.4995
 6602TIP3   OH219769   6.575   2.685   1.208 -0.2798 -0.0267  0.0991
 6602TIP3    H119770   6.514   2.667   1.137 -0.1696 -0.6780  0.1640
 6602TIP3    H219771   6.519   2.696   1.286 -0.3440 -0.0973  0.0624
 6603TIP3   OH219772   0.690   2.905   0.749 -0.5336 -0.2841 -0.6699
 6603TIP3    H119773   0.716   2.995   0.764 -0.5740 -0.4640  0.5866
 6603TIP3    H219774   0.751   2.873   0.682  1.3284 -0.1383  0.8585
 6604TIP3   OH219775   2.899   1.331   2.453 -0.0248  0.2500 -0.0908
 6604TIP3    H119776   2.943   1.256   2.494 -1.9702 -0.9721 -0.0837
 6604TIP3    H219777   2.856   1.376   2.526  0.7392  1.1227 -0.1626
 6605TIP3   OH219778   5.963   5.292   0.014  0.3386 -0.0128  0.7219
 6605TIP3    H119779   5.912   5.213  -0.007 -2.4138  1.4232  1.4346
 6605TIP3    H219780   6.053   5.269  -0.006 -0.6035 -2.6652 -0.9896
 6606TIP3   OH219781   1.498   6.023   2.829  0.3747 -0.4096 -0.3425
 6606TIP3    H119782   1.472   6.007   2.738  1.4714 -0.4869 -0.6567
 6606TIP3    H219783   1.442   5.965   2.880  0.7016 -1.4017 -1.0759
 6607TIP3   OH219784   4.473   0.269   2.881  0.5375  0.2731 -0.5649
 6607TIP3    H119785   4.441   0.183   2.907  0.3169 -0.0534 -1.8558
 6607TIP3    H219786   4.503   0.310   2.962 -0.7225 -0.4394  0.2774
 6608TIP3   OH219787   4.527   6.083   0.571  0.2366 -0.3782  0.1542
 6608TIP3    H119788   4.484   6.163   0.599 -0.9949 -0.6652 -0.8096
 6608TIP3    H219789   4.464   6.041   0.512  0.8044 -2.1093  0.7054
 6609TIP3   OH219790   5.417   3.704   4.128 -0.4585  0.0667 -0.8388
 6609TIP3    H119791   5.471   3.777   4.098  2.2376 -1.1879  0.6240
 6609TIP3    H219792   5.401   3.723   4.221  0.6218 -1.3411 -0.3368
 6610TIP3   OH219793   7.029   2.321   0.822  0.1321 -0.8949 -0.7711
 6610TIP3    H119794   7.007   2.392   0.761  0.4136 -0.4221 -0.3276
 6610TIP3    H219795   7.102   2.275   0.781  1.4594  0.4574 -0.0207
 6611TIP3   OH219796   0.905   6.690   1.110  0.3246 -0.1608 -0.9450
 6611TIP3    H119797   0.930   6.612   1.060  1.3245 -0.2695 -0.2953
 6611TIP3    H219798   0.928   6.763   1.053 -1.6866 -0.3027 -2.0612
 6612TIP3   OH219799   2.631   5.593   2.467  0.4576 -0.5404 -0.8210
 6612TIP3    H119800   2.665   5.682   2.470 -1.0205  0.0399 -0.6214
 6612TIP3    H219801   2.658   5.554   2.549  2.0592 -0.6653 -1.3652
 6613TIP3   OH219802   1.026   2.392   2.819  0.1627 -0.0757 -0.2511
 6613TIP3    H119803   1.027   2.311   2.768  0.2468 -0.8090  0.8722
 6613TIP3    H219804   0.945   2.388   2.870  0.5832  0.1272  0.4460
 6614TIP3   OH219805   0.246   1.260   5.477  0.2980  0.5540  0.3347
 6614TIP3    H119806   0.319   1.199   5.483  0.6434  0.9508  0.2799
 6614TIP3    H219807   0.170   1.211   5.509  0.0937 -0.6350 -1.7856
 6615TIP3   OH219808   2.279   5.650   1.892 -0.5082 -0.0967 -0.5081
 6615TIP3    H119809   2.256   5.568   1.936 -1.1913  0.2566 -0.1918
 6615TIP3    H219810   2.357   5.681   1.939 -0.7366 -0.1497 -0.0832
 6616TIP3   OH219811   3.080   4.100   3.333 -0.3873  0.4751 -0.6647
 6616TIP3    H119812   3.081   4.165   3.404 -0.5571  0.4016 -0.5960
 6616TIP3    H219813   2.997   4.053   3.344  0.9787 -1.7340  1.0628
 6617TIP3   OH219814   2.013   5.016   0.616  0.0705  0.5659 -0.5002
 6617TIP3    H119815   1.923   4.983   0.621  0.3896 -0.2452  3.2744
 6617TIP3    H219816   2.061   4.948   0.568 -1.1329  0.5464 -1.7228
 6618TIP3   OH219817   0.763   2.942   5.683  0.5346  0.1780  0.5815
 6618TIP3    H119818   0.687   2.893   5.714 -0.6102  0.3579 -1.7173
 6618TIP3    H219819   0.726   3.018   5.638  1.9330 -0.5332 -1.9621
 6619TIP3   OH219820   2.162   5.655   4.029 -0.3076 -0.1789 -0.3813
 6619TIP3    H119821   2.246   5.673   3.986  0.1291  0.3096  0.6327
 6619TIP3    H219822   2.101   5.716   3.987 -0.2060 -0.6510 -1.2422
 6620TIP3   OH219823   0.805   4.858   3.650  0.0868 -0.6839 -0.0882
 6620TIP3    H119824   0.848   4.802   3.715 -1.8125 -0.6227  1.2978
 6620TIP3    H219825   0.714   4.827   3.648 -0.7825  1.6925 -0.0231
 6621TIP3   OH219826   3.426   2.297   0.133  0.0836 -0.0618  0.1122
 6621TIP3    H119827   3.332   2.298   0.149  0.1940 -0.0267  0.8192
 6621TIP3    H219828   3.461   2.235   0.198  0.5558 -0.0071 -0.0816
 6622TIP3   OH219829   3.378   0.115   1.994 -0.0710 -0.6682 -0.0544
 6622TIP3    H119830   3.366   0.055   1.921  1.6565 -3.2863  1.6124
 6622TIP3    H219831   3.403   0.198   1.954 -2.7348 -0.9081 -2.4831
 6623TIP3   OH219832   5.958   3.029   1.874  0.0193 -0.1935  0.4627
 6623TIP3    H119833   6.030   3.023   1.811  0.9785 -0.2187  1.5283
 6623TIP3    H219834   5.932   2.938   1.889 -1.0696 -0.1269 -0.8131
 6624TIP3   OH219835   4.070   3.929   4.175  0.6790  0.4466  0.3628
 6624TIP3    H119836   4.079   3.940   4.269 -0.8635 -0.5190  0.6490
 6624TIP3    H219837   4.142   3.871   4.151  1.3765  1.0968  0.8451
 6625TIP3   OH219838   3.681   3.936   0.957  0.3638  0.0744 -0.0576
 6625TIP3    H119839   3.712   4.014   1.002 -2.2600  0.8354  0.6229
 6625TIP3    H219840   3.709   3.948   0.866  1.4314  0.9700  0.3692
 6626TIP3   OH219841   1.095   1.715   4.003  0.4941 -0.2392 -0.7191
 6626TIP3    H119842   1.153   1.792   4.002  1.5832 -0.9967 -3.0561
 6626TIP3    H219843   1.011   1.748   3.970  0.4645  0.2605 -0.1638
 6627TIP3   OH219844   6.929   0.098   3.309  0.0365 -0.3368 -0.0392
 6627TIP3    H119845   7.002   0.044   3.279  0.7949 -0.0958  1.2421
 6627TIP3    H219846   6.852   0.063   3.265  0.8541 -0.9165 -1.0520
 6628TIP3   OH219847   1.313   2.450   4.780 -0.6077 -0.1431  0.4242
 6628TIP3    H119848   1.378   2.429   4.847 -1.1073  0.4960  1.1300
 6628TIP3    H219849   1.250   2.379   4.784  0.3885 -1.1399 -0.7513
 6629TIP3   OH219850   3.800   0.732   4.776 -0.1392 -0.3450 -0.1497
 6629TIP3    H119851   3.779   0.643   4.806 -0.1834 -0.2702  0.0430
 6629TIP3    H219852   3.885   0.752   4.815 -0.6320  0.1153  0.7161
 6630TIP3   OH219853   1.487   2.117   1.418 -0.1382  0.0778 -0.2863
 6630TIP3    H119854   1.539   2.067   1.355 -1.0441  0.5170 -1.4134
 6630TIP3    H219855   1.535   2.108   1.501  0.8341 -0.8909 -0.9230
 6631TIP3   OH219856   0.621   2.439   2.254  0.1818  0.5445 -0.0707
 6631TIP3    H119857   0.540   2.412   2.211 -0.7413  0.3314  1.7374
 6631TIP3    H219858   0.593   2.474   2.338  1.9756  0.5464  0.5586
 6632TIP3   OH219859   4.976   6.146   5.834 -0.4528 -0.0289  0.4827
 6632TIP3    H119860   4.898   6.125   5.783 -0.5513 -0.2909  0.7460
 6632TIP3    H219861   4.983   6.241   5.828  0.2781 -0.1405 -1.1379
 6633TIP3   OH219862   0.079   2.900   1.505  0.1854  0.3088  0.1791
 6633TIP3    H119863   0.079   2.895   1.410 -0.1161  2.1251  0.0340
 6633TIP3    H219864   0.171   2.915   1.528  0.4426 -1.2912  0.2946
 6634TIP3   OH219865   6.631   1.539   0.632  0.0995 -0.2812 -0.2592
 6634TIP3    H119866   6.584   1.598   0.573 -0.0772  0.2319  0.3867
 6634TIP3    H219867   6.700   1.501   0.577  1.0125  1.4715 -0.4098
 6635TIP3   OH219868   4.503   1.989   1.964  0.3117  0.3525 -0.1392
 6635TIP3    H119869   4.538   2.064   2.013  0.9747  0.2767 -0.4756
 6635TIP3    H219870   4.487   2.024   1.876 -2.4584  0.9249  0.5221
 6636TIP3   OH219871   0.301   5.263   1.551  0.2247 -0.4836  0.0211
 6636TIP3    H119872   0.245   5.201   1.504  1.4543 -1.6062 -0.0303
 6636TIP3    H219873   0.347   5.311   1.482 -0.4313  0.2235  0.0659
 6637TIP3   OH219874   2.094   6.602   5.098 -0.0405 -0.2716  0.0007
 6637TIP3    H119875   2.168   6.592   5.157  1.2096  0.3727 -1.4065
 6637TIP3    H219876   2.079   6.696   5.094 -1.2182 -0.4162  0.5783
 6638TIP3   OH219877   4.553   0.658   1.277 -0.0680  0.1883 -0.3220
 6638TIP3    H119878   4.517   0.660   1.366 -0.1890  0.3297 -0.3719
 6638TIP3    H219879   4.475   0.652   1.221  0.0657 -1.4792 -0.3750
 6639TIP3   OH219880   0.941   4.887   4.645 -0.0856 -0.0688  0.4517
 6639TIP3    H119881   0.985   4.874   4.730 -1.5163 -0.0927  1.2089
 6639TIP3    H219882   0.851   4.860   4.660  0.1252 -2.3112 -1.7034
 6640TIP3   OH219883   2.809   0.445   5.424 -0.4289  0.7296  0.3814
 6640TIP3    H119884   2.854   0.465   5.506  0.5294  1.7793 -0.3570
 6640TIP3    H219885   2.737   0.508   5.421 -1.5058 -0.4084  1.1719
 6641TIP3   OH219886   1.700   0.154   2.566 -0.0165  0.0526 -0.0767
 6641TIP3    H119887   1.737   0.238   2.540 -0.1083  0.0522 -0.2076
 6641TIP3    H219888   1.666   0.117   2.485  0.1182 -0.1571 -0.0399
 6642TIP3   OH219889   6.762   4.587   4.919  0.0706 -0.3296  0.1400
 6642TIP3    H119890   6.769   4.514   4.858  0.9473 -1.0514  1.0666
 6642TIP3    H219891   6.730   4.547   5.000  3.0696 -0.2334  1.4975
 6643TIP3   OH219892   3.695   3.082   1.728 -0.0890  0.0630 -0.1821
 6643TIP3    H119893   3.776   3.085   1.678  1.1479  0.3129  1.7056
 6643TIP3    H219894   3.659   3.170   1.722  0.2450  0.1892 -0.3318
 6644TIP3   OH219895   0.057   2.257   2.384  0.8021 -0.1739  0.1904
 6644TIP3    H119896   0.071   2.310   2.462  0.8741 -0.4597  0.3743
 6644TIP3    H219897   0.083   2.314   2.311 -1.4834  0.9382  0.1716
 6645TIP3   OH219898   6.524   5.796   1.536 -0.4656  0.3325 -0.1997
 6645TIP3    H119899   6.592   5.806   1.602  0.6807  2.9747 -1.6049
 6645TIP3    H219900   6.508   5.885   1.505 -2.9323 -0.4877 -1.5692
 6646TIP3   OH219901   4.007   2.373   5.445 -0.0420 -0.1895  0.2972
 6646TIP3    H119902   4.067   2.443   5.473 -0.3675 -0.3373  1.3984
 6646TIP3    H219903   3.954   2.414   5.376  0.4274  0.3515  0.2441
 6647TIP3   OH219904   5.708   0.978   0.427  0.1139 -0.2690 -0.0691
 6647TIP3    H119905   5.680   0.887   0.436  0.0030 -0.1309  1.1462
 6647TIP3    H219906   5.800   0.978   0.454  0.6223 -0.3002 -1.7193
 6648TIP3   OH219907   2.051   1.672   1.518  0.2689  0.2517 -0.0670
 6648TIP3    H119908   2.053   1.768   1.519 -0.9629  0.3149  1.8826
 6648TIP3    H219909   2.073   1.647   1.608  0.9122 -1.3389 -0.6261
 6649TIP3   OH219910   0.496   1.704   5.751  0.1260 -0.0222  0.1851
 6649TIP3    H119911   0.428   1.651   5.792  0.9189 -1.2372 -0.0148
 6649TIP3    H219912   0.563   1.715   5.819  0.0912  0.4902  0.1402
 6650TIP3   OH219913   0.946   2.308   4.473 -0.3406  0.8734 -0.2657
 6650TIP3    H119914   0.907   2.384   4.515  1.4262  1.5150  0.3337
 6650TIP3    H219915   1.034   2.337   4.448  0.1407 -0.7763 -0.6246
 6651TIP3   OH219916   6.654   0.590   3.998  0.3351 -0.5566  0.1679
 6651TIP3    H119917   6.599   0.606   3.922  0.4454  0.6513  0.3278
 6651TIP3    H219918   6.593   0.562   4.067  0.2219 -1.5059 -0.3004
 6652TIP3   OH219919   6.387   4.913   1.124  0.4277 -0.8881  0.6991
 6652TIP3    H119920   6.385   4.912   1.028  1.2648  0.1266  0.6543
 6652TIP3    H219921   6.296   4.927   1.150  0.4263  0.5421  0.0073
 6653TIP3   OH219922   2.575   1.046   4.601  0.7566 -0.9577  0.0364
 6653TIP3    H119923   2.481   1.033   4.607  0.7330 -0.8516 -0.0840
 6653TIP3    H219924   2.608   0.965   4.562  0.4259 -0.0959 -2.1548
 6654TIP3   OH219925   3.929   3.837   5.204  0.6681  0.1477 -0.2237
 6654TIP3    H119926   4.012   3.881   5.186  1.1892  0.1695  1.8828
 6654TIP3    H219927   3.886   3.894   5.269 -0.7981 -0.1030 -0.9392
 6655TIP3   OH219928   0.345   4.261   0.954  0.0156  0.2473 -0.4231
 6655TIP3    H119929   0.424   4.225   0.914 -1.1756 -0.8089 -1.9510
 6655TIP3    H219930   0.341   4.351   0.921  1.2221  0.7515  0.7060
 6656TIP3   OH219931   6.253   1.979   2.774 -0.3724  0.5240 -1.1688
 6656TIP3    H119932   6.342   2.013   2.779  0.6343 -1.9927 -0.6467
 6656TIP3    H219933   6.217   1.995   2.861  0.4916 -0.7108 -0.5591
 6657TIP3   OH219934   5.658   3.022   3.412 -0.2049  0.3035  0.4906
 6657TIP3    H119935   5.572   3.060   3.429 -0.2276 -0.5062  2.4416
 6657TIP3    H219936   5.703   3.026   3.496  1.1605 -0.5173 -0.1719
 6658TIP3   OH219937   6.869   6.122   4.231  0.3757  0.5735  0.5632
 6658TIP3    H119938   6.824   6.050   4.276  0.6529  0.6918  1.0371
 6658TIP3    H219939   6.941   6.146   4.290  1.2025  0.2321 -0.2775
 6659TIP3   OH219940   0.798   4.356   3.077 -0.3737 -0.2157  0.6436
 6659TIP3    H119941   0.711   4.327   3.049  0.8824 -1.9125 -1.9474
 6659TIP3    H219942   0.806   4.322   3.166 -1.6974 -1.6663  0.2733
 6660TIP3   OH219943   4.065   4.461   2.003  0.2603 -0.2932  0.5470
 6660TIP3    H119944   4.102   4.523   2.066  1.2230 -1.5614  1.2688
 6660TIP3    H219945   4.066   4.377   2.048  0.5962 -1.1653 -1.0023
 6661TIP3   OH219946   2.873   1.083   0.159 -0.1279  0.0381 -0.1800
 6661TIP3    H119947   2.937   1.017   0.132  1.3872  1.0696  0.7401
 6661TIP3    H219948   2.869   1.074   0.255 -0.5542  0.7092 -0.1348
 6662TIP3   OH219949   4.310   3.664   4.076 -0.0148  0.4064  0.3572
 6662TIP3    H119950   4.380   3.604   4.100  0.5784  0.1522 -1.7834
 6662TIP3    H219951   4.352   3.729   4.020 -1.3218  0.6851 -0.3539
 6663TIP3   OH219952   0.216   1.659   5.556 -0.1128 -0.2383  0.0566
 6663TIP3    H119953   0.228   1.638   5.648 -1.0678  1.3768  0.5847
 6663TIP3    H219954   0.133   1.618   5.532  1.0351 -2.3061 -0.6731
 6664TIP3   OH219955   6.079   0.435   2.625  0.3701  0.1537  0.5068
 6664TIP3    H119956   6.140   0.370   2.589 -0.6433 -1.2439  1.2257
 6664TIP3    H219957   6.069   0.500   2.555  0.8881 -0.8348 -0.5070
 6665TIP3   OH219958   1.465   6.314   2.893 -0.4359  0.0369 -0.4343
 6665TIP3    H119959   1.492   6.227   2.865 -1.0929 -0.3480  0.1122
 6665TIP3    H219960   1.546   6.363   2.902  0.0814 -1.0144  0.9157
 6666TIP3   OH219961   0.646   0.950   1.908  0.1961 -0.0262 -0.4154
 6666TIP3    H119962   0.593   1.029   1.913 -0.5562 -0.3854 -1.8690
 6666TIP3    H219963   0.585   0.883   1.877  0.9013 -1.1006  0.4543
 6667TIP3   OH219964   7.231   1.089   5.532 -0.0469 -0.1009 -0.7022
 6667TIP3    H119965   7.231   1.020   5.598 -1.7651  1.5462  1.1903
 6667TIP3    H219966   7.138   1.111   5.520  0.4480  2.7895 -0.1256
 6668TIP3   OH219967   2.089   0.268   3.173 -0.3246 -0.2968 -0.2734
 6668TIP3    H119968   2.133   0.272   3.258 -0.8843 -0.0068  0.0135
 6668TIP3    H219969   2.159   0.274   3.109  0.2565 -2.1046  0.1522
 6669TIP3   OH219970   6.629   0.456   4.869  1.0028 -0.0389 -0.0926
 6669TIP3    H119971   6.580   0.507   4.934 -0.5841 -0.2838 -1.0639
 6669TIP3    H219972   6.719   0.489   4.877  0.5013  1.1839  0.9843
 6670TIP3   OH219973   0.985   0.003   2.791  0.0669 -0.2555  0.0642
 6670TIP3    H119974   0.903   0.032   2.833 -0.1007  1.9874 -1.6533
 6670TIP3    H219975   1.052   0.058   2.830  0.6081 -1.2708  0.5952
 6671TIP3   OH219976   0.267   0.342   4.022 -0.0034  0.5894  0.1577
 6671TIP3    H119977   0.359   0.316   4.016 -0.2357 -0.8877  1.8765
 6671TIP3    H219978   0.231   0.324   3.936  1.3289  1.3062 -0.5823
 6672TIP3   OH219979   1.054   1.989   1.453 -0.4621 -0.4520 -0.2587
 6672TIP3    H119980   1.014   2.072   1.426 -1.0883 -1.1094 -1.4396
 6672TIP3    H219981   1.114   2.013   1.523  0.5925  1.2533 -1.6442
 6673TIP3   OH219982   5.691   4.424   5.767  0.1438  0.3946 -0.6494
 6673TIP3    H119983   5.717   4.516   5.780 -3.1971  1.1408  2.8825
 6673TIP3    H219984   5.612   4.429   5.713  0.2355 -0.4486 -0.8705
 6674TIP3   OH219985   0.867   4.543   3.499  0.1757  0.2776 -0.0209
 6674TIP3    H119986   0.826   4.607   3.442  0.8314 -0.7314 -1.6973
 6674TIP3    H219987   0.806   4.470   3.501 -0.4084  0.7734  1.5968
 6675TIP3   OH219988   1.407   6.197   1.592  0.2603 -0.1350  0.6120
 6675TIP3    H119989   1.431   6.183   1.684 -0.9408 -1.0071  0.8269
 6675TIP3    H219990   1.318   6.232   1.596 -0.0129 -0.6960 -0.2209
 6676TIP3   OH219991   6.694   3.418   0.398  0.2826 -0.0186  0.3763
 6676TIP3    H119992   6.625   3.484   0.390 -1.2429 -1.4076  1.4456
 6676TIP3    H219993   6.701   3.400   0.491  1.2511 -0.7895  0.1874
 6677TIP3   OH219994   2.632   5.021   3.145  0.1922  0.2297 -0.0526
 6677TIP3    H119995   2.688   5.096   3.128  0.9355 -0.1953  0.4524
 6677TIP3    H219996   2.591   5.040   3.230 -1.6173  1.2235 -1.0887
 6678TIP3   OH219997   3.878   0.651   1.345 -0.1599  0.1850 -0.2018
 6678TIP3    H119998   3.812   0.638   1.412 -1.3157 -3.1854 -1.7613
 6678TIP3    H219999   3.959   0.619   1.385 -0.2026  0.9817  0.5405
 6679TIP3   OH220000   1.147   6.753   1.661 -0.1069 -0.1317 -0.9080
 6679TIP3    H120001   1.200   6.771   1.739 -0.1405 -0.4704 -0.8051
 6679TIP3    H220002   1.156   6.831   1.607  0.4475 -0.1645 -0.8612
 6680TIP3   OH220003   3.261   2.543   2.701  0.1639  0.8522  0.5205
 6680TIP3    H120004   3.355   2.535   2.717  0.0197  1.2397  1.6014
 6680TIP3    H220005   3.226   2.588   2.778 -0.7132  1.9363 -0.4706
 6681TIP3   OH220006   1.115   0.305   1.050 -0.1816  0.2559 -0.6562
 6681TIP3    H120007   1.036   0.310   1.104 -0.5307 -1.0706 -1.0134
 6681TIP3    H220008   1.182   0.349   1.102 -0.8019  0.1009  0.3068
 6682TIP3   OH220009   5.187   0.930   3.204  0.3202 -0.4919 -0.2353
 6682TIP3    H120010   5.131   0.864   3.164  0.0143 -0.0412 -0.5522
 6682TIP3    H220011   5.276   0.907   3.175  0.2805 -1.0637  0.0765
 6683TIP3   OH220012   5.640   5.593   1.927 -0.1990 -0.5298  0.9118
 6683TIP3    H120013   5.626   5.501   1.950 -2.2230 -0.5800 -0.2079
 6683TIP3    H220014   5.691   5.591   1.846 -1.0968 -0.7438  0.3337
 6684TIP3   OH220015   4.853   2.062   5.785 -0.5069 -0.0248  0.0283
 6684TIP3    H120016   4.924   2.047   5.723  0.8891 -1.1033  1.7841
 6684TIP3    H220017   4.773   2.040   5.737  0.2842  1.3296 -2.0358
 6685TIP3   OH220018   2.475   0.838   5.720 -0.7704  0.0143 -0.0397
 6685TIP3    H120019   2.403   0.852   5.782 -0.6243 -0.7437  0.3235
 6685TIP3    H220020   2.551   0.824   5.776 -0.4916  0.0537 -0.4111
 6686TIP3   OH220021   3.663   2.070   1.954 -0.4289  0.7198 -0.3635
 6686TIP3    H120022   3.742   2.017   1.944  0.1797  1.8482 -2.0231
 6686TIP3    H220023   3.641   2.097   1.865 -2.3764  0.8940  0.1330
 6687TIP3   OH220024   2.766   5.540   0.250  0.0599  0.0187  0.1096
 6687TIP3    H120025   2.788   5.549   0.157  0.4766  1.6219  0.3304
 6687TIP3    H220026   2.835   5.588   0.296  0.9634 -2.3897  1.4137
 6688TIP3   OH220027   2.138   4.359   2.240 -0.0088  0.0235 -0.2634
 6688TIP3    H120028   2.141   4.429   2.305  0.1051  3.9801 -4.0221
 6688TIP3    H220029   2.225   4.361   2.199 -0.3440 -1.6754 -1.1526
 6689TIP3   OH220030   3.359   1.300   2.281 -0.1984  0.4140  0.3383
 6689TIP3    H120031   3.301   1.376   2.278  0.7253  1.1222 -1.7402
 6689TIP3    H220032   3.345   1.256   2.196  1.6047  0.0916  0.1794
 6690TIP3   OH220033   4.088   4.444   3.153 -0.0921 -0.5150 -0.3272
 6690TIP3    H120034   4.170   4.479   3.117 -2.4325  2.8983 -3.0803
 6690TIP3    H220035   4.105   4.433   3.247  3.7043 -0.9122 -0.9159
 6691TIP3   OH220036   0.970   5.759   5.458 -0.2619  0.4471  0.5164
 6691TIP3    H120037   0.907   5.687   5.456  0.7966 -0.4930 -0.9275
 6691TIP3    H220038   0.916   5.838   5.460 -1.5216 -0.3143 -0.9494
 6692TIP3   OH220039   7.174   3.092   5.759 -0.3357  0.1020  0.1305
 6692TIP3    H120040   7.223   3.095   5.677  0.2080 -1.6245  0.3606
 6692TIP3    H220041   7.139   3.003   5.763 -1.0270  0.4036  1.3965
 6693TIP3   OH220042   1.009   5.094   4.485 -0.2455 -0.1929 -0.1657
 6693TIP3    H120043   1.103   5.084   4.466 -0.4452  0.4221 -1.5932
 6693TIP3    H220044   0.992   5.029   4.552  1.3168  0.0303  0.5146
 6694TIP3   OH220045   7.152   6.740   5.190  0.3382  0.2500  0.3472
 6694TIP3    H120046   7.136   6.667   5.249 -1.1583  0.0073 -0.3147
 6694TIP3    H220047   7.226   6.710   5.135 -1.7421 -1.8769 -1.5402
 6695TIP3   OH220048   6.499   3.811   3.667  0.1582  0.2919  0.1999
 6695TIP3    H120049   6.544   3.798   3.751 -0.5215 -1.5615  0.3324
 6695TIP3    H220050   6.416   3.765   3.677 -1.1886  2.4004 -0.5559
 6696TIP3   OH220051   3.498   2.995   0.521 -0.6185  0.5062 -0.2643
 6696TIP3    H120052   3.498   2.997   0.425  0.3898  0.9049 -0.2648
 6696TIP3    H220053   3.590   3.005   0.545 -0.7975 -0.1523  0.7408
 6697TIP3   OH220054   1.659   3.484   5.138 -0.5005  0.0211 -0.2934
 6697TIP3    H120055   1.665   3.575   5.110 -1.2738  0.3826  0.6382
 6697TIP3    H220056   1.673   3.487   5.232 -0.5990 -0.8150 -0.2457
 6698TIP3   OH220057   5.429   4.795   4.600  0.2460  0.7699  0.3102
 6698TIP3    H120058   5.489   4.868   4.585 -1.5518  2.2352 -0.1482
 6698TIP3    H220059   5.378   4.821   4.676  1.1957 -1.1891  1.7227
 6699TIP3   OH220060   4.707   4.296   0.041 -0.1817 -0.0440  0.1001
 6699TIP3    H120061   4.662   4.374   0.009  0.2901 -0.1131 -0.7676
 6699TIP3    H220062   4.762   4.328   0.112 -1.6548  0.0198  1.2691
 6700TIP3   OH220063   6.922   3.908   1.958 -0.2214 -0.2802  0.0197
 6700TIP3    H120064   6.890   3.969   2.024 -0.0600 -0.4893  0.2926
 6700TIP3    H220065   6.847   3.892   1.902 -1.1882 -2.2869  1.7688
 6701TIP3   OH220066   6.674   4.068   2.643 -0.1664 -0.3647 -0.1299
 6701TIP3    H120067   6.711   4.010   2.710 -0.0985 -1.1485 -0.8280
 6701TIP3    H220068   6.697   4.156   2.672 -0.7896 -0.6268  1.2738
 6702TIP3   OH220069   1.917   4.830   3.009  0.8348  0.5862 -0.4202
 6702TIP3    H120070   1.881   4.790   2.930  0.2568 -1.5293  0.8224
 6702TIP3    H220071   2.002   4.864   2.981  0.7872 -0.3844 -1.8863
 6703TIP3   OH220072   4.687   2.926   3.126  0.2049 -0.2638  0.1055
 6703TIP3    H120073   4.611   2.975   3.094  0.0009 -0.7502 -0.1660
 6703TIP3    H220074   4.697   2.953   3.217 -1.7620 -1.9517  0.8844
 6704TIP3   OH220075   3.430   2.938   1.164 -0.0041  0.3488  0.4993
 6704TIP3    H120076   3.357   2.930   1.225  0.5156 -0.1450  1.0682
 6704TIP3    H220077   3.503   2.967   1.219  0.3955  0.1894  0.0505
 6705TIP3   OH220078   3.460   3.511   0.675  0.5561  0.1213 -0.1002
 6705TIP3    H120079   3.538   3.504   0.621 -0.1191  1.9311 -1.4160
 6705TIP3    H220080   3.411   3.431   0.656  0.7178  0.3462 -1.5886
 6706TIP3   OH220081   4.946   1.247   0.394  0.2227  0.0190  0.3310
 6706TIP3    H120082   4.965   1.155   0.375 -1.6813 -0.8726  2.3160
 6706TIP3    H220083   4.871   1.268   0.338  0.7770  0.4520 -0.2638
 6707TIP3   OH220084   6.926   0.159   0.387  0.2313 -0.6614 -0.2044
 6707TIP3    H120085   6.859   0.192   0.328 -0.7393 -1.3953  0.4615
 6707TIP3    H220086   6.985   0.233   0.402  0.1712 -0.3137 -1.6235
 6708TIP3   OH220087   5.473   6.666   4.935  0.8171  0.0125 -0.1543
 6708TIP3    H120088   5.546   6.675   4.997  0.4521 -0.7551  0.3997
 6708TIP3    H220089   5.514   6.632   4.855  0.8572 -2.1823  0.7276
 6709TIP3   OH220090   2.098   4.683   2.167 -0.1838  0.7169  0.3659
 6709TIP3    H120091   2.178   4.677   2.116 -0.3467 -0.0600  0.1882
 6709TIP3    H220092   2.127   4.682   2.258  0.1227  2.3333  0.3161
 6710TIP3   OH220093   4.552   1.255   5.694 -0.2311  0.7596  0.4356
 6710TIP3    H120094   4.607   1.221   5.623 -0.6152  1.2481 -0.1062
 6710TIP3    H220095   4.475   1.197   5.694 -0.3274  0.8861  0.3100
 6711TIP3   OH220096   0.715   3.091   1.231  0.5123 -0.0515 -0.0562
 6711TIP3    H120097   0.787   3.129   1.179  0.3235 -2.8002 -2.6349
 6711TIP3    H220098   0.702   3.004   1.193 -2.7895 -0.5006  1.7325
 6712TIP3   OH220099   1.589   5.489   3.473 -0.2171 -0.0349  0.1887
 6712TIP3    H120100   1.626   5.498   3.561 -0.8520  1.9035  0.2953
 6712TIP3    H220101   1.649   5.538   3.416  0.2614 -1.3780 -0.5108
 6713TIP3   OH220102   6.157   2.785   2.147  0.0543 -0.3436  0.3926
 6713TIP3    H120103   6.222   2.772   2.078  0.6971 -0.1468  0.9411
 6713TIP3    H220104   6.129   2.876   2.138  0.0292 -0.3621  0.2924
 6714TIP3   OH220105   2.238   4.466   5.647  0.7989 -0.4843  0.1681
 6714TIP3    H120106   2.330   4.487   5.660  0.7107  0.3717 -0.4411
 6714TIP3    H220107   2.238   4.397   5.581  0.9867  0.4556 -0.8642
 6715TIP3   OH220108   4.399   4.260   3.540  0.1987  0.0962  0.1846
 6715TIP3    H120109   4.350   4.315   3.601  2.3579  1.5632  0.7161
 6715TIP3    H220110   4.409   4.314   3.462  1.8302  0.2920  0.4916
 6716TIP3   OH220111   0.487   2.392   1.014  0.0878 -0.0625  0.0408
 6716TIP3    H120112   0.413   2.445   0.985 -0.2417 -0.9605 -0.7962
 6716TIP3    H220113   0.448   2.330   1.076  0.2752 -0.0689  0.1519
 6717TIP3   OH220114   0.604   4.393   4.598 -0.3907  0.0386 -0.1085
 6717TIP3    H120115   0.632   4.385   4.507  0.2027 -1.0060  0.1550
 6717TIP3    H220116   0.522   4.443   4.594  0.3874  1.2908 -1.0785
 6718TIP3   OH220117   2.707   0.569   5.167  0.3119  0.1943  0.0714
 6718TIP3    H120118   2.657   0.494   5.197 -2.4104  1.4010 -1.1177
 6718TIP3    H220119   2.783   0.531   5.123 -0.8482 -1.8677 -0.2819
 6719TIP3   OH220120   6.419   1.573   3.731  0.1700 -0.5478  0.2121
 6719TIP3    H120121   6.374   1.658   3.732  2.3024  0.7238  3.2517
 6719TIP3    H220122   6.385   1.527   3.808  1.7679 -0.8016  0.8084
 6720TIP3   OH220123   0.596   3.252   3.741 -0.6449 -0.0627  0.0947
 6720TIP3    H120124   0.556   3.336   3.721 -1.1623 -0.0064  1.3545
 6720TIP3    H220125   0.536   3.187   3.704 -1.0934  0.0696  0.5914
 6721TIP3   OH220126   5.207   1.019   1.789  0.3968 -0.0626  0.0317
 6721TIP3    H120127   5.249   1.100   1.818  0.7352 -0.6585  1.2735
 6721TIP3    H220128   5.154   0.991   1.864  1.3736 -1.7085  0.1591
 6722TIP3   OH220129   4.334   1.524   1.669 -0.2162 -0.1795  0.0779
 6722TIP3    H120130   4.406   1.573   1.630 -0.9629  2.1659  1.4902
 6722TIP3    H220131   4.351   1.433   1.643  1.4358  0.7159 -2.3269
 6723TIP3   OH220132   3.715   1.080   2.760 -0.7796  0.6570  0.3130
 6723TIP3    H120133   3.620   1.071   2.767 -0.6579 -1.3858 -0.0556
 6723TIP3    H220134   3.747   1.073   2.850 -0.9146  0.2048  0.3280
 6724TIP3   OH220135   1.194   4.666   2.592  0.3302  0.0295 -0.0934
 6724TIP3    H120136   1.197   4.603   2.520  0.1239 -0.2094  0.1035
 6724TIP3    H220137   1.162   4.747   2.553  2.6902  0.6863 -0.8299
 6725TIP3   OH220138   0.901   2.776   2.031  0.0063  0.7738 -0.2957
 6725TIP3    H120139   0.862   2.770   2.118  0.1394  4.0816  0.1268
 6725TIP3    H220140   0.993   2.752   2.044  0.0782  1.4445  0.5616
 6726TIP3   OH220141   1.596   0.667   2.409  0.2176 -0.1395 -0.0405
 6726TIP3    H120142   1.555   0.742   2.365 -0.9860 -1.4387 -1.2481
 6726TIP3    H220143   1.662   0.706   2.465 -1.5449  1.9781  0.7400
 6727TIP3   OH220144   6.277   2.771   5.591  0.6521  0.1347 -0.3906
 6727TIP3    H120145   6.278   2.829   5.667  1.2830 -0.1314 -0.1822
 6727TIP3    H220146   6.203   2.800   5.538  1.0315  1.2202 -0.3533
 6728TIP3   OH220147   4.008   6.224   0.649  0.7092  0.6321 -0.4650
 6728TIP3    H120148   4.003   6.160   0.720  3.8944 -0.0402 -0.6972
 6728TIP3    H220149   4.084   6.198   0.598 -0.7326  1.8072 -3.4941
 6729TIP3   OH220150   6.694   1.689   1.531 -0.0836  0.7861 -0.1488
 6729TIP3    H120151   6.695   1.682   1.626  0.5179  0.7549 -0.1511
 6729TIP3    H220152   6.724   1.603   1.500 -2.1507  0.1107 -0.4287
 6730TIP3   OH220153   6.409   5.103   3.656 -0.1311 -0.0643 -0.0770
 6730TIP3    H120154   6.399   5.197   3.641 -1.0396 -0.0959  0.2200
 6730TIP3    H220155   6.321   5.075   3.683  0.2881 -0.8775  0.4601
 6731TIP3   OH220156   3.916   6.670   3.224  0.1112 -0.4548  0.5398
 6731TIP3    H120157   3.907   6.664   3.319  0.3226 -1.4778  0.5024
 6731TIP3    H220158   3.829   6.692   3.192  0.1829  0.6106  1.0081
 6732TIP3   OH220159   1.407   0.421   5.084 -0.8394 -0.0898 -0.2797
 6732TIP3    H120160   1.429   0.432   5.176 -1.3346 -1.5422  0.0370
 6732TIP3    H220161   1.338   0.484   5.068 -1.5772 -0.6239  0.6736
 6733TIP3   OH220162   1.370   0.180   5.708 -0.0366 -0.0014  0.2234
 6733TIP3    H120163   1.465   0.182   5.720  0.1297  0.1460 -1.0001
 6733TIP3    H220164   1.351   0.257   5.655 -0.9605  0.4245  1.1179
 6734TIP3   OH220165   5.754   5.680   1.596 -0.5188 -0.1826 -0.3262
 6734TIP3    H120166   5.670   5.701   1.556 -0.7575  1.9175  1.0745
 6734TIP3    H220167   5.813   5.662   1.523 -1.3465  1.7320 -1.5186
 6735TIP3   OH220168   4.641   2.070   0.836  0.3702  0.3650  0.2070
 6735TIP3    H120169   4.714   2.129   0.851  1.1779 -0.4477 -0.4371
 6735TIP3    H220170   4.582   2.118   0.778  0.7755  0.7334  0.1013
 6736TIP3   OH220171   3.399   1.745   4.902  0.3785  0.6371  0.0425
 6736TIP3    H120172   3.426   1.816   4.844 -1.8166  1.9211  0.4947
 6736TIP3    H220173   3.309   1.766   4.927  0.4468 -1.0818  2.0823
 6737TIP3   OH220174   5.625   4.772   5.617 -1.0578  0.8999 -0.3638
 6737TIP3    H120175   5.717   4.752   5.599 -1.1971 -1.1904  1.0175
 6737TIP3    H220176   5.588   4.788   5.530  0.5611  1.7670 -0.9586
 6738TIP3   OH220177   3.174   5.098   0.830 -0.8518  0.0927  0.1337
 6738TIP3    H120178   3.108   5.147   0.781 -0.1101  2.3683  1.2894
 6738TIP3    H220179   3.124   5.036   0.883 -1.8850  0.1594 -0.7354
 6739TIP3   OH220180   5.810   3.691   0.260 -0.2433  0.0099 -0.7237
 6739TIP3    H120181   5.796   3.610   0.210  1.0011 -2.2233  2.2359
 6739TIP3    H220182   5.902   3.688   0.286 -0.4051  1.9515  0.2456
 6740TIP3   OH220183   2.853   2.987   5.356  0.0298  0.2564  0.3656
 6740TIP3    H120184   2.828   2.905   5.313 -0.5585  1.8364 -2.5890
 6740TIP3    H220185   2.772   3.017   5.399 -0.1529  0.0016  0.2031
 6741TIP3   OH220186   6.624   3.006   1.232  0.3660  0.4297 -0.0792
 6741TIP3    H120187   6.692   3.051   1.182  0.0534 -0.6001 -1.4893
 6741TIP3    H220188   6.654   2.916   1.239 -1.0247 -0.1497 -1.1253
 6742TIP3   OH220189   2.760   2.827   4.587  0.3979 -0.2204  0.8101
 6742TIP3    H120190   2.833   2.814   4.527  0.9704  0.5719  1.3099
 6742TIP3    H220191   2.749   2.922   4.591 -0.2554 -0.3090  1.2150
 6743TIP3   OH220192   6.670   4.657   3.319  0.2282  0.2911 -0.0046
 6743TIP3    H120193   6.584   4.648   3.277  0.0227  0.1213  0.4441
 6743TIP3    H220194   6.697   4.747   3.299  0.1044  0.2321 -0.4455
 6744TIP3   OH220195   6.503   1.702   0.464  0.1204 -0.1016  1.1699
 6744TIP3    H120196   6.414   1.700   0.427 -0.1284 -0.0052  1.7585
 6744TIP3    H220197   6.554   1.751   0.399 -0.5468  0.9975  1.4497
 6745TIP3   OH220198   6.389   1.398   3.455  0.3576 -0.0343 -0.0184
 6745TIP3    H120199   6.449   1.396   3.381  0.7166 -0.2229  0.2729
 6745TIP3    H220200   6.375   1.491   3.473 -2.9672  0.2498 -2.8913
 6746TIP3   OH220201   5.340   3.173   0.669  0.6612  0.2881 -0.2369
 6746TIP3    H120202   5.339   3.080   0.691 -2.3069  0.2500 -0.1070
 6746TIP3    H220203   5.394   3.179   0.591 -1.9574 -2.2194 -2.4843
 6747TIP3   OH220204   0.846   3.622   4.230 -0.3272  0.6998  0.1454
 6747TIP3    H120205   0.886   3.574   4.302 -2.4128 -0.4713  0.6273
 6747TIP3    H220206   0.820   3.706   4.268  2.3160  1.8433 -0.4024
 6748TIP3   OH220207   6.547   1.080   2.302 -0.2670  0.1739  0.0299
 6748TIP3    H120208   6.591   1.134   2.236  0.1585  0.3351  0.4404
 6748TIP3    H220209   6.538   1.138   2.378 -0.3381 -0.1526  0.2728
 6749TIP3   OH220210   5.153   4.308   0.991 -0.0347 -0.9047 -0.1817
 6749TIP3    H120211   5.110   4.393   0.996  0.7668 -0.5398  0.7206
 6749TIP3    H220212   5.226   4.321   0.931 -0.0543 -1.0310 -0.2339
 6750TIP3   OH220213   6.846   4.287   1.920 -0.3181  0.7219 -0.2139
 6750TIP3    H120214   6.788   4.300   1.845 -1.0595  0.4380  0.2950
 6750TIP3    H220215   6.789   4.296   1.997  0.7105  2.5323  0.3963
 6751TIP3   OH220216   5.957   0.538   5.100  0.4468 -0.0013  0.3778
 6751TIP3    H120217   5.951   0.571   5.010 -3.2570  0.4743  0.6444
 6751TIP3    H220218   5.866   0.533   5.130  1.4153 -2.0589  3.4567
 6752TIP3   OH220219   1.971   0.216   4.011  0.5380 -0.1685 -0.4107
 6752TIP3    H120220   1.892   0.213   4.064 -0.5007 -2.2044 -1.9446
 6752TIP3    H220221   2.037   0.170   4.063  0.5259  0.8322  0.5223
 6753TIP3   OH220222   2.258   0.566   4.981 -0.1780 -0.1997  0.1587
 6753TIP3    H120223   2.337   0.596   5.026 -0.1698  1.3683 -0.8236
 6753TIP3    H220224   2.280   0.571   4.888 -1.1961 -0.4064 -0.1087
 6754TIP3   OH220225   1.198   0.681   1.011  0.2350  0.5802  0.4835
 6754TIP3    H120226   1.139   0.698   1.085 -0.5719  0.3601 -0.0972
 6754TIP3    H220227   1.229   0.591   1.025  0.2841  0.6287  0.6883
 6755TIP3   OH220228   4.011   6.214   2.630 -0.4953 -0.3478  0.0613
 6755TIP3    H120229   3.920   6.200   2.658 -0.2533 -1.3568  0.3911
 6755TIP3    H220230   4.063   6.189   2.706  0.0830 -0.3847 -0.3422
 6756TIP3   OH220231   1.760   3.554   1.931 -0.2382 -0.2327  0.4954
 6756TIP3    H120232   1.848   3.582   1.907 -0.5015  0.5792  0.4481
 6756TIP3    H220233   1.758   3.460   1.911  0.3085 -0.0629 -0.4231
 6757TIP3   OH220234   3.943   4.679   4.058  0.2215 -0.1940  0.9236
 6757TIP3    H120235   3.893   4.744   4.107 -1.0088 -1.8596  2.0213
 6757TIP3    H220236   3.884   4.604   4.052  1.2826 -0.9521 -0.9724
 6758TIP3   OH220237   1.000   5.515   2.047 -0.3586 -0.1267  0.1730
 6758TIP3    H120238   0.970   5.438   2.000 -1.9618  0.8883 -0.5332
 6758TIP3    H220239   0.948   5.517   2.127  1.3999 -1.0786  1.4313
 6759TIP3   OH220240   0.717   6.182   4.219 -0.4297 -0.0716  0.7330
 6759TIP3    H120241   0.748   6.254   4.272 -2.8441  0.5079  1.4823
 6759TIP3    H220242   0.708   6.109   4.280 -0.6147 -0.1932  0.5634
 6760TIP3   OH220243   2.845   4.207   2.266 -0.2446 -0.9504 -0.0557
 6760TIP3    H120244   2.841   4.301   2.284  0.8604 -0.5997 -1.4294
 6760TIP3    H220245   2.759   4.185   2.231  0.0541 -0.0255 -1.4548
 6761TIP3   OH220246   1.950   0.747   0.254  0.2528 -0.0857  0.1406
 6761TIP3    H120247   1.887   0.707   0.193  1.2607 -0.9176 -0.3760
 6761TIP3    H220248   1.993   0.672   0.295  0.5175  0.4821  0.9077
 6762TIP3   OH220249   6.263   5.404   3.643  0.2869  0.2170 -0.2447
 6762TIP3    H120250   6.174   5.392   3.676 -0.2197 -1.0025 -1.9254
 6762TIP3    H220251   6.313   5.434   3.719 -1.1252 -0.9994  1.2404
 6763TIP3   OH220252   3.889   0.975   2.287 -0.5329 -0.3730  0.0574
 6763TIP3    H120253   3.854   1.063   2.277 -1.6340 -0.5030  2.1631
 6763TIP3    H220254   3.816   0.917   2.265 -0.4353 -0.7133  0.6008
 6764TIP3   OH220255   4.307   1.792   0.404  0.3705  0.8286  0.1492
 6764TIP3    H120256   4.396   1.813   0.377 -0.0171  1.0384 -1.0373
 6764TIP3    H220257   4.318   1.729   0.476  1.4723 -0.5037 -1.1159
 6765TIP3   OH220258   5.620   2.923   5.255  0.1217  0.5079  0.2225
 6765TIP3    H120259   5.576   2.908   5.171 -0.3282  1.8275  0.2010
 6765TIP3    H220260   5.570   2.869   5.317  0.2335 -0.1953 -0.2791
 6766TIP3   OH220261   5.976   2.227   1.819 -0.3450 -0.6478 -0.5164
 6766TIP3    H120262   6.009   2.143   1.785 -0.1469 -0.7972  0.0346
 6766TIP3    H220263   5.976   2.216   1.914 -1.2466 -0.3639 -0.4792
 6767TIP3   OH220264   4.611   0.321   4.152 -0.5118 -0.2237  0.2128
 6767TIP3    H120265   4.614   0.225   4.142 -0.2299 -0.1192 -0.8867
 6767TIP3    H220266   4.546   0.349   4.088  1.5184  0.5440 -1.6408
 6768TIP3   OH220267   3.256   6.679   5.048 -0.6608  0.2810 -0.3432
 6768TIP3    H120268   3.302   6.742   5.104 -0.7559  1.3892 -1.4561
 6768TIP3    H220269   3.200   6.734   4.992 -2.1754 -0.9280 -0.0819
 6769TIP3   OH220270   3.222   1.187   5.504 -0.4715  0.0753 -0.3720
 6769TIP3    H120271   3.240   1.107   5.552  0.8826  0.3147 -0.4529
 6769TIP3    H220272   3.132   1.176   5.472 -0.8012 -0.7905  0.7933
 6770TIP3   OH220273   3.509   4.365   1.856 -0.1463 -0.1655  0.5615
 6770TIP3    H120274   3.579   4.430   1.854  2.6480 -2.8867  0.2491
 6770TIP3    H220275   3.452   4.387   1.783 -0.0168  2.5148  1.1824
 6771TIP3   OH220276   6.290   2.672   0.495  0.3121  0.1125  0.1937
 6771TIP3    H120277   6.235   2.650   0.420 -1.4481  1.6316  0.9597
 6771TIP3    H220278   6.378   2.682   0.458 -0.4767  0.6366 -1.6602
 6772TIP3   OH220279   3.904   6.099   1.118 -0.5833  0.8016  0.1218
 6772TIP3    H120280   3.852   6.147   1.181  0.2020  1.5579  0.2158
 6772TIP3    H220281   3.962   6.044   1.170 -2.2648 -1.1657  0.0086
 6773TIP3   OH220282   6.021   2.282   5.335  0.2461 -0.1022  0.1225
 6773TIP3    H120283   5.984   2.206   5.290  0.3363  0.5046 -1.0074
 6773TIP3    H220284   6.071   2.245   5.408 -0.4867 -1.0676  0.1474
 6774TIP3   OH220285   0.011   6.383   4.342  0.6821  0.2039 -0.2756
 6774TIP3    H120286   0.100   6.383   4.377  1.7390 -0.0015 -2.7154
 6774TIP3    H220287  -0.029   6.304   4.377  1.1162  0.7764  1.5906
 6775TIP3   OH220288   0.604   0.898   4.819  0.1366  0.0333 -0.2631
 6775TIP3    H120289   0.512   0.909   4.798  0.0404  0.2841  0.2741
 6775TIP3    H220290   0.650   0.922   4.739 -0.3442 -3.2950 -1.7208
 6776TIP3   OH220291   3.674   0.039   4.318 -0.4268  0.3559 -0.3946
 6776TIP3    H120292   3.680   0.095   4.241 -2.8597 -0.4292 -1.2494
 6776TIP3    H220293   3.581   0.036   4.338  0.1784  1.5361  3.4196
 6777TIP3   OH220294   6.029   3.739   1.436  0.0940 -0.1889  0.2004
 6777TIP3    H120295   6.119   3.721   1.460  0.8237 -1.1319 -2.7773
 6777TIP3    H220296   5.983   3.656   1.450  0.5950 -0.8423 -1.6713
 6778TIP3   OH220297   3.554   5.169   5.034  0.9192 -0.2336  0.5722
 6778TIP3    H120298   3.544   5.090   5.087  2.5976 -0.3398  0.8029
 6778TIP3    H220299   3.553   5.240   5.098  0.2025 -0.1311  0.4485
 6779TIP3   OH220300   2.208   2.079   5.738 -0.1030  0.0594 -0.0304
 6779TIP3    H120301   2.228   2.105   5.648 -1.7484 -2.5445 -1.2752
 6779TIP3    H220302   2.292   2.047   5.773  0.7858  2.0971 -0.1905
 6780TIP3   OH220303   4.778   1.830   0.631  0.2917  1.0031 -0.1403
 6780TIP3    H120304   4.730   1.906   0.598 -0.9809 -0.1718 -1.1116
 6780TIP3    H220305   4.761   1.761   0.566  1.3959 -0.1254  0.7212
 6781TIP3   OH220306   3.294   2.231   1.330 -0.0704 -0.4336  0.6432
 6781TIP3    H120307   3.281   2.326   1.326  1.8376 -0.0723  1.7046
 6781TIP3    H220308   3.340   2.217   1.413 -1.7059 -2.4977  1.2708
 6782TIP3   OH220309   5.073   6.330   2.586 -0.0580 -0.3331 -0.3411
 6782TIP3    H120310   4.988   6.373   2.593 -0.1335 -0.6853  1.5952
 6782TIP3    H220311   5.077   6.298   2.496 -2.5921 -1.4967 -0.1157
 6783TIP3   OH220312   5.391   5.744   3.758  0.0865  0.2288 -0.0136
 6783TIP3    H120313   5.412   5.740   3.852  0.6572 -0.2033 -0.1568
 6783TIP3    H220314   5.453   5.807   3.722  0.8015 -0.6599 -0.3483
 6784TIP3   OH220315   4.317   0.718   2.685 -0.0380  0.3409 -0.0309
 6784TIP3    H120316   4.247   0.690   2.743 -0.6377 -0.3986 -1.0896
 6784TIP3    H220317   4.396   0.712   2.738 -0.5230 -0.6663  0.6037
 6785TIP3   OH220318   3.827   5.086   5.364 -0.6269  0.3929  0.6520
 6785TIP3    H120319   3.900   5.061   5.307 -0.3309 -0.4023  1.3613
 6785TIP3    H220320   3.853   5.172   5.399 -0.6128  0.6843 -0.0566
 6786TIP3   OH220321   4.354   4.353   3.270 -0.1110 -0.2138 -0.2775
 6786TIP3    H120322   4.366   4.432   3.218 -0.8328  0.7120  0.9114
 6786TIP3    H220323   4.345   4.283   3.205  0.6936  0.6389 -1.3451
 6787TIP3   OH220324   6.477   2.884   5.413  0.6209 -0.4062  0.5152
 6787TIP3    H120325   6.548   2.821   5.430  0.8095 -0.0796  0.9441
 6787TIP3    H220326   6.414   2.869   5.484  0.5350 -0.2972  0.4623
 6788TIP3   OH220327   6.181   4.976   5.761  0.0958 -0.6757  0.4440
 6788TIP3    H120328   6.260   5.027   5.742 -0.0806 -0.1285  1.1664
 6788TIP3    H220329   6.213   4.897   5.804  0.3118 -0.8462 -0.0224
 6789TIP3   OH220330   0.879   2.480   2.161  1.1826  0.0519  0.5633
 6789TIP3    H120331   0.817   2.466   2.233  0.7091 -1.7704 -0.1454
 6789TIP3    H220332   0.824   2.504   2.086  1.5198  0.3663  0.4138
 6790TIP3   OH220333   2.541   2.546   5.067 -0.5352  0.0633 -0.2476
 6790TIP3    H120334   2.579   2.502   4.991 -1.0894  0.7249 -0.9282
 6790TIP3    H220335   2.537   2.479   5.135 -1.4663 -0.9914 -1.2918
 6791TIP3   OH220336   2.240   2.602   5.881  0.1899 -0.5261 -0.7797
 6791TIP3    H120337   2.259   2.598   5.787  0.4359 -0.8268 -0.7193
 6791TIP3    H220338   2.165   2.543   5.893 -1.1809  1.0797 -1.1055
 6792TIP3   OH220339   2.282   2.499   3.480 -0.1384 -0.2193 -0.8254
 6792TIP3    H120340   2.253   2.587   3.457 -1.6454 -0.4852 -0.0369
 6792TIP3    H220341   2.240   2.442   3.415 -0.9859 -0.5508 -0.0106
 6793TIP3   OH220342   4.121   2.406   3.093  0.2312  0.5139 -0.1095
 6793TIP3    H120343   4.204   2.444   3.065  1.0285 -0.2197  1.1915
 6793TIP3    H220344   4.125   2.405   3.188 -0.5965 -0.9621 -0.0562
 6794TIP3   OH220345   3.232   1.102   2.085 -0.1877 -0.2843 -0.4895
 6794TIP3    H120346   3.250   1.013   2.054 -1.9444 -0.3334 -1.4842
 6794TIP3    H220347   3.161   1.091   2.148  0.0801  0.3575 -0.0663
 6795TIP3   OH220348   5.829   6.801   4.734  0.2501  0.0315 -0.1755
 6795TIP3    H120349   5.835   6.806   4.829  0.5086  0.6982 -0.2266
 6795TIP3    H220350   5.917   6.774   4.706  0.9904  2.4436 -0.3944
 6796TIP3   OH220351   2.701   6.580   2.498  0.3553  0.2220 -0.2749
 6796TIP3    H120352   2.666   6.595   2.410  1.7014  0.4192 -0.7875
 6796TIP3    H220353   2.637   6.522   2.540 -0.2330  0.0324 -1.4193
 6797TIP3   OH220354   4.196   5.229   4.724 -0.1976 -0.5745  0.2941
 6797TIP3    H120355   4.134   5.171   4.680  0.6018 -2.3428  1.3709
 6797TIP3    H220356   4.282   5.197   4.698  0.2711  0.5651  0.3984
 6798TIP3   OH220357   3.983   1.145   4.574  0.9063 -0.0978  0.3140
 6798TIP3    H120358   4.059   1.182   4.530 -0.0558 -0.8313 -2.0944
 6798TIP3    H220359   3.976   1.056   4.539 -1.2896  0.0846  0.1955
 6799TIP3   OH220360   0.722   5.846   4.822  0.0946  0.4198 -0.0247
 6799TIP3    H120361   0.814   5.850   4.795  0.1797 -2.7229 -0.6061
 6799TIP3    H220362   0.678   5.805   4.747 -0.8441 -2.5057  1.9739
 6800TIP3   OH220363   4.130   3.265   0.199  0.5283  0.0466 -0.0698
 6800TIP3    H120364   4.179   3.214   0.135  1.9933 -0.4250  1.3585
 6800TIP3    H220365   4.143   3.356   0.173  1.3653 -0.1271 -0.2807
 6801TIP3   OH220366   0.764   2.244   2.918 -0.2934 -0.3308  0.3856
 6801TIP3    H120367   0.768   2.310   2.988  0.3540  0.9537 -0.8175
 6801TIP3    H220368   0.780   2.161   2.963  2.4511  0.6693  1.5272
 6802TIP3   OH220369   1.431   5.065   3.267 -0.9143  0.3349  0.1904
 6802TIP3    H120370   1.376   5.023   3.201 -0.0822 -1.3128  0.4923
 6802TIP3    H220371   1.377   5.137   3.300 -2.0688  0.0507 -0.9666
 6803TIP3   OH220372   6.451   1.364   2.771 -0.0612 -0.1333 -0.0452
 6803TIP3    H120373   6.385   1.352   2.839  0.1713 -0.4972  0.1173
 6803TIP3    H220374   6.417   1.316   2.695  1.2467 -2.6146  0.8490
 6804TIP3   OH220375   6.711   2.120   0.141 -0.0019  0.2770  0.3346
 6804TIP3    H120376   6.775   2.166   0.196  0.2424  1.4113 -0.8544
 6804TIP3    H220377   6.754   2.114   0.055 -0.8314 -0.4496 -0.0395
 6805TIP3   OH220378   4.257   4.622   0.814  0.1841 -0.2992  0.6826
 6805TIP3    H120379   4.288   4.661   0.896 -0.4427  3.3199 -0.5962
 6805TIP3    H220380   4.163   4.638   0.815 -0.0281 -1.3941 -0.2069
 6806TIP3   OH220381   2.168   2.961   1.697  0.2566 -0.2695  0.1474
 6806TIP3    H120382   2.078   2.985   1.722 -0.1756 -1.2523 -0.4128
 6806TIP3    H220383   2.192   3.026   1.630 -0.1387 -0.1799  0.0894
 6807TIP3   OH220384   4.700   6.150   2.138 -0.2191 -0.3193  0.1616
 6807TIP3    H120385   4.691   6.234   2.183  0.3315  0.1380 -0.5657
 6807TIP3    H220386   4.795   6.136   2.134 -0.2603 -2.7058  3.4413
 6808TIP3   OH220387   0.953   2.608   1.520 -0.4533  0.9810  0.4006
 6808TIP3    H120388   0.938   2.702   1.533 -1.3547  1.7087 -4.0504
 6808TIP3    H220389   0.868   2.573   1.496  0.1431 -0.6690  0.5384
 6809TIP3   OH220390   0.159   5.921   1.609  0.2939 -0.8621  0.0808
 6809TIP3    H120391   0.196   5.988   1.552 -0.0926  0.0457  0.8711
 6809TIP3    H220392   0.069   5.911   1.579  0.2449 -0.7670  0.1966
 6810TIP3   OH220393   1.809   0.586   4.038 -0.0605 -0.1950  0.2576
 6810TIP3    H120394   1.757   0.665   4.029  1.4909  0.8498  0.1568
 6810TIP3    H220395   1.846   0.571   3.951 -1.8412 -2.1811 -0.2603
 6811TIP3   OH220396   6.327   1.949   2.515 -0.5300 -0.6134 -0.4089
 6811TIP3    H120397   6.287   1.966   2.601  0.3908 -0.3283 -0.0290
 6811TIP3    H220398   6.388   1.877   2.531 -0.7294 -0.9048 -0.9448
 6812TIP3   OH220399   5.427   0.090   1.714  0.6862 -0.1136  0.0726
 6812TIP3    H120400   5.387   0.121   1.632 -1.1438 -0.3157  0.8308
 6812TIP3    H220401   5.462   0.004   1.693  0.0800 -0.2394 -0.4606
 6813TIP3   OH220402   2.847   0.800   5.256  0.0414 -0.7522  0.0951
 6813TIP3    H120403   2.789   0.730   5.227 -1.3416  0.1468  0.6215
 6813TIP3    H220404   2.808   0.880   5.222  1.6933 -0.2045 -0.6434
 6814TIP3   OH220405   7.008   3.992   3.108 -0.4061 -0.0924  0.5519
 6814TIP3    H120406   6.957   4.000   3.189 -0.7352 -0.4339  0.3849
 6814TIP3    H220407   7.017   4.082   3.076  2.0849  0.4059  2.3745
 6815TIP3   OH220408   1.877   3.861   2.752  0.2133 -0.3381  0.4239
 6815TIP3    H120409   1.889   3.889   2.661 -0.9709 -1.6949 -0.1864
 6815TIP3    H220410   1.791   3.895   2.777  0.0672 -0.8725  0.6630
 6816TIP3   OH220411   1.666   5.219   0.104 -0.5859 -0.3116 -0.0095
 6816TIP3    H120412   1.614   5.299   0.115 -2.8670 -1.7286  0.2311
 6816TIP3    H220413   1.675   5.209   0.010 -0.6144  0.0486 -0.0517
 6817TIP3   OH220414   6.165   6.539   0.888  0.3358  0.2918 -0.1961
 6817TIP3    H120415   6.188   6.604   0.821 -0.6816  0.0845 -0.7620
 6817TIP3    H220416   6.240   6.540   0.948  0.7583  1.3036 -0.7063
 6818TIP3   OH220417   2.174   0.183   4.334  0.7021  0.7746 -0.3878
 6818TIP3    H120418   2.132   0.127   4.268  0.3178  0.7385 -0.1159
 6818TIP3    H220419   2.214   0.254   4.284 -3.1879  3.2072 -0.4653
 6819TIP3   OH220420   2.904   4.741   5.721 -0.6929 -0.0609 -0.0586
 6819TIP3    H120421   2.872   4.803   5.656 -0.7947  0.1629  0.2030
 6819TIP3    H220422   2.975   4.787   5.766 -2.1397  0.6913  1.5673
 6820TIP3   OH220423   2.739   3.455   3.479  0.7758  0.1081  0.5017
 6820TIP3    H120424   2.675   3.405   3.530  0.9833 -0.4564  0.2214
 6820TIP3    H220425   2.719   3.546   3.498 -0.6194 -0.0247 -0.1651
 6821TIP3   OH220426   1.345   1.964   3.074 -0.7592  0.4611 -0.1343
 6821TIP3    H120427   1.374   2.050   3.105 -1.1158  0.5187  0.0480
 6821TIP3    H220428   1.400   1.946   2.998  0.2967  0.2087  0.6705
 6822TIP3   OH220429   0.908   2.741   4.335 -0.3093  0.4733  0.5728
 6822TIP3    H120430   0.863   2.677   4.279 -0.6739  0.5438  0.7808
 6822TIP3    H220431   0.838   2.792   4.374 -0.1492 -0.4769  2.1884
 6823TIP3   OH220432   0.890   0.894   0.199  0.1339 -0.2139 -0.4137
 6823TIP3    H120433   0.983   0.887   0.219 -0.4542  2.0551  4.5701
 6823TIP3    H220434   0.856   0.805   0.212  1.2269 -0.4915  0.7417
 6824TIP3   OH220435   2.952   5.224   0.307 -0.0272 -0.3899 -0.0728
 6824TIP3    H120436   2.995   5.309   0.307 -0.8245  0.0234 -0.5083
 6824TIP3    H220437   2.870   5.238   0.353 -0.4439 -0.7665 -0.6848
 6825TIP3   OH220438   6.688   2.866   4.167 -0.4349 -0.2565 -0.1417
 6825TIP3    H120439   6.681   2.882   4.261 -0.0327  1.9108 -0.4307
 6825TIP3    H220440   6.776   2.830   4.155 -1.2966 -2.8357  0.5084
 6826TIP3   OH220441   2.815   3.273   5.348  0.1127 -0.7454  0.5679
 6826TIP3    H120442   2.899   3.294   5.390  0.1484 -0.4238  0.3393
 6826TIP3    H220443   2.771   3.215   5.410 -0.1923  0.3744  1.4345
 6827TIP3   OH220444   4.890   5.189   2.773  0.1011 -0.5088 -0.2064
 6827TIP3    H120445   4.887   5.283   2.757 -1.1398 -0.6477 -0.9972
 6827TIP3    H220446   4.871   5.179   2.866  1.8988  0.0756  0.2625
 6828TIP3   OH220447   2.091   3.890   1.600  0.9337  0.1722  0.7467
 6828TIP3    H120448   2.081   3.795   1.607  3.0290 -0.1622  0.0044
 6828TIP3    H220449   2.099   3.920   1.691 -0.2240 -0.2602  1.0115
 6829TIP3   OH220450   5.294   3.592   1.160  0.3970 -0.2460  0.4580
 6829TIP3    H120451   5.223   3.537   1.191 -0.9988  0.9253 -0.5480
 6829TIP3    H220452   5.322   3.641   1.237  1.1898 -1.7773  1.2006
 6830TIP3   OH220453   0.696   3.433   4.000  0.2901  0.2602 -0.4507
 6830TIP3    H120454   0.730   3.436   4.090  0.6927  1.5309 -0.6178
 6830TIP3    H220455   0.610   3.392   4.009  1.2040 -1.6296  0.1928
 6831TIP3   OH220456   7.060   0.408   2.715 -0.8043 -0.3853  0.0604
 6831TIP3    H120457   7.048   0.357   2.635  0.6941  1.4380 -1.4434
 6831TIP3    H220458   7.148   0.385   2.745 -0.0389  1.3138 -0.7314
 6832TIP3   OH220459   5.437   1.410   4.526  0.0830 -0.1914  0.3982
 6832TIP3    H120460   5.347   1.440   4.537 -0.1008 -0.6653  0.1799
 6832TIP3    H220461   5.467   1.389   4.614 -0.2120 -0.5959  0.3995
 6833TIP3   OH220462   2.914   0.433   1.553  0.1550 -0.8210 -0.2855
 6833TIP3    H120463   2.853   0.421   1.480  1.2847  0.8958 -1.5862
 6833TIP3    H220464   2.958   0.349   1.562  1.6711 -0.4701 -3.2280
 6834TIP3   OH220465   1.272   4.404   1.138 -0.0528 -0.0111 -0.4810
 6834TIP3    H120466   1.206   4.338   1.118 -0.3495  0.0598  0.2264
 6834TIP3    H220467   1.233   4.456   1.209  0.1036  1.0268 -1.1424
 6835TIP3   OH220468   0.986   4.402   1.137  0.6889 -0.2925 -0.1063
 6835TIP3    H120469   0.908   4.444   1.172  0.3997  0.7801 -1.9080
 6835TIP3    H220470   0.954   4.344   1.068  1.3391 -1.2470  0.3780
 6836TIP3   OH220471   5.962   6.220   4.399 -0.8841  0.1044  0.2583
 6836TIP3    H120472   5.906   6.272   4.458 -1.9775  0.0501 -0.7078
 6836TIP3    H220473   5.922   6.133   4.399  0.9901 -0.8516  1.9371
 6837TIP3   OH220474   3.087   0.614   1.468 -0.1434 -0.1163 -0.0189
 6837TIP3    H120475   3.043   0.699   1.461 -0.3634 -0.0792  1.4774
 6837TIP3    H220476   3.017   0.552   1.486 -0.0027 -0.6689 -1.2966
 6838TIP3   OH220477   4.378   4.352   4.271 -0.1745 -0.5151 -0.5051
 6838TIP3    H120478   4.371   4.296   4.347  0.1160 -1.0148 -0.8390
 6838TIP3    H220479   4.311   4.320   4.210 -0.4182 -0.1095 -0.4525
 6839TIP3   OH220480   5.874   3.606   5.716 -0.0200  0.3164 -0.1015
 6839TIP3    H120481   5.947   3.568   5.668  0.0780  1.2565 -0.7247
 6839TIP3    H220482   5.808   3.625   5.650 -1.6010 -2.1004  0.6490
 6840TIP3   OH220483   5.190   5.025   2.316 -0.0429  0.2841  0.1248
 6840TIP3    H120484   5.252   4.956   2.291 -1.1187 -0.8734  0.5207
 6840TIP3    H220485   5.174   5.074   2.236  1.1827  0.4490 -0.0345
 6841TIP3   OH220486   5.985   0.986   3.918  0.5867  0.0712 -0.1340
 6841TIP3    H120487   5.989   0.988   4.014 -0.1982  0.0215 -0.0964
 6841TIP3    H220488   5.974   1.078   3.893  0.3110  0.0325 -0.1536
 6842TIP3   OH220489   1.792   4.667   5.615  0.6947  0.3424  0.2442
 6842TIP3    H120490   1.881   4.659   5.648  0.8661 -1.2881 -0.5116
 6842TIP3    H220491   1.802   4.665   5.520 -0.0937  0.8161  0.1466
 6843TIP3   OH220492   6.050   4.823   0.679  0.1008  0.4847  0.5001
 6843TIP3    H120493   5.975   4.879   0.698 -1.0966 -0.6372 -0.7773
 6843TIP3    H220494   6.124   4.869   0.719 -1.0728  2.1706  0.8442
 6844TIP3   OH220495   2.475   0.706   5.081 -0.4303  0.3457  0.4822
 6844TIP3    H120496   2.472   0.763   5.158  0.9337 -0.3748  1.0927
 6844TIP3    H220497   2.538   0.638   5.104 -3.6695 -2.8733  0.7362
 6845TIP3   OH220498   2.310   5.444   0.943 -0.0140 -0.4090 -0.1837
 6845TIP3    H120499   2.306   5.362   0.992 -1.7561  0.5236  1.3309
 6845TIP3    H220500   2.358   5.504   1.000  0.3808 -0.0813 -0.8479
 6846TIP3   OH220501   2.559   4.410   5.249 -0.0340 -0.0162  0.0057
 6846TIP3    H120502   2.581   4.381   5.160  0.6837 -2.3622  0.8944
 6846TIP3    H220503   2.582   4.503   5.249  0.9989 -0.2106 -1.9300
 6847TIP3   OH220504   2.359   2.670   0.534  0.0934 -0.0605  0.3756
 6847TIP3    H120505   2.357   2.709   0.621  0.3822  1.0348 -0.0947
 6847TIP3    H220506   2.416   2.593   0.544 -0.5604 -0.4287  1.3341
 6848TIP3   OH220507   2.334   1.468   1.715 -0.2906 -0.3925 -0.4606
 6848TIP3    H120508   2.427   1.446   1.708 -0.3898 -1.4968  1.2118
 6848TIP3    H220509   2.332   1.563   1.726  0.5698 -0.2583 -1.3682
 6849TIP3   OH220510   4.293   2.307   4.920  0.3813  0.4197  0.2896
 6849TIP3    H120511   4.340   2.390   4.931  0.4489  0.1873  1.9451
 6849TIP3    H220512   4.359   2.240   4.939  0.4863 -0.0726 -1.6071
 6850TIP3   OH220513   5.096   5.394   0.129 -0.0352 -0.4951  0.8132
 6850TIP3    H120514   5.078   5.300   0.135  0.7544 -0.8869 -1.7401
 6850TIP3    H220515   5.090   5.414   0.036  1.9331  1.5433  1.0328
 6851TIP3   OH220516   4.865   5.729   1.720  0.2854 -0.0660 -0.0049
 6851TIP3    H120517   4.950   5.768   1.743  0.2046 -0.6952  1.4864
 6851TIP3    H220518   4.801   5.792   1.753  0.1537  0.2086 -0.7630
 6852TIP3   OH220519   0.858   5.206   4.831 -0.1151 -0.7448 -0.1407
 6852TIP3    H120520   0.840   5.113   4.845  1.2006 -0.7985  1.3983
 6852TIP3    H220521   0.953   5.212   4.826 -0.2120  0.4045 -1.3286
 6853TIP3   OH220522   2.350   0.247   0.774  0.0226  0.1399 -0.5118
 6853TIP3    H120523   2.404   0.172   0.800  2.2502  2.3521  1.8792
 6853TIP3    H220524   2.289   0.259   0.847  1.2716  1.9136  0.3416
 6854TIP3   OH220525   6.466   5.434   5.523 -0.6863 -0.2477 -0.2595
 6854TIP3    H120526   6.519   5.475   5.454 -0.8482 -1.2786 -1.0190
 6854TIP3    H220527   6.402   5.380   5.476 -0.9560 -0.7888  0.6907
 6855TIP3   OH220528   4.747   2.108   2.967  0.5446  0.0211 -0.3923
 6855TIP3    H120529   4.694   2.167   2.914 -0.8330 -0.3949  0.4641
 6855TIP3    H220530   4.716   2.020   2.944  0.8745 -0.2320  0.0958
 6856TIP3   OH220531   0.156   6.502   5.619 -0.2517  0.9034 -0.3416
 6856TIP3    H120532   0.063   6.501   5.599 -0.2703 -0.5936 -0.2960
 6856TIP3    H220533   0.160   6.480   5.712  0.1462  0.9813 -0.3389
 6857TIP3   OH220534   4.728   6.380   5.170  0.0521  0.0740 -0.0302
 6857TIP3    H120535   4.815   6.407   5.199  0.6551  0.1669 -1.8075
 6857TIP3    H220536   4.708   6.303   5.224  1.1436  0.1642  0.5328
 6858TIP3   OH220537   1.854   6.447   3.914 -0.0887  0.2061 -0.4033
 6858TIP3    H120538   1.793   6.389   3.960  0.9506 -1.2728 -0.8225
 6858TIP3    H220539   1.941   6.418   3.944  0.4725  1.1361 -1.1069
 6859TIP3   OH220540   0.533   3.839   5.781  0.2302  0.3351  0.0274
 6859TIP3    H120541   0.509   3.821   5.872  0.7943 -0.7912 -0.0319
 6859TIP3    H220542   0.482   3.916   5.758 -0.0633  0.5291  1.2413
 6860TIP3   OH220543   2.498   4.199   2.719 -0.1698  0.1232  0.4470
 6860TIP3    H120544   2.553   4.240   2.652 -0.3040  1.0346  0.8816
 6860TIP3    H220545   2.412   4.240   2.708 -0.5290 -0.6356  0.3607
 6861TIP3   OH220546   3.077   5.047   0.494  0.2021  0.0462 -0.4185
 6861TIP3    H120547   3.010   5.080   0.434 -1.5425  0.0373  1.4069
 6861TIP3    H220548   3.138   5.119   0.504 -1.5288  1.4499  0.6180
 6862TIP3   OH220549   4.706   0.463   4.377 -0.2240  0.0371 -0.4868
 6862TIP3    H120550   4.658   0.412   4.311 -0.3172  1.3970 -1.5129
 6862TIP3    H220551   4.712   0.551   4.339  0.3667  0.6683  1.0137
 6863TIP3   OH220552   4.970   0.573   1.725  0.3684 -0.2068  0.1258
 6863TIP3    H120553   4.997   0.644   1.667 -1.3352 -0.4681 -1.0414
 6863TIP3    H220554   4.979   0.609   1.813 -0.7894  1.5832 -0.4481
 6864TIP3   OH220555   3.147   2.376   4.114 -0.5884 -0.0809 -0.5051
 6864TIP3    H120556   3.115   2.369   4.024  1.2570 -1.9097 -1.1021
 6864TIP3    H220557   3.186   2.290   4.132  0.6358  0.8086  1.4135
 6865TIP3   OH220558   0.436   3.098   0.985  0.2169 -0.2892  0.2127
 6865TIP3    H120559   0.479   3.183   0.982 -0.3367 -0.0233 -2.0379
 6865TIP3    H220560   0.352   3.116   1.027 -0.2436  0.4898 -0.9832
 6866TIP3   OH220561   3.610   1.987   5.044 -0.4472 -0.2326  0.1931
 6866TIP3    H120562   3.631   1.896   5.068  1.0072 -0.2844 -1.0659
 6866TIP3    H220563   3.688   2.037   5.071 -0.3158  0.2669 -1.0422
 6867TIP3   OH220564   0.101   6.647   0.185 -0.1022  0.3723  0.1183
 6867TIP3    H120565   0.155   6.579   0.145  1.0456  0.9730  0.5859
 6867TIP3    H220566   0.112   6.723   0.128  1.0529  1.0474  1.1643
 6868TIP3   OH220567   5.367   3.972   0.187 -0.4891  0.1539  0.2517
 6868TIP3    H120568   5.353   3.970   0.093 -0.1636  1.9206  0.1270
 6868TIP3    H220569   5.311   3.902   0.221 -1.1995 -0.0163 -1.1794
 6869TIP3   OH220570   5.823   0.526   3.823  0.1388 -0.4877  0.7209
 6869TIP3    H120571   5.885   0.599   3.828  0.8214 -0.9599 -0.4688
 6869TIP3    H220572   5.843   0.483   3.740 -1.0241 -1.3492  0.8628
 6870TIP3   OH220573   2.635   6.212   2.819 -0.6647 -0.2180 -0.6552
 6870TIP3    H120574   2.612   6.216   2.912  0.5614  1.7077 -0.3827
 6870TIP3    H220575   2.554   6.185   2.775 -1.2352 -1.2642  0.9514
 6871TIP3   OH220576   5.376   5.202   1.335  0.4912 -0.7949  0.0823
 6871TIP3    H120577   5.456   5.252   1.350  1.0250 -0.5502 -2.9750
 6871TIP3    H220578   5.310   5.269   1.316  0.0507 -1.0934  0.5422
 6872TIP3   OH220579   1.362   3.166   1.194  0.7240  0.1097 -0.6835
 6872TIP3    H120580   1.332   3.119   1.117  1.2292  0.2615 -0.9781
 6872TIP3    H220581   1.449   3.131   1.212 -0.0220 -1.0821  0.7937
 6873TIP3   OH220582   0.042   2.641   5.040  0.0435  0.1182 -0.5737
 6873TIP3    H120583   0.070   2.702   4.972 -1.7353 -0.2604 -1.7357
 6873TIP3    H220584   0.102   2.656   5.113  0.6593  2.0988 -1.4194
 6874TIP3   OH220585   3.498   4.842   4.950  0.0928  0.1049 -0.1792
 6874TIP3    H120586   3.492   4.750   4.924  1.4436  0.0461 -0.3343
 6874TIP3    H220587   3.435   4.850   5.022  2.0054 -1.6915  1.8395
 6875TIP3   OH220588   2.436   3.078   1.469  0.2656 -0.1056 -0.1889
 6875TIP3    H120589   2.343   3.097   1.454 -0.0126 -1.5492 -0.4568
 6875TIP3    H220590   2.479   3.106   1.389 -0.3267 -1.8199 -1.1509
 6876TIP3   OH220591   3.274   3.341   0.385 -0.5278 -0.3595  0.0811
 6876TIP3    H120592   3.326   3.302   0.456 -0.0947  3.5797  2.2238
 6876TIP3    H220593   3.185   3.344   0.421 -0.6204  0.2658 -0.2033
 6877TIP3   OH220594   6.449   6.080   5.479 -0.3844  0.0249  0.3950
 6877TIP3    H120595   6.447   6.068   5.384 -2.3223  0.0056  0.3972
 6877TIP3    H220596   6.427   6.172   5.492 -0.4285 -0.0440  0.8296
 6878TIP3   OH220597   3.873   2.797   2.452 -0.3134  0.4746  0.3081
 6878TIP3    H120598   3.850   2.835   2.367  0.0192  0.7408  0.3399
 6878TIP3    H220599   3.940   2.855   2.488  0.8907 -0.6328 -0.0631
 6879TIP3   OH220600   2.441   4.713   5.565  0.3964  0.1705 -0.2326
 6879TIP3    H120601   2.480   4.671   5.641 -0.3101 -0.0167  0.0370
 6879TIP3    H220602   2.426   4.804   5.592  0.3477  0.1600 -0.2245
 6880TIP3   OH220603   6.423   6.339   1.732  0.2186  0.0916  0.0514
 6880TIP3    H120604   6.381   6.264   1.691  0.3264 -1.4813  2.6143
 6880TIP3    H220605   6.354   6.405   1.736 -0.2121 -0.2408 -1.1791
 6881TIP3   OH220606   1.867   3.960   4.107  0.2027  0.0938  0.6432
 6881TIP3    H120607   1.855   3.998   4.194 -2.0033  0.8008  0.0997
 6881TIP3    H220608   1.811   3.882   4.107 -0.5726  0.6227 -0.4096
 6882TIP3   OH220609   1.703   6.115   0.739  0.3818  0.0997  0.5069
 6882TIP3    H120610   1.725   6.039   0.794 -0.6712  0.1398  1.0226
 6882TIP3    H220611   1.615   6.140   0.769  0.3691  0.9875 -0.2582
 6883TIP3   OH220612   5.554   0.661   0.156  0.4776 -0.2099  0.0833
 6883TIP3    H120613   5.607   0.647   0.077  0.5677 -0.0020  0.1064
 6883TIP3    H220614   5.564   0.580   0.206  0.0002 -0.5532 -0.3625
 6884TIP3   OH220615   4.402   2.253   1.023  0.1449  0.5234  0.4428
 6884TIP3    H120616   4.444   2.280   0.941  0.3200  0.6909  0.5851
 6884TIP3    H220617   4.468   2.200   1.067  0.6555  1.7225  1.1907
 6885TIP3   OH220618   4.830   2.721   0.381  0.1896 -0.3080  0.7414
 6885TIP3    H120619   4.888   2.705   0.307  0.4727 -2.6750  1.3989
 6885TIP3    H220620   4.876   2.785   0.435  1.3344 -0.7524  0.3175
 6886TIP3   OH220621   3.556   2.389   1.159 -0.0454 -0.2080 -0.1908
 6886TIP3    H120622   3.581   2.481   1.168  0.8998 -0.4839  0.0751
 6886TIP3    H220623   3.464   2.387   1.184 -0.0049  0.6232  0.0626
 6887TIP3   OH220624   6.112   2.961   0.460  0.2530  0.1306  0.6198
 6887TIP3    H120625   6.093   2.890   0.399 -0.1558  1.4324 -0.8154
 6887TIP3    H220626   6.178   2.924   0.519 -0.0021 -1.4542 -0.0361
 6888TIP3   OH220627   2.558   5.869   5.664  0.2205  0.2477  0.2866
 6888TIP3    H120628   2.599   5.848   5.581 -0.9781 -0.0533 -0.2511
 6888TIP3    H220629   2.486   5.927   5.641  1.1725  1.9360  1.3546
 6889TIP3   OH220630   7.141   2.273   0.454  0.2945  0.2874  0.5669
 6889TIP3    H120631   7.224   2.313   0.430  0.4903 -0.3928  0.0863
 6889TIP3    H220632   7.159   2.229   0.537  0.2482  0.6612  0.7748
 6890TIP3   OH220633   0.544   2.210   2.529  0.6778  0.5037  0.4718
 6890TIP3    H120634   0.612   2.154   2.566 -1.3274 -1.4293  1.4820
 6890TIP3    H220635   0.523   2.170   2.445 -2.3066 -1.8846  2.1252
 6891TIP3   OH220636   6.499   6.247   2.299  0.8801  0.2215  0.0826
 6891TIP3    H120637   6.456   6.178   2.350 -0.8337  1.4774  0.3942
 6891TIP3    H220638   6.486   6.222   2.208 -1.7106  1.1754  0.1048
 6892TIP3   OH220639   2.361   0.742   1.853  0.4624 -0.0022 -0.1699
 6892TIP3    H120640   2.430   0.786   1.904  1.1493 -0.9980 -0.2101
 6892TIP3    H220641   2.368   0.781   1.766  3.4837 -2.5662 -1.2588
 6893TIP3   OH220642   7.167   2.981   2.829  0.2226 -0.1831  0.1004
 6893TIP3    H120643   7.138   2.909   2.773 -1.0716  0.5416 -0.2031
 6893TIP3    H220644   7.190   3.051   2.768 -0.5341  0.3730  0.4456
 6894TIP3   OH220645   0.385   6.118   0.598  0.0300  0.7415 -0.2601
 6894TIP3    H120646   0.368   6.071   0.517  0.1386 -0.5619  0.4563
 6894TIP3    H220647   0.379   6.052   0.667  1.5716  1.4928  0.6542
 6895TIP3   OH220648   3.361   1.559   4.506  0.2249  0.5943 -0.0720
 6895TIP3    H120649   3.406   1.476   4.489 -1.7995 -0.1456 -2.3150
 6895TIP3    H220650   3.342   1.557   4.599 -0.0216 -1.6248 -0.1150
 6896TIP3   OH220651   5.211   3.312   4.205 -0.3999  0.1794  0.6050
 6896TIP3    H120652   5.195   3.312   4.111 -1.7264 -0.0374  0.8214
 6896TIP3    H220653   5.216   3.405   4.229  1.1186  0.2405  0.1511
 6897TIP3   OH220654   2.739   0.822   1.793  0.4139 -0.5905  0.1391
 6897TIP3    H120655   2.737   0.727   1.795 -0.5763 -0.6761 -2.1297
 6897TIP3    H220656   2.827   0.845   1.823  0.4467 -2.1514  1.3780
 6898TIP3   OH220657   6.027   1.654   3.544  0.6321 -0.4288 -0.1379
 6898TIP3    H120658   6.077   1.724   3.586  0.6875 -0.3069 -0.4085
 6898TIP3    H220659   6.004   1.689   3.458 -0.1237 -0.3874  0.0709
 6899TIP3   OH220660   4.486   2.604   3.290  0.1655  0.2245 -0.1042
 6899TIP3    H120661   4.445   2.681   3.329 -0.4784  0.5798 -1.4053
 6899TIP3    H220662   4.416   2.538   3.289  0.2250  0.1622 -0.4506
 6900TIP3   OH220663   0.924   0.967   1.390  0.4993 -0.5290 -0.4468
 6900TIP3    H120664   0.969   1.051   1.398 -1.2878  0.3893  0.7383
 6900TIP3    H220665   0.917   0.951   1.296 -0.5983  1.5192 -0.7587
 6901TIP3   OH220666   4.301   0.260   1.851  0.1270 -0.3661 -0.2506
 6901TIP3    H120667   4.206   0.263   1.859  0.2079 -0.3193  0.9997
 6901TIP3    H220668   4.332   0.262   1.942  1.3384  0.1954 -0.6590
 6902TIP3   OH220669   2.017   4.463   4.898 -0.3883 -0.2325 -0.0328
 6902TIP3    H120670   2.047   4.403   4.829 -0.7947 -0.1300 -0.3026
 6902TIP3    H220671   2.095   4.478   4.952 -0.1018 -0.4282 -0.3835
 6903TIP3   OH220672   6.303   6.362   0.657  0.3206  0.4782 -0.1618
 6903TIP3    H120673   6.269   6.293   0.600  0.0317  0.5478 -0.0786
 6903TIP3    H220674   6.225   6.410   0.684  0.2808 -0.3714  1.3760
 6904TIP3   OH220675   1.121   0.859   4.897  0.1768  0.1610 -0.5413
 6904TIP3    H120676   1.027   0.842   4.889  0.1337  0.1233  0.0380
 6904TIP3    H220677   1.127   0.933   4.958  0.5087  0.3988 -0.8552
 6905TIP3   OH220678   5.536   4.195   2.317 -0.0833  0.0033 -0.4116
 6905TIP3    H120679   5.610   4.135   2.325 -0.1731 -0.1948 -0.9838
 6905TIP3    H220680   5.473   4.165   2.382  1.3434  1.7125  1.9102
 6906TIP3   OH220681   0.073   5.385   5.369 -0.4155  0.1415  0.2428
 6906TIP3    H120682   0.012   5.323   5.329 -0.9542  0.6490  0.2717
 6906TIP3    H220683   0.123   5.332   5.431 -1.1889 -0.1704  0.6047
 6907TIP3   OH220684   0.918   1.432   4.458 -0.2330  0.1167  0.6371
 6907TIP3    H120685   0.853   1.495   4.426 -0.1433  0.0543  0.3312
 6907TIP3    H220686   0.980   1.485   4.508  0.2542  0.3966 -0.2281
 6908TIP3   OH220687   1.077   0.050   3.829 -0.0261  0.3906  0.0300
 6908TIP3    H120688   1.103   0.140   3.811 -2.1461  1.2683  1.0509
 6908TIP3    H220689   1.113  -0.001   3.756  0.8572  2.1056 -0.7763
 6909TIP3   OH220690   6.637   3.611   5.560  0.8293 -0.2472  0.1471
 6909TIP3    H120691   6.679   3.550   5.620  2.3526 -0.9783 -1.5529
 6909TIP3    H220692   6.565   3.561   5.521  2.9585 -1.6525 -2.3394
 6910TIP3   OH220693   5.248   3.302   3.194  0.0883  0.1824 -0.1844
 6910TIP3    H120694   5.328   3.300   3.247 -0.7459 -1.0789  1.0915
 6910TIP3    H220695   5.276   3.270   3.108  0.7977 -1.1704  0.5150
 6911TIP3   OH220696   3.988   5.018   3.025  0.4252  0.1437 -0.4939
 6911TIP3    H120697   4.014   4.926   3.022 -0.6844 -0.1863 -0.4375
 6911TIP3    H220698   3.967   5.041   2.935 -1.1575 -0.2316 -0.2420
 6912TIP3   OH220699   4.351   4.516   3.626 -0.4591  0.3401  0.4598
 6912TIP3    H120700   4.439   4.510   3.589 -0.6156 -1.4899  0.3146
 6912TIP3    H220701   4.313   4.594   3.585  0.1352 -0.3964 -1.5769
 6913TIP3   OH220702   4.802   5.613   2.411  0.3892  0.0460  0.2788
 6913TIP3    H120703   4.841   5.641   2.493 -0.4962  0.6811  0.4932
 6913TIP3    H220704   4.743   5.542   2.435 -0.0780  0.4151  0.2393
 6914TIP3   OH220705   1.441   3.656   0.763 -0.3274 -0.4089 -0.5327
 6914TIP3    H120706   1.476   3.669   0.851 -0.5533  0.4643 -0.5656
 6914TIP3    H220707   1.470   3.734   0.715  0.9082 -1.4707 -1.5936
 6915TIP3   OH220708   2.330   3.921   1.470 -0.0557 -0.4317  0.0717
 6915TIP3    H120709   2.369   3.833   1.465 -0.3757 -0.6765  1.4143
 6915TIP3    H220710   2.255   3.910   1.529 -0.4042  0.6438 -0.1568
 6916TIP3   OH220711   2.458   5.814   2.020  0.2087  0.0035  0.3287
 6916TIP3    H120712   2.540   5.779   1.986  1.0117  1.6345  0.4784
 6916TIP3    H220713   2.485   5.885   2.079 -1.3040  0.4079  0.5744
 6917TIP3   OH220714   0.642   5.762   0.151 -0.0380  0.0874  0.3696
 6917TIP3    H120715   0.600   5.759   0.237  1.2931  0.4464  1.0590
 6917TIP3    H220716   0.705   5.690   0.152  0.0326  0.1308 -0.2887
 6918TIP3   OH220717   3.358   2.543   5.187 -0.2989 -0.1186  0.5218
 6918TIP3    H120718   3.355   2.587   5.272 -1.8733 -1.1089  1.0266
 6918TIP3    H220719   3.288   2.478   5.192 -0.0511 -0.5674 -1.3353
 6919TIP3   OH220720   6.317   5.989   1.868 -0.9335 -0.0274 -0.4710
 6919TIP3    H120721   6.364   5.906   1.873  0.2930  0.6700  3.2107
 6919TIP3    H220722   6.226   5.965   1.851 -0.5358 -2.1038  0.1353
 6920TIP3   OH220723   6.961   4.550   3.840 -0.1916  0.0543 -0.4602
 6920TIP3    H120724   6.926   4.636   3.862  1.0287  0.5177 -0.2379
 6920TIP3    H220725   7.023   4.567   3.769 -0.5903 -0.7757 -1.0230
 6921TIP3   OH220726   1.995   1.461   0.274 -0.0192  0.2059  0.0205
 6921TIP3    H120727   2.005   1.433   0.182 -1.7171  0.5200 -0.2798
 6921TIP3    H220728   2.078   1.505   0.294  0.5806 -0.3121 -1.1929
 6922TIP3   OH220729   4.538   5.078   3.604 -0.4179 -0.2595 -0.4820
 6922TIP3    H120730   4.610   5.070   3.667 -0.7161 -1.3474 -0.2429
 6922TIP3    H220731   4.471   5.019   3.639 -1.1538  0.2339 -1.0564
 6923TIP3   OH220732   3.417   5.377   5.182 -0.1456 -0.0726 -0.1524
 6923TIP3    H120733   3.351   5.372   5.113 -1.1024  1.4827  0.5787
 6923TIP3    H220734   3.368   5.362   5.263  0.5493  0.2699  0.3435
 6924TIP3   OH220735   6.882   1.391   2.826 -0.2454  0.5259 -0.1755
 6924TIP3    H120736   6.870   1.296   2.817 -0.3793  0.6454 -1.4083
 6924TIP3    H220737   6.977   1.402   2.834 -0.3120  0.2044  1.3121
 6925TIP3   OH220738   1.845   5.631   4.915  0.6704 -0.1917  0.4034
 6925TIP3    H120739   1.909   5.561   4.902 -1.9557 -2.7600  0.3825
 6925TIP3    H220740   1.786   5.597   4.982 -0.4179  2.2880  0.7901
 6926TIP3   OH220741   5.981   4.141   2.094  0.3104  0.3165 -0.1797
 6926TIP3    H120742   6.035   4.063   2.084  0.0098  0.0490  0.2173
 6926TIP3    H220743   5.901   4.109   2.136  0.8547  1.0845  1.5527
 6927TIP3   OH220744   1.914   0.955   2.747  0.1990  0.3019 -0.3603
 6927TIP3    H120745   1.974   1.009   2.798  0.3754  0.4957 -0.7771
 6927TIP3    H220746   1.889   0.884   2.807  0.2224  0.6587  0.0728
 6928TIP3   OH220747   0.920   6.528   2.856 -0.1680  0.2859 -0.1602
 6928TIP3    H120748   0.922   6.512   2.762 -2.0991 -0.4838 -0.1099
 6928TIP3    H220749   1.006   6.498   2.887  0.4234  0.3822 -1.6366
 6929TIP3   OH220750   5.369   5.042   1.117  0.6704 -0.5746  0.1055
 6929TIP3    H120751   5.384   5.113   1.179 -0.1286  1.0038 -1.4192
 6929TIP3    H220752   5.386   4.962   1.168  0.8439  0.6484  2.0986
 6930TIP3   OH220753   3.318   4.850   4.589  0.1484  0.5627  0.9473
 6930TIP3    H120754   3.349   4.761   4.572 -1.5036  0.1318 -0.0487
 6930TIP3    H220755   3.236   4.838   4.636 -0.1709  1.5489  0.6590
 6931TIP3   OH220756   1.726   5.864   1.269 -0.1223 -0.5034 -0.0131
 6931TIP3    H120757   1.667   5.860   1.344 -2.3457  1.3435 -1.5185
 6931TIP3    H220758   1.702   5.788   1.215 -1.4980  0.4351 -0.7955
 6932TIP3   OH220759   0.280   4.380   2.857 -0.1519 -0.7685  0.3434
 6932TIP3    H120760   0.231   4.443   2.805  0.0429 -1.1609 -0.3255
 6932TIP3    H220761   0.217   4.312   2.879 -0.1793 -0.7134  0.4365
 6933TIP3   OH220762   7.045   3.636   4.829  0.0909 -0.7290  0.1693
 6933TIP3    H120763   7.100   3.558   4.815 -0.0312 -0.9781  1.0074
 6933TIP3    H220764   7.062   3.661   4.920  1.0717  0.9775 -0.4271
 6934TIP3   OH220765   2.632   0.215   3.490  0.1286  0.7001  0.6638
 6934TIP3    H120766   2.698   0.202   3.422 -2.1463  0.8957 -1.7351
 6934TIP3    H220767   2.627   0.309   3.501 -0.6859  0.7703 -0.1956
 6935TIP3   OH220768   5.364   4.291   1.210 -1.0081  0.2717 -0.2269
 6935TIP3    H120769   5.291   4.304   1.150 -1.4042 -0.4123  0.0938
 6935TIP3    H220770   5.336   4.331   1.292 -1.3090 -0.5577  0.0912
 6936TIP3   OH220771   3.032   1.607   3.388 -0.0147 -0.5811 -0.0623
 6936TIP3    H120772   2.999   1.697   3.385 -1.3105 -1.0453 -0.3070
 6936TIP3    H220773   3.114   1.614   3.436 -0.3351  0.6640  0.3576
 6937TIP3   OH220774   4.607   3.048   0.261 -0.0331 -0.3218  0.0298
 6937TIP3    H120775   4.636   3.132   0.226 -1.3313  0.5008  0.8124
 6937TIP3    H220776   4.681   3.016   0.312  0.3337  0.5911  0.1030
 6938TIP3   OH220777   6.315   1.985   0.829  0.0167 -0.4841  0.5107
 6938TIP3    H120778   6.384   2.016   0.888  0.3450 -1.0287  0.4172
 6938TIP3    H220779   6.341   1.896   0.805 -0.7858 -0.7436  0.5712
 6939TIP3   OH220780   7.128   0.239   1.831 -0.2562 -0.0960  0.0277
 6939TIP3    H120781   7.072   0.242   1.909 -0.5322 -1.4156 -0.0978
 6939TIP3    H220782   7.211   0.274   1.861 -0.5403 -0.0271  0.7712
 6940TIP3   OH220783   0.695   6.047   2.001 -0.1668  1.0011 -0.0721
 6940TIP3    H120784   0.706   5.982   1.932 -1.3549  1.1642 -0.4415
 6940TIP3    H220785   0.627   6.010   2.058 -0.5027  1.6971 -0.0116
 6941TIP3   OH220786   3.926   3.440   2.385 -0.2682 -0.1801  0.7031
 6941TIP3    H120787   3.923   3.495   2.307 -0.7424 -1.7146 -0.3905
 6941TIP3    H220788   3.925   3.502   2.458 -1.1425  1.2389 -0.4762
 6942TIP3   OH220789   2.731   1.358   3.643  0.1228 -0.0925 -0.3828
 6942TIP3    H120790   2.781   1.290   3.688  0.1494  0.1878  0.0157
 6942TIP3    H220791   2.786   1.435   3.646 -0.8225  0.5648  1.1559
 6943TIP3   OH220792   2.574   1.424   1.116  0.3041  0.8637 -0.1368
 6943TIP3    H120793   2.495   1.407   1.168  1.0729  1.3612  1.2541
 6943TIP3    H220794   2.592   1.517   1.131  1.7548  0.5061  0.4654
 6944TIP3   OH220795   3.405   4.625   4.466 -0.2559  0.5546  0.5575
 6944TIP3    H120796   3.411   4.691   4.397 -0.9195  2.3934  2.1712
 6944TIP3    H220797   3.348   4.557   4.430  0.1649  0.9939 -1.0165
 6945TIP3   OH220798   1.083   5.202   0.142 -0.7209 -0.4173  0.0602
 6945TIP3    H120799   1.121   5.151   0.213  1.5040 -0.6696 -1.1892
 6945TIP3    H220800   1.036   5.138   0.088  1.0619 -1.0218 -0.8577
 6946TIP3   OH220801   0.493   2.617   2.428 -0.0621 -0.1689  0.2225
 6946TIP3    H120802   0.533   2.702   2.448 -2.0538  1.3166 -1.6561
 6946TIP3    H220803   0.449   2.592   2.509  1.5478 -0.0727  1.1853
 6947TIP3   OH220804   1.484   4.637   2.648  0.4075 -0.5120 -0.1790
 6947TIP3    H120805   1.536   4.557   2.636 -0.3474 -0.9243 -0.7648
 6947TIP3    H220806   1.398   4.615   2.613  0.2656  0.6514 -0.6046
 6948TIP3   OH220807   1.232   4.651   4.719 -0.2504 -0.6888 -0.2118
 6948TIP3    H120808   1.327   4.661   4.725 -0.4444  0.4484  2.4867
 6948TIP3    H220809   1.208   4.700   4.640  1.3024 -0.2910 -0.4776
 6949TIP3   OH220810   1.932   0.162   4.481  0.0940  0.1990  0.0598
 6949TIP3    H120811   1.968   0.107   4.550  1.7858  0.2525 -0.7423
 6949TIP3    H220812   2.000   0.164   4.413 -0.8352  1.4883 -0.8855
 6950TIP3   OH220813   2.671   5.002   3.624  0.9606 -0.1210  0.4743
 6950TIP3    H120814   2.741   4.971   3.567 -0.3641 -2.3269 -0.0817
 6950TIP3    H220815   2.713   5.022   3.707  2.2412 -1.4109  0.1628
 6951TIP3   OH220816   1.139   4.955   4.181 -0.0675 -0.2090  0.4003
 6951TIP3    H120817   1.186   4.962   4.098  1.1819 -0.0368  1.1032
 6951TIP3    H220818   1.109   4.865   4.185 -3.2188  0.5768 -1.8288
 6952TIP3   OH220819   0.904   0.354   1.582  0.5452 -0.6832 -0.2667
 6952TIP3    H120820   0.817   0.378   1.551  0.6891  0.4003  0.1186
 6952TIP3    H220821   0.962   0.374   1.509  0.7346  0.7568  0.2353
 6953TIP3   OH220822   4.157   2.691   0.079  0.0874 -0.0586 -0.7062
 6953TIP3    H120823   4.076   2.737   0.058 -0.1522 -0.5102 -0.7810
 6953TIP3    H220824   4.129   2.601   0.099  0.4121  0.1039  0.5466
 6954TIP3   OH220825   3.751   2.180   2.897 -0.2488 -0.0475  0.2730
 6954TIP3    H120826   3.702   2.125   2.958  0.0341 -0.0255  0.5194
 6954TIP3    H220827   3.740   2.137   2.812 -0.0591 -0.4615  0.4574
 6955TIP3   OH220828   3.715   6.677   4.959  0.4160  0.0382 -0.2524
 6955TIP3    H120829   3.693   6.702   4.869  1.0916  1.7211  0.0248
 6955TIP3    H220830   3.786   6.613   4.949 -0.1640 -0.5248 -0.9239
 6956TIP3   OH220831   6.914   3.793   2.480  0.5508  0.6514 -0.0680
 6956TIP3    H120832   6.885   3.767   2.567 -1.2625 -2.5747 -1.4407
 6956TIP3    H220833   6.986   3.734   2.459  0.1791  0.5587 -1.1622
 6957TIP3   OH220834   1.436   0.024   1.593 -0.0285 -0.2430 -0.2675
 6957TIP3    H120835   1.473  -0.019   1.517  0.0414 -0.7766  0.0626
 6957TIP3    H220836   1.344   0.037   1.571 -0.6484 -2.7115  0.5176
 6958TIP3   OH220837   4.401   3.768   0.090 -0.1984  0.5557 -0.3346
 6958TIP3    H120838   4.416   3.850   0.042 -0.7743  0.2165 -1.1106
 6958TIP3    H220839   4.369   3.796   0.176 -2.3059  1.1333 -1.2498
 6959TIP3   OH220840   6.118   3.947   3.220 -0.4793  0.3089 -0.3500
 6959TIP3    H120841   6.186   3.899   3.173  0.0282  0.0335  0.6383
 6959TIP3    H220842   6.039   3.932   3.168  0.1684  0.5225 -1.4435
 6960TIP3   OH220843   3.057   3.448   3.325  0.2088  0.2071  0.1125
 6960TIP3    H120844   2.967   3.473   3.348 -0.2266 -1.7727  0.8011
 6960TIP3    H220845   3.094   3.526   3.284 -1.5945  1.3025  0.4476
 6961TIP3   OH220846   1.395   3.333   4.156 -0.5156 -0.4635  0.0682
 6961TIP3    H120847   1.364   3.289   4.235 -0.6815 -1.4994 -0.5525
 6961TIP3    H220848   1.417   3.421   4.185 -2.7380 -0.0996  0.7991
 6962TIP3   OH220849   6.658   1.700   3.426  0.1267 -0.5616 -0.2843
 6962TIP3    H120850   6.630   1.768   3.486  0.7267 -0.7060  0.1671
 6962TIP3    H220851   6.577   1.661   3.394 -0.2009 -0.2996  0.2192
 6963TIP3   OH220852   3.587   6.503   3.552  0.4960 -0.8242  0.2554
 6963TIP3    H120853   3.589   6.568   3.623 -0.2533  0.1995 -0.6360
 6963TIP3    H220854   3.617   6.422   3.594 -0.3582 -0.3639  1.8612
 6964TIP3   OH220855   1.906   0.881   4.773 -0.1537 -0.4227  0.0544
 6964TIP3    H120856   1.906   0.836   4.858 -0.4814 -1.8222 -0.6543
 6964TIP3    H220857   1.818   0.917   4.765 -0.1360 -0.3237  0.2728
 6965TIP3   OH220858   5.840   2.212   0.276 -0.3669  0.3386  0.5214
 6965TIP3    H120859   5.859   2.154   0.350  0.6831 -0.3246 -0.2516
 6965TIP3    H220860   5.749   2.193   0.254 -0.1330 -0.7993  0.4821
 6966TIP3   OH220861   5.443   0.045   1.012  0.1122 -0.1421 -0.2405
 6966TIP3    H120862   5.364  -0.006   1.027 -0.3166  0.6233  0.1329
 6966TIP3    H220863   5.514  -0.020   1.014 -0.6892 -1.2946 -3.4614
 6967TIP3   OH220864   4.201   6.157   2.822 -0.2909 -0.1976 -0.2178
 6967TIP3    H120865   4.148   6.089   2.862  0.8994 -1.7486 -1.1574
 6967TIP3    H220866   4.222   6.217   2.894 -1.7288 -0.5535  0.5329
 6968TIP3   OH220867   6.226   1.811   4.679 -0.6951  0.2810  0.1453
 6968TIP3    H120868   6.170   1.853   4.613  0.7344  1.8346 -0.1356
 6968TIP3    H220869   6.291   1.763   4.629 -0.5167  0.2119  0.4387
 6969TIP3   OH220870   2.173   5.675   2.886 -0.1718 -0.3512  0.6241
 6969TIP3    H120871   2.152   5.599   2.832  0.4018 -1.4876  1.9323
 6969TIP3    H220872   2.089   5.716   2.904 -0.8124 -2.1009  1.8974
 6970TIP3   OH220873   5.203   1.365   5.830  0.1456 -0.1698  0.0018
 6970TIP3    H120874   5.140   1.357   5.759  1.2487  1.6072 -1.2488
 6970TIP3    H220875   5.288   1.374   5.787  1.0577 -0.7296  1.5921
 6971TIP3   OH220876   4.087   2.900   3.353  0.9965 -0.3387 -0.4084
 6971TIP3    H120877   4.084   2.993   3.377  0.9179 -0.9182  2.2126
 6971TIP3    H220878   3.997   2.870   3.363  1.2468 -0.9481  0.1267
 6972TIP3   OH220879   5.885   2.489   1.043  0.6555 -0.3613 -0.2231
 6972TIP3    H120880   5.961   2.498   0.985 -0.3902  0.2157 -1.5554
 6972TIP3    H220881   5.835   2.416   1.007  1.0048 -1.3367  1.1888
 6973TIP3   OH220882   1.145   3.630   2.190  0.5279  0.1450  0.6359
 6973TIP3    H120883   1.167   3.723   2.185 -0.2993  0.3152 -0.0822
 6973TIP3    H220884   1.112   3.609   2.103  0.2651 -0.7049  0.9363
 6974TIP3   OH220885   2.033   6.032   0.768  0.5402  0.2367 -0.1181
 6974TIP3    H120886   1.967   6.054   0.834 -1.0404  1.2858 -1.9370
 6974TIP3    H220887   2.030   5.937   0.761 -2.6583  0.3234 -1.8334
 6975TIP3   OH220888   5.439   0.860   0.280  0.1490 -0.7539 -0.2973
 6975TIP3    H120889   5.462   0.778   0.238  1.4311 -0.0347 -1.0916
 6975TIP3    H220890   5.519   0.913   0.273 -1.1504  1.1846 -1.3728
 6976TIP3   OH220891   7.156   6.621   0.786  0.1581 -0.1423 -0.1463
 6976TIP3    H120892   7.084   6.668   0.829 -0.4270  0.6439 -1.8640
 6976TIP3    H220893   7.117   6.587   0.706  1.2828 -1.2395 -0.2526
 6977TIP3   OH220894   3.199   5.645   2.194 -0.3530  0.1134 -0.2272
 6977TIP3    H120895   3.157   5.567   2.157 -1.9353  0.2782  1.1172
 6977TIP3    H220896   3.285   5.646   2.154  0.9132 -3.9786  1.7753
 6978TIP3   OH220897   5.528   1.697   2.584 -0.5353 -0.4932  0.1250
 6978TIP3    H120898   5.583   1.649   2.646  0.2812 -0.1044 -0.2781
 6978TIP3    H220899   5.525   1.786   2.619  0.1808 -0.1984 -0.5389
 6979TIP3   OH220900   0.761   3.097   5.045 -0.1859 -0.2886 -0.1951
 6979TIP3    H120901   0.773   3.041   4.968 -0.4699 -0.5410 -0.0572
 6979TIP3    H220902   0.849   3.110   5.078 -0.1218 -0.7012 -0.1980
 6980TIP3   OH220903   1.786   5.999   4.014  0.4032 -0.1962  0.2384
 6980TIP3    H120904   1.728   5.958   4.078 -0.4492  0.5065 -0.0727
 6980TIP3    H220905   1.848   5.930   3.991 -0.5791 -1.1040  0.2490
 6981TIP3   OH220906   5.568   5.329   0.049  0.2767 -0.4694 -0.3879
 6981TIP3    H120907   5.628   5.403   0.036 -0.7715  0.3632 -0.6493
 6981TIP3    H220908   5.535   5.340   0.138  2.6096 -2.5435  0.8373
 6982TIP3   OH220909   5.495   5.010   3.337  0.7282 -0.1052  0.2449
 6982TIP3    H120910   5.429   4.955   3.293  1.5323  0.0875 -1.2655
 6982TIP3    H220911   5.555   4.948   3.377  1.3253 -0.3603 -0.9911
 6983TIP3   OH220912   6.395   2.732   1.435  0.0675 -0.0082  0.1842
 6983TIP3    H120913   6.300   2.737   1.426 -0.1878 -1.2567  1.6591
 6983TIP3    H220914   6.409   2.651   1.484  1.9513 -0.2542 -0.6999
 6984TIP3   OH220915   1.695   3.502   3.581 -0.1376  0.0557 -0.3227
 6984TIP3    H120916   1.626   3.560   3.613  1.5675  1.5503  0.8279
 6984TIP3    H220917   1.742   3.554   3.516 -0.3216 -1.1224 -1.4600
 6985TIP3   OH220918   0.061   2.428   3.601 -0.0654  0.3530  0.8717
 6985TIP3    H120919   0.023   2.508   3.566 -0.7433 -0.7871 -1.1345
 6985TIP3    H220920   0.002   2.402   3.672 -0.7299  0.7698  0.4756
 6986TIP3   OH220921   1.040   0.366   2.099 -0.1797 -0.8217 -0.1885
 6986TIP3    H120922   0.963   0.368   2.156  0.0983 -0.6027  0.1836
 6986TIP3    H220923   1.004   0.358   2.011 -0.6269 -0.7778 -0.0139
 6987TIP3   OH220924   5.171   3.122   2.709  0.5610  0.8977  0.6300
 6987TIP3    H120925   5.137   3.033   2.711 -0.9087  1.4512  0.9388
 6987TIP3    H220926   5.231   3.123   2.634 -1.9407  0.5263 -1.4933
 6988TIP3   OH220927   6.766   1.356   0.406  0.0343  0.2596 -0.5500
 6988TIP3    H120928   6.787   1.263   0.404 -2.2706 -0.3654  0.3107
 6988TIP3    H220929   6.838   1.397   0.453 -0.1480 -1.5247  1.4299
 6989TIP3   OH220930   1.584   5.405   0.365 -0.6734  0.2808 -0.6413
 6989TIP3    H120931   1.556   5.434   0.278  0.1709 -0.7989 -1.2963
 6989TIP3    H220932   1.653   5.340   0.348 -0.0880  0.4712  0.8474
 6990TIP3   OH220933   0.739   1.573   3.867 -0.2259 -0.2704  0.3293
 6990TIP3    H120934   0.792   1.533   3.798 -2.3684  0.4764 -1.9089
 6990TIP3    H220935   0.775   1.660   3.878  0.5343 -0.6178  0.6525
 6991TIP3   OH220936   7.008   1.230   0.315  0.1541 -0.1513  0.1895
 6991TIP3    H120937   7.048   1.236   0.401 -1.3028 -1.2528  0.9904
 6991TIP3    H220938   7.062   1.167   0.267  1.7611  1.4648 -0.2167
 6992TIP3   OH220939   0.337   5.825   5.375  0.4164 -0.7334 -0.2669
 6992TIP3    H120940   0.259   5.807   5.323  0.2257  0.5578 -0.4738
 6992TIP3    H220941   0.327   5.916   5.402  2.4541 -0.1054 -1.3978
 6993TIP3   OH220942   0.295   0.496   2.679  0.2191 -0.1846 -0.1543
 6993TIP3    H120943   0.278   0.436   2.606 -1.3388 -0.6038  0.5064
 6993TIP3    H220944   0.325   0.577   2.637 -0.8814 -0.3372 -1.2891
 6994TIP3   OH220945   5.236   3.554   3.980  0.2482 -0.2361  0.3004
 6994TIP3    H120946   5.166   3.619   3.969 -0.7456 -1.1423  1.1599
 6994TIP3    H220947   5.291   3.590   4.050 -0.3901 -0.3756  0.8859
 6995TIP3   OH220948   0.406   1.090   1.467  0.1344 -0.4533 -0.0145
 6995TIP3    H120949   0.458   1.168   1.485  0.6006 -0.8154  0.2098
 6995TIP3    H220950   0.396   1.089   1.371  0.9092 -0.6179 -0.0958
 6996TIP3   OH220951   1.605   6.706   2.282 -0.4840  0.3154 -0.0374
 6996TIP3    H120952   1.672   6.774   2.293  0.6557 -0.5588 -1.1644
 6996TIP3    H220953   1.626   6.666   2.197 -2.8161  0.3924 -0.7238
 6997TIP3   OH220954   4.094   1.847   3.079  0.1307  0.2004  0.2255
 6997TIP3    H120955   4.046   1.917   3.036  0.8315  1.3125  1.1742
 6997TIP3    H220956   4.102   1.876   3.170  2.6646  0.1687  0.0943
 6998TIP3   OH220957   5.447   5.623   0.819 -0.0750 -0.6285  0.2626
 6998TIP3    H120958   5.435   5.555   0.752 -0.2243 -0.3773  0.0327
 6998TIP3    H220959   5.374   5.683   0.806  1.3026  0.8527 -1.0733
 6999TIP3   OH220960   2.221   5.014   0.938 -0.2027 -0.3452  0.2498
 6999TIP3    H120961   2.172   5.096   0.950 -1.0520 -0.6814 -0.7931
 6999TIP3    H220962   2.154   4.947   0.924  0.5208 -0.7561 -1.5737
 7000TIP3   OH220963   3.246   5.184   2.115  0.0163 -0.6011 -0.3505
 7000TIP3    H120964   3.279   5.274   2.117 -0.5545 -0.3669 -1.0408
 7000TIP3    H220965   3.325   5.130   2.109  0.4505  0.0449 -5.9883
 7001TIP3   OH220966   5.211   1.867   1.759 -0.6071 -0.4930  0.3712
 7001TIP3    H120967   5.300   1.832   1.750  0.4747  2.0562  0.2773
 7001TIP3    H220968   5.182   1.835   1.844  1.2640  0.2915  1.3779
 7002TIP3   OH220969   0.431   5.556   4.148  0.3888 -0.1836  0.2120
 7002TIP3    H120970   0.438   5.496   4.074  0.6776 -0.6399  0.6047
 7002TIP3    H220971   0.474   5.511   4.220  1.2544  0.7871  0.3386
 7003TIP3   OH220972   5.291   4.845   3.214  0.6128 -0.5265 -0.0672
 7003TIP3    H120973   5.272   4.752   3.230  1.3482 -0.3210  2.3918
 7003TIP3    H220974   5.209   4.880   3.179 -0.3779 -1.6919  0.9461
 7004TIP3   OH220975   0.391   4.758   3.343  0.0418 -0.3425 -0.3290
 7004TIP3    H120976   0.425   4.837   3.387  0.2372 -0.8698  0.5037
 7004TIP3    H220977   0.334   4.718   3.409 -1.4490  0.0087 -1.3685
 7005TIP3   OH220978   2.344   3.748   2.453 -0.2703  0.4965  0.0287
 7005TIP3    H120979   2.285   3.675   2.473 -0.0921  0.5944  1.0083
 7005TIP3    H220980   2.312   3.819   2.509 -0.6057  1.2617 -1.1147
 7006TIP3   OH220981   4.834   3.138   4.908  0.3321 -0.1987 -0.2897
 7006TIP3    H120982   4.757   3.093   4.872  0.0913 -0.5936  0.6928
 7006TIP3    H220983   4.864   3.082   4.979 -0.0793  1.2493  1.0968
 7007TIP3   OH220984   0.068   5.525   0.550  0.3784  0.1917 -0.6795
 7007TIP3    H120985   0.058   5.477   0.468  1.0326 -1.4862  0.1759
 7007TIP3    H220986   0.034   5.465   0.617 -0.6505  1.7320  0.2482
 7008TIP3   OH220987   0.937   1.953   4.794  0.0467  0.2120  0.0317
 7008TIP3    H120988   0.843   1.967   4.787  0.2757  1.8564 -0.1879
 7008TIP3    H220989   0.960   1.993   4.878  0.4224 -0.9973  0.5185
 7009TIP3   OH220990   1.482   5.058   4.199  0.1043 -0.3110 -0.0241
 7009TIP3    H120991   1.502   5.075   4.291  2.0913  1.8261 -0.7406
 7009TIP3    H220992   1.422   5.129   4.174 -1.3998 -1.5738 -0.1276
 7010TIP3   OH220993   6.246   3.494   0.586  0.1136  0.3880  0.0956
 7010TIP3    H120994   6.338   3.508   0.610  0.1883  2.0435 -0.9520
 7010TIP3    H220995   6.249   3.426   0.519  0.6773  0.9938 -0.5083
 7011TIP3   OH220996   5.828   2.158   2.984 -0.0234 -0.2079 -0.0561
 7011TIP3    H120997   5.880   2.109   3.048  2.0290  0.3177 -1.2045
 7011TIP3    H220998   5.827   2.102   2.906 -0.6112  0.1051 -0.2822
 7012TIP3   OH220999   5.320   3.285   3.910 -0.0307 -0.6161 -0.4223
 7012TIP3    H121000   5.343   3.354   3.973  0.5657  1.0898 -2.4030
 7012TIP3    H221001   5.250   3.324   3.857  1.0352 -1.1239 -2.2531
 7013TIP3   OH221002   3.218   2.933   1.345 -0.1716 -0.2426  0.5494
 7013TIP3    H121003   3.218   2.914   1.438  0.5954 -0.9768  0.4062
 7013TIP3    H221004   3.125   2.929   1.320 -0.2897 -1.1100  1.0725
 7014TIP3   OH221005   2.691   3.250   1.152 -0.0553  0.1340 -0.1772
 7014TIP3    H121006   2.705   3.273   1.060  0.8828 -1.0669 -0.3747
 7014TIP3    H221007   2.659   3.160   1.149  0.7320 -0.1920  0.6841
 7015TIP3   OH221008   1.467   2.384   5.015 -0.4152 -0.1145 -0.2427
 7015TIP3    H121009   1.508   2.301   4.990  1.8874  0.6415  0.6756
 7015TIP3    H221010   1.459   2.378   5.111 -0.5811  0.5619 -0.2111
 7016TIP3   OH221011   4.126   6.307   4.180 -0.1350  0.5653 -0.0001
 7016TIP3    H121012   4.127   6.382   4.121  0.8329  0.6875  0.1668
 7016TIP3    H221013   4.208   6.262   4.164 -0.4321 -0.1169  0.3529
 7017TIP3   OH221014   4.596   5.387   5.204  0.2275 -1.1039  0.3382
 7017TIP3    H121015   4.523   5.449   5.199  1.4221  0.2681 -1.0862
 7017TIP3    H221016   4.555   5.301   5.215 -1.7269 -0.6206 -2.3587
 7018TIP3   OH221017   0.046   3.541   4.521  0.0853 -0.6471  0.0025
 7018TIP3    H121018  -0.030   3.561   4.575 -0.3407  0.7463 -1.0355
 7018TIP3    H221019   0.109   3.610   4.542 -0.2946  0.2429 -1.6017
 7019TIP3   OH221020   3.446   5.647   1.365  0.4429 -0.3021  0.4227
 7019TIP3    H121021   3.523   5.704   1.362  0.0598  0.2988  1.4924
 7019TIP3    H221022   3.461   5.589   1.440  0.5698 -1.2462 -0.3170
 7020TIP3   OH221023   6.252   0.023   5.849  0.0238 -0.3644 -0.9739
 7020TIP3    H121024   6.165   0.006   5.813  0.6849 -2.3128 -1.7940
 7020TIP3    H221025   6.286   0.096   5.798 -2.2767  2.6317  1.4710
 7021TIP3   OH221026   0.260   2.190   3.804 -0.1831  0.1007  0.0243
 7021TIP3    H121027   0.319   2.240   3.748 -0.4622  0.1790 -0.2044
 7021TIP3    H221028   0.190   2.161   3.745 -1.0463  1.0782  0.5456
 7022TIP3   OH221029   0.694   0.812   3.080 -0.6161 -0.0036  0.0697
 7022TIP3    H121030   0.610   0.814   3.034 -0.7494  0.1882  0.3135
 7022TIP3    H221031   0.670   0.825   3.172 -0.3537 -0.3553  0.1900
 7023TIP3   OH221032   5.927   3.078   3.306  0.4957  0.0246  0.5405
 7023TIP3    H121033   5.833   3.082   3.324  0.3663 -0.6434  0.0499
 7023TIP3    H221034   5.967   3.063   3.392  0.2526  1.4134  0.9231
 7024TIP3   OH221035   6.313   5.473   4.251 -0.5231  0.0193 -0.2501
 7024TIP3    H121036   6.376   5.428   4.307 -0.2937 -0.1434 -0.6340
 7024TIP3    H221037   6.356   5.554   4.227 -0.2339 -0.3327 -0.9496
 7025TIP3   OH221038   3.901   0.879   4.554 -0.1555  0.2533  0.2782
 7025TIP3    H121039   3.864   0.828   4.626  0.1476  1.6581  1.5045
 7025TIP3    H221040   3.989   0.844   4.542 -0.3288 -0.2164  0.3805
 7026TIP3   OH221041   4.386   6.367   5.031  0.4583  0.7986  0.4967
 7026TIP3    H121042   4.461   6.337   4.980 -0.0771 -1.5329  0.9983
 7026TIP3    H221043   4.420   6.372   5.121  0.0619 -0.1034  0.6988
 7027TIP3   OH221044   6.746   2.710   0.629  0.0068 -0.0076 -0.7443
 7027TIP3    H121045   6.832   2.684   0.662  0.4724  1.6822 -0.5283
 7027TIP3    H221046   6.747   2.683   0.537  1.0970  0.6744 -0.9543
 7028TIP3   OH221047   2.424   3.663   4.734  0.1763  0.1038  0.2551
 7028TIP3    H121048   2.387   3.595   4.679 -0.3777  1.0549 -0.5778
 7028TIP3    H221049   2.514   3.634   4.751  0.4271 -0.1321 -1.3207
 7029TIP3   OH221050   5.093   4.270   4.348 -0.2324 -0.5577 -0.2273
 7029TIP3    H121051   5.123   4.283   4.258  0.6382 -0.3876  0.0732
 7029TIP3    H221052   5.174   4.260   4.399 -0.7287 -1.6169  0.3926
 7030TIP3   OH221053   4.673   1.310   3.443  0.1967  0.4306 -0.1974
 7030TIP3    H121054   4.687   1.238   3.382 -0.6636  0.4567 -0.4350
 7030TIP3    H221055   4.724   1.383   3.406  0.4159  0.1847 -0.3855
 7031TIP3   OH221056   5.474   5.772   3.249 -0.0345  0.4949 -0.1898
 7031TIP3    H121057   5.444   5.838   3.187 -0.8593  0.8755  0.5997
 7031TIP3    H221058   5.399   5.757   3.307  0.5583 -0.2083  0.4185
 7032TIP3   OH221059   1.071   3.587   3.656 -0.6378 -0.0084 -0.3182
 7032TIP3    H121060   0.998   3.537   3.618  0.4723 -0.5620 -1.8753
 7032TIP3    H221061   1.131   3.600   3.582  1.0306  0.0627  0.9851
 7033TIP3   OH221062   5.974   3.866   5.235 -0.2465 -0.2437  0.5195
 7033TIP3    H121063   6.034   3.873   5.160  1.0439 -0.1767  1.5184
 7033TIP3    H221064   5.887   3.858   5.195  0.3300  0.4486 -0.9759
 7034TIP3   OH221065   2.523   1.336   4.737  0.6528  0.2926 -0.5782
 7034TIP3    H121066   2.591   1.301   4.795 -0.6797 -0.5321  0.5465
 7034TIP3    H221067   2.458   1.374   4.796  0.0359  0.9028 -1.6196
 7035TIP3   OH221068   1.657   3.776   5.161  0.2093  0.0862 -0.0780
 7035TIP3    H121069   1.731   3.807   5.213  0.1609  0.4111 -0.2021
 7035TIP3    H221070   1.581   3.820   5.198 -0.0822 -1.0490  0.7420
 7036TIP3   OH221071   1.021   2.425   3.346 -0.3095  0.7232 -0.2887
 7036TIP3    H121072   1.106   2.461   3.322  0.9581 -0.5677  2.0024
 7036TIP3    H221073   0.965   2.502   3.359  1.1027  1.6998  0.2199
 7037TIP3   OH221074   5.277   3.795   4.602  0.2586  0.3743  0.1101
 7037TIP3    H121075   5.341   3.788   4.530 -0.5313  2.5646 -0.8784
 7037TIP3    H221076   5.330   3.809   4.680  1.0528  0.0980 -0.3672
 7038TIP3   OH221077   2.883   1.974   5.109 -0.5302 -0.5850 -0.2476
 7038TIP3    H121078   2.838   2.041   5.160  0.6267 -1.2429  1.7139
 7038TIP3    H221079   2.970   2.009   5.095 -0.1210 -1.3861  0.2256
 7039TIP3   OH221080   2.523   2.649   4.525  0.0617  0.5013  0.1220
 7039TIP3    H121081   2.578   2.603   4.462  0.8380 -3.3178  3.2381
 7039TIP3    H221082   2.575   2.724   4.552  2.2401 -0.9578  0.2708
 7040TIP3   OH221083   5.764   1.810   1.752  0.2601 -0.0552  0.1834
 7040TIP3    H121084   5.764   1.776   1.662  0.6400  2.4163 -0.8162
 7040TIP3    H221085   5.726   1.897   1.745  2.2745  1.0716  2.0744
 7041TIP3   OH221086   0.773   6.232   4.794  0.0465  0.5996 -0.0218
 7041TIP3    H121087   0.701   6.227   4.730 -2.6243 -0.4089  2.8225
 7041TIP3    H221088   0.842   6.280   4.748 -1.9539  0.5954 -3.3644
 7042TIP3   OH221089   2.308   3.105   4.540  0.6276  0.4633  0.9407
 7042TIP3    H121090   2.315   3.010   4.550 -0.3041  0.4458  1.5126
 7042TIP3    H221091   2.327   3.140   4.627  1.7331  0.8608  0.5572
 7043TIP3   OH221092   1.655   5.399   3.007 -0.4931 -0.5949  0.3181
 7043TIP3    H121093   1.712   5.451   2.950  0.0869 -1.4249  0.1135
 7043TIP3    H221094   1.568   5.436   2.993 -0.0294  0.6667  0.5975
 7044TIP3   OH221095   2.500   6.722   5.038 -0.0021  0.1236  0.0690
 7044TIP3    H121096   2.446   6.644   5.051 -1.2254  0.7931 -0.7652
 7044TIP3    H221097   2.590   6.690   5.039 -0.4359 -1.1411  0.7086
 7045TIP3   OH221098   4.382   0.942   3.054  0.6328  0.4845  0.0158
 7045TIP3    H121099   4.399   0.898   3.138 -1.8740  1.2669  1.0177
 7045TIP3    H221100   4.344   0.873   2.999  0.0291  0.5254  0.3699
 7046TIP3   OH221101   1.813   5.832   4.699 -0.2862 -0.1349 -0.3897
 7046TIP3    H121102   1.811   5.744   4.736 -0.6834  0.0950  0.1543
 7046TIP3    H221103   1.812   5.890   4.775  1.1912  0.3400 -0.7107
 7047TIP3   OH221104   1.847   4.203   2.969  0.2724  0.1857  0.0977
 7047TIP3    H121105   1.918   4.144   2.941  0.7940  1.0768 -0.4846
 7047TIP3    H221106   1.846   4.194   3.065 -0.6295 -1.8610 -0.0460
 7048TIP3   OH221107   7.101   4.799   4.147 -0.6444 -0.1582  0.3575
 7048TIP3    H121108   7.101   4.712   4.186 -0.3784 -0.6791 -0.7853
 7048TIP3    H221109   7.048   4.852   4.207 -1.4899 -1.2969  0.6424
 7049TIP3   OH221110   1.098   0.080   4.999  0.6712  0.3295  0.0108
 7049TIP3    H121111   1.113   0.149   4.934 -0.5435  0.3861 -0.2255
 7049TIP3    H221112   1.049   0.124   5.069  0.8873 -0.0309  0.3932
 7050TIP3   OH221113   1.378   2.563   1.920  0.4141 -0.5342 -0.1243
 7050TIP3    H121114   1.381   2.469   1.933 -0.6660 -0.4735  0.7420
 7050TIP3    H221115   1.451   2.582   1.861  1.8869 -1.6413  1.2475
 7051TIP3   OH221116   2.057   4.255   5.801 -0.0590 -0.0111 -0.0843
 7051TIP3    H121117   2.130   4.280   5.745 -0.1650  1.6319  0.4544
 7051TIP3    H221118   1.985   4.313   5.774 -1.7475 -2.7190 -1.7775
 7052TIP3   OH221119   3.758   5.094   3.146  0.5353  0.4463  0.0076
 7052TIP3    H121120   3.853   5.087   3.135  0.6974  0.7982  1.0755
 7052TIP3    H221121   3.730   5.006   3.170  0.9311  0.8118  1.9472
 7053TIP3   OH221122   4.001   2.859   0.540  0.0260  0.0039 -0.2387
 7053TIP3    H121123   4.077   2.854   0.598  0.7391 -4.7398 -1.1718
 7053TIP3    H221124   4.038   2.865   0.452 -0.7889  0.3518 -0.5693
 7054TIP3   OH221125   6.092   2.393   1.650 -0.2513  0.2028 -0.0335
 7054TIP3    H121126   6.050   2.340   1.717  1.4561 -0.8438  0.2682
 7054TIP3    H221127   6.154   2.334   1.607  0.9277  1.6521 -0.4346
 7055TIP3   OH221128   0.683   2.034   4.763  0.3315  0.3302 -0.0845
 7055TIP3    H121129   0.693   2.128   4.750 -1.0511  0.1697 -3.0497
 7055TIP3    H221130   0.590   2.022   4.779  0.1129 -0.6858 -1.9076
 7056TIP3   OH221131   4.773   2.192   3.950  0.4546  0.5085 -0.7263
 7056TIP3    H121132   4.849   2.190   4.008 -0.7496 -0.2373  0.8927
 7056TIP3    H221133   4.810   2.205   3.862  2.3064  1.9536  0.2095
 7057TIP3   OH221134   1.836   6.081   1.817 -0.1813  0.2245  0.2973
 7057TIP3    H121135   1.857   6.136   1.741 -0.2119  0.8045  0.7048
 7057TIP3    H221136   1.902   6.103   1.882  1.8057 -2.5354 -0.6134
 7058TIP3   OH221137   1.305   1.353   3.609 -0.0585  0.2229  0.0726
 7058TIP3    H121138   1.241   1.423   3.624 -1.1274 -0.7599  0.2156
 7058TIP3    H221139   1.294   1.295   3.685  1.6912  0.5259  0.5955
 7059TIP3   OH221140   2.991   1.820   5.773  0.2834 -0.2586 -0.1971
 7059TIP3    H121141   3.063   1.849   5.829  0.3363 -1.9472  0.6696
 7059TIP3    H221142   2.967   1.734   5.807 -0.7736 -0.6369 -1.7759
 7060TIP3   OH221143   3.473   5.809   5.165 -0.2160 -0.0196 -0.8920
 7060TIP3    H121144   3.480   5.868   5.241  0.3013 -0.9029 -0.2411
 7060TIP3    H221145   3.529   5.734   5.187 -0.1876 -0.3671 -2.0822
 7061TIP3   OH221146   3.301   0.072   1.638  0.1223  0.1608 -0.7278
 7061TIP3    H121147   3.320   0.164   1.656 -0.2348  0.2864 -1.0046
 7061TIP3    H221148   3.378   0.040   1.591  0.9733 -0.1100  0.7805
 7062TIP3   OH221149   1.059   5.475   5.333  0.4257  0.6023 -0.0391
 7062TIP3    H121150   0.990   5.480   5.267 -0.6281 -1.6203  0.7975
 7062TIP3    H221151   1.031   5.534   5.402 -0.3411  0.1986  0.0055
 7063TIP3   OH221152   5.266   0.885   4.276  0.7038 -0.1810  0.1257
 7063TIP3    H121153   5.239   0.946   4.344  0.9072 -0.3505  0.3574
 7063TIP3    H221154   5.237   0.799   4.307 -0.6832 -0.0696 -0.7583
 7064TIP3   OH221155   5.578   1.115   5.536 -0.3228  0.1759  0.0942
 7064TIP3    H121156   5.582   1.178   5.608 -0.1528  0.0585  0.1885
 7064TIP3    H221157   5.626   1.039   5.569 -0.8423 -0.1420  0.1187
 7065TIP3   OH221158   3.251   4.589   0.958 -0.3081  0.7085 -0.0349
 7065TIP3    H121159   3.156   4.593   0.967 -0.2576  1.4399  0.1891
 7065TIP3    H221160   3.268   4.500   0.926 -0.8403 -0.4851  2.7361
 7066TIP3   OH221161   0.510   1.422   2.837 -0.2839 -0.2309 -0.0443
 7066TIP3    H121162   0.602   1.427   2.811 -0.5145 -1.5606 -1.2005
 7066TIP3    H221163   0.510   1.447   2.929  1.5499 -2.2104  0.5714
 7067TIP3   OH221164   0.625   5.657   3.659  0.2282  0.3392  0.0882
 7067TIP3    H121165   0.589   5.746   3.651 -0.0280  0.4369  1.8504
 7067TIP3    H221166   0.634   5.644   3.754  1.6642 -0.9671 -0.1945
 7068TIP3   OH221167   4.483   3.846   0.530 -0.5210  0.1617  0.1515
 7068TIP3    H121168   4.480   3.914   0.462  3.6274  0.7129  0.2758
 7068TIP3    H221169   4.524   3.771   0.487 -1.9272 -1.1133  0.9453
 7069TIP3   OH221170   6.639   2.065   1.564 -0.0262 -0.1557  0.3713
 7069TIP3    H121171   6.615   1.994   1.624  0.8179 -0.6858  0.0929
 7069TIP3    H221172   6.564   2.073   1.506 -0.7350  0.1619  1.2965
 7070TIP3   OH221173   1.325   2.488   1.347 -0.0824  0.2336 -0.0410
 7070TIP3    H121174   1.242   2.500   1.300  1.1640  1.6085 -2.0643
 7070TIP3    H221175   1.306   2.420   1.411 -2.4919 -0.2514 -1.1321
 7071TIP3   OH221176   3.284   1.028   0.766  0.0336  0.2564  0.1054
 7071TIP3    H121177   3.310   1.120   0.776 -0.2225  0.5669 -1.7111
 7071TIP3    H221178   3.354   0.978   0.808  0.3072  1.2687  0.8825
 7072TIP3   OH221179   0.407   3.312   4.099  0.0189 -0.1068 -0.3572
 7072TIP3    H121180   0.360   3.281   4.022 -0.4171 -0.9053  0.2182
 7072TIP3    H221181   0.360   3.274   4.173 -0.6142  1.9771  0.4030
 7073TIP3   OH221182   1.479   2.012   4.802 -0.2825 -0.4719 -0.0922
 7073TIP3    H121183   1.509   1.963   4.878 -0.6781  0.1176  0.4501
 7073TIP3    H221184   1.522   2.098   4.810 -0.2973 -0.4179 -0.5480
 7074TIP3   OH221185   0.166   2.396   0.646  0.1109 -0.2017  0.1951
 7074TIP3    H121186   0.190   2.402   0.739  1.4740 -1.4826 -0.0304
 7074TIP3    H221187   0.178   2.485   0.613  2.3176 -0.2402  0.6762
 7075TIP3   OH221188   6.349   6.073   1.193 -0.3351 -0.2664 -0.0927
 7075TIP3    H121189   6.431   6.047   1.152 -0.9490 -0.3023 -1.3648
 7075TIP3    H221190   6.289   6.087   1.119 -1.0979  1.0244  0.7343
 7076TIP3   OH221191   0.895   3.608   5.014  0.3535 -0.3371 -0.0138
 7076TIP3    H121192   0.846   3.663   5.075  1.0178 -0.7657  0.9377
 7076TIP3    H221193   0.982   3.647   5.011  0.2669 -0.1991 -0.8575
 7077TIP3   OH221194   3.242   1.619   3.056 -0.2044  0.4056 -0.3069
 7077TIP3    H121195   3.300   1.669   3.112  1.8584 -1.4418 -0.6589
 7077TIP3    H221196   3.154   1.654   3.074  0.2986  0.0046  3.9656
 7078TIP3   OH221197   0.326   0.238   3.489 -0.3169 -0.3477 -0.4437
 7078TIP3    H121198   0.253   0.269   3.436  1.5535  0.2279 -2.8776
 7078TIP3    H221199   0.388   0.311   3.491 -0.0384 -0.5538  2.1360
 7079TIP3   OH221200   2.835   6.634   1.081 -0.1235  0.7757 -0.4164
 7079TIP3    H121201   2.853   6.629   1.175  0.3959  2.0851 -0.4112
 7079TIP3    H221202   2.741   6.652   1.075 -0.3582 -0.3569 -0.1954
 7080TIP3   OH221203   2.078   2.698   1.192  0.3548 -0.7578 -0.6585
 7080TIP3    H121204   2.087   2.757   1.267 -1.1978 -0.2151 -0.8607
 7080TIP3    H221205   2.105   2.751   1.117  1.3113 -1.1024 -0.5656
 7081TIP3   OH221206   2.246   3.459   1.934 -0.4696  0.4576  0.7497
 7081TIP3    H121207   2.214   3.414   1.856  3.2343  1.7749 -1.8697
 7081TIP3    H221208   2.205   3.414   2.008 -3.0657 -1.8587 -1.8778
 7082TIP3   OH221209   5.075   0.092   1.998  0.2766 -0.3639  0.3371
 7082TIP3    H121210   5.147   0.053   2.048  1.1022 -0.3755 -0.8345
 7082TIP3    H221211   5.102   0.183   1.984 -0.8209  0.1771  1.5081
 7083TIP3   OH221212   6.124   4.617   3.788 -0.1352 -0.4617 -0.1401
 7083TIP3    H121213   6.213   4.606   3.822  0.0764  0.8959 -0.1960
 7083TIP3    H221214   6.134   4.676   3.713 -1.1155 -0.0345  0.0472
 7084TIP3   OH221215   2.711   5.949   0.659  0.4505 -0.2069  0.0926
 7084TIP3    H121216   2.650   5.969   0.589  1.7264  1.9414 -0.4800
 7084TIP3    H221217   2.795   5.939   0.616  0.6720 -2.5996  0.9316
 7085TIP3   OH221218   5.610   1.298   2.445 -0.1516  0.2204  0.9392
 7085TIP3    H121219   5.668   1.348   2.388  1.3969 -0.8156  1.5471
 7085TIP3    H221220   5.596   1.216   2.399 -2.1430  0.8663  0.2570
 7086TIP3   OH221221   5.685   3.175   4.257  0.1801  0.0586 -0.2094
 7086TIP3    H121222   5.731   3.252   4.223 -1.6106  1.1401 -0.3652
 7086TIP3    H221223   5.599   3.179   4.215 -0.8685 -0.5651  1.7431
 7087TIP3   OH221224   2.527   6.137   0.011 -0.3913 -0.1793 -0.0602
 7087TIP3    H121225   2.535   6.097   0.097  0.0816  0.7317  0.3342
 7087TIP3    H221226   2.604   6.107  -0.038 -2.0091 -2.9079 -1.1452
 7088TIP3   OH221227   2.884   6.398   0.257  0.0450  0.1700 -0.3087
 7088TIP3    H121228   2.925   6.460   0.317  1.3296 -1.2037  0.2827
 7088TIP3    H221229   2.947   6.326   0.249 -0.9299 -0.5720 -1.8144
 7089TIP3   OH221230   3.576   2.920   5.100  0.6861 -0.5423 -0.2711
 7089TIP3    H121231   3.623   2.883   5.024 -0.1938  0.4357 -1.3253
 7089TIP3    H221232   3.636   2.987   5.134  1.2583 -1.2618  0.1643
 7090TIP3   OH221233   2.057   5.493   4.783 -0.2445  0.0599  0.2010
 7090TIP3    H121234   1.976   5.447   4.758 -0.4207  0.5943 -0.2307
 7090TIP3    H221235   2.085   5.537   4.703  0.7262 -0.4758  0.2302
 7091TIP3   OH221236   5.600   3.360   0.583 -0.4828 -0.2874  0.2991
 7091TIP3    H121237   5.665   3.292   0.597  0.5240 -0.3790 -3.6475
 7091TIP3    H221238   5.636   3.438   0.627 -0.2985 -1.5048  2.4571
 7092TIP3   OH221239   5.779   6.013   0.635  0.0805  0.4351  0.1129
 7092TIP3    H121240   5.780   6.033   0.728 -5.0263  4.1576 -0.1879
 7092TIP3    H221241   5.726   5.933   0.628  0.6715  0.0148  0.3706
 7093TIP3   OH221242   4.688   5.070   1.101  0.5244  0.1403 -0.5277
 7093TIP3    H121243   4.762   5.012   1.117  0.5789  0.5144  0.7310
 7093TIP3    H221244   4.698   5.097   1.010  1.2937 -0.6993 -0.7111
 7094TIP3   OH221245   2.248   3.142   3.723 -0.3774 -0.4568 -0.6840
 7094TIP3    H121246   2.284   3.089   3.795  0.9540 -0.7224 -1.5111
 7094TIP3    H221247   2.189   3.203   3.766  0.1746 -0.7978  0.6118
 7095TIP3   OH221248   1.051   4.573   0.914 -0.3561 -0.6128 -0.7341
 7095TIP3    H121249   1.031   4.528   0.996  1.2414 -0.5296 -0.2784
 7095TIP3    H221250   1.020   4.663   0.928  0.2680 -0.4962 -0.0662
 7096TIP3   OH221251   5.924   4.880   5.778  0.6763  0.3554 -0.3779
 7096TIP3    H121252   6.007   4.926   5.793 -0.0939  1.8075 -0.3850
 7096TIP3    H221253   5.869   4.944   5.734  0.2957 -1.3408 -2.5147
 7097TIP3   OH221254   1.437   0.821   5.075  0.2547 -0.2152 -0.3959
 7097TIP3    H121255   1.512   0.773   5.111  0.4822 -0.2624 -0.9349
 7097TIP3    H221256   1.388   0.849   5.152  0.3513 -0.9492 -0.0601
 7098TIP3   OH221257   2.230   6.646   3.077 -0.1945 -0.4119 -0.9385
 7098TIP3    H121258   2.323   6.623   3.075 -0.1980 -0.4662 -0.6419
 7098TIP3    H221259   2.185   6.568   3.044 -0.0562  0.1341 -2.4552
 7099TIP3   OH221260   1.021   0.248   4.610  0.1102 -0.4298  0.1262
 7099TIP3    H121261   1.042   0.159   4.580 -3.0778 -0.9513 -0.9593
 7099TIP3    H221262   0.963   0.235   4.685 -0.9638  0.6771 -0.4813
 7100TIP3   OH221263   3.688   2.676   4.928  0.1925  0.2229  0.6174
 7100TIP3    H121264   3.774   2.697   4.891  0.1102  2.7440  1.6531
 7100TIP3    H221265   3.637   2.645   4.853  1.3729  0.7107 -0.4309
 7101TIP3   OH221266   5.633   2.587   3.306  0.2120 -0.7074 -0.0758
 7101TIP3    H121267   5.653   2.657   3.243  0.0876  0.6580  1.3293
 7101TIP3    H221268   5.575   2.528   3.258 -0.8127  0.8880 -0.9225
 7102TIP3   OH221269   0.728   3.376   1.940  0.1103 -0.1034 -0.3406
 7102TIP3    H121270   0.676   3.455   1.924  3.1975  1.8475 -1.6314
 7102TIP3    H221271   0.705   3.317   1.868 -0.3029  0.6966 -0.8807
 7103TIP3   OH221272   6.282   5.036   2.961  0.1000  0.0320 -0.4563
 7103TIP3    H121273   6.359   5.092   2.958  0.0126  0.1248 -1.3433
 7103TIP3    H221274   6.226   5.068   2.890 -0.5570 -0.3135 -0.1053
 7104TIP3   OH221275   2.612   1.440   1.738 -0.4161  0.4153  0.0163
 7104TIP3    H121276   2.676   1.381   1.697 -1.1022 -0.6710  0.4640
 7104TIP3    H221277   2.651   1.527   1.729  0.5763 -0.0840 -0.7605
 7105TIP3   OH221278   6.041   2.879   1.108 -0.3521 -0.0382  0.1375
 7105TIP3    H121279   5.947   2.877   1.126 -0.6236 -1.9429 -1.1748
 7105TIP3    H221280   6.049   2.839   1.022  1.5545  1.4269 -0.4056
 7106TIP3   OH221281   0.821   2.222   2.296  0.1318 -0.2199  0.0601
 7106TIP3    H121282   0.779   2.146   2.337  0.8697 -0.6748 -0.0218
 7106TIP3    H221283   0.752   2.288   2.294 -0.9947 -1.3399 -1.1749
 7107TIP3   OH221284   6.874   3.347   1.403  0.3753 -0.0439  0.4370
 7107TIP3    H121285   6.961   3.368   1.369  0.1578  0.6918  0.3351
 7107TIP3    H221286   6.843   3.428   1.442 -0.8063  0.0854 -0.6915
 7108TIP3   OH221287   2.721   0.404   2.449  0.0130  0.4750 -0.0848
 7108TIP3    H121288   2.773   0.342   2.500  0.9652 -0.5948 -2.2049
 7108TIP3    H221289   2.631   0.390   2.479  0.2095 -1.9302 -0.3898
 7109TIP3   OH221290   5.655   0.586   5.087  0.3135 -0.0515 -0.5782
 7109TIP3    H121291   5.614   0.553   5.007 -0.4174  0.8819 -0.6130
 7109TIP3    H221292   5.637   0.680   5.086  0.9321  0.0964  0.3209
 7110TIP3   OH221293   1.079   0.713   2.167 -0.1014 -0.3229 -0.7525
 7110TIP3    H121294   1.056   0.806   2.180 -1.6574 -0.5954 -1.3515
 7110TIP3    H221295   1.111   0.685   2.253 -0.1364  0.6257 -0.4136
 7111TIP3   OH221296   2.787   0.471   5.724 -0.3701  0.0950 -0.6887
 7111TIP3    H121297   2.713   0.410   5.728 -0.6587  0.5073  1.1352
 7111TIP3    H221298   2.749   0.556   5.746  0.2217  0.7756 -2.1905
 7112TIP3   OH221299   1.539   3.105   2.757  0.4034  0.4304 -0.1066
 7112TIP3    H121300   1.628   3.109   2.721  0.7565 -0.1705  0.6684
 7112TIP3    H221301   1.552   3.093   2.851 -0.5046  0.1085 -0.0183
 7113TIP3   OH221302   0.200   0.145   5.603 -0.0566 -0.1442  0.3793
 7113TIP3    H121303   0.213   0.088   5.679 -0.1179 -1.1768 -0.3674
 7113TIP3    H221304   0.109   0.130   5.578  0.3958 -0.9670 -0.8126
 7114TIP3   OH221305   4.428   0.460   4.713  0.4515  0.0288  0.5917
 7114TIP3    H121306   4.424   0.555   4.723  0.0848  0.1802 -0.7932
 7114TIP3    H221307   4.345   0.436   4.673  0.9615 -0.7366 -0.0575
 7115TIP3   OH221308   2.301   1.822   2.096  0.3564  0.2669 -0.8274
 7115TIP3    H121309   2.275   1.874   2.019  0.1433 -0.6760 -1.4031
 7115TIP3    H221310   2.281   1.879   2.170  0.2175  1.0555 -1.4510
 7116TIP3   OH221311   1.596   0.542   3.408  0.6020 -0.2760  0.1493
 7116TIP3    H121312   1.607   0.630   3.444 -1.0276 -0.3523  0.9502
 7116TIP3    H221313   1.685   0.511   3.392  1.4648  0.1386  3.2943
 7117TIP3   OH221314   4.006   5.600   2.291  0.0654 -0.1887  0.3700
 7117TIP3    H121315   4.098   5.575   2.299  0.4249  0.5199 -1.1793
 7117TIP3    H221316   3.996   5.672   2.353  0.8553  0.4586 -0.2307
 7118TIP3   OH221317   1.084   0.105   4.354 -0.0857  0.3149 -0.2240
 7118TIP3    H121318   1.000   0.063   4.336 -0.8055  1.8708 -0.7428
 7118TIP3    H221319   1.098   0.162   4.278  1.5553 -0.0821 -0.2445
 7119TIP3   OH221320   1.178   6.779   1.117  0.0286  0.0308 -0.4768
 7119TIP3    H121321   1.092   6.775   1.159  0.1296 -1.0709 -0.3636
 7119TIP3    H221322   1.240   6.779   1.189  0.1743 -0.9944 -0.5947
 7120TIP3   OH221323   6.822   5.520   3.680  0.0525  0.6013 -1.0452
 7120TIP3    H121324   6.758   5.499   3.611 -0.9415 -1.6566  0.4231
 7120TIP3    H221325   6.902   5.541   3.633 -1.0015  0.6522 -2.9114
 7121TIP3   OH221326   5.517   5.403   2.906 -0.4421  0.4585 -0.0614
 7121TIP3    H121327   5.597   5.429   2.952 -0.8066 -0.6596  1.2977
 7121TIP3    H221328   5.473   5.344   2.967 -0.8415 -1.3310 -1.9611
 7122TIP3   OH221329   2.993   0.323   1.117 -0.4441  0.0263  0.0084
 7122TIP3    H121330   2.905   0.317   1.155 -0.1177  1.7310  1.1211
 7122TIP3    H221331   3.007   0.237   1.077 -2.4295 -0.4389  0.1945
 7123TIP3   OH221332   4.476   1.088   5.259  0.1691  0.0533  0.0307
 7123TIP3    H121333   4.556   1.114   5.304  0.4069  1.1055 -0.9503
 7123TIP3    H221334   4.414   1.070   5.329  1.0719 -0.1432  0.7920
 7124TIP3   OH221335   1.039   4.349   0.763 -1.0790 -0.1557 -0.2396
 7124TIP3    H121336   0.989   4.305   0.832  0.9374 -2.1307  0.0651
 7124TIP3    H221337   1.062   4.434   0.802 -0.9454 -0.7673  1.0930
 7125TIP3   OH221338   4.474   0.970   1.831  0.3938 -0.2010 -0.0131
 7125TIP3    H121339   4.482   1.019   1.913  1.0737 -1.5200  0.7426
 7125TIP3    H221340   4.385   0.990   1.800  0.9202  2.1695 -0.2341
 7126TIP3   OH221341   2.303   0.881   4.773  0.0046  0.1848 -0.1367
 7126TIP3    H121342   2.208   0.865   4.777 -0.2878  1.9049  1.0640
 7126TIP3    H221343   2.342   0.794   4.775 -1.5125 -0.5432  1.7246
 7127TIP3   OH221344   2.655   4.566   3.902 -1.0073  0.1536  0.1502
 7127TIP3    H121345   2.706   4.621   3.842  0.4920  0.9747  2.0493
 7127TIP3    H221346   2.722   4.521   3.954 -2.2410 -0.4626  1.2411
 7128TIP3   OH221347   2.009   4.733   3.290 -0.3585  0.6906  0.8679
 7128TIP3    H121348   1.987   4.771   3.375 -1.7398  1.1193  0.3559
 7128TIP3    H221349   1.960   4.786   3.227  0.0722 -0.0655 -0.1325
 7129TIP3   OH221350   6.946   3.018   4.974  0.5408  0.2408 -0.1456
 7129TIP3    H121351   6.959   2.929   4.942  0.5323  0.0561  0.3599
 7129TIP3    H221352   6.884   3.009   5.046  0.1030  0.7285 -0.4533
 7130TIP3   OH221353   6.682   1.505   3.631  0.5133 -0.3591  0.3403
 7130TIP3    H121354   6.594   1.503   3.667 -0.2714  1.2615 -1.3200
 7130TIP3    H221355   6.683   1.581   3.573  3.5541  0.7065  1.5955
 7131TIP3   OH221356   0.498   3.627   2.024  0.1422  0.3051 -0.3570
 7131TIP3    H121357   0.433   3.557   2.022  1.1270 -0.6357 -0.7984
 7131TIP3    H221358   0.496   3.664   1.935 -1.2911  1.7450  0.2352
 7132TIP3   OH221359   3.429   4.500   3.300  0.3606  0.0255 -0.4280
 7132TIP3    H121360   3.412   4.480   3.392 -1.0540 -0.1653 -0.7203
 7132TIP3    H221361   3.524   4.512   3.296  0.6905 -1.8036  0.7009
 7133TIP3   OH221362   4.200   4.664   4.955  0.2118  0.3376  0.0905
 7133TIP3    H121363   4.183   4.652   5.048  1.3364  2.0605  0.5566
 7133TIP3    H221364   4.120   4.705   4.921 -0.1477 -0.1745  0.3041
 7134TIP3   OH221365   2.066   1.075   0.787  0.3926  0.0657  0.0482
 7134TIP3    H121366   2.083   1.149   0.845  0.2048  0.0775  0.0894
 7134TIP3    H221367   2.134   1.012   0.809 -1.0211 -0.9161  1.9633
 7135TIP3   OH221368   1.625   2.304   0.512  0.0753 -0.0681 -0.0171
 7135TIP3    H121369   1.661   2.248   0.581 -0.4331 -0.1042  0.2214
 7135TIP3    H221370   1.550   2.255   0.478 -0.6979  0.6959  0.5548
 7136TIP3   OH221371   6.806   5.432   3.151  0.3268 -0.2737 -0.2357
 7136TIP3    H121372   6.773   5.356   3.199  0.1272 -0.1169 -0.1250
 7136TIP3    H221373   6.797   5.409   3.059  0.2187 -0.3640 -0.2027
 7137TIP3   OH221374   5.018   2.881   3.538  0.5544  0.0953  0.6475
 7137TIP3    H121375   5.083   2.852   3.474  2.1294  0.1475  2.1434
 7137TIP3    H221376   4.999   2.972   3.515 -0.0415 -0.3306 -0.6089
 7138TIP3   OH221377   4.756   1.466   1.104 -0.3957 -0.0054 -0.6041
 7138TIP3    H121378   4.792   1.440   1.188 -0.4358 -0.9924 -0.8778
 7138TIP3    H221379   4.829   1.509   1.058  0.4358 -1.8594 -1.1034
 7139TIP3   OH221380   5.990   6.080   4.935  0.1064 -0.2001  0.0114
 7139TIP3    H121381   5.945   5.997   4.951  1.3625 -0.5338  2.0723
 7139TIP3    H221382   6.048   6.061   4.861 -0.9572 -0.5815 -0.7595
 7140TIP3   OH221383   2.220   0.017   5.752  0.4861  0.1789 -0.1977
 7140TIP3    H121384   2.244   0.068   5.829  1.2333  1.6585 -1.3634
 7140TIP3    H221385   2.301   0.013   5.701 -0.5188  1.1276 -1.9425
 7141TIP3   OH221386   3.870   1.543   5.581  0.1123 -0.3497  0.4381
 7141TIP3    H121387   3.831   1.601   5.516 -1.1175  0.2274  1.6381
 7141TIP3    H221388   3.963   1.539   5.558 -0.3401 -0.4647 -1.5492
 7142TIP3   OH221389   3.569   4.765   0.770 -0.3663 -0.1682  0.4054
 7142TIP3    H121390   3.485   4.792   0.734 -0.3498 -1.6776 -0.8400
 7142TIP3    H221391   3.558   4.775   0.865 -1.3571  1.2179  0.1825
 7143TIP3   OH221392   5.762   4.082   3.450 -0.1398 -0.0943 -0.0930
 7143TIP3    H121393   5.855   4.098   3.467  0.0970 -1.7872  0.3454
 7143TIP3    H221394   5.755   4.080   3.355 -0.0260  1.5537 -0.1605
 7144TIP3   OH221395   6.668   4.680   1.330  0.1964 -0.0551  0.3338
 7144TIP3    H121396   6.760   4.657   1.343 -0.0319 -1.1032  0.1858
 7144TIP3    H221397   6.620   4.614   1.379 -0.5146 -0.3927 -0.7930
 7145TIP3   OH221398   4.468   2.323   5.250 -0.1090 -0.3022  0.4409
 7145TIP3    H121399   4.451   2.249   5.192 -0.3914  0.6399 -0.7107
 7145TIP3    H221400   4.563   2.336   5.246 -0.1312 -0.2229  0.1686
 7146TIP3   OH221401   4.458   3.431   1.567 -0.0306 -0.0640 -0.0210
 7146TIP3    H121402   4.454   3.516   1.524 -0.7720 -0.2163 -0.2712
 7146TIP3    H221403   4.491   3.372   1.500 -0.0839 -0.0844 -0.0293
 7147TIP3   OH221404  -0.001   4.577   4.277  0.0849  0.1859  0.0453
 7147TIP3    H121405   0.071   4.630   4.242  0.7327  0.3415  1.5215
 7147TIP3    H221406  -0.019   4.513   4.209  1.3436  0.4198 -0.5414
 7148TIP3   OH221407   3.802   2.647   1.541  0.0474 -0.1264 -0.4066
 7148TIP3    H121408   3.750   2.567   1.546 -0.8654  0.4474 -0.5810
 7148TIP3    H221409   3.874   2.624   1.482  1.0281 -1.4668  1.1959
 7149TIP3   OH221410   5.778   5.496   0.019  0.0436  0.0477  0.5482
 7149TIP3    H121411   5.833   5.574   0.025 -0.4942  0.3727  1.3838
 7149TIP3    H221412   5.837   5.428  -0.014  0.6627  0.6636  0.3648
 7150TIP3   OH221413   7.155   1.403   5.782  0.2367  0.1189  0.0840
 7150TIP3    H121414   7.150   1.480   5.838  0.3758 -0.7908  1.3750
 7150TIP3    H221415   7.067   1.365   5.787  1.0891 -1.7258  2.2889
 7151TIP3   OH221416   3.804   0.407   0.798 -0.2495  0.0279 -0.3725
 7151TIP3    H121417   3.774   0.389   0.709 -2.0456 -0.7296  0.3399
 7151TIP3    H221418   3.768   0.335   0.850  1.0188  0.2978  0.9379
 7152TIP3   OH221419   6.051   3.189   2.688 -0.2589 -0.6103 -0.3147
 7152TIP3    H121420   6.055   3.155   2.778 -2.9284 -0.9874 -0.2585
 7152TIP3    H221421   6.027   3.113   2.635 -1.0385  0.0900 -0.9880
 7153TIP3   OH221422   2.555   0.993   5.286  0.1716 -0.0919  0.0125
 7153TIP3    H121423   2.636   1.031   5.253  0.9139  0.6673  2.4873
 7153TIP3    H221424   2.581   0.942   5.362 -1.4565 -1.6434 -0.3976
 7154TIP3   OH221425   4.374   3.283   5.398  0.3729  0.1121  0.2990
 7154TIP3    H121426   4.381   3.379   5.402 -0.1264  0.1134  1.2515
 7154TIP3    H221427   4.362   3.256   5.489  2.5943 -1.0431  0.3238
 7155TIP3   OH221428   2.340   4.405   0.570 -0.6156 -0.4172  0.4292
 7155TIP3    H121429   2.285   4.451   0.633  0.1342 -2.5520  2.8068
 7155TIP3    H221430   2.421   4.387   0.617  0.4798 -1.0739 -1.5811
 7156TIP3   OH221431   0.743   4.851   5.816 -0.4509  0.4677  1.0566
 7156TIP3    H121432   0.725   4.891   5.901 -0.5826 -0.4813  1.4957
 7156TIP3    H221433   0.832   4.817   5.824  0.2878  2.0734  0.1161
 7157TIP3   OH221434   7.198   0.482   5.517  0.1697 -0.1022  0.6103
 7157TIP3    H121435   7.143   0.513   5.588  0.3104  1.3981  0.1021
 7157TIP3    H221436   7.266   0.549   5.509 -0.8365  0.7375 -2.0585
 7158TIP3   OH221437   6.353   2.180   3.983 -0.6522 -0.5113 -0.1294
 7158TIP3    H121438   6.360   2.205   4.075  0.8457 -1.8567  0.1702
 7158TIP3    H221439   6.410   2.241   3.937 -1.4980  0.2417 -0.2038
 7159TIP3   OH221440   0.128   6.413   0.901 -0.3189  0.5034  0.3048
 7159TIP3    H121441   0.045   6.440   0.940  0.7853  2.3180  1.5554
 7159TIP3    H221442   0.132   6.458   0.817 -0.5598  0.4514  0.2653
 7160TIP3   OH221443   0.704   4.531   5.566  0.4946 -0.2854  0.3766
 7160TIP3    H121444   0.754   4.491   5.494 -0.4409  1.4967 -1.3536
 7160TIP3    H221445   0.702   4.463   5.634  3.0906 -1.3389 -0.4525
 7161TIP3   OH221446   5.028   6.390   5.266 -0.3507  0.3865 -0.3103
 7161TIP3    H121447   4.983   6.462   5.309 -0.9715 -0.6142  0.7688
 7161TIP3    H221448   5.112   6.427   5.239 -0.9168  1.6821 -0.3873
 7162TIP3   OH221449   5.325   0.146   4.238 -0.2105 -0.2197 -0.3560
 7162TIP3    H121450   5.323   0.242   4.234  0.3710 -0.1968 -0.1092
 7162TIP3    H221451   5.362   0.119   4.154  1.8453 -0.1319  0.4814
 7163TIP3   OH221452   1.020   3.963   3.487 -0.5706  0.2273 -0.3856
 7163TIP3    H121453   1.040   3.906   3.561 -1.2795 -0.4377 -0.6962
 7163TIP3    H221454   0.971   3.908   3.426 -1.8498  1.3251 -0.3999
 7164TIP3   OH221455   5.481   1.288   5.221 -0.3604  0.6274  0.1578
 7164TIP3    H121456   5.572   1.262   5.235 -0.5363 -0.4408 -0.5761
 7164TIP3    H221457   5.483   1.383   5.217  0.5690  0.6675  1.1888
 7165TIP3   OH221458   3.974   3.151   2.312  0.1602 -0.2322  0.1610
 7165TIP3    H121459   3.960   3.198   2.230  1.7139 -0.3648 -0.2135
 7165TIP3    H221460   3.945   3.062   2.293  0.5385 -0.2692 -0.2748
 7166TIP3   OH221461   5.624   6.680   1.832  0.2133  0.4315 -0.6775
 7166TIP3    H121462   5.563   6.618   1.790  0.6687 -1.7264  1.6112
 7166TIP3    H221463   5.573   6.719   1.903  1.0074 -0.1728  0.2391
 7167TIP3   OH221464   1.127   4.506   5.609  0.1418  0.8988  0.2857
 7167TIP3    H121465   1.208   4.521   5.658 -0.2575  3.0005  0.3821
 7167TIP3    H221466   1.057   4.515   5.673 -0.2200 -0.1831  0.0612
 7168TIP3   OH221467   4.437   1.285   1.570  0.0932  0.1825 -0.2291
 7168TIP3    H121468   4.515   1.237   1.599 -1.7138 -1.4940  2.3767
 7168TIP3    H221469   4.408   1.239   1.491 -0.0553 -1.3588  0.6827
 7169TIP3   OH221470   5.883   6.192   5.432 -0.1277 -0.1637 -0.0070
 7169TIP3    H121471   5.791   6.211   5.453  0.2279 -0.1416  1.6556
 7169TIP3    H221472   5.886   6.096   5.425  0.0432 -0.3121  1.7280
 7170TIP3   OH221473   4.761   3.680   3.305 -0.4050  0.9408  0.0373
 7170TIP3    H121474   4.682   3.712   3.347 -0.9508  0.0351 -0.2572
 7170TIP3    H221475   4.776   3.594   3.344 -0.2080  0.6262 -0.7086
 7171TIP3   OH221476   5.837   1.417   4.111 -0.1737 -0.2618 -0.3668
 7171TIP3    H121477   5.756   1.465   4.095 -0.3306 -0.2163  0.4979
 7171TIP3    H221478   5.815   1.326   4.094 -0.6533 -0.3555  0.6519
 7172TIP3   OH221479   0.844   2.708   0.957 -0.1253  0.1799  0.0907
 7172TIP3    H121480   0.812   2.769   0.890  1.0504 -0.8670 -1.4875
 7172TIP3    H221481   0.879   2.634   0.908 -0.4399 -1.2671  1.9221
 7173TIP3   OH221482   6.297   0.389   2.293  0.2106 -0.3046  0.2645
 7173TIP3    H121483   6.247   0.469   2.279  0.7684 -0.1894 -1.2858
 7173TIP3    H221484   6.268   0.330   2.223  2.0136 -0.3135 -0.5507
 7174TIP3   OH221485   3.063   2.316   2.759 -0.0348 -0.0111  0.0301
 7174TIP3    H121486   3.019   2.375   2.820 -1.2690 -2.9533  2.2516
 7174TIP3    H221487   3.154   2.344   2.759 -0.6183  2.0329  0.7062
 7175TIP3   OH221488   3.553   0.788   0.327 -0.0102  0.0693  0.8640
 7175TIP3    H121489   3.586   0.698   0.331  1.6910  0.5041 -1.4431
 7175TIP3    H221490   3.543   0.814   0.419 -1.1132 -2.6230  1.6071
 7176TIP3   OH221491   6.485   1.550   4.965  0.1843 -0.5299 -0.1335
 7176TIP3    H121492   6.407   1.514   4.922 -0.6071  0.3234  0.5231
 7176TIP3    H221493   6.548   1.479   4.964 -0.3674 -1.0281 -1.2878
 7177TIP3   OH221494   6.232   1.035   3.810  0.0319 -0.1631 -0.1666
 7177TIP3    H121495   6.176   1.022   3.886 -0.0644  2.0889  0.2329
 7177TIP3    H221496   6.173   1.062   3.740  0.4120  0.5428 -0.2272
 7178TIP3   OH221497   6.819   0.505   5.137  0.4021  0.0177  0.2647
 7178TIP3    H121498   6.902   0.483   5.179 -0.6799  0.1027  2.5861
 7178TIP3    H221499   6.757   0.515   5.209 -1.4089  0.9848 -1.3262
 7179TIP3   OH221500   4.545   5.580   4.839  0.0699  0.2903 -0.2792
 7179TIP3    H121501   4.555   5.562   4.746 -0.2989 -0.2364 -0.2250
 7179TIP3    H221502   4.451   5.597   4.850  0.1838  0.8011 -0.0786
 7180TIP3   OH221503   3.351   0.527   5.381  0.2284 -0.2018 -0.1448
 7180TIP3    H121504   3.276   0.586   5.368 -0.5600 -0.3284  3.0203
 7180TIP3    H221505   3.422   0.585   5.410  0.3586 -0.4708  0.0710
 7181TIP3   OH221506   0.628   4.112   3.000 -0.1430  1.0019 -0.0848
 7181TIP3    H121507   0.712   4.115   3.045 -0.3352  0.7216  0.3042
 7181TIP3    H221508   0.640   4.165   2.922 -0.3223  3.0595  1.2110
 7182TIP3   OH221509   4.194   5.639   1.801  0.1442 -0.2256  0.2608
 7182TIP3    H121510   4.282   5.611   1.827  1.2191  2.5849  0.0462
 7182TIP3    H221511   4.183   5.725   1.843 -1.9839  0.0772 -0.7761
 7183TIP3   OH221512   4.396   3.673   1.455 -0.2895 -0.1613  0.0166
 7183TIP3    H121513   4.451   3.668   1.377  0.5003 -0.2817  0.5591
 7183TIP3    H221514   4.402   3.764   1.483  0.6117 -0.4181  0.7342
 7184TIP3   OH221515   2.853   0.190   4.835 -0.2177 -0.5381 -0.2176
 7184TIP3    H121516   2.795   0.166   4.762 -0.3447 -1.0873  0.0578
 7184TIP3    H221517   2.798   0.243   4.893 -0.0967 -0.0392 -0.5461
 7185TIP3   OH221518   2.183   6.621   1.593 -0.1487 -0.3192 -0.4967
 7185TIP3    H121519   2.153   6.693   1.648 -1.3532  0.6565 -2.3108
 7185TIP3    H221520   2.252   6.578   1.644 -0.7657  0.8856  1.4613
 7186TIP3   OH221521   7.081   0.180   5.192  0.3159 -0.1166 -0.2904
 7186TIP3    H121522   7.103   0.149   5.280  0.4214  0.5580 -0.0708
 7186TIP3    H221523   7.093   0.275   5.197  1.7609 -0.2054 -1.4462
 7187TIP3   OH221524   6.434   6.235   2.031  0.0486  0.1267  0.2824
 7187TIP3    H121525   6.370   6.200   1.970  0.0760  0.7008 -0.0763
 7187TIP3    H221526   6.488   6.294   1.979  0.0008  0.7142  0.8807
 7188TIP3   OH221527   2.587   4.116   3.239  0.2229 -0.4559  0.1053
 7188TIP3    H121528   2.603   4.033   3.284 -0.7886 -1.0981 -0.6890
 7188TIP3    H221529   2.672   4.139   3.201  0.2631 -1.7144 -0.6239
 7189TIP3   OH221530   0.147   3.823   1.546 -1.4546  0.0161 -0.5855
 7189TIP3    H121531   0.216   3.883   1.516 -0.8935  0.3928  1.2867
 7189TIP3    H221532   0.084   3.880   1.589 -2.5453 -0.4232 -1.5691
 7190TIP3   OH221533   2.880   3.706   3.143  0.5776  0.4749  0.4919
 7190TIP3    H121534   2.970   3.674   3.153  0.5752  0.2986 -0.0398
 7190TIP3    H221535   2.886   3.800   3.163  1.1657  0.7777 -1.0247
 7191TIP3   OH221536   5.166   4.845   3.513 -0.0432  0.1971  0.1982
 7191TIP3    H121537   5.231   4.913   3.496  0.0937 -0.2782 -1.3793
 7191TIP3    H221538   5.083   4.892   3.516  0.1831  0.5909  0.4096
 7192TIP3   OH221539   1.392   2.328   5.339  0.4055 -0.3934 -0.3936
 7192TIP3    H121540   1.342   2.403   5.371  0.2877 -0.0617 -1.3290
 7192TIP3    H221541   1.326   2.261   5.320  0.1566  0.4257 -2.6783
 7193TIP3   OH221542   2.792   4.923   3.390  0.0803  0.3227  0.0506
 7193TIP3    H121543   2.746   4.984   3.333  0.6899  0.5037 -0.2547
 7193TIP3    H221544   2.851   4.875   3.331 -0.5616 -0.7322  0.2416
 7194TIP3   OH221545   4.888   5.190   5.067 -0.3056  0.4341 -0.2130
 7194TIP3    H121546   4.820   5.139   5.022 -0.2788  1.5298 -1.5848
 7194TIP3    H221547   4.934   5.126   5.121 -0.0536 -1.1102 -2.1265
 7195TIP3   OH221548   2.810   5.913   1.098 -0.0527  0.7669  0.0368
 7195TIP3    H121549   2.729   5.897   1.146 -0.2865  1.2334 -0.1986
 7195TIP3    H221550   2.851   5.827   1.091 -1.0167  0.3514 -0.7221
 7196TIP3   OH221551   6.727   2.314   3.349  0.4699 -0.0688 -0.1340
 7196TIP3    H121552   6.791   2.247   3.374  2.3400  2.0596  1.0651
 7196TIP3    H221553   6.701   2.354   3.431 -0.1194  1.1304 -0.8819
 7197TIP3   OH221554   0.899   4.705   2.510 -0.7498 -0.0880 -0.4951
 7197TIP3    H121555   0.851   4.770   2.459 -1.4738  0.3428  0.6920
 7197TIP3    H221556   0.949   4.655   2.445  0.1905  1.9232 -1.4206
 7198TIP3   OH221557   0.575   3.327   3.064 -0.5477  0.2045  0.1503
 7198TIP3    H121558   0.627   3.399   3.099 -0.5114 -0.7757  2.2672
 7198TIP3    H221559   0.636   3.252   3.065 -1.0167 -0.2015 -0.6097
 7199TIP3   OH221560   4.945   3.846   3.203  0.0908 -0.7227 -0.8406
 7199TIP3    H121561   4.883   3.773   3.211  0.1639 -0.7426 -0.4318
 7199TIP3    H221562   4.945   3.867   3.110 -1.3685  0.0041 -0.7005
 7200TIP3   OH221563   1.197   4.516   5.151  0.2230 -0.0878 -0.6069
 7200TIP3    H121564   1.252   4.578   5.103  1.8805  1.6664  3.0956
 7200TIP3    H221565   1.146   4.571   5.211 -0.1678 -2.1128  1.0379
 7201TIP3   OH221566   5.199   3.105   0.984  0.1020  0.1091  0.4966
 7201TIP3    H121567   5.278   3.159   0.974  1.1716 -1.4068  0.3450
 7201TIP3    H221568   5.194   3.054   0.903 -2.5918  2.0525 -0.6929
 7202TIP3   OH221569   0.620   3.498   5.187 -0.7423  0.0180  0.1590
 7202TIP3    H121570   0.627   3.515   5.093  2.1741  3.4651  0.7614
 7202TIP3    H221571   0.660   3.412   5.199 -1.3368 -0.5536 -1.7323
 7203TIP3   OH221572   6.030   6.622   1.387 -0.0527  0.0429  0.0002
 7203TIP3    H121573   6.042   6.540   1.435  0.7424 -0.5481 -1.1407
 7203TIP3    H221574   5.992   6.595   1.303 -0.9243  0.9858  0.0755
 7204TIP3   OH221575   6.413   0.386   3.637  0.5228  0.1292  0.1737
 7204TIP3    H121576   6.445   0.363   3.550  0.2379  0.5225 -0.0397
 7204TIP3    H221577   6.322   0.357   3.638  0.6549 -0.2734  0.4973
 7205TIP3   OH221578   2.297   2.418   2.187  0.1059  0.7097 -0.3974
 7205TIP3    H121579   2.341   2.445   2.107  0.5258 -0.6596 -0.6667
 7205TIP3    H221580   2.227   2.359   2.158  1.1706 -0.9690  0.2692
 7206TIP3   OH221581   3.469   3.312   1.868  0.1245  0.4156 -0.3045
 7206TIP3    H121582   3.457   3.220   1.846  0.3764 -0.0417  1.3137
 7206TIP3    H221583   3.552   3.315   1.916 -0.0766  1.4194  0.0131
 7207TIP3   OH221584   1.464  -0.009   3.764  0.2055 -0.3517 -0.2582
 7207TIP3    H121585   1.430   0.079   3.746  0.6792  0.1013  0.9497
 7207TIP3    H221586   1.427  -0.032   3.849  2.4140 -0.0711  0.8501
 7208TIP3   OH221587   0.125   0.986   4.881 -0.0991 -0.2528 -0.2542
 7208TIP3    H121588   0.091   1.074   4.896  0.4344  0.1856 -1.5288
 7208TIP3    H221589   0.145   0.954   4.969 -0.0451  0.9943  0.2150
 7209TIP3   OH221590   1.202   3.477   2.619 -0.1986  0.4178 -0.5106
 7209TIP3    H121591   1.286   3.447   2.654 -1.0629 -0.7180  0.7263
 7209TIP3    H221592   1.223   3.515   2.534  1.4934 -0.3016 -0.4517
 7210TIP3   OH221593   1.417   5.313   4.685 -0.2348 -0.1251  0.2852
 7210TIP3    H121594   1.339   5.260   4.667  1.0516 -1.4009 -2.0203
 7210TIP3    H221595   1.459   5.270   4.760 -0.5516 -0.8110  0.0759
 7211TIP3   OH221596   1.633   5.363   0.627 -0.2700  0.3589 -0.1773
 7211TIP3    H121597   1.620   5.271   0.650  0.3015  0.2822 -0.1449
 7211TIP3    H221598   1.603   5.370   0.536 -1.4375  0.4097  0.1866
 7212TIP3   OH221599   3.639   4.906   2.275 -0.2340 -0.4885 -0.4703
 7212TIP3    H121600   3.636   4.968   2.348 -0.3570  0.8828 -1.6089
 7212TIP3    H221601   3.719   4.856   2.290  0.1764  0.3281  0.1675
 7213TIP3   OH221602   3.128   5.659   1.294 -0.1560 -0.7579  0.2206
 7213TIP3    H121603   3.060   5.640   1.358  0.1391 -0.1289  0.7274
 7213TIP3    H221604   3.210   5.643   1.341  0.1202  1.6864  0.6869
 7214TIP3   OH221605   5.153   5.749   2.498  0.5312 -0.3027 -0.2007
 7214TIP3    H121606   5.113   5.662   2.500 -0.0900 -0.0483 -0.9736
 7214TIP3    H221607   5.213   5.746   2.424 -0.7632  0.4393 -1.3354
 7215TIP3   OH221608   6.520   4.873   3.767 -0.0542  0.0712  0.0616
 7215TIP3    H121609   6.609   4.903   3.790  0.9946 -1.0795 -2.1847
 7215TIP3    H221610   6.484   4.944   3.715  0.4790 -0.3900 -0.9719
 7216TIP3   OH221611   0.287   3.303   1.668 -0.0372 -0.5471  0.0273
 7216TIP3    H121612   0.377   3.301   1.700  0.2081 -1.4302 -0.6867
 7216TIP3    H221613   0.234   3.289   1.747  0.5129 -1.5061  0.2424
 7217TIP3   OH221614   5.815   0.800   5.418 -0.6374  0.2116 -0.1228
 7217TIP3    H121615   5.761   0.835   5.489 -0.4102 -0.9042  0.6216
 7217TIP3    H221616   5.773   0.718   5.392 -1.0911  0.9236 -1.7656
 7218TIP3   OH221617   6.500   0.953   4.922  0.7003  0.6115 -0.3992
 7218TIP3    H121618   6.455   0.956   5.007  0.5494  0.8721 -0.4877
 7218TIP3    H221619   6.556   0.876   4.928 -0.7476 -0.5162 -0.7772
 7219TIP3   OH221620   1.194   1.864   2.263 -0.2098  0.3744  0.0655
 7219TIP3    H121621   1.148   1.948   2.257 -0.4133  0.1639 -1.9574
 7219TIP3    H221622   1.128   1.802   2.293 -1.2804  0.1270 -2.5750
 7220TIP3   OH221623   3.080   0.334   4.815  0.2763  0.0524  0.2912
 7220TIP3    H121624   3.037   0.417   4.834 -0.2580  0.7423 -3.2690
 7220TIP3    H221625   3.012   0.268   4.830 -0.2432  0.5614  0.1951
 7221TIP3   OH221626   4.683   4.556   2.674  0.1484  0.8225  0.2355
 7221TIP3    H121627   4.725   4.611   2.740  1.0473  1.3366 -0.7394
 7221TIP3    H221628   4.612   4.610   2.640  1.3937  1.6460 -1.1348
 7222TIP3   OH221629   6.869   3.572   3.017  0.3999  0.4767  0.5877
 7222TIP3    H121630   6.945   3.522   2.987 -0.5828 -0.1403 -1.0249
 7222TIP3    H221631   6.901   3.622   3.092  2.4607  0.4478 -0.2068
 7223TIP3   OH221632   4.732   4.789   1.606 -0.0770  0.5949  0.2931
 7223TIP3    H121633   4.647   4.756   1.574  0.4549 -0.9406  0.3630
 7223TIP3    H221634   4.796   4.749   1.547  0.7003  0.3928  1.2587
 7224TIP3   OH221635   2.196   1.975   3.235 -0.0462 -0.4900  0.2389
 7224TIP3    H121636   2.255   2.029   3.182 -0.9473 -0.4388 -0.7392
 7224TIP3    H221637   2.157   2.036   3.297  1.3307 -0.6244  1.2924
 7225TIP3   OH221638   4.936   1.824   2.180 -0.3174 -0.4493  0.0341
 7225TIP3    H121639   4.887   1.742   2.170 -0.2252 -0.4937 -0.0620
 7225TIP3    H221640   4.870   1.893   2.174 -0.5638 -0.5544  1.2979
 7226TIP3   OH221641   2.358   3.362   2.402 -0.1876 -0.6063  0.0628
 7226TIP3    H121642   2.381   3.286   2.349 -0.5353  0.0345 -1.0220
 7226TIP3    H221643   2.421   3.430   2.376 -1.5396  0.3052 -0.9303
 7227TIP3   OH221644   1.312   5.262   4.101  0.8701 -0.7324  0.0312
 7227TIP3    H121645   1.270   5.295   4.181 -0.7857 -1.2082 -0.5925
 7227TIP3    H221646   1.272   5.312   4.030  0.5940 -1.8996 -0.6721
 7228TIP3   OH221647   1.010   0.718   1.874 -0.1131  0.4450  0.4676
 7228TIP3    H121648   1.020   0.696   1.967 -0.0887  2.4367  0.9932
 7228TIP3    H221649   1.077   0.785   1.858  0.0590 -0.0472 -1.0671
 7229TIP3   OH221650   0.977   3.503   2.410 -0.1928  0.2802  0.1743
 7229TIP3    H121651   1.007   3.552   2.334  1.2332 -0.4412  0.2351
 7229TIP3    H221652   1.056   3.487   2.462 -1.1112  0.6965  1.7927
 7230TIP3   OH221653   1.287   5.922   2.302 -0.4829 -0.1015 -0.3332
 7230TIP3    H121654   1.285   5.828   2.284  0.2798 -0.1274 -0.3156
 7230TIP3    H221655   1.199   5.953   2.278 -1.2050 -1.0479  0.9533
 7231TIP3   OH221656   7.179   6.140   0.984 -0.1722 -0.0135  0.0253
 7231TIP3    H121657   7.256   6.094   0.950  0.9554  1.1757  0.8885
 7231TIP3    H221658   7.166   6.213   0.924  1.2139  1.5072  1.4923
 7232TIP3   OH221659   2.671   5.781   1.521 -0.6940  0.2017  0.2487
 7232TIP3    H121660   2.636   5.825   1.598 -2.2521 -0.4523 -0.0514
 7232TIP3    H221661   2.601   5.722   1.493 -0.6737  1.2818 -2.3731
 7233TIP3   OH221662   2.123   5.311   5.647 -0.0487  0.4302  0.4778
 7233TIP3    H121663   2.050   5.318   5.586  1.7726  1.1374 -1.7404
 7233TIP3    H221664   2.114   5.388   5.704 -1.0331  0.4761  0.2682
 7234TIP3   OH221665   1.827   2.774   2.925 -0.3497 -0.4638  0.2640
 7234TIP3    H121666   1.752   2.734   2.969 -2.6127  2.1937 -0.8833
 7234TIP3    H221667   1.824   2.740   2.836  0.9785 -1.7177  0.6563
 7235TIP3   OH221668   7.172   4.092   5.095 -0.2854  0.3892 -0.5980
 7235TIP3    H121669   7.215   4.172   5.066  0.3029 -0.4900 -2.2636
 7235TIP3    H221670   7.239   4.044   5.143 -0.1606  0.1615 -1.0012
 7236TIP3   OH221671   5.218   5.369   3.336 -0.3753 -0.7482 -1.0753
 7236TIP3    H121672   5.211   5.445   3.278 -0.7200  0.5795  0.5996
 7236TIP3    H221673   5.312   5.352   3.342 -0.1740  0.4990 -0.3558
 7237TIP3   OH221674   4.822   3.311   1.985 -0.3847  0.0289  0.1457
 7237TIP3    H121675   4.738   3.265   1.987 -0.2092 -0.2812  1.9343
 7237TIP3    H221676   4.834   3.335   1.893 -1.6780 -1.2870 -0.4026
 7238TIP3   OH221677   0.452   6.368   3.640  1.0443  0.3949  0.0359
 7238TIP3    H121678   0.434   6.277   3.615  0.7677 -0.1261  1.9858
 7238TIP3    H221679   0.365   6.406   3.652  1.1472  1.1156 -1.3388
 7239TIP3   OH221680   7.225   3.274   4.177 -0.2121 -0.2007  0.4767
 7239TIP3    H121681   7.247   3.213   4.247 -0.3357 -0.9048 -0.0864
 7239TIP3    H221682   7.135   3.301   4.195 -0.5302 -1.0200  0.1369
 7240TIP3   OH221683   1.372   6.488   1.844  0.4371 -0.2223 -0.0862
 7240TIP3    H121684   1.407   6.399   1.848  0.5483 -0.3365 -2.2858
 7240TIP3    H221685   1.284   6.477   1.810  0.1924  0.4793  0.3071
 7241TIP3   OH221686   3.345   3.332   2.194 -0.3399 -0.1670  0.0662
 7241TIP3    H121687   3.267   3.388   2.186 -1.5405 -1.7498  0.0887
 7241TIP3    H221688   3.347   3.308   2.287  0.0723 -0.2884  0.0252
 7242TIP3   OH221689   2.282   0.023   3.901 -0.2039  0.1166  0.0434
 7242TIP3    H121690   2.342   0.022   3.827  0.4964  0.0758  0.5944
 7242TIP3    H221691   2.339   0.039   3.977 -1.1473  2.4883  0.3435
 7243TIP3   OH221692   3.971   4.481   2.312 -0.2042  0.2797 -0.3422
 7243TIP3    H121693   3.912   4.411   2.340  0.2457  0.2177  0.5055
 7243TIP3    H221694   4.010   4.449   2.230 -0.7892  0.0027 -0.5164
 7244TIP3   OH221695   0.680   4.251   2.762 -0.2804  0.1666  0.3063
 7244TIP3    H121696   0.651   4.194   2.691  1.3099 -0.1033 -0.1771
 7244TIP3    H221697   0.724   4.324   2.718 -1.7417  1.5014  0.9429
 7245TIP3   OH221698   2.617   3.618   0.326 -0.5817  0.5087 -0.2386
 7245TIP3    H121699   2.600   3.693   0.382 -1.8985  1.0248 -1.2512
 7245TIP3    H221700   2.558   3.631   0.251 -0.4608 -1.2633 -0.6825
 7246TIP3   OH221701   2.888   5.926   4.156 -0.6079  0.5371 -0.2152
 7246TIP3    H121702   2.796   5.903   4.140 -0.7591 -0.5439  1.7816
 7246TIP3    H221703   2.928   5.844   4.184  0.1193  1.6305  2.2156
 7247TIP3   OH221704   6.584   6.012   5.003 -0.2151  0.2442  0.7171
 7247TIP3    H121705   6.651   5.991   5.067  0.6858 -1.6517 -0.7310
 7247TIP3    H221706   6.511   6.048   5.054  0.5237 -1.0098  2.7423
 7248TIP3   OH221707   4.202   1.016   3.742  0.0029  0.0407 -0.4365
 7248TIP3    H121708   4.166   1.059   3.665 -3.4223 -3.4414 -1.0673
 7248TIP3    H221709   4.153   1.053   3.815  0.4082  0.4810 -0.3803
 7249TIP3   OH221710   0.254   6.384   3.329 -0.6225  0.1975  0.6360
 7249TIP3    H121711   0.262   6.311   3.268 -0.3801  0.0190  0.8819
 7249TIP3    H221712   0.336   6.432   3.320 -1.3816  1.3303 -0.6605
 7250TIP3   OH221713   4.973   2.379   3.437  0.2295 -0.1494  0.0137
 7250TIP3    H121714   4.939   2.292   3.457  0.7808 -0.5258 -0.6388
 7250TIP3    H221715   4.897   2.427   3.404  0.6984 -1.8127 -4.1030
 7251TIP3   OH221716   4.041   5.865   0.356  0.0547  0.3757  0.1796
 7251TIP3    H121717   3.976   5.886   0.422 -0.3884  1.3309 -0.5337
 7251TIP3    H221718   4.103   5.807   0.400 -1.4221 -0.7941  0.7966
 7252TIP3   OH221719   6.046   4.377   3.612 -0.0508 -0.2279  0.4932
 7252TIP3    H121720   6.015   4.455   3.657 -2.1810 -0.7085 -0.0445
 7252TIP3    H221721   6.119   4.408   3.558 -0.2210  1.1854  1.0406
 7253TIP3   OH221722   5.410   4.872   0.159  0.3134 -0.1541 -0.1528
 7253TIP3    H121723   5.431   4.922   0.238 -1.2561 -1.0816  0.9092
 7253TIP3    H221724   5.476   4.899   0.095  1.4309  0.8695  1.3657
 7254TIP3   OH221725   6.206   4.989   4.104  0.0996  0.0401 -0.2412
 7254TIP3    H121726   6.245   5.076   4.096 -1.0793  0.6455  0.3270
 7254TIP3    H221727   6.184   4.981   4.197 -1.3046 -0.1829 -0.5790
 7255TIP3   OH221728   0.694   3.633   3.801 -0.6224 -0.4880  0.0823
 7255TIP3    H121729   0.698   3.584   3.884  0.3437 -0.9128 -0.2070
 7255TIP3    H221730   0.767   3.694   3.806  0.2946 -1.4780 -1.0553
 7256TIP3   OH221731   4.748   4.223   4.312 -0.3827  0.5717 -0.8068
 7256TIP3    H121732   4.732   4.225   4.407 -1.4245  0.4025 -0.9633
 7256TIP3    H221733   4.837   4.191   4.304 -0.7553 -0.8362  0.0954
 7257TIP3   OH221734   6.540   2.078   5.320 -0.4550 -0.1864  0.5841
 7257TIP3    H121735   6.591   2.002   5.347  0.0598  0.2182  0.7623
 7257TIP3    H221736   6.597   2.152   5.337 -1.5934  0.4022  2.0569
 7258TIP3   OH221737   2.738   3.752   3.858 -0.2445  0.4213 -0.6251
 7258TIP3    H121738   2.657   3.802   3.856 -2.4333 -2.8386 -1.9226
 7258TIP3    H221739   2.725   3.687   3.927  1.3360 -0.0937 -0.7605
 7259TIP3   OH221740   0.029   1.872   5.592  0.6155 -0.1614  0.5257
 7259TIP3    H121741   0.114   1.827   5.593  0.4720 -0.4467  1.8537
 7259TIP3    H221742   0.048   1.958   5.631  0.1914 -0.4303  1.3306
 7260TIP3   OH221743   1.488   0.171   1.171 -0.3603  0.6159 -0.2636
 7260TIP3    H121744   1.431   0.164   1.095  0.5429 -1.3604 -0.8301
 7260TIP3    H221745   1.439   0.224   1.234 -3.1391 -1.5832 -0.4162
 7261TIP3   OH221746   4.323   0.755   0.797 -0.0365  0.0648 -0.2820
 7261TIP3    H121747   4.328   0.701   0.718 -0.7238 -1.2269  0.5278
 7261TIP3    H221748   4.412   0.751   0.834 -0.2824 -1.2489  0.2207
 7262TIP3   OH221749   3.829   5.355   5.426 -0.3629 -0.2066  0.0616
 7262TIP3    H121750   3.856   5.445   5.443  0.5825 -0.6647  1.1030
 7262TIP3    H221751   3.767   5.335   5.497 -1.5657  0.0172 -0.8893
 7263TIP3   OH221752   3.507   2.302   5.668  0.6020 -0.6802  0.2687
 7263TIP3    H121753   3.586   2.348   5.699  1.3143 -0.1254 -2.1544
 7263TIP3    H221754   3.536   2.255   5.590 -1.1624 -1.6630  0.1594
 7264TIP3   OH221755   1.278   3.225   1.446  0.2127 -0.5484  0.0969
 7264TIP3    H121756   1.319   3.226   1.359  0.6963  1.3779  0.3011
 7264TIP3    H221757   1.268   3.318   1.469 -1.2921 -1.0000  1.4639
 7265TIP3   OH221758   4.728   4.343   2.825 -1.0001  0.3461 -0.0954
 7265TIP3    H121759   4.709   4.429   2.788  0.3552  0.7204  0.0402
 7265TIP3    H221760   4.807   4.314   2.780 -1.3093 -0.7400  0.0229
 7266TIP3   OH221761   4.032   3.125   5.487  0.3857  0.0789  0.0405
 7266TIP3    H121762   4.035   3.138   5.392  2.4234 -0.1322  0.0171
 7266TIP3    H221763   4.120   3.094   5.509 -0.5473 -1.5779  1.7741
 7267TIP3   OH221764   0.588   1.648   0.709  0.3932 -0.2860 -0.2338
 7267TIP3    H121765   0.558   1.698   0.634  1.2935  0.1571 -0.3092
 7267TIP3    H221766   0.682   1.667   0.715  0.7585 -1.9370 -0.2434
 7268TIP3   OH221767   3.901   2.799   5.269  0.1822 -0.2202 -0.1581
 7268TIP3    H121768   3.947   2.733   5.217  1.3543 -0.4509  1.1046
 7268TIP3    H221769   3.934   2.883   5.235  1.2567 -0.3750  0.4531
 7269TIP3   OH221770   3.793   0.170   4.532  0.2325  0.4605  0.0381
 7269TIP3    H121771   3.802   0.109   4.459  1.3302  0.2674  0.3181
 7269TIP3    H221772   3.699   0.179   4.545  0.0408 -0.0645 -0.9287
 7270TIP3   OH221773   5.980   0.268   1.299  0.4267 -0.0628 -0.0551
 7270TIP3    H121774   5.921   0.232   1.233  0.5318 -0.6356  0.1501
 7270TIP3    H221775   5.922   0.317   1.358  0.2009 -0.3340 -0.0457
 7271TIP3   OH221776   0.814   3.301   5.301  0.7202 -0.5009  0.5247
 7271TIP3    H121777   0.871   3.368   5.338  1.3784 -0.7867  0.0538
 7271TIP3    H221778   0.821   3.227   5.361  0.0568 -0.1924  1.0006
 7272TIP3   OH221779   4.383   5.461   5.714  0.6225  0.5280 -0.0998
 7272TIP3    H121780   4.340   5.540   5.682  1.2856  0.5861 -0.8912
 7272TIP3    H221781   4.375   5.399   5.641  2.0746  0.6233 -0.3740
 7273TIP3   OH221782   4.593   6.651   4.708 -0.0996 -0.4836 -0.0160
 7273TIP3    H121783   4.553   6.633   4.622  0.2753  0.4569 -0.4012
 7273TIP3    H221784   4.678   6.690   4.686 -0.1116  0.0003  0.7895
 7274TIP3   OH221785   5.393   3.405   0.809  0.5406  0.3501  0.6593
 7274TIP3    H121786   5.443   3.474   0.765 -0.4003  0.2235 -0.6623
 7274TIP3    H221787   5.403   3.329   0.752  0.3455 -0.1914  1.3425
 7275TIP3   OH221788   1.725   3.330   2.579 -0.8152  0.5917 -0.2870
 7275TIP3    H121789   1.747   3.422   2.562  0.1145  0.6270  0.9621
 7275TIP3    H221790   1.757   3.283   2.502 -1.1032  1.2898 -0.8403
 7276TIP3   OH221791   5.022   2.270   5.225 -0.0119 -0.0900  0.0371
 7276TIP3    H121792   5.062   2.215   5.157  0.1273  1.1340 -0.9161
 7276TIP3    H221793   5.090   2.335   5.245 -0.5437  0.3627  0.3745
 7277TIP3   OH221794   4.235   6.726   3.991 -0.1076 -0.0251 -0.2724
 7277TIP3    H121795   4.321   6.689   4.011  0.2312  0.6275 -0.4952
 7277TIP3    H221796   4.233   6.733   3.896 -1.3361 -2.2083 -0.4664
 7278TIP3   OH221797   4.131   2.557   0.492  0.0262  0.6359 -0.7671
 7278TIP3    H121798   4.176   2.629   0.536 -1.4451  0.8154  0.5009
 7278TIP3    H221799   4.079   2.515   0.560 -1.2004  0.0199 -2.0282
 7279TIP3   OH221800   4.706   2.138   4.476 -0.0261  0.8172 -0.1412
 7279TIP3    H121801   4.703   2.146   4.571 -2.4988  0.0973 -0.1016
 7279TIP3    H221802   4.734   2.048   4.460 -1.6554  0.2521 -0.0061
 7280TIP3   OH221803   6.490   1.779   2.672  0.4241  0.2143  0.2340
 7280TIP3    H121804   6.507   1.851   2.733 -0.6729 -0.5135  1.4466
 7280TIP3    H221805   6.545   1.708   2.703  0.3755  0.0498 -0.0517
 7281TIP3   OH221806   6.684   1.232   1.872 -0.1273  0.3053 -0.6827
 7281TIP3    H121807   6.732   1.209   1.951 -1.5031 -1.1163 -0.2043
 7281TIP3    H221808   6.599   1.189   1.882 -0.6013  0.6854 -2.6053
 7282TIP3   OH221809   2.693   2.090   0.527  0.3141 -0.0565  0.1412
 7282TIP3    H121810   2.730   2.093   0.439 -0.3797 -0.5080 -0.1781
 7282TIP3    H221811   2.651   2.004   0.532  0.3260 -0.0201  0.9034
 7283TIP3   OH221812   3.407   5.641   1.990  0.8680  0.0270  0.0497
 7283TIP3    H121813   3.485   5.600   1.954 -0.0395  2.2660 -5.4154
 7283TIP3    H221814   3.438   5.722   2.030  1.5881 -0.9708  1.6340
 7284TIP3   OH221815   6.935   3.290   0.467  0.0714  0.0679 -0.6673
 7284TIP3    H121816   6.925   3.377   0.428 -0.7888 -0.2626 -1.2266
 7284TIP3    H221817   7.023   3.263   0.442 -0.0841  0.2911 -1.5289
 7285TIP3   OH221818   0.367   4.215   0.589 -0.4641  0.0967  0.3387
 7285TIP3    H121819   0.413   4.298   0.574 -0.6668  0.0355 -0.7009
 7285TIP3    H221820   0.288   4.240   0.636 -0.3050  0.4346  0.4360
 7286TIP3   OH221821   0.746   4.721   4.920 -0.2000  0.3801  0.2569
 7286TIP3    H121822   0.705   4.640   4.951 -0.5549  1.0074  1.4600
 7286TIP3    H221823   0.836   4.696   4.902 -0.5327 -0.5001 -0.3152
 7287TIP3   OH221824   2.410   5.715   2.690  0.2695  0.2832  0.0836
 7287TIP3    H121825   2.356   5.664   2.750 -0.4534  1.2910  0.3174
 7287TIP3    H221826   2.388   5.682   2.603 -0.9840  0.8832  0.1469
 7288TIP3   OH221827   0.085   3.319   3.713  0.0361  0.1194  0.1851
 7288TIP3    H121828   0.093   3.410   3.743  0.1494  0.7873 -1.7206
 7288TIP3    H221829   0.089   3.325   3.618 -1.5735 -1.7499 -0.0610
 7289TIP3   OH221830   2.060   4.488   1.479 -0.1253 -0.6104  0.2387
 7289TIP3    H121831   2.150   4.463   1.501  0.4910  1.3380  0.1545
 7289TIP3    H221832   2.037   4.433   1.405  0.7533 -1.5987  0.6801
 7290TIP3   OH221833   0.594   4.953   5.603 -0.2519 -0.6461 -0.0584
 7290TIP3    H121834   0.609   4.939   5.510 -0.8103 -0.7359 -0.1402
 7290TIP3    H221835   0.639   4.881   5.646  0.5927 -0.2199 -0.2135
 7291TIP3   OH221836   4.411   2.099   5.107  0.1517 -0.0768  0.2924
 7291TIP3    H121837   4.472   2.025   5.107  1.7707  1.2199  0.5265
 7291TIP3    H221838   4.324   2.058   5.102  1.0470 -1.9377 -1.1460
 7292TIP3   OH221839   4.685   6.736   5.540 -0.0277  0.6666 -0.2181
 7292TIP3    H121840   4.688   6.819   5.588 -1.8992  0.9527 -0.5342
 7292TIP3    H221841   4.712   6.757   5.451  2.6658  0.2826  0.4193
 7293TIP3   OH221842   5.301   2.417   4.272 -0.3242  0.1628 -0.6689
 7293TIP3    H121843   5.234   2.474   4.233 -0.2660 -0.3240 -1.5073
 7293TIP3    H221844   5.266   2.394   4.358 -0.2216  1.6878 -0.1846
 7294TIP3   OH221845   6.061   5.217   1.605  0.0982  0.3574 -0.4084
 7294TIP3    H121846   6.108   5.300   1.611  1.3451 -0.4028  0.9348
 7294TIP3    H221847   6.110   5.166   1.541  1.4047 -0.5776  1.2684
 7295TIP3   OH221848   1.604   5.511   5.736  0.5270 -0.0861 -0.3267
 7295TIP3    H121849   1.535   5.455   5.699  0.4840 -0.0721 -0.2678
 7295TIP3    H221850   1.574   5.531   5.824  0.2973  0.4456 -0.5228
 7296TIP3   OH221851   6.151   3.606   0.820 -0.2639 -0.5435  0.1682
 7296TIP3    H121852   6.141   3.556   0.739  0.9766 -1.1097  0.3384
 7296TIP3    H221853   6.229   3.569   0.861  0.8226  1.6506  0.2269
 7297TIP3   OH221854   0.242   5.455   3.018  0.0402 -0.0375  0.6317
 7297TIP3    H121855   0.183   5.392   3.059 -0.2054 -0.2570 -0.0375
 7297TIP3    H221856   0.298   5.486   3.089  1.5283 -2.4896  0.6377
 7298TIP3   OH221857   2.791   4.364   5.405  0.4319 -0.9475  0.2723
 7298TIP3    H121858   2.719   4.374   5.342  1.6090  0.4156 -0.9402
 7298TIP3    H221859   2.862   4.325   5.353  2.1740  2.1927  0.0711
 7299TIP3   OH221860   5.907   5.787   0.918  0.0615  0.4848  0.7450
 7299TIP3    H121861   5.883   5.880   0.923  0.7856  0.7041  0.3741
 7299TIP3    H221862   6.003   5.787   0.921  0.0462 -0.3156  1.6189
 7300TIP3   OH221863   2.978   0.888   4.723  0.5379 -0.0080 -0.2161
 7300TIP3    H121864   2.920   0.812   4.731 -0.9188  1.0604 -0.1288
 7300TIP3    H221865   2.963   0.921   4.635  0.9082  0.3648 -0.1430
 7301TIP3   OH221866   3.319   3.402   3.940  0.1293  0.0883 -0.0722
 7301TIP3    H121867   3.288   3.437   3.856  0.6198  1.1804  0.1883
 7301TIP3    H221868   3.413   3.391   3.927  0.7470  2.9691  1.1885
 7302TIP3   OH221869   0.258   1.884   1.152 -0.2734  0.1039 -0.4392
 7302TIP3    H121870   0.174   1.884   1.198 -0.2934 -0.1333 -0.4769
 7302TIP3    H221871   0.245   1.826   1.077  0.6227 -1.8764  0.8384
 7303TIP3   OH221872   3.367   6.540   5.353  0.2275 -0.9427 -0.4721
 7303TIP3    H121873   3.400   6.615   5.303 -1.2004 -1.1564 -1.8130
 7303TIP3    H221874   3.379   6.564   5.444  0.3897  0.6446 -0.8840
 7304TIP3   OH221875   4.408   2.091   0.047 -0.5665  0.0592 -0.1716
 7304TIP3    H121876   4.442   2.147   0.116 -1.5071  1.7045 -0.9804
 7304TIP3    H221877   4.433   2.135  -0.034  0.4303 -1.7766 -0.9239
 7305TIP3   OH221878   4.601   0.055   1.285  0.7215  0.3507  0.2986
 7305TIP3    H121879   4.505   0.054   1.284  0.6162  0.4886  3.0120
 7305TIP3    H221880   4.626  -0.037   1.290  0.6757  0.3538  0.6170
 7306TIP3   OH221881   3.716   6.594   0.200 -0.1018  0.7588  0.0767
 7306TIP3    H121882   3.809   6.599   0.176 -0.3166 -1.0692 -1.4195
 7306TIP3    H221883   3.715   6.608   0.295  1.9871 -1.1323  0.4911
 7307TIP3   OH221884   5.069   1.195   2.979 -1.0694 -0.0195  0.2758
 7307TIP3    H121885   5.029   1.268   2.932  3.5532  1.9525 -1.0524
 7307TIP3    H221886   5.093   1.132   2.911 -0.3526 -0.3524  0.8301
 7308TIP3   OH221887   1.025   2.803   4.874  0.3407  0.0053  0.4627
 7308TIP3    H121888   0.947   2.853   4.849 -0.1471 -0.0325  1.8242
 7308TIP3    H221889   1.092   2.869   4.891 -0.4791  0.3184  2.8723
 7309TIP3   OH221890   4.984   3.061   2.202  0.2044  0.0549  0.0277
 7309TIP3    H121891   5.048   3.129   2.217 -0.3075  0.2840  1.3099
 7309TIP3    H221892   5.014   2.987   2.254 -0.4998  0.1293  0.5614
 7310TIP3   OH221893   0.068   0.740   4.840 -0.2354  0.2541 -0.6648
 7310TIP3    H121894   0.061   0.835   4.832  0.1484  0.2528 -1.0081
 7310TIP3    H221895   0.161   0.723   4.851 -0.0328 -0.2238 -2.6887
 7311TIP3   OH221896   2.034   0.773   2.189  0.1721  0.0930 -0.5843
 7311TIP3    H121897   2.021   0.690   2.235 -2.1927  0.6561 -0.1090
 7311TIP3    H221898   2.014   0.754   2.098 -0.2236  0.1167 -0.5014
 7312TIP3   OH221899   2.451   6.687   4.720 -0.1357  0.3160 -0.1615
 7312TIP3    H121900   2.438   6.749   4.792 -0.8745 -0.8038  0.7139
 7312TIP3    H221901   2.385   6.619   4.735  1.2968 -1.2215 -0.4593
 7313TIP3   OH221902   2.080   4.741   4.610  0.0440  0.0371  0.0464
 7313TIP3    H121903   2.071   4.689   4.531  2.2188 -0.7158  0.2277
 7313TIP3    H221904   1.992   4.744   4.647 -1.4112  1.7242 -3.1365
 7314TIP3   OH221905   0.262   2.851   3.342 -0.0259  0.0555 -0.6355
 7314TIP3    H121906   0.244   2.912   3.413 -0.1596 -2.1948  1.4053
 7314TIP3    H221907   0.233   2.896   3.263 -0.2141  2.5249  0.7525
 7315TIP3   OH221908   0.369   2.489   0.266  0.3505  0.5377  0.0584
 7315TIP3    H121909   0.373   2.398   0.238 -0.5001  0.7483 -0.8410
 7315TIP3    H221910   0.380   2.487   0.361  2.2343 -0.3214 -0.1517
 7316TIP3   OH221911   6.207   5.669   3.461  0.0700  0.3217 -0.8914
 7316TIP3    H121912   6.249   5.694   3.379 -2.3289  0.6647 -2.0836
 7316TIP3    H221913   6.141   5.605   3.436  0.3941 -0.8262  1.0219
 7317TIP3   OH221914   3.592   1.064   0.287 -0.4902  0.0280 -0.3030
 7317TIP3    H121915   3.610   0.978   0.249  0.3076  0.2445 -0.4360
 7317TIP3    H221916   3.510   1.053   0.336 -0.8047 -0.6028 -0.9606
 7318TIP3   OH221917   6.067   5.355   5.039 -0.3501 -0.7671  0.3450
 7318TIP3    H121918   6.006   5.321   5.104  0.9298  0.6450  2.3834
 7318TIP3    H221919   6.022   5.431   5.002 -1.5126 -2.1574 -1.2867
 7319TIP3   OH221920   0.863   1.818   3.901 -0.2218 -0.5986 -0.4106
 7319TIP3    H121921   0.852   1.873   3.823  1.4141  0.0162 -0.2485
 7319TIP3    H221922   0.826   1.870   3.972 -0.7337 -0.6957 -0.6020
 7320TIP3   OH221923   1.419   6.183   2.191 -0.0136 -0.0287 -0.2466
 7320TIP3    H121924   1.421   6.093   2.225  0.4591  0.4797  1.1193
 7320TIP3    H221925   1.340   6.186   2.137 -1.0050 -0.7894  1.0939
 7321TIP3   OH221926   5.269   6.783   5.084 -0.0228  0.3177 -0.2745
 7321TIP3    H121927   5.331   6.769   5.155  0.0069 -1.8903 -0.6523
 7321TIP3    H221928   5.307   6.734   5.010 -0.9120  1.1160 -1.2779
 7322TIP3   OH221929   2.537   3.240   2.014 -0.1637  0.0464  0.2401
 7322TIP3    H121930   2.592   3.250   1.936  2.7709 -0.9307  2.0098
 7322TIP3    H221931   2.459   3.194   1.983  1.6163 -1.7576 -1.8693
 7323TIP3   OH221932   0.372   6.146   3.150  0.2644  0.3407  0.4061
 7323TIP3    H121933   0.319   6.070   3.128  3.4323 -1.6491 -1.0326
 7323TIP3    H221934   0.366   6.203   3.073  1.4477 -0.6764 -0.4755
 7324TIP3   OH221935   4.340   6.473   3.922  0.1518  0.1727 -0.2448
 7324TIP3    H121936   4.350   6.394   3.975 -0.2965  1.3197  1.6160
 7324TIP3    H221937   4.429   6.508   3.914  0.2169  0.0052 -0.2715
 7325TIP3   OH221938   1.911   3.623   5.186  0.4171 -0.0295 -0.5296
 7325TIP3    H121939   1.914   3.533   5.154  0.4439  0.7141 -2.8612
 7325TIP3    H221940   1.857   3.619   5.265 -0.0139 -2.0175 -0.8724
 7326TIP3   OH221941   2.809   6.100   4.454  0.1577  0.0917  0.4506
 7326TIP3    H121942   2.882   6.038   4.453  0.0875 -0.0222  1.4890
 7326TIP3    H221943   2.736   6.052   4.415  0.4766  0.0098 -0.0568
 7327TIP3   OH221944   6.850   2.008   4.965 -0.4561 -0.2007  0.1845
 7327TIP3    H121945   6.918   1.967   5.018  1.1275  1.4984 -0.4467
 7327TIP3    H221946   6.806   1.935   4.922  3.0497 -1.3117 -1.9274
 7328TIP3   OH221947   0.478   1.810   2.099  0.3003 -0.0932  0.3275
 7328TIP3    H121948   0.515   1.724   2.117  1.9311  0.2931 -0.8767
 7328TIP3    H221949   0.504   1.828   2.008  0.0122  1.6660  0.5584
 7329TIP3   OH221950   2.266   3.825   4.580  0.0699 -0.0281  0.2350
 7329TIP3    H121951   2.340   3.781   4.620  0.0793  0.9113  1.2781
 7329TIP3    H221952   2.297   3.849   4.492  1.1090  0.6233  0.7649
 7330TIP3   OH221953   3.457   2.645   0.726  0.1646 -0.1463  0.8195
 7330TIP3    H121954   3.539   2.689   0.746  1.2107 -1.7167  0.1540
 7330TIP3    H221955   3.456   2.638   0.630 -2.3488  2.7618  0.4931
 7331TIP3   OH221956   4.581   1.085   0.070 -0.4385  0.1546  0.5519
 7331TIP3    H121957   4.630   1.027   0.012 -2.5791 -0.1324 -1.0965
 7331TIP3    H221958   4.528   1.027   0.124 -0.9105  0.5117  0.4822
 7332TIP3   OH221959   6.183   3.356   4.245 -0.3033 -0.2604  0.3902
 7332TIP3    H121960   6.119   3.286   4.261  0.0842 -0.8084 -0.3611
 7332TIP3    H221961   6.162   3.387   4.157 -1.0770  1.2435  1.0726
 7333TIP3   OH221962   5.094   1.197   3.243 -0.0022 -0.5399 -0.2420
 7333TIP3    H121963   5.066   1.189   3.152  0.2981 -0.1928 -0.3674
 7333TIP3    H221964   5.112   1.107   3.271 -1.2798 -0.7792 -0.1360
 7334TIP3   OH221965   5.376   4.048   1.427 -0.0632 -0.3938 -0.1094
 7334TIP3    H121966   5.333   4.025   1.509 -0.2057 -0.1526 -0.1172
 7334TIP3    H221967   5.462   4.082   1.454 -0.6823  1.1130  0.0418
 7335TIP3   OH221968   6.854   6.051   1.759 -0.7123  0.3045 -0.5030
 7335TIP3    H121969   6.801   6.110   1.811 -0.8130  0.3600 -0.6670
 7335TIP3    H221970   6.903   6.108   1.700 -0.6627  0.2373 -0.5275
 7336TIP3   OH221971   2.323   4.462   1.555 -0.0017  0.1403  0.3947
 7336TIP3    H121972   2.407   4.421   1.532  2.2948  3.3973  2.1104
 7336TIP3    H221973   2.305   4.432   1.643 -0.3493 -0.1390  0.2278
 7337TIP3   OH221974   5.143   4.384   2.227 -0.9248  0.1182 -0.1455
 7337TIP3    H121975   5.189   4.347   2.303 -1.1913  0.9299  0.4231
 7337TIP3    H221976   5.100   4.308   2.186  0.0848 -0.4939 -0.1073
 7338TIP3   OH221977   4.968   1.728   0.409  0.2678 -0.3156  0.2175
 7338TIP3    H121978   4.968   1.786   0.333  0.4119 -1.0848 -0.3802
 7338TIP3    H221979   5.042   1.670   0.395  0.5500 -0.2043  1.1615
 7339TIP3   OH221980   1.947   0.270   2.416 -0.0591 -0.4895  0.6831
 7339TIP3    H121981   1.927   0.182   2.384 -1.1863 -1.2751  3.3104
 7339TIP3    H221982   2.010   0.256   2.487  0.3133  0.9121  0.6625
 7340TIP3   OH221983   3.933   5.693   0.732  0.1622 -0.2137  0.5573
 7340TIP3    H121984   3.994   5.767   0.742 -0.6790  0.7238 -0.8700
 7340TIP3    H221985   3.966   5.645   0.656 -0.6635  0.1082 -0.0178
 7341TIP3   OH221986   0.806   5.271   1.041  0.2544 -0.4297  0.3355
 7341TIP3    H121987   0.884   5.220   1.063 -0.2154 -0.7007  1.4924
 7341TIP3    H221988   0.836   5.337   0.979  1.1517 -1.2760 -0.1531
 7342TIP3   OH221989   0.027   3.687   1.349 -0.6720 -0.3036 -0.3106
 7342TIP3    H121990   0.105   3.649   1.308 -0.2909  0.4763 -0.3186
 7342TIP3    H221991   0.061   3.747   1.415 -1.2662  0.0881 -0.3524
 7343TIP3   OH221992   2.081   4.562   4.411 -0.2130 -0.4264 -0.3186
 7343TIP3    H121993   2.113   4.478   4.445 -0.1324 -0.3669 -0.2468
 7343TIP3    H221994   2.000   4.540   4.365 -0.2219 -0.5357 -0.2508
 7344TIP3   OH221995   2.286   6.694   3.621 -0.6819  0.1163  0.0266
 7344TIP3    H121996   2.243   6.623   3.668 -1.3625  0.1514 -0.5261
 7344TIP3    H221997   2.274   6.770   3.678 -1.0111  0.0412  0.0619
 7345TIP3   OH221998   4.117   1.776   0.837  0.5553  0.1022 -0.1080
 7345TIP3    H121999   4.031   1.736   0.851  0.5056 -0.0048 -0.6724
 7345TIP3    H222000   4.180   1.707   0.860  0.4822  0.0554 -0.0488
 7346TIP3   OH222001   4.662   1.408   0.331  0.1365  0.0336  0.0167
 7346TIP3    H122002   4.701   1.482   0.378 -0.2697  0.2975 -0.0620
 7346TIP3    H222003   4.622   1.354   0.400 -0.7124  0.5712 -0.0473
 7347TIP3   OH222004   0.766   1.587   3.103  0.4043  0.3699  0.3972
 7347TIP3    H122005   0.811   1.669   3.124 -0.0236  0.3961  1.2274
 7347TIP3    H222006   0.837   1.524   3.087  0.7639  1.1862 -1.5339
 7348TIP3   OH222007   4.310   0.245   0.424  0.2783  0.5071  0.2956
 7348TIP3    H122008   4.384   0.196   0.462 -0.5621 -0.5896  0.6018
 7348TIP3    H222009   4.342   0.275   0.339  0.4281 -1.7775 -0.5345
 7349TIP3   OH222010   1.160   4.908   0.372  0.3602  0.0337  0.6322
 7349TIP3    H122011   1.120   4.876   0.454 -0.4362 -0.7360 -0.0356
 7349TIP3    H222012   1.185   4.828   0.326 -1.2385  0.3400 -0.8691
 7350TIP3   OH222013   5.903   6.172   0.446  0.9554 -0.3538  0.2956
 7350TIP3    H122014   5.862   6.167   0.533  0.1882  0.4961  0.0032
 7350TIP3    H222015   5.996   6.156   0.462  1.0873  1.3651  1.5121
 7351TIP3   OH222016   2.527   3.142   2.261 -0.5664 -0.1260  0.5597
 7351TIP3    H122017   2.603   3.084   2.257  0.0824  0.7028  0.4883
 7351TIP3    H222018   2.506   3.162   2.169 -0.9637 -0.4601  0.5734
 7352TIP3   OH222019   1.026   3.299   0.555  0.0279 -0.2780  0.1700
 7352TIP3    H122020   1.097   3.235   0.564  0.1772 -0.0213  0.9195
 7352TIP3    H222021   0.959   3.254   0.504  0.7309 -0.5227 -0.5607
 7353TIP3   OH222022   3.213   4.545   0.561 -0.1677  0.3171  0.2646
 7353TIP3    H122023   3.270   4.597   0.504  0.7297 -0.2479  0.6294
 7353TIP3    H222024   3.270   4.478   0.597 -0.8195  0.4263  1.5388
 7354TIP3   OH222025   3.498   6.503   4.735  0.1282  0.5172 -0.3388
 7354TIP3    H122026   3.505   6.509   4.831  0.0387  0.2849 -0.3177
 7354TIP3    H222027   3.421   6.555   4.714  0.0821  0.4768 -0.2729
 7355TIP3   OH222028   1.895   1.288   2.538  0.1398 -0.7156 -0.0520
 7355TIP3    H122029   1.825   1.297   2.474  0.8046 -0.4550 -0.7616
 7355TIP3    H222030   1.850   1.279   2.622 -0.7423 -0.8527 -0.5261
 7356TIP3   OH222031   1.790   5.265   2.187 -0.0263 -0.1368  0.2663
 7356TIP3    H122032   1.829   5.333   2.132 -3.8463  1.0238 -1.3438
 7356TIP3    H222033   1.807   5.294   2.276  2.6529  0.2256 -0.2805
 7357TIP3   OH222034   0.134   0.504   1.070  0.1967  0.0421 -0.0927
 7357TIP3    H122035   0.088   0.582   1.100 -0.4630  0.0679 -1.1048
 7357TIP3    H222036   0.098   0.432   1.121 -0.5254  0.1559 -0.4280
 7358TIP3   OH222037   4.769   2.345   3.649  0.1230 -0.1195  0.1566
 7358TIP3    H122038   4.831   2.418   3.646 -1.1612  1.0289 -0.0094
 7358TIP3    H222039   4.823   2.267   3.651  1.5599  0.8169 -0.3739
 7359TIP3   OH222040   6.223   4.263   0.102  0.3363 -0.1590 -0.3062
 7359TIP3    H122041   6.171   4.244   0.024  1.3375  0.0273 -1.0430
 7359TIP3    H222042   6.191   4.202   0.168  1.3584 -2.2967 -1.6796
 7360TIP3   OH222043   0.915   2.243   5.193  0.5906 -0.5896  0.0163
 7360TIP3    H122044   0.933   2.337   5.195  0.7242 -0.5884 -1.1106
 7360TIP3    H222045   0.821   2.237   5.175  0.7975 -0.6776 -1.0776
 7361TIP3   OH222046   5.105   1.017   2.775  0.4445  0.3932  0.0891
 7361TIP3    H122047   5.061   1.076   2.714 -0.6645 -0.0401  0.4504
 7361TIP3    H222048   5.110   0.933   2.729 -0.3997  0.0643  0.5852
 7362TIP3   OH222049   5.730   2.689   5.154  0.8899 -0.4595  0.6793
 7362TIP3    H122050   5.752   2.709   5.063  0.2108  0.3767  0.6839
 7362TIP3    H222051   5.752   2.769   5.202 -2.7700  0.8327  0.5535
 7363TIP3   OH222052   4.750   4.051   5.192  0.2337  0.5035  0.4137
 7363TIP3    H122053   4.695   4.024   5.118 -1.1902  1.4934  1.0532
 7363TIP3    H222054   4.744   3.978   5.254  3.7455 -1.6549 -1.4919
 7364TIP3   OH222055   4.150   0.050   3.856 -0.1389 -0.0742 -0.0473
 7364TIP3    H122056   4.114  -0.019   3.913 -0.8424  0.9328  0.7770
 7364TIP3    H222057   4.074   0.083   3.807  0.5393 -1.2589 -1.9889
 7365TIP3   OH222058   6.521   3.987   4.862 -0.1243  0.1759 -0.0946
 7365TIP3    H122059   6.474   3.978   4.946 -0.3684 -1.4432 -0.3799
 7365TIP3    H222060   6.568   4.070   4.870 -0.5411  0.2965  1.4520
 7366TIP3   OH222061   3.333   3.194   1.261 -0.1162 -0.1851 -0.0304
 7366TIP3    H122062   3.314   3.102   1.279  2.0830 -1.2284 -2.3180
 7366TIP3    H222063   3.270   3.219   1.193  0.1440 -0.4466 -0.3708
 7367TIP3   OH222064   2.924   4.043   0.697  0.0948 -0.3454 -0.1786
 7367TIP3    H122065   2.978   4.004   0.765  0.8918 -0.3241 -0.7716
 7367TIP3    H222066   2.987   4.071   0.630 -0.7830 -3.0217 -2.3303
 7368TIP3   OH222067   0.774   5.651   5.006 -0.3091 -0.4103  0.4336
 7368TIP3    H122068   0.750   5.694   4.925  0.5723 -0.4842  0.1277
 7368TIP3    H222069   0.691   5.618   5.041 -0.8220  0.4463  0.0545
 7369TIP3   OH222070   5.464   2.754   5.446 -0.1032  0.0997 -0.0075
 7369TIP3    H122071   5.530   2.778   5.511  0.4370 -0.8364 -0.1771
 7369TIP3    H222072   5.457   2.658   5.454 -1.6135  0.2047  0.1537
 7370TIP3   OH222073   6.663   5.276   1.786 -0.2178  0.6021 -0.6960
 7370TIP3    H122074   6.703   5.285   1.873 -0.7967  0.5064 -0.4141
 7370TIP3    H222075   6.689   5.189   1.757 -0.7925  0.2645 -0.2133
 7371TIP3   OH222076   2.950   6.554   4.195  0.0060 -0.2849 -0.3131
 7371TIP3    H122077   3.040   6.585   4.179 -0.4159  0.7695 -0.7163
 7371TIP3    H222078   2.912   6.619   4.253 -0.9816  0.1116 -1.3761
 7372TIP3   OH222079   6.211   6.737   2.525  0.4412 -0.2463  0.0100
 7372TIP3    H122080   6.293   6.707   2.562  1.0264 -0.6627 -1.5617
 7372TIP3    H222081   6.146   6.673   2.554  0.3053  0.9299  2.5794
 7373TIP3   OH222082   7.186   3.552   0.172  0.4359 -0.0330  0.7577
 7373TIP3    H122083   7.139   3.534   0.253 -1.7963 -0.6388 -0.5908
 7373TIP3    H222084   7.118   3.553   0.105  2.2737 -0.0891 -1.1995
 7374TIP3   OH222085   0.875   1.380   5.170 -0.3256 -0.3455 -0.2971
 7374TIP3    H122086   0.893   1.451   5.231  1.0960  0.8635 -2.0212
 7374TIP3    H222087   0.806   1.413   5.113  1.2255  0.2264 -1.9168
 7375TIP3   OH222088   2.656   5.352   5.907 -0.3570 -0.0775 -0.3755
 7375TIP3    H122089   2.689   5.367   5.818 -1.1528 -1.7810 -0.9994
 7375TIP3    H222090   2.575   5.403   5.912 -0.6036 -0.4171 -0.8355
 7376TIP3   OH222091   3.525   6.156   4.192  0.1463 -0.2378  0.2425
 7376TIP3    H122092   3.584   6.211   4.243  1.1661  1.1422 -2.2801
 7376TIP3    H222093   3.460   6.216   4.156  0.2363 -0.9235 -1.1330
 7377TIP3   OH222094   1.178   5.193   3.708  0.5129 -0.5698 -0.6489
 7377TIP3    H122095   1.231   5.136   3.652 -0.9318 -2.1698 -0.4653
 7377TIP3    H222096   1.095   5.147   3.717  0.4072 -0.0065  2.1558
 7378TIP3   OH222097   1.731   6.398   0.888 -0.0344  0.4730 -0.0311
 7378TIP3    H122098   1.767   6.408   0.800  1.1157 -2.5948 -0.0348
 7378TIP3    H222099   1.695   6.310   0.890 -2.1833  1.2794  1.9225
 7379TIP3   OH222100   4.486   4.394   2.167  0.0031 -0.1109 -0.0389
 7379TIP3    H122101   4.546   4.402   2.241 -0.0968 -0.2416  0.0568
 7379TIP3    H222102   4.468   4.484   2.140 -1.1216  0.0087  1.0349
 7380TIP3   OH222103   3.384   4.020   3.098 -0.0660 -0.6173  0.5940
 7380TIP3    H122104   3.383   4.105   3.055  1.0309 -0.7591  0.2771
 7380TIP3    H222105   3.382   3.956   3.026 -2.2649 -0.9189  0.8256
 7381TIP3   OH222106   0.273   4.931   3.771  0.0423  0.1888  0.1757
 7381TIP3    H122107   0.210   4.950   3.701 -0.1488  0.2596  0.3647
 7381TIP3    H222108   0.218   4.912   3.847  0.2314  1.6466  0.7179
 7382TIP3   OH222109   2.884   0.963   4.475  0.5472  0.3793  0.5928
 7382TIP3    H122110   2.843   1.037   4.430  1.3570  0.9200  0.7246
 7382TIP3    H222111   2.813   0.902   4.490 -0.5487  1.9138  2.1188
 7383TIP3   OH222112   2.963   0.202   5.143  0.2853  0.5906  0.0191
 7383TIP3    H122113   2.878   0.169   5.114 -0.1338  1.3750  0.3001
 7383TIP3    H222114   3.015   0.124   5.160 -0.0929  0.1015 -0.9803
 7384TIP3   OH222115   5.169   4.170   5.384 -0.1521 -0.0144  0.2092
 7384TIP3    H122116   5.153   4.227   5.309  0.1179 -1.5911 -1.1211
 7384TIP3    H222117   5.089   4.176   5.436  0.4516  2.7291  0.9941
 7385TIP3   OH222118   3.846   4.292   0.693 -0.1312  0.2520  0.3163
 7385TIP3    H122119   3.817   4.368   0.743  2.0726  0.5945  1.1986
 7385TIP3    H222120   3.886   4.329   0.614 -0.2230 -0.0635  0.1185
 7386TIP3   OH222121   2.562   6.242   2.340 -0.3335  0.2324  0.0046
 7386TIP3    H122122   2.528   6.288   2.416 -0.0415 -0.5987  0.6453
 7386TIP3    H222123   2.546   6.302   2.267  0.5360  1.5993  0.8889
 7387TIP3   OH222124   0.962   6.311   4.587  0.3230 -0.1701  0.1613
 7387TIP3    H122125   0.995   6.396   4.557  1.0609 -1.1645 -2.0238
 7387TIP3    H222126   1.005   6.247   4.531 -1.5374 -1.8865  0.5749
 7388TIP3   OH222127   1.382   3.321   0.512  0.2092 -0.0948  0.0806
 7388TIP3    H122128   1.453   3.261   0.536  0.4423  0.8824  2.0105
 7388TIP3    H222129   1.376   3.314   0.416 -0.1815 -3.6236  0.2123
 7389TIP3   OH222130   5.023   4.648   0.331 -0.3378  0.2882  0.3810
 7389TIP3    H122131   5.020   4.730   0.381  0.9055  1.5411 -1.4611
 7389TIP3    H222132   5.045   4.675   0.242  0.6463 -2.1137 -0.1868
 7390TIP3   OH222133   3.667   1.809   0.709  0.4364  0.1984 -0.6600
 7390TIP3    H122134   3.636   1.841   0.794 -1.2304 -0.1056 -1.1201
 7390TIP3    H222135   3.688   1.717   0.724  2.8191  0.7639  0.0426
 7391TIP3   OH222136   0.837   1.673   4.801 -0.0695 -0.5649 -0.2471
 7391TIP3    H122137   0.891   1.609   4.755  1.7410 -1.3104  2.6320
 7391TIP3    H222138   0.889   1.753   4.802  0.8957 -1.1437  2.1116
 7392TIP3   OH222139   1.726   4.188   3.636  0.7759 -0.0552  0.5058
 7392TIP3    H122140   1.764   4.256   3.691 -0.7318  1.1013  0.1704
 7392TIP3    H222141   1.718   4.228   3.549 -2.4354  0.3226  0.8478
 7393TIP3   OH222142   5.268   4.539   1.977  0.4523  0.2760 -0.1044
 7393TIP3    H122143   5.337   4.556   2.042 -0.5502  1.9873  0.5704
 7393TIP3    H222144   5.199   4.495   2.027 -0.0159  0.9269 -0.1732
 7394TIP3   OH222145   0.793   3.938   5.601  0.1545  0.5806 -0.2401
 7394TIP3    H122146   0.717   3.899   5.644  0.0319  2.5223  1.4546
 7394TIP3    H222147   0.757   3.992   5.531 -0.1017  1.8983  0.8836
 7395TIP3   OH222148   2.447   5.959   0.536  0.9257  0.2295  0.2032
 7395TIP3    H122149   2.407   5.876   0.561 -1.6319  1.6710  1.2241
 7395TIP3    H222150   2.433   5.965   0.441  0.6586 -0.2726  0.2083
 7396TIP3   OH222151   6.212   3.895   3.481 -0.0617 -0.4257 -0.0285
 7396TIP3    H122152   6.299   3.937   3.481  1.1186 -2.6308  1.8796
 7396TIP3    H222153   6.164   3.941   3.412  2.3776  1.3398 -0.7262
 7397TIP3   OH222154   6.962   3.781   4.268 -0.1836  0.2672 -0.0168
 7397TIP3    H122155   6.923   3.859   4.308 -1.2407 -0.3444  0.1797
 7397TIP3    H222156   6.897   3.713   4.281 -0.1513 -0.1744 -1.9550
 7398TIP3   OH222157   1.831   3.022   0.609  0.1485 -0.2951 -0.3508
 7398TIP3    H122158   1.889   3.050   0.538 -1.8016  2.5488 -0.9697
 7398TIP3    H222159   1.890   3.011   0.684  1.9744 -1.3723 -1.8414
 7399TIP3   OH222160   1.998   1.589   1.244 -0.4647  0.0545  0.2151
 7399TIP3    H122161   2.027   1.605   1.333 -2.6556  1.0985  0.8253
 7399TIP3    H222162   1.919   1.643   1.235  0.5239  1.1988 -2.8627
 7400TIP3   OH222163   0.975   6.731   4.609 -0.4253 -0.0107 -0.2704
 7400TIP3    H122164   1.063   6.768   4.619  0.1988 -1.6390  0.7260
 7400TIP3    H222165   0.916   6.803   4.628  0.7225  0.7811  0.4294
 7401TIP3   OH222166   5.000   0.463   3.262  0.5522 -0.6470  0.1692
 7401TIP3    H122167   5.079   0.416   3.287  0.0647 -1.3761  0.3603
 7401TIP3    H222168   4.930   0.422   3.314  0.4045  1.6141  1.9290
 7402TIP3   OH222169   2.471   1.302   5.146 -0.1993  0.3167 -0.1264
 7402TIP3    H122170   2.408   1.334   5.081  1.5209  0.9365 -1.5717
 7402TIP3    H222171   2.551   1.286   5.096  0.5652 -1.2895  1.4886
 7403TIP3   OH222172   3.352   2.005   2.544 -0.0242 -0.1827 -0.1359
 7403TIP3    H122173   3.375   2.084   2.592 -0.8356  0.3766 -0.6406
 7403TIP3    H222174   3.258   1.995   2.556 -0.2440 -0.0546 -1.5416
 7404TIP3   OH222175   2.376   1.473   4.228  0.2830  0.2222  1.0569
 7404TIP3    H122176   2.433   1.444   4.299  0.5765 -1.4761  0.2064
 7404TIP3    H222177   2.371   1.397   4.170  0.4104  1.6743 -0.9646
 7405TIP3   OH222178   2.682   4.626   1.698  0.1211  0.2914  0.3312
 7405TIP3    H122179   2.684   4.533   1.718  1.0843 -0.3516 -2.3026
 7405TIP3    H222180   2.636   4.631   1.614  2.7373  1.7621 -1.1442
 7406TIP3   OH222181   2.344   0.199   3.585 -0.3340 -0.4936 -0.2879
 7406TIP3    H122182   2.283   0.134   3.549 -0.5078  0.1852 -1.2422
 7406TIP3    H222183   2.429   0.173   3.551 -0.7202  1.1534 -2.7580
 7407TIP3   OH222184   1.768   3.613   2.703  0.2223 -0.3005  0.1477
 7407TIP3    H122185   1.712   3.590   2.778  0.2426  0.9259  0.5636
 7407TIP3    H222186   1.813   3.693   2.730 -2.1140  2.0755 -2.2763
 7408TIP3   OH222187   1.806   1.413   3.429 -0.3266 -0.2989  0.1229
 7408TIP3    H122188   1.889   1.458   3.414 -0.1272  0.0283  1.9824
 7408TIP3    H222189   1.782   1.377   3.344  0.6622  1.3841 -0.9053
 7409TIP3   OH222190   2.274   5.436   5.231  0.3463  0.3971 -0.3286
 7409TIP3    H122191   2.186   5.448   5.267  1.0234  1.2602  1.1105
 7409TIP3    H222192   2.309   5.525   5.225  1.1695  0.0508 -0.8066
 7410TIP3   OH222193   2.957   1.333   4.973  0.5096  0.3532 -0.0025
 7410TIP3    H122194   3.027   1.362   5.030  0.9641 -1.7271  0.5969
 7410TIP3    H222195   3.002   1.294   4.898 -0.0248  0.2702 -0.2839
 7411TIP3   OH222196   3.302   4.766   2.674  0.2809 -0.2669  0.1314
 7411TIP3    H122197   3.225   4.822   2.685  0.2769 -0.4305  0.9858
 7411TIP3    H222198   3.303   4.745   2.581 -0.1576  0.5256 -0.0560
 7412TIP3   OH222199   4.660   4.565   0.597  0.1306  1.0051 -0.1658
 7412TIP3    H122200   4.745   4.523   0.597 -0.9001 -1.2354 -0.1321
 7412TIP3    H222201   4.639   4.577   0.689 -0.2206  0.1402 -0.1254
 7413TIP3   OH222202   7.158   4.405   5.261 -0.1403 -0.8336  0.2121
 7413TIP3    H122203   7.212   4.374   5.334 -0.5206  0.6399  1.1658
 7413TIP3    H222204   7.164   4.500   5.266  0.3114 -0.7031 -2.0959
 7414TIP3   OH222205   5.210   0.733   2.126  0.0424 -0.4117  0.0069
 7414TIP3    H122206   5.280   0.704   2.067  0.6586 -1.1668  1.0708
 7414TIP3    H222207   5.207   0.828   2.114 -0.3031 -0.6067 -1.7064
 7415TIP3   OH222208   3.381   4.950   0.682 -0.3598 -0.2233  0.1821
 7415TIP3    H122209   3.425   5.026   0.645 -0.4501 -0.3827 -0.2608
 7415TIP3    H222210   3.294   4.981   0.707 -0.0610  0.0495  0.8968
 7416TIP3   OH222211   2.334   2.526   0.014 -0.2673 -0.1126  0.0155
 7416TIP3    H122212   2.305   2.539   0.105 -0.2703  0.2867 -0.0381
 7416TIP3    H222213   2.292   2.597  -0.035  0.6643  0.3916 -0.0854
 7417TIP3   OH222214   3.165   3.295   1.868 -0.4747  0.7082 -0.6775
 7417TIP3    H122215   3.181   3.358   1.939 -0.2889  0.3190 -0.3705
 7417TIP3    H222216   3.240   3.306   1.810  0.8477 -0.9256  0.6236
 7418TIP3   OH222217   4.323   3.197   5.664 -0.0877 -0.2356 -0.4939
 7418TIP3    H122218   4.270   3.175   5.741 -2.7398  1.3390 -1.7206
 7418TIP3    H222219   4.398   3.245   5.700 -0.2715 -1.1597  1.2380
 7419TIP3   OH222220   4.431   6.070   2.471  0.4644  0.2232 -0.2026
 7419TIP3    H122221   4.431   6.028   2.557 -0.6098 -1.3546 -0.9155
 7419TIP3    H222222   4.516   6.049   2.433  0.3226 -0.4676 -0.1468
 7420TIP3   OH222223   5.864   5.256   2.308  0.1947  0.1672 -0.2683
 7420TIP3    H122224   5.911   5.200   2.246 -0.9147  1.5985 -2.5382
 7420TIP3    H222225   5.851   5.201   2.385  2.9390 -1.2265 -0.6612
 7421TIP3   OH222226   2.263   0.409   5.549  0.2699  0.6997  0.1518
 7421TIP3    H122227   2.287   0.432   5.638 -1.0511 -0.7434  0.9258
 7421TIP3    H222228   2.177   0.447   5.535 -0.5013 -0.8917  0.3099
 7422TIP3   OH222229   1.089   4.063   4.961  0.0201  0.1289  0.5425
 7422TIP3    H122230   1.081   4.158   4.952  0.2794 -0.0347 -3.0626
 7422TIP3    H222231   1.002   4.030   4.939  1.0723 -0.4621 -3.7960
 7423TIP3   OH222232   1.709   1.586   4.591  0.2600  0.6361  0.2866
 7423TIP3    H122233   1.787   1.573   4.644  1.2127  3.4002 -0.2647
 7423TIP3    H222234   1.741   1.592   4.501 -0.8608 -0.1481 -0.1956
 7424TIP3   OH222235   6.881   3.100   1.725 -0.2041 -0.2847  0.0014
 7424TIP3    H122236   6.929   3.180   1.746 -0.7208 -0.0611  0.3500
 7424TIP3    H222237   6.884   3.048   1.805  0.5660 -0.8433 -0.3813
 7425TIP3   OH222238   4.542   2.367   4.056 -0.2755  0.0393  0.2925
 7425TIP3    H122239   4.533   2.330   4.144 -1.1675 -0.8658 -0.1620
 7425TIP3    H222240   4.619   2.323   4.019 -0.6645 -0.5431  0.1619
 7426TIP3   OH222241   1.460   3.441   1.130  0.6694 -0.7949 -0.0665
 7426TIP3    H122242   1.467   3.405   1.218  1.2273 -0.0151  0.2203
 7426TIP3    H222243   1.490   3.370   1.072 -2.9712 -2.6351  0.0098
 7427TIP3   OH222244   3.857   3.791   0.654  0.4213  0.2767 -0.3740
 7427TIP3    H122245   3.839   3.725   0.587 -0.2695 -1.4185  1.3756
 7427TIP3    H222246   3.912   3.746   0.718  0.9628  1.7977  0.2760
 7428TIP3   OH222247   0.457   4.613   5.304  0.4117  0.1829  0.1636
 7428TIP3    H122248   0.457   4.705   5.280 -3.7302  0.2230 -0.3867
 7428TIP3    H222249   0.438   4.612   5.398  0.4313 -0.1353  0.1679
 7429TIP3   OH222250   3.723   1.575   3.065  0.0905  0.2872  0.1776
 7429TIP3    H122251   3.733   1.489   3.026 -0.2115  0.9518 -1.4320
 7429TIP3    H222252   3.646   1.613   3.022  1.5566  2.2605 -0.8712
 7430TIP3   OH222253   3.614   6.280   5.460  0.1425 -0.4959 -0.0412
 7430TIP3    H122254   3.652   6.194   5.448 -1.3788 -1.4827  1.5693
 7430TIP3    H222255   3.581   6.305   5.374  2.8609 -0.3121 -1.1029
 7431TIP3   OH222256   2.929   3.210   1.487  0.4079 -0.3725  0.1130
 7431TIP3    H122257   2.991   3.279   1.462  0.4746 -0.6899 -0.6354
 7431TIP3    H222258   2.961   3.132   1.441 -0.4070 -0.5921 -0.0914
 7432TIP3   OH222259   0.116   2.933   1.183  0.0323  0.2304 -0.0913
 7432TIP3    H122260   0.195   2.878   1.180  0.4095  0.7739 -0.2531
 7432TIP3    H222261   0.149   3.022   1.195 -0.6160  0.3227  1.1938
 7433TIP3   OH222262   5.122   0.458   1.521 -0.3200 -0.3767  0.4954
 7433TIP3    H122263   5.117   0.525   1.452 -2.5785 -0.9356  0.0286
 7433TIP3    H222264   5.039   0.465   1.567 -0.2546 -2.2822  0.9827
 7434TIP3   OH222265   6.430   3.390   1.579 -0.2144 -0.5710 -0.4023
 7434TIP3    H122266   6.515   3.363   1.614 -1.2209 -1.0591  1.8682
 7434TIP3    H222267   6.423   3.346   1.494  2.2933  0.5122 -1.2463
 7435TIP3   OH222268   4.094   1.131   3.008  0.0742 -0.1962 -0.1234
 7435TIP3    H122269   4.006   1.117   3.041  0.5442 -1.5885  0.6417
 7435TIP3    H222270   4.142   1.053   3.035  1.6767  0.7671 -0.0426
 7436TIP3   OH222271   6.082   0.594   5.422 -0.7956  0.6159 -0.1356
 7436TIP3    H122272   6.036   0.657   5.478 -0.3155  0.4589  0.4392
 7436TIP3    H222273   6.064   0.625   5.333 -1.5956  0.8511  0.0915
 7437TIP3   OH222274   6.356   3.342   3.100 -0.4550 -0.0719  0.2444
 7437TIP3    H122275   6.447   3.367   3.083 -0.8962  1.2532 -0.2632
 7437TIP3    H222276   6.332   3.390   3.179 -0.8246 -0.1749  0.1949
 7438TIP3   OH222277   5.686   4.870   0.339  0.5559  0.3751 -0.1487
 7438TIP3    H122278   5.625   4.943   0.344 -3.8028 -2.7417 -1.1721
 7438TIP3    H222279   5.699   4.857   0.245  3.0616  1.0282  0.0513
 7439TIP3   OH222280   1.435   6.209   1.845  0.2706 -0.6100  0.0758
 7439TIP3    H122281   1.366   6.161   1.891  1.2461 -0.8235  1.3702
 7439TIP3    H222282   1.516   6.166   1.872  1.0699  0.9674  0.2739
 7440TIP3   OH222283   2.050   2.584   2.918 -0.4015  0.1558 -0.3624
 7440TIP3    H122284   1.973   2.636   2.939  0.5914  1.4669  0.1868
 7440TIP3    H222285   2.049   2.576   2.823 -1.7409 -0.7295 -0.2978
 7441TIP3   OH222286   3.772   4.918   0.035  0.0794  0.1376  0.3504
 7441TIP3    H122287   3.745   4.835   0.074 -0.7525  0.0696 -0.3534
 7441TIP3    H222288   3.802   4.970   0.110  1.5674 -1.1224  0.7017
 7442TIP3   OH222289   5.242   4.416   0.347 -0.5177  0.7679 -0.2515
 7442TIP3    H122290   5.182   4.435   0.419  0.7458 -2.1998  1.7956
 7442TIP3    H222291   5.329   4.435   0.384  0.0908  0.4170 -1.4659
 7443TIP3   OH222292   5.088   3.331   3.762  0.5353  0.7127 -0.1899
 7443TIP3    H122293   5.123   3.270   3.697  2.4789  0.9453  0.5539
 7443TIP3    H222294   5.091   3.416   3.719  1.6442  0.8368  0.0768
 7444TIP3   OH222295   0.030   3.094   0.143  0.2502  0.4842 -0.5145
 7444TIP3    H122296  -0.033   3.159   0.174  1.4341  0.5201  2.0769
 7444TIP3    H222297   0.057   3.126   0.057 -0.2997  2.6308  0.0425
 7445TIP3   OH222298   5.595   0.141   5.024 -0.1324 -0.3003 -0.1708
 7445TIP3    H122299   5.509   0.182   5.034  0.4324  0.9396 -0.2428
 7445TIP3    H222300   5.642   0.199   4.965  0.1563 -1.9344 -1.6243
 7446TIP3   OH222301   6.629   3.769   0.404  0.2684  0.2445 -0.0137
 7446TIP3    H122302   6.543   3.746   0.369 -0.1413 -0.5490  1.4358
 7446TIP3    H222303   6.631   3.865   0.401  0.4583  0.2180 -2.5716
 7447TIP3   OH222304   7.122   1.402   4.092 -0.0857 -0.1043 -0.2996
 7447TIP3    H122305   7.061   1.328   4.098  1.0066 -0.9564  0.7117
 7447TIP3    H222306   7.067   1.476   4.065 -1.5230 -0.8935  0.3308
 7448TIP3   OH222307   5.709   5.350   3.741 -0.2652 -0.4787 -0.1022
 7448TIP3    H122308   5.776   5.288   3.770 -0.2802 -1.4258 -1.9356
 7448TIP3    H222309   5.630   5.298   3.735 -0.5914  0.0444 -0.3720
 7449TIP3   OH222310   5.349   1.207   4.141  0.4409 -0.4383  0.1513
 7449TIP3    H122311   5.413   1.278   4.134  1.3620 -0.9380  2.4913
 7449TIP3    H222312   5.338   1.176   4.052  2.9869  0.1020 -0.4304
 7450TIP3   OH222313   4.269   4.602   5.579  0.1029 -0.3207 -0.1338
 7450TIP3    H122314   4.344   4.662   5.579 -0.3378  0.2388 -0.3482
 7450TIP3    H222315   4.298   4.528   5.525  1.5779 -1.5272  2.1393
 7451TIP3   OH222316   5.399   4.030   5.646 -0.0304  0.4666 -0.1692
 7451TIP3    H122317   5.456   3.954   5.653  0.5058  0.8679 -0.0300
 7451TIP3    H222318   5.333   4.017   5.714  0.5683  0.5375  0.4452
 7452TIP3   OH222319   2.238   2.702   2.257 -0.0850  0.8485 -0.0134
 7452TIP3    H122320   2.266   2.611   2.257 -1.1087  0.5081 -1.4274
 7452TIP3    H222321   2.291   2.744   2.190 -1.0280  0.8070 -0.8069
 7453TIP3   OH222322   0.793   0.609   1.471 -0.0518  0.3103  0.2634
 7453TIP3    H122323   0.880   0.641   1.494  0.3716 -1.4596  1.2806
 7453TIP3    H222324   0.790   0.613   1.375 -0.0123  3.1817  0.2953
 7454TIP3   OH222325   7.110   5.024   0.591 -0.3128  0.3341 -0.7609
 7454TIP3    H122326   7.075   5.020   0.680  1.8246 -0.1239  0.1066
 7454TIP3    H222327   7.128   5.117   0.577  1.1954  0.2002  0.0849
 7455TIP3   OH222328   4.534   2.984   1.650  0.2009  0.8168  0.8642
 7455TIP3    H122329   4.486   2.912   1.610 -1.4738  1.1352  2.1920
 7455TIP3    H222330   4.551   2.955   1.740  1.2293  1.3190  0.8486
 7456TIP3   OH222331   6.095   5.741   1.493 -0.2053  0.6526  0.0796
 7456TIP3    H122332   6.096   5.836   1.478 -1.3941  0.7964  0.7899
 7456TIP3    H222333   6.047   5.705   1.418  1.7105  0.3985 -1.0911
 7457TIP3   OH222334   5.509   3.887   1.253 -0.6236  0.8013 -0.5301
 7457TIP3    H122335   5.446   3.826   1.292 -2.4929  2.2748 -1.0818
 7457TIP3    H222336   5.531   3.947   1.324  0.5947  0.0076 -0.2057
 7458TIP3   OH222337   4.748   2.455   0.641 -0.1744  0.3807  0.2704
 7458TIP3    H122338   4.779   2.366   0.623  0.3678  0.2172  1.8589
 7458TIP3    H222339   4.755   2.501   0.557  0.6486 -0.7488 -0.2974
 7459TIP3   OH222340   5.326   4.427   2.945 -0.2717 -0.3257 -0.1124
 7459TIP3    H122341   5.334   4.461   3.034 -1.6586  1.4727 -0.6063
 7459TIP3    H222342   5.408   4.451   2.902 -0.2450  0.2380  0.2468
 7460TIP3   OH222343   5.374   0.966   3.457  0.2923  0.5396 -0.2507
 7460TIP3    H122344   5.299   0.942   3.403  0.3775  0.6000 -0.3973
 7460TIP3    H222345   5.450   0.953   3.400  0.3415  1.1380 -0.3370
 7461TIP3   OH222346   5.535   1.333   1.106 -0.2117 -1.0098 -0.2266
 7461TIP3    H122347   5.562   1.358   1.195  0.4529  0.6507 -0.8531
 7461TIP3    H222348   5.598   1.266   1.081  0.3924 -0.5851  0.1084
 7462TIP3   OH222349   6.659   3.228   1.626  0.3807  0.2640 -0.2390
 7462TIP3    H122350   6.603   3.156   1.598  0.9048 -0.9676  1.6518
 7462TIP3    H222351   6.723   3.187   1.684  0.8829  2.2208  0.6710
 7463TIP3   OH222352   2.179   4.748   4.212 -0.1343  0.5057  0.2729
 7463TIP3    H122353   2.238   4.812   4.251  2.7114 -2.2138  0.8553
 7463TIP3    H222354   2.143   4.699   4.286 -1.4314  0.6777 -0.2081
 7464TIP3   OH222355   3.783   2.462   2.944  0.3206  0.0573  0.8214
 7464TIP3    H122356   3.816   2.462   3.034  0.9754  0.3779  0.5832
 7464TIP3    H222357   3.757   2.371   2.929 -2.4262  0.4887  2.2715
 7465TIP3   OH222358   0.116   4.116   4.282  0.3903 -0.5043 -0.3437
 7465TIP3    H122359   0.167   4.186   4.241  0.5184 -0.2605  0.2166
 7465TIP3    H222360   0.112   4.047   4.216  0.0771  0.1191 -0.9774
 7466TIP3   OH222361   3.507   5.623   5.544 -0.0832 -0.3086 -1.0124
 7466TIP3    H122362   3.569   5.561   5.582  0.4158  1.0457  0.4988
 7466TIP3    H222363   3.530   5.627   5.451  0.9318 -1.1466 -0.8093
 7467TIP3   OH222364   6.176   6.321   1.250 -0.7244 -0.1152 -0.4161
 7467TIP3    H122365   6.235   6.323   1.175 -2.3896  2.3673 -1.7988
 7467TIP3    H222366   6.223   6.369   1.318  0.1910 -1.0974 -0.3234
 7468TIP3   OH222367   0.098   0.443   4.803  0.5498  0.0341 -0.5024
 7468TIP3    H122368   0.156   0.432   4.878  0.1866 -1.5923 -0.4133
 7468TIP3    H222369   0.067   0.533   4.809  2.9460  0.9321 -0.4992
 7469TIP3   OH222370   6.350   3.816   4.368 -0.4924  0.5562 -0.6270
 7469TIP3    H122371   6.350   3.832   4.462  0.4940  2.3463 -0.8812
 7469TIP3    H222372   6.258   3.824   4.342 -0.5985  1.4629 -0.0093
 7470TIP3   OH222373   0.299   3.714   1.242  0.3402 -0.4953  0.5155
 7470TIP3    H122374   0.316   3.808   1.240  2.9207 -0.8892  0.7808
 7470TIP3    H222375   0.345   3.683   1.320  1.2332 -2.2345 -0.6481
 7471TIP3   OH222376   3.449   4.710   2.944  0.3601 -0.3920  0.3875
 7471TIP3    H122377   3.457   4.623   2.905 -1.2000  0.3319 -1.7246
 7471TIP3    H222378   3.539   4.737   2.961  0.8492 -2.9276  2.4698
 7472TIP3   OH222379   0.719   0.751   4.009 -0.0578 -0.1556  0.0508
 7472TIP3    H122380   0.746   0.732   4.099 -1.1101 -2.1213 -0.0044
 7472TIP3    H222381   0.627   0.776   4.016  0.2296  1.1201 -0.3591
 7473TIP3   OH222382   1.404   2.488   4.210 -0.0629 -0.5354  0.3157
 7473TIP3    H122383   1.351   2.425   4.260  0.3905 -0.1677  1.2763
 7473TIP3    H222384   1.341   2.531   4.152 -0.4999 -1.3753  0.1498
 7474TIP3   OH222385   2.991   2.648   5.044  0.1961 -0.1062 -0.7175
 7474TIP3    H122386   2.928   2.643   4.972  0.3840 -0.0925 -0.8831
 7474TIP3    H222387   3.028   2.736   5.037  1.9824 -0.8980 -2.1059
 7475TIP3   OH222388   2.573   5.686   4.339 -0.2153 -0.3504  0.0658
 7475TIP3    H122389   2.623   5.620   4.291 -1.0785  0.5181 -2.1984
 7475TIP3    H222390   2.481   5.665   4.318 -0.6151  0.2754  1.1211
 7476TIP3   OH222391   4.945   4.613   3.637  0.2967  0.1874 -0.3638
 7476TIP3    H122392   4.896   4.561   3.573  0.2736  1.3327 -1.3070
 7476TIP3    H222393   5.034   4.616   3.603  0.7470 -0.8496  0.7029
 7477TIP3   OH222394   5.340   0.744   5.435 -0.1042  0.0451 -0.3689
 7477TIP3    H122395   5.423   0.760   5.390 -0.1608  0.8452 -0.2041
 7477TIP3    H222396   5.329   0.650   5.431  1.5720 -0.2633  0.9440
 7478TIP3   OH222397   6.053   6.292   4.708 -0.2163 -0.5280 -0.1590
 7478TIP3    H122398   6.100   6.368   4.675  1.6884 -1.8998 -0.7512
 7478TIP3    H222399   6.044   6.308   4.802  0.8670  0.0536 -0.1422
 7479TIP3   OH222400   3.580   6.414   3.289 -0.4733 -0.9558 -0.3773
 7479TIP3    H122401   3.586   6.462   3.372  0.1535 -3.0703  0.8671
 7479TIP3    H222402   3.533   6.334   3.311 -0.3502 -1.5442 -2.1018
 7480TIP3   OH222403   1.691   2.334   3.035 -0.1703 -0.0819  0.2566
 7480TIP3    H122404   1.636   2.320   3.112 -1.8219  0.4889 -0.7479
 7480TIP3    H222405   1.674   2.258   2.979  1.8512 -1.0416  0.8724
 7481TIP3   OH222406   1.926   2.274   1.002 -0.0931  0.2979 -0.2544
 7481TIP3    H122407   1.858   2.317   0.950  3.0379  2.8504 -2.6300
 7481TIP3    H222408   1.951   2.338   1.068 -0.8851 -1.1834  1.5720
 7482TIP3   OH222409   5.165   0.124   0.275  0.1763 -0.1676  0.2470
 7482TIP3    H122410   5.103   0.118   0.202  0.1533 -0.3342  0.2795
 7482TIP3    H222411   5.149   0.045   0.327 -0.0301  0.1047  0.6105
 7483TIP3   OH222412   2.675   0.794   4.469  0.0872 -0.7671 -0.6172
 7483TIP3    H122413   2.623   0.738   4.411 -1.6889 -0.4488  0.5528
 7483TIP3    H222414   2.686   0.742   4.549 -0.2975 -0.0513 -0.0749
 7484TIP3   OH222415   6.082   4.269   5.277 -0.1990 -0.0343  0.2309
 7484TIP3    H122416   6.025   4.231   5.343  0.4582  1.5332  1.7879
 7484TIP3    H222417   6.162   4.292   5.325  0.8461 -0.0824 -1.4131
 7485TIP3   OH222418   5.633   4.433   4.867  0.6021  0.3103  0.4491
 7485TIP3    H122419   5.630   4.457   4.774  1.4922 -1.4374 -0.0880
 7485TIP3    H222420   5.568   4.363   4.876  2.2602 -1.2975  0.5166
 7486TIP3   OH222421   7.088   0.460   5.259  0.2702  0.2495 -0.1712
 7486TIP3    H122422   7.113   0.543   5.219 -1.5959  1.0918  0.3357
 7486TIP3    H222423   7.107   0.471   5.352  0.8376 -0.2384 -0.2184
 7487TIP3   OH222424   0.364   0.761   4.521  0.5038  0.1818  0.2921
 7487TIP3    H122425   0.353   0.692   4.586 -1.5104  0.8059  0.7036
 7487TIP3    H222426   0.392   0.837   4.572 -2.2694  1.0147  0.7410
 7488TIP3   OH222427   1.156   6.448   2.193  0.0050  0.8526 -0.0912
 7488TIP3    H122428   1.225   6.463   2.128 -0.5977 -0.6921 -1.1361
 7488TIP3    H222429   1.176   6.510   2.263  1.8646  1.1444 -0.8135
 7489TIP3   OH222430   0.627   3.773   1.243  0.4085  0.2204 -0.3435
 7489TIP3    H122431   0.704   3.830   1.252  0.8987 -0.5509  0.5015
 7489TIP3    H222432   0.599   3.785   1.152  0.1376  2.2457 -0.0559
 7490TIP3   OH222433   2.027   1.964   1.477 -0.3595 -0.3358 -0.5457
 7490TIP3    H122434   2.072   1.952   1.393 -0.6441  0.2017 -0.7791
 7490TIP3    H222435   2.075   2.034   1.521 -0.9508  0.2417 -0.7954
 7491TIP3   OH222436   3.900   6.357   1.023 -1.2084 -0.0838 -0.3924
 7491TIP3    H122437   3.927   6.266   1.029 -0.2139  0.1478 -1.1098
 7491TIP3    H222438   3.856   6.364   0.938  1.3232  0.7002 -1.7481
 7492TIP3   OH222439   7.177   4.786   2.358 -0.0025 -0.0390  0.2301
 7492TIP3    H122440   7.114   4.780   2.430 -0.3413 -1.0736 -0.1342
 7492TIP3    H222441   7.160   4.871   2.318  1.0857  1.1565  2.1640
 7493TIP3   OH222442   6.544   4.314   0.843 -0.0682 -0.3369 -0.7109
 7493TIP3    H122443   6.486   4.238   0.847 -0.8232  0.2688  1.7038
 7493TIP3    H222444   6.494   4.383   0.887  1.8354  0.6709 -0.0543
 7494TIP3   OH222445   6.841   6.155   1.112 -0.5573 -0.1990 -0.1977
 7494TIP3    H122446   6.866   6.085   1.052  0.3713  0.1348 -0.2185
 7494TIP3    H222447   6.923   6.181   1.154 -0.4430  2.2922 -1.7232
 7495TIP3   OH222448   6.401   3.263   1.335  0.3097 -0.0073 -0.8624
 7495TIP3    H122449   6.316   3.223   1.318 -0.4236 -0.0799  2.3362
 7495TIP3    H222450   6.464   3.192   1.325 -0.4141 -0.7931  0.0295
 7496TIP3   OH222451   0.185   1.397   2.849 -0.4416 -0.0249  0.0060
 7496TIP3    H122452   0.173   1.461   2.920  0.1355 -0.2944  0.3548
 7496TIP3    H222453   0.264   1.427   2.805  1.2285 -1.8029  1.6232
 7497TIP3   OH222454   2.612   0.446   0.161  0.0233  0.5484  0.1501
 7497TIP3    H122455   2.623   0.534   0.198 -0.5544  0.3613  0.7818
 7497TIP3    H222456   2.524   0.420   0.185  1.0566 -1.2801  2.3730
 7498TIP3   OH222457   1.074   3.444   3.108 -0.1341  0.1788  0.4353
 7498TIP3    H122458   1.001   3.427   3.168 -0.2284 -0.9434  0.0259
 7498TIP3    H222459   1.110   3.527   3.138 -1.3258  0.5546  0.9030
 7499TIP3   OH222460   6.201   5.013   4.615  0.1707 -0.1363 -0.0669
 7499TIP3    H122461   6.142   5.005   4.540  0.7044 -2.0423 -0.3698
 7499TIP3    H222462   6.238   5.101   4.608 -0.9499  0.2716 -1.1534
 7500TIP3   OH222463   3.001   1.646   0.939 -0.0016  0.4155 -0.2805
 7500TIP3    H122464   2.981   1.646   1.032  1.0267 -1.1330 -0.0368
 7500TIP3    H222465   2.992   1.738   0.913 -0.9080  0.7758  1.1856
 7501TIP3   OH222466   0.296   6.588   0.006 -0.0984  0.0176 -0.3181
 7501TIP3    H122467   0.381   6.545   0.004 -0.1645 -0.3135  1.8989
 7501TIP3    H222468   0.317   6.682   0.007  0.1940 -0.0411 -0.7657
 7502TIP3   OH222469   0.953   5.517   4.451  0.0058  0.7581  0.0180
 7502TIP3    H122470   0.894   5.469   4.510  0.5079  0.6562  0.4402
 7502TIP3    H222471   0.908   5.515   4.366 -0.2119 -0.0456  0.1416
 7503TIP3   OH222472   1.166   3.667   1.076 -0.7111  0.1230 -0.8677
 7503TIP3    H122473   1.134   3.578   1.061 -0.5282 -0.0722 -0.1671
 7503TIP3    H222474   1.131   3.691   1.162  0.8257 -0.0252 -0.1671
 7504TIP3   OH222475   0.945   5.299   1.393 -0.2777  0.6970  0.9293
 7504TIP3    H122476   0.874   5.364   1.396  0.7965  1.8872  1.6797
 7504TIP3    H222477   1.018   5.341   1.438  1.3328  0.0211 -0.8828
 7505TIP3   OH222478   5.829   6.237   1.593  0.4240  0.0679  0.2014
 7505TIP3    H122479   5.855   6.173   1.527  2.0231 -0.0320  0.8756
 7505TIP3    H222480   5.909   6.288   1.611 -0.1689  0.6179  1.4574
 7506TIP3   OH222481   4.999   1.908   0.187 -0.4459 -0.4645 -0.1384
 7506TIP3    H122482   5.012   2.001   0.207  0.2072 -0.6434  0.2826
 7506TIP3    H222483   5.040   1.896   0.101  1.6763 -0.8596  0.8455
 7507TIP3   OH222484   5.839   6.573   0.485 -0.1297 -0.2596  0.4417
 7507TIP3    H122485   5.851   6.517   0.407  2.6945 -2.1648  2.0647
 7507TIP3    H222486   5.801   6.514   0.550 -1.5912  1.0747  0.8451
 7508TIP3   OH222487   0.346   5.732   4.706  0.4180 -0.5029 -0.2940
 7508TIP3    H122488   0.389   5.728   4.791 -1.0546 -0.8603  0.4799
 7508TIP3    H222489   0.252   5.727   4.726 -0.0176  0.3566 -1.8766
 7509TIP3   OH222490   5.913   2.761   0.123  0.1564 -0.3049  0.1753
 7509TIP3    H122491   5.888   2.851   0.103  1.6544 -0.3465 -2.2814
 7509TIP3    H222492   6.005   2.768   0.149 -0.0386 -1.0192  1.0779
 7510TIP3   OH222493   0.713   2.575   1.381 -0.4082 -0.5436  0.0868
 7510TIP3    H122494   0.688   2.558   1.472 -0.9417  1.9719  0.4841
 7510TIP3    H222495   0.639   2.545   1.329 -1.9870  1.7879  0.8529
 7511TIP3   OH222496   6.024   4.267   4.039 -0.4713 -0.3959 -0.1848
 7511TIP3    H122497   5.985   4.263   4.126 -1.9134 -0.8415 -0.8239
 7511TIP3    H222498   6.064   4.354   4.035  0.1327 -0.5919  1.1169
 7512TIP3   OH222499   1.578   2.230   4.473  0.0530 -0.3337 -0.0989
 7512TIP3    H122500   1.497   2.180   4.471 -0.0259 -0.1757 -1.0580
 7512TIP3    H222501   1.606   2.226   4.565 -2.2880  1.6068  0.8188
 7513TIP3   OH222502   6.301   6.700   0.698 -0.1724  0.2121 -0.3145
 7513TIP3    H122503   6.376   6.647   0.673  0.1463  0.9366 -0.9509
 7513TIP3    H222504   6.274   6.743   0.617 -0.3312  1.1249  0.2097
 7514TIP3   OH222505   1.923   3.849   4.830 -0.1388  0.6918 -0.9862
 7514TIP3    H122506   1.830   3.842   4.851  0.0168  2.4708  0.5721
 7514TIP3    H222507   1.962   3.769   4.867 -0.9483  0.2172 -1.1285
 7515TIP3   OH222508   1.507   4.755   4.826  0.5212 -0.1884 -0.0432
 7515TIP3    H122509   1.518   4.660   4.821  0.6628 -0.1411 -0.8217
 7515TIP3    H222510   1.593   4.788   4.852  1.1868 -0.1203 -2.0994
 7516TIP3   OH222511   5.290   1.259   5.021 -0.3271  0.7881  1.0218
 7516TIP3    H122512   5.360   1.246   5.085 -1.1838 -1.1988  1.6610
 7516TIP3    H222513   5.214   1.284   5.074 -0.4410  1.6168  0.4828
 7517TIP3   OH222514   4.334   1.800   2.027 -0.2361 -0.3341 -0.5002
 7517TIP3    H122515   4.253   1.831   2.069 -0.1170  0.6119 -0.9436
 7517TIP3    H222516   4.400   1.865   2.052  0.2125 -0.6690 -0.8005
 7518TIP3   OH222517   0.411   2.334   2.758 -0.3260 -0.3277  0.5002
 7518TIP3    H122518   0.465   2.327   2.680 -0.2136 -0.3922  0.5830
 7518TIP3    H222519   0.472   2.364   2.826 -0.4687 -0.0534  0.5117
 7519TIP3   OH222520   3.840   0.283   3.475 -0.3712 -1.3051  0.2128
 7519TIP3    H122521   3.794   0.364   3.495  0.3874 -0.4628 -1.2961
 7519TIP3    H222522   3.772   0.216   3.471 -1.0673 -0.6548  0.8996
 7520TIP3   OH222523   2.698   0.133   4.618 -0.5046 -0.4730 -0.2614
 7520TIP3    H122524   2.612   0.156   4.585  0.1774 -0.2460 -2.0151
 7520TIP3    H222525   2.715   0.046   4.581 -0.5036 -1.0994  1.1601
 7521TIP3   OH222526   4.141   5.871   0.792  0.2167 -0.1432  0.3893
 7521TIP3    H122527   4.152   5.834   0.880  0.6742 -0.8171  0.0546
 7521TIP3    H222528   4.092   5.953   0.807 -0.6579 -0.7810  1.1506
 7522TIP3   OH222529   6.337   6.120   4.577  0.2181  0.1463  0.6043
 7522TIP3    H122530   6.391   6.162   4.645 -0.8773  1.2305  0.8466
 7522TIP3    H222531   6.247   6.146   4.599 -0.3717 -1.2645 -0.0339
 7523TIP3   OH222532   0.097   3.904   4.112 -0.1870  0.0093 -0.5572
 7523TIP3    H122533   0.036   3.831   4.115 -0.3607  0.0478 -2.2951
 7523TIP3    H222534   0.080   3.947   4.028  0.9643  1.1195 -0.2608
 7524TIP3   OH222535   0.700   1.968   2.391  0.2502 -0.3695 -0.0759
 7524TIP3    H122536   0.638   1.902   2.423 -2.0491  2.5039  1.8785
 7524TIP3    H222537   0.660   2.003   2.312  2.0161 -1.8847 -1.7732
 7525TIP3   OH222538   1.603   2.557   1.722 -0.0462 -0.2234  0.0902
 7525TIP3    H122539   1.577   2.609   1.646  0.5129  0.2032  0.1756
 7525TIP3    H222540   1.645   2.479   1.685 -0.9580 -0.6609 -0.0401
 7526TIP3   OH222541   5.256   5.708   3.385  0.5721 -0.0463  0.6036
 7526TIP3    H122542   5.310   5.660   3.448  2.4823  1.3423  0.1077
 7526TIP3    H222543   5.175   5.726   3.432  0.3789 -2.4012  1.3030
 7527TIP3   OH222544   6.419   0.502   5.183  0.4107  0.1135 -0.4443
 7527TIP3    H122545   6.377   0.517   5.098 -0.4676  0.6792  0.0776
 7527TIP3    H222546   6.361   0.440   5.228  0.6202  0.1901 -0.0618
 7528TIP3   OH222547   1.162   5.716   2.093  0.0889  0.7443 -0.5499
 7528TIP3    H122548   1.102   5.789   2.078  0.0509  0.8054 -0.1143
 7528TIP3    H222549   1.106   5.639   2.098  0.0610  0.7819 -0.2886
 7529TIP3   OH222550   2.703   1.015   1.568 -0.6209  0.1026 -0.2343
 7529TIP3    H122551   2.723   0.951   1.637  0.1909 -0.1500 -0.6890
 7529TIP3    H222552   2.617   0.988   1.534 -1.5059  0.8084  1.3068
 7530TIP3   OH222553   5.633   4.029   1.494  0.1608  0.5624  0.1757
 7530TIP3    H122554   5.690   3.965   1.451 -1.3396 -0.6742 -0.0738
 7530TIP3    H222555   5.678   4.112   1.484  2.1693 -0.4197  0.4448
 7531TIP3   OH222556   5.971   3.187   3.599  0.5238 -0.2239 -0.0367
 7531TIP3    H122557   5.916   3.216   3.526 -0.2933 -1.7398 -0.0664
 7531TIP3    H222558   5.985   3.266   3.651 -0.7251  0.4494 -0.6732
 7532TIP3   OH222559   1.702   2.882   4.396 -0.7419  0.2748  0.4197
 7532TIP3    H122560   1.645   2.829   4.451 -0.2999 -1.2647 -0.5374
 7532TIP3    H222561   1.644   2.913   4.326 -0.9483  0.8800  0.8500
 7533TIP3   OH222562   3.274   1.076   4.811  0.6781  0.7868  0.1953
 7533TIP3    H122563   3.211   1.142   4.784 -0.5278 -0.3377  0.1268
 7533TIP3    H222564   3.289   1.023   4.732  0.2927 -0.0461  0.6656
 7534TIP3   OH222565   5.212   3.885   2.422  0.2956 -0.6694  0.0325
 7534TIP3    H122566   5.184   3.930   2.502 -0.3690  0.2466 -0.6881
 7534TIP3    H222567   5.193   3.792   2.439  1.9212 -0.7610  1.6412
 7535TIP3   OH222568   0.877   1.730   0.762  0.4707 -0.1368  0.0295
 7535TIP3    H122569   0.916   1.651   0.799 -0.8817 -1.2815 -0.9051
 7535TIP3    H222570   0.941   1.761   0.699  1.4388  0.0967  1.0908
 7536TIP3   OH222571   0.189   2.159   3.499 -0.2561  0.3241 -0.1601
 7536TIP3    H122572   0.179   2.112   3.416  2.3277  0.4706 -0.6399
 7536TIP3    H222573   0.112   2.215   3.504 -0.5492  0.2201 -2.4069
 7537TIP3   OH222574   4.809   5.846   4.931 -0.2025  0.3182 -0.1921
 7537TIP3    H122575   4.740   5.906   4.905  0.9716  2.0999  0.5745
 7537TIP3    H222576   4.768   5.787   4.995 -0.8115  1.9889  1.0278
 7538TIP3   OH222577   0.600   3.066   1.845  0.2614  0.1909  0.0526
 7538TIP3    H122578   0.661   3.057   1.918 -0.1160 -1.0629  0.2346
 7538TIP3    H222579   0.615   2.987   1.792 -0.5088  0.3614 -0.4314
 7539TIP3   OH222580   3.656   5.409   2.710  0.2496 -1.0714 -0.2389
 7539TIP3    H122581   3.579   5.353   2.696 -1.5898  1.4305 -0.8133
 7539TIP3    H222582   3.639   5.452   2.793  0.2666  0.5844 -1.0547
 7540TIP3   OH222583   6.021   0.074   5.684 -0.0639  0.4593  0.4630
 7540TIP3    H122584   6.035   0.100   5.593 -1.4583 -2.2393 -0.6341
 7540TIP3    H222585   5.950   0.130   5.714 -0.8577  0.1543 -0.7551
 7541TIP3   OH222586   5.586   6.453   3.901 -0.6046 -0.7223  0.9175
 7541TIP3    H122587   5.503   6.494   3.879 -1.4323 -2.0996  1.3825
 7541TIP3    H222588   5.651   6.500   3.849 -1.3493  1.7952  2.1029
 7542TIP3   OH222589   2.498   6.606   0.666  0.2859 -0.0572  0.0545
 7542TIP3    H122590   2.444   6.544   0.715  0.1733  0.2530  0.3288
 7542TIP3    H222591   2.521   6.673   0.731  1.2309 -0.3323  0.0126
 7543TIP3   OH222592   1.208   5.354   4.363  0.1441  0.0031 -0.2664
 7543TIP3    H122593   1.126   5.398   4.387  0.1068  0.6864 -1.5375
 7543TIP3    H222594   1.277   5.412   4.396  0.1034  0.1978 -0.5217
 7544TIP3   OH222595   0.068   5.195   0.831  0.2290 -0.1118 -0.2701
 7544TIP3    H122596   0.015   5.246   0.769  1.8440  1.5758 -0.3807
 7544TIP3    H222597   0.119   5.136   0.776  0.4407  0.2142 -0.4332
 7545TIP3   OH222598   5.424   5.099   5.031 -0.0180 -0.2743 -0.7889
 7545TIP3    H122599   5.335   5.082   5.061 -0.0238 -0.7809 -1.0727
 7545TIP3    H222600   5.433   5.194   5.032  0.0919 -0.2618  1.1339
 7546TIP3   OH222601   0.395   6.028   2.086  0.2866 -0.9111  0.3154
 7546TIP3    H122602   0.335   6.014   2.013 -0.7564 -0.5898  1.0960
 7546TIP3    H222603   0.340   6.061   2.157  1.3142 -1.0025  1.1825
 7547TIP3   OH222604   6.867   5.738   4.092 -0.0814 -0.4772 -0.2123
 7547TIP3    H122605   6.906   5.662   4.049  1.5461  0.8826 -1.2487
 7547TIP3    H222606   6.835   5.793   4.021 -2.9311 -0.9462  0.5690
 7548TIP3   OH222607   1.482   4.306   5.518 -0.2373 -0.3097 -0.4965
 7548TIP3    H122608   1.441   4.369   5.459  1.0976  0.9365 -0.1418
 7548TIP3    H222609   1.409   4.265   5.564 -1.1517  0.8297 -0.8893
 7549TIP3   OH222610   7.173   0.028   0.448  0.0103 -0.2457  0.4536
 7549TIP3    H122611   7.201   0.026   0.356 -0.9249  0.5832  0.1289
 7549TIP3    H222612   7.106   0.096   0.451 -0.8452 -1.0985  1.5177
 7550TIP3   OH222613   3.969   6.540   0.109  0.6345  0.3338  0.0820
 7550TIP3    H122614   3.974   6.578   0.022  0.0466  0.1971 -0.0160
 7550TIP3    H222615   3.975   6.445   0.094 -0.8575  0.2146  0.0450
 7551TIP3   OH222616   3.537   3.498   5.813  0.1111 -0.2641 -0.0220
 7551TIP3    H122617   3.444   3.493   5.794  0.1900 -0.0359 -0.4659
 7551TIP3    H222618   3.560   3.590   5.802  1.1204 -0.7858 -3.4487
 7552TIP3   OH222619   6.618   4.102   1.700  0.4091  0.2415  0.1999
 7552TIP3    H122620   6.643   4.190   1.728  1.9306 -0.4991  1.2501
 7552TIP3    H222621   6.645   4.098   1.608 -0.7108  1.2251 -0.2049
 7553TIP3   OH222622   4.387   4.116   4.978  0.1936  0.0660 -0.0296
 7553TIP3    H122623   4.350   4.182   4.920 -4.2745 -0.6334  1.6590
 7553TIP3    H222624   4.422   4.050   4.919  2.5464  2.6086 -1.7493
 7554TIP3   OH222625   0.874   0.688   5.543  0.4447 -0.1667 -0.5597
 7554TIP3    H122626   0.853   0.769   5.496 -0.7143 -0.7365 -1.0457
 7554TIP3    H222627   0.904   0.719   5.629 -0.6867  0.7768 -0.4704
 7555TIP3   OH222628   1.944   1.550   3.103 -0.4743 -0.4441 -0.1542
 7555TIP3    H122629   1.973   1.638   3.081  0.3060 -0.8760 -0.9252
 7555TIP3    H222630   1.995   1.527   3.181  0.8559 -0.9537 -1.1285
 7556TIP3   OH222631   2.264   2.396   0.837  0.9242 -0.6146 -0.0361
 7556TIP3    H122632   2.328   2.399   0.766 -0.2325 -1.8467 -1.1659
 7556TIP3    H222633   2.186   2.356   0.799 -0.5310  0.7701  1.3132
 7557TIP3   OH222634   7.015   2.455   0.205  0.2186 -0.1730  0.3303
 7557TIP3    H122635   7.085   2.519   0.193  0.2164  0.0340  1.2927
 7557TIP3    H222636   6.940   2.507   0.233 -0.6225 -0.2788 -1.5767
 7558TIP3   OH222637   5.273   5.814   0.360  0.2531  0.7103 -0.2776
 7558TIP3    H122638   5.183   5.838   0.337  0.3970  0.2328 -1.4554
 7558TIP3    H222639   5.295   5.744   0.298  0.2699 -1.6156  2.2143
 7559TIP3   OH222640   2.030   3.047   0.814  0.0959 -1.3376 -0.4161
 7559TIP3    H122641   2.012   2.997   0.893  0.1657 -1.3057 -0.3795
 7559TIP3    H222642   2.100   3.107   0.839 -0.8524 -0.3293 -0.1013
 7560TIP3   OH222643   3.713   2.546   3.996  0.3317 -0.2332 -0.3284
 7560TIP3    H122644   3.667   2.515   3.918 -1.0179  0.7766  0.0160
 7560TIP3    H222645   3.803   2.515   3.985  0.5704  1.1382 -3.0033
 7561TIP3   OH222646   7.066   6.268   2.552 -0.1151 -0.1005  0.7001
 7561TIP3    H122647   7.124   6.193   2.562  0.3422  0.2598  0.7958
 7561TIP3    H222648   7.010   6.246   2.478  0.7545 -0.0649  0.0226
 7562TIP3   OH222649   5.902   1.271   3.841 -0.2040  0.5596 -0.4430
 7562TIP3    H122650   5.823   1.298   3.795 -0.9292 -0.5960  0.0677
 7562TIP3    H222651   5.967   1.337   3.818 -1.3072  1.5406 -0.8782
 7563TIP3   OH222652   2.133   1.250   4.813 -0.3659  0.1272  0.0665
 7563TIP3    H122653   2.176   1.304   4.747 -1.6304  1.3966  0.2310
 7563TIP3    H222654   2.044   1.285   4.818 -1.1595 -1.8098  0.3860
 7564TIP3   OH222655   4.293   3.369   1.259 -0.4696 -0.0854 -0.1350
 7564TIP3    H122656   4.374   3.419   1.267 -0.3628 -0.3282  0.3360
 7564TIP3    H222657   4.309   3.309   1.186  0.3076 -1.1036  0.8372
 7565TIP3   OH222658   4.057   6.442   2.458 -0.0473  0.1475  0.5547
 7565TIP3    H122659   4.008   6.380   2.512 -0.5113 -0.1079 -0.1423
 7565TIP3    H222660   4.135   6.393   2.431  0.4474  0.4500  1.4097
 7566TIP3   OH222661   6.296   2.788   0.908  0.1326  0.3074  0.1359
 7566TIP3    H122662   6.389   2.808   0.902  0.5078 -0.9375  1.3470
 7566TIP3    H222663   6.265   2.786   0.817  1.3976  0.2133 -0.3065
 7567TIP3   OH222664   2.931   4.263   3.722  0.0742 -0.2038 -0.3291
 7567TIP3    H122665   2.879   4.337   3.692  0.3788 -0.0392 -0.4563
 7567TIP3    H222666   2.880   4.186   3.696  0.6409 -0.0953 -1.8965
 7568TIP3   OH222667   4.171   2.582   5.514 -0.0607  0.4196  0.1683
 7568TIP3    H122668   4.194   2.553   5.602  0.8239  1.7134  0.3893
 7568TIP3    H222669   4.255   2.602   5.473 -0.5492  1.1044 -0.5176
 7569TIP3   OH222670   5.797   2.469   0.302  0.5537 -0.9702 -0.0726
 7569TIP3    H122671   5.746   2.468   0.383 -0.4936  0.3485 -0.6834
 7569TIP3    H222672   5.821   2.377   0.288 -0.6019 -1.4420  0.8872
 7570TIP3   OH222673   1.245   0.406   2.771  0.6568 -0.4993 -0.4323
 7570TIP3    H122674   1.281   0.426   2.858  0.3091  0.7992 -0.5751
 7570TIP3    H222675   1.299   0.333   2.740  0.9898 -0.7746  0.7406
 7571TIP3   OH222676   6.674   4.489   0.113 -0.1106  0.3629 -0.3602
 7571TIP3    H122677   6.602   4.442   0.070 -0.3165 -0.2225  0.5824
 7571TIP3    H222678   6.644   4.579   0.118 -0.9293  0.0722  0.2851
 7572TIP3   OH222679   4.438   5.246   4.559  0.2383  0.2830 -0.0262
 7572TIP3    H122680   4.474   5.175   4.614 -3.1478  0.1742  2.3366
 7572TIP3    H222681   4.369   5.204   4.508  0.5072  1.2775 -1.2541
 7573TIP3   OH222682   6.844   1.918   3.365 -0.3313  0.3375 -0.4144
 7573TIP3    H122683   6.893   1.912   3.447  1.4443 -3.5029 -1.5413
 7573TIP3    H222684   6.773   1.854   3.375 -1.3043  1.2516 -1.1915
 7574TIP3   OH222685   4.893   2.960   5.114 -0.1871  0.2314 -0.0879
 7574TIP3    H122686   4.930   2.871   5.117 -0.4359  0.0030 -1.9926
 7574TIP3    H222687   4.938   3.008   5.183  0.3521 -1.2416  0.6231
 7575TIP3   OH222688   7.169   2.120   0.678 -0.4927 -0.0989  0.1143
 7575TIP3    H122689   7.232   2.079   0.737 -0.4686 -1.3567 -0.7384
 7575TIP3    H222690   7.095   2.060   0.675  0.2856 -1.0609 -2.5365
 7576TIP3   OH222691   1.428   3.633   0.245  0.2799 -0.5389 -0.2369
 7576TIP3    H122692   1.412   3.642   0.339 -0.1186 -2.4552 -0.0895
 7576TIP3    H222693   1.341   3.618   0.207  0.5751 -1.0068 -0.7393
 7577TIP3   OH222694   0.284   4.324   1.242  0.3886  0.0671  0.6650
 7577TIP3    H122695   0.197   4.351   1.212  0.1386 -1.3931 -0.0062
 7577TIP3    H222696   0.330   4.297   1.162  0.3575 -2.1358  1.3428
 7578TIP3   OH222697   2.662   4.085   0.735 -0.0482 -0.8975 -0.1800
 7578TIP3    H122698   2.755   4.089   0.712  0.5988 -0.4087  2.2667
 7578TIP3    H222699   2.652   3.999   0.776 -1.0258 -1.4948 -1.5751
 7579TIP3   OH222700   2.615   3.071   5.464 -0.1307 -0.0657  0.3712
 7579TIP3    H122701   2.550   3.000   5.462 -0.0189 -0.1640 -0.0581
 7579TIP3    H222702   2.578   3.136   5.523  0.9447 -1.5931  2.8580
 7580TIP3   OH222703   3.543   6.225   2.499 -0.0242  0.2575  0.3297
 7580TIP3    H122704   3.554   6.312   2.460 -1.1863 -0.1814 -1.0329
 7580TIP3    H222705   3.501   6.173   2.431 -0.1466 -1.1457  1.4356
 7581TIP3   OH222706   2.688   1.265   4.993 -0.4297 -0.2170 -0.1572
 7581TIP3    H122707   2.701   1.175   4.963  0.0794 -0.0395 -0.4571
 7581TIP3    H222708   2.775   1.303   4.995 -0.1115 -0.7514  3.2709
 7582TIP3   OH222709   2.486   6.397   2.552 -0.1257 -0.5417 -0.0750
 7582TIP3    H122710   2.419   6.337   2.581  0.2349 -0.5572  0.7432
 7582TIP3    H222711   2.452   6.484   2.573  0.5072 -0.5890  1.2350
 7583TIP3   OH222712   3.427   6.070   5.329 -0.4826 -0.4328 -0.9404
 7583TIP3    H122713   3.377   6.138   5.374  0.2350  0.3797 -1.3300
 7583TIP3    H222714   3.494   6.118   5.280  0.6078 -1.4778 -0.5200
 7584TIP3   OH222715   0.268   0.681   2.229 -0.3387 -0.2592 -0.1416
 7584TIP3    H122716   0.250   0.731   2.308  0.1752  0.6426 -0.5903
 7584TIP3    H222717   0.214   0.722   2.162 -0.8706 -1.0975 -0.2499
 7585TIP3   OH222718   4.120   6.679   1.966  0.2917  0.4181  0.3478
 7585TIP3    H122719   4.135   6.688   2.060 -1.2598  1.8676  0.5101
 7585TIP3    H222720   4.191   6.727   1.925  0.0478  1.2351  0.8532
 7586TIP3   OH222721   2.939   1.556   3.742 -0.2681  0.5814  0.7136
 7586TIP3    H122722   3.027   1.523   3.759 -0.0495  0.5903 -0.3192
 7586TIP3    H222723   2.935   1.564   3.647 -1.7571 -0.4840  0.6574
 7587TIP3   OH222724   5.409   0.353   5.105  0.8816  0.1851 -0.2083
 7587TIP3    H122725   5.347   0.399   5.049  0.9594  1.0139  0.3757
 7587TIP3    H222726   5.453   0.422   5.155  2.1727 -0.3897 -0.5059
 7588TIP3   OH222727   2.585   3.541   5.153  0.0901 -0.1631  0.0175
 7588TIP3    H122728   2.514   3.601   5.177 -0.5241 -1.0584  0.5235
 7588TIP3    H222729   2.552   3.495   5.076  0.3101 -0.2571 -0.0216
 7589TIP3   OH222730   0.160   1.683   3.432  0.3887  0.2084  0.4243
 7589TIP3    H122731   0.224   1.753   3.420  0.4706  0.1068  0.2593
 7589TIP3    H222732   0.110   1.709   3.509 -0.1964  0.9208 -0.1778
 7590TIP3   OH222733   3.938   3.309   3.224 -0.3743 -0.4512 -0.3719
 7590TIP3    H122734   3.999   3.300   3.297 -0.2739  0.2682 -0.3604
 7590TIP3    H222735   3.894   3.224   3.219 -0.2933 -0.5541  0.4501
 7591TIP3   OH222736   3.990   0.065   3.155 -0.4435  0.5245  0.4726
 7591TIP3    H122737   3.994   0.013   3.234 -0.0975 -0.9453 -0.4743
 7591TIP3    H222738   4.072   0.114   3.154  0.7536 -1.3661 -0.1997
 7592TIP3   OH222739   1.782   4.456   0.558 -0.0870  0.2642 -0.2981
 7592TIP3    H122740   1.760   4.394   0.489  2.2277  0.3589 -1.2197
 7592TIP3    H222741   1.729   4.430   0.632 -1.2795 -1.0101 -1.5386
 7593TIP3   OH222742   2.012   1.115   2.075  0.4489 -0.3277 -0.5021
 7593TIP3    H122743   2.034   1.207   2.082  0.8627 -0.4810  0.2632
 7593TIP3    H222744   2.073   1.080   2.011  0.6520 -0.1837 -0.3876
 7594TIP3   OH222745   3.822   3.870   5.884  1.2932  0.4127 -0.0783
 7594TIP3    H122746   3.845   3.818   5.961  1.0446  0.2855 -0.0877
 7594TIP3    H222747   3.838   3.812   5.810  0.5941  0.1887 -0.0640
 7595TIP3   OH222748   6.590   0.065   0.395  0.4107  0.0002  0.4250
 7595TIP3    H122749   6.606   0.119   0.473 -1.0025  2.7400 -1.0558
 7595TIP3    H222750   6.665   0.006   0.392  1.6544  1.3022  2.6255
 7596TIP3   OH222751   3.818   6.151   3.237  0.4705  0.3086 -0.6347
 7596TIP3    H122752   3.867   6.233   3.242 -0.8069  1.0586  2.4623
 7596TIP3    H222753   3.776   6.153   3.151  1.4297  2.3028 -1.1230
 7597TIP3   OH222754   1.506   2.544   3.944 -0.3576  0.3846  0.0844
 7597TIP3    H122755   1.439   2.494   3.898  0.4405  0.8010 -1.6315
 7597TIP3    H222756   1.468   2.563   4.029 -1.8902 -0.4895 -0.3667
 7598TIP3   OH222757   3.661   0.519   1.656  0.4486  0.2001  0.1977
 7598TIP3    H122758   3.723   0.445   1.661  0.0062 -0.1936 -0.0551
 7598TIP3    H222759   3.607   0.499   1.580  0.5314  0.9585 -0.0683
 7599TIP3   OH222760   6.712   6.545   3.253  0.0740  0.1102 -0.3468
 7599TIP3    H122761   6.772   6.589   3.313 -0.8135  1.0847 -0.1441
 7599TIP3    H222762   6.635   6.602   3.249 -1.0213 -1.2959 -0.2797
 7600TIP3   OH222763   6.043   3.152   5.631  0.3332  0.1064  0.8513
 7600TIP3    H122764   5.983   3.141   5.704 -0.8770 -1.6853 -0.3236
 7600TIP3    H222765   5.986   3.162   5.554  1.5600  1.6251  0.0685
 7601TIP3   OH222766   6.761   5.338   5.582  0.4606 -0.2662 -0.2635
 7601TIP3    H122767   6.673   5.336   5.544 -0.1442 -1.6861  1.0840
 7601TIP3    H222768   6.773   5.429   5.610  0.0227  0.2760 -1.7277
 7602TIP3   OH222769   6.351   0.272   5.688 -0.2996 -0.3808  0.1057
 7602TIP3    H122770   6.328   0.331   5.617 -1.6395 -0.6603  0.2846
 7602TIP3    H222771   6.347   0.326   5.767 -0.2960 -0.4235  0.1352
 7603TIP3   OH222772   0.645   2.243   1.267  0.2523 -0.2361  0.3118
 7603TIP3    H122773   0.619   2.185   1.339  2.5232 -0.6986  0.8387
 7603TIP3    H222774   0.569   2.298   1.252 -1.5213 -2.4523  0.6891
 7604TIP3   OH222775   3.941   6.190   1.545 -0.0773  0.1504 -0.3942
 7604TIP3    H122776   3.926   6.187   1.639 -0.4293 -1.2031 -0.4714
 7604TIP3    H222777   3.966   6.281   1.527  0.7649  0.2380  1.1093
 7605TIP3   OH222778   0.127   0.172   0.683  0.2962  0.1725 -0.2557
 7605TIP3    H122779   0.183   0.232   0.634 -0.7975 -0.2182 -2.0599
 7605TIP3    H222780   0.058   0.228   0.720 -0.8504  0.0794 -2.1212
 7606TIP3   OH222781   4.348   2.740   3.891  0.6823  0.6572 -0.5935
 7606TIP3    H122782   4.415   2.694   3.942 -0.0583 -1.0657 -1.0777
 7606TIP3    H222783   4.330   2.819   3.942  0.3389 -0.7233  1.5957
 7607TIP3   OH222784   2.118   1.718   0.754 -0.1052 -0.2231  0.0650
 7607TIP3    H122785   2.054   1.789   0.750 -1.5333 -1.5088 -1.4484
 7607TIP3    H222786   2.087   1.662   0.826  0.2235 -0.0542  0.3428
 7608TIP3   OH222787   1.479   0.709   1.333 -0.8637 -0.1737  0.1840
 7608TIP3    H122788   1.436   0.790   1.362 -2.3912 -1.5265  1.9275
 7608TIP3    H222789   1.470   0.649   1.407  0.5501 -1.8484 -0.9213
 7609TIP3   OH222790   4.062   3.600   4.321  0.3917  0.5545 -0.0392
 7609TIP3    H122791   4.033   3.528   4.377 -0.3987 -0.3216 -1.5208
 7609TIP3    H222792   3.989   3.662   4.322  0.8845  1.1555  0.8592
 7610TIP3   OH222793   3.429   4.154   1.473  0.2987 -0.0896 -0.1091
 7610TIP3    H122794   3.398   4.147   1.383 -0.9387 -2.3604  0.4258
 7610TIP3    H222795   3.356   4.123   1.526  1.9315 -1.4942  1.4595
 7611TIP3   OH222796   3.677   2.599   1.281  0.1977  0.0603  0.0748
 7611TIP3    H122797   3.654   2.631   1.368 -1.9408 -1.3552  0.1226
 7611TIP3    H222798   3.737   2.526   1.297 -1.5536 -1.3573  0.5735
 7612TIP3   OH222799   0.290   6.314   4.837  0.1075 -0.1278 -0.8444
 7612TIP3    H122800   0.364   6.372   4.818 -0.2979  0.0462 -1.9579
 7612TIP3    H222801   0.322   6.227   4.816  0.1970 -0.1241 -0.7249
 7613TIP3   OH222802   5.326   1.300   3.867  0.7264 -0.1118 -0.3118
 7613TIP3    H122803   5.379   1.373   3.836 -0.4922  1.2576  0.6472
 7613TIP3    H222804   5.235   1.330   3.856  0.1869 -1.5872 -0.1228
 7614TIP3   OH222805   4.293   1.690   4.931 -0.2454  0.2084 -0.5465
 7614TIP3    H122806   4.226   1.622   4.937  0.4579 -0.3608  2.2231
 7614TIP3    H222807   4.374   1.643   4.912 -0.1824  0.5965 -1.2643
 7615TIP3   OH222808   0.763   4.124   2.062 -0.1858  0.3654 -0.1196
 7615TIP3    H122809   0.682   4.111   2.012 -0.7982  0.9152  0.7152
 7615TIP3    H222810   0.831   4.133   1.995 -1.0514  1.4953 -0.8751
 7616TIP3   OH222811   3.360   5.171   1.185 -0.2169 -0.7375 -0.2426
 7616TIP3    H122812   3.446   5.203   1.157  0.1739 -0.5704  1.0514
 7616TIP3    H222813   3.306   5.250   1.192 -0.0227 -0.6510  0.3899
 7617TIP3   OH222814   5.598   6.341   2.334 -0.2522 -0.3383  0.1428
 7617TIP3    H122815   5.594   6.424   2.382  0.5770  0.6901 -1.4997
 7617TIP3    H222816   5.689   6.314   2.342 -0.6320 -1.4114  1.1228
 7618TIP3   OH222817   2.278   3.118   5.210  0.0184 -0.0944  0.5638
 7618TIP3    H122818   2.249   3.038   5.254  0.2095  0.0784  1.0082
 7618TIP3    H222819   2.367   3.097   5.180 -0.9947 -1.1204 -2.0331
 7619TIP3   OH222820   1.223   4.884   1.800  0.2553 -0.6060 -0.2158
 7619TIP3    H122821   1.175   4.802   1.813 -1.4739  0.4386  0.2663
 7619TIP3    H222822   1.157   4.952   1.808  1.6405  0.8535 -0.7074
 7620TIP3   OH222823   3.843   4.173   5.612 -0.2586  0.0508  0.7643
 7620TIP3    H122824   3.875   4.092   5.652 -2.2980 -1.1300  0.1589
 7620TIP3    H222825   3.803   4.221   5.684 -2.5998 -1.3914  0.5454
 7621TIP3   OH222826   3.048   5.387   4.699 -0.5753  0.0379 -0.6841
 7621TIP3    H122827   3.125   5.354   4.654 -0.7583 -0.4435 -0.6526
 7621TIP3    H222828   3.002   5.308   4.728 -1.3442  0.3017 -1.1566
 7622TIP3   OH222829   1.302   5.196   1.594 -0.0664 -0.2917  0.0349
 7622TIP3    H122830   1.219   5.211   1.640 -0.2868 -1.0911 -0.0791
 7622TIP3    H222831   1.350   5.134   1.649 -0.1739 -0.9693 -0.6055
 7623TIP3   OH222832   5.321   6.032   3.308 -0.5562  0.2632 -0.1723
 7623TIP3    H122833   5.409   6.007   3.335 -0.5377 -1.0105 -1.2743
 7623TIP3    H222834   5.332   6.116   3.264  0.2889 -0.3463 -1.1727
 7624TIP3   OH222835   0.925   1.861   2.120  0.1113  0.1345 -0.1424
 7624TIP3    H122836   0.888   1.876   2.033 -0.6745 -1.2535 -0.0767
 7624TIP3    H222837   0.997   1.800   2.106 -0.0689 -0.1600  0.1855
 7625TIP3   OH222838   2.885   2.499   3.681 -0.3354  0.2281  0.6696
 7625TIP3    H122839   2.803   2.535   3.648 -0.3007 -0.2324  0.0595
 7625TIP3    H222840   2.937   2.482   3.602  0.4413  0.7302  1.0557
 7626TIP3   OH222841   1.182   1.626   0.774  0.8269 -0.2015 -0.2132
 7626TIP3    H122842   1.168   1.631   0.868 -0.5326  0.0725 -0.4067
 7626TIP3    H222843   1.275   1.607   0.764  0.6297 -2.2871  1.2369
 7627TIP3   OH222844   6.068   1.171   0.253 -0.3564 -0.1658 -0.3030
 7627TIP3    H122845   6.163   1.171   0.244 -0.3532 -0.6438 -0.3167
 7627TIP3    H222846   6.041   1.258   0.223  0.0809  0.0075 -0.2069
 7628TIP3   OH222847   6.318   4.517   0.963  0.0805  0.1817  0.5406
 7628TIP3    H122848   6.250   4.575   0.927 -0.1384  0.8656  1.9854
 7628TIP3    H222849   6.388   4.577   0.990 -0.3547 -0.1176  2.5178
 7629TIP3   OH222850   3.423   3.647   2.072 -0.0374 -0.3603 -0.3499
 7629TIP3    H122851   3.507   3.619   2.109 -0.6917 -0.6359  1.0012
 7629TIP3    H222852   3.398   3.722   2.127  0.4662  1.3351 -2.2931
 7630TIP3   OH222853   7.090   0.049   2.517  0.3788  0.4367 -0.4382
 7630TIP3    H122854   7.028   0.082   2.452 -1.1740 -0.9906  0.2482
 7630TIP3    H222855   7.143   0.125   2.540 -2.1987  2.1879  0.1613
 7631TIP3   OH222856   1.785   4.601   3.498  0.0983  0.4578 -0.4387
 7631TIP3    H122857   1.868   4.640   3.523 -0.1640 -0.1864  1.5571
 7631TIP3    H222858   1.809   4.530   3.439  0.8999  0.6829 -0.3996
 7632TIP3   OH222859   2.497   6.685   2.829 -0.4638 -0.2729 -0.3344
 7632TIP3    H122860   2.495   6.774   2.865  1.3328 -0.8914  1.4722
 7632TIP3    H222861   2.519   6.629   2.903 -2.1374 -2.3441 -1.3063
 7633TIP3   OH222862   6.005   6.542   1.881  0.4450 -0.3568  0.3704
 7633TIP3    H122863   5.922   6.579   1.912 -0.4738 -0.3940 -1.8570
 7633TIP3    H222864   5.989   6.447   1.880  0.6864 -0.3972  0.3768
 7634TIP3   OH222865   1.226   4.667   3.971 -0.3188  0.3440 -0.0677
 7634TIP3    H122866   1.299   4.708   4.019 -1.9604  3.0268  0.3313
 7634TIP3    H222867   1.194   4.736   3.914 -1.6092 -1.2730 -1.3856
 7635TIP3   OH222868   6.593   0.853   0.393 -0.1253  0.1461  0.1521
 7635TIP3    H122869   6.628   0.768   0.366 -0.4871  0.1085 -0.1971
 7635TIP3    H222870   6.614   0.858   0.487  2.4379  0.9102 -0.3811
 7636TIP3   OH222871   6.410   1.589   3.034  0.3557  0.4261  0.4185
 7636TIP3    H122872   6.471   1.563   2.966 -0.7794  1.6467 -1.1335
 7636TIP3    H222873   6.426   1.683   3.046 -2.0695  1.1137 -1.0349
 7637TIP3   OH222874   0.139   4.888   0.471  0.2643 -0.6154 -0.5456
 7637TIP3    H122875   0.141   4.827   0.397 -0.5658  0.2768 -1.3237
 7637TIP3    H222876   0.076   4.955   0.445  1.5170  0.8508  0.0709
 7638TIP3   OH222877   3.519   4.667   2.222 -0.3591 -0.3866  0.3952
 7638TIP3    H122878   3.564   4.750   2.206 -0.3470 -0.6510 -1.1577
 7638TIP3    H222879   3.426   4.689   2.214 -0.4180 -0.2572  1.4067
 7639TIP3   OH222880   2.355   6.510   4.400 -0.2640  0.6476  0.5941
 7639TIP3    H122881   2.446   6.489   4.382 -1.0685 -1.1268 -2.2102
 7639TIP3    H222882   2.327   6.447   4.466  0.2578  0.4262  0.6005
 7640TIP3   OH222883   2.610   0.852   3.715  0.1202  0.1682  0.3091
 7640TIP3    H122884   2.687   0.811   3.754  0.9218 -0.2615 -1.5865
 7640TIP3    H222885   2.562   0.780   3.675  0.2678  0.7457 -0.9715
 7641TIP3   OH222886   1.334   1.174   4.860  0.0163 -0.2328 -0.2675
 7641TIP3    H122887   1.302   1.127   4.938  0.7904 -0.0578  0.1717
 7641TIP3    H222888   1.430   1.171   4.869  0.1029  2.6797  0.5305
 7642TIP3   OH222889   3.772   5.892   5.598 -0.0599  0.6260  0.0237
 7642TIP3    H122890   3.678   5.905   5.609 -0.1149 -0.8369  1.8079
 7642TIP3    H222891   3.810   5.980   5.604 -1.2354  1.1145  0.4780
 7643TIP3   OH222892   3.041   5.923   0.868 -0.1415 -0.6824 -0.2616
 7643TIP3    H122893   2.963   5.977   0.857 -0.8404 -1.0872  2.1343
 7643TIP3    H222894   3.015   5.855   0.931  1.3623 -2.4906 -1.4883
 7644TIP3   OH222895   3.185   5.804   5.379  0.3438 -0.2489  0.4918
 7644TIP3    H122896   3.262   5.818   5.323 -0.1751 -0.1461 -0.2078
 7644TIP3    H222897   3.134   5.884   5.370 -0.0040 -0.4463  0.6951
 7645TIP3   OH222898   2.892   6.646   3.091 -0.1592  0.3774 -0.5744
 7645TIP3    H122899   2.868   6.679   3.177  0.0905  1.1891 -0.8053
 7645TIP3    H222900   2.836   6.570   3.077 -0.1531  0.2019  0.3292
 7646TIP3   OH222901   4.568   2.760   2.957 -0.3156 -0.3783  0.1945
 7646TIP3    H122902   4.639   2.697   2.952 -1.1289 -1.1821 -2.7878
 7646TIP3    H222903   4.590   2.814   3.033  2.8395 -1.2956  0.0693
 7647TIP3   OH222904   3.930   1.342   4.335 -0.1552  0.6489 -0.4419
 7647TIP3    H122905   4.018   1.307   4.344  0.5142  2.4557  0.7863
 7647TIP3    H222906   3.872   1.266   4.338  1.3848 -0.8878 -3.9441
 7648TIP3   OH222907   0.161   4.058   5.700  0.2684 -0.3014  0.1590
 7648TIP3    H122908   0.090   4.044   5.637  0.7341 -0.5277 -0.3164
 7648TIP3    H222909   0.167   3.976   5.749  0.9967 -0.7146 -0.6085
 7649TIP3   OH222910   5.465   1.043   2.633 -0.0288 -0.7218  0.7216
 7649TIP3    H122911   5.530   1.112   2.646  0.7753 -1.5725  1.2265
 7649TIP3    H222912   5.414   1.073   2.557  0.1210  0.5622  1.1057
 7650TIP3   OH222913   2.032   4.847   0.825  0.3180 -0.1114 -0.4205
 7650TIP3    H122914   2.015   4.908   0.753 -0.4619 -0.3207 -0.4290
 7650TIP3    H222915   1.990   4.765   0.796 -2.0044  0.3933  1.2046
 7651TIP3   OH222916   0.739   4.824   4.386  0.5686  0.8629  0.2953
 7651TIP3    H122917   0.825   4.795   4.356 -0.8809 -4.1821  0.0245
 7651TIP3    H222918   0.751   4.839   4.480  1.8475  0.5765  0.2050
 7652TIP3   OH222919   2.683   4.451   4.244 -0.3377 -0.1603  0.2715
 7652TIP3    H122920   2.669   4.537   4.206  0.0684 -0.4138 -0.4721
 7652TIP3    H222921   2.748   4.465   4.313 -1.6068  0.4247  1.3901
 7653TIP3   OH222922   4.928   2.490   1.110 -0.3308  0.8805  0.0234
 7653TIP3    H122923   4.925   2.567   1.053  0.8021  0.3311 -0.8224
 7653TIP3    H222924   5.007   2.503   1.163  1.6382 -1.0387 -2.2065
 7654TIP3   OH222925   6.804   4.889   0.709  0.0927  0.1848  0.2789
 7654TIP3    H122926   6.890   4.897   0.750 -0.4184 -1.0761  1.6641
 7654TIP3    H222927   6.753   4.960   0.747  0.4109  0.7621 -0.3367
 7655TIP3   OH222928   5.276   1.214   5.529 -0.4210  0.6328  0.5498
 7655TIP3    H122929   5.254   1.123   5.545  2.3888 -0.3739 -0.5650
 7655TIP3    H222930   5.335   1.212   5.453  2.1031  2.9942  2.2211
 7656TIP3   OH222931   7.116   4.315   5.818 -0.2150  0.7392 -0.8206
 7656TIP3    H122932   7.172   4.286   5.890 -1.0059  1.6710  0.2085
 7656TIP3    H222933   7.107   4.237   5.762 -1.8130 -0.9379  1.5430
 7657TIP3   OH222934   6.429   3.211   4.673 -0.1349 -0.0298  0.1673
 7657TIP3    H122935   6.374   3.216   4.595 -1.8693 -3.7008  0.9248
 7657TIP3    H222936   6.517   3.193   4.639 -0.4606  0.4418 -0.9593
 7658TIP3   OH222937   2.138   1.458   2.641 -0.5762 -0.6139 -0.0810
 7658TIP3    H122938   2.080   1.463   2.717  1.3629  0.3342  1.4252
 7658TIP3    H222939   2.181   1.543   2.637  1.1890 -1.4876 -0.7352
 7659TIP3   OH222940   0.273   0.569   4.192  0.6628  0.9724  0.1336
 7659TIP3    H122941   0.280   0.551   4.286  1.5542  0.0467 -0.0906
 7659TIP3    H222942   0.268   0.482   4.152 -1.7845  1.3681 -0.5612
 7660TIP3   OH222943   6.416   4.068   3.887  0.3270 -0.6960 -0.2427
 7660TIP3    H122944   6.320   4.069   3.885  0.3099 -1.8813 -1.5706
 7660TIP3    H222945   6.438   4.009   3.960  0.0716  0.0157  0.4230
 7661TIP3   OH222946   0.894   2.393   1.125 -0.4448 -0.1288  0.2083
 7661TIP3    H122947   0.806   2.429   1.125 -0.7795 -0.8961 -0.9049
 7661TIP3    H222948   0.883   2.300   1.109  0.4664 -0.6229  2.1469
 7662TIP3   OH222949   3.302   6.556   3.620 -0.4574  0.4168  0.1535
 7662TIP3    H122950   3.249   6.477   3.619 -0.5334  0.4719 -0.5146
 7662TIP3    H222951   3.363   6.545   3.547  0.7818  0.1307  1.1966
 7663TIP3   OH222952   1.277   4.398   0.338  0.3915 -0.7559  0.6733
 7663TIP3    H122953   1.288   4.453   0.415  0.8498  0.8172 -0.4751
 7663TIP3    H222954   1.183   4.378   0.336  0.4967 -1.5535  2.0815
 7664TIP3   OH222955   6.750   5.775   4.868  0.3417  0.0390  0.0668
 7664TIP3    H122956   6.699   5.694   4.880 -1.4814  0.9723 -0.9268
 7664TIP3    H222957   6.692   5.845   4.896  1.1833  1.1444 -0.8316
 7665TIP3   OH222958   0.598   3.107   5.506  0.2519 -0.0948 -0.1038
 7665TIP3    H122959   0.562   3.167   5.571 -1.3434 -0.4048 -0.6790
 7665TIP3    H222960   0.574   3.145   5.422 -2.8135 -2.5885 -0.5189
 7666TIP3   OH222961   2.193   5.697   2.169  0.5669  0.3763 -0.6211
 7666TIP3    H122962   2.181   5.784   2.208 -0.1759  1.0186 -2.2218
 7666TIP3    H222963   2.222   5.714   2.080  0.3700 -1.0240 -0.9739
 7667TIP3   OH222964   1.854   1.928   3.293  0.2561  0.2361 -0.3216
 7667TIP3    H122965   1.931   1.891   3.248 -0.1800 -2.9270  1.2650
 7667TIP3    H222966   1.850   1.880   3.376 -3.0681  0.7504 -0.0780
 7668TIP3   OH222967   6.175   5.171   5.266  0.0978  0.1786  0.2201
 7668TIP3    H122968   6.155   5.257   5.229 -0.7354 -0.1668 -0.1567
 7668TIP3    H222969   6.159   5.181   5.360  0.1486  0.4755  0.1976
 7669TIP3   OH222970   4.708   3.584   0.105 -0.2617  0.0851 -0.2400
 7669TIP3    H122971   4.706   3.678   0.084  0.4323  0.2287  0.3235
 7669TIP3    H222972   4.688   3.580   0.198  1.2079 -0.2011  0.0844
 7670TIP3   OH222973   3.060   1.206   1.883 -0.2686 -0.1281  0.5250
 7670TIP3    H122974   3.103   1.224   1.799 -1.3646 -1.6079 -0.3934
 7670TIP3    H222975   3.127   1.223   1.949  1.0632 -0.3435 -0.7413
 7671TIP3   OH222976   3.076   5.489   0.328 -0.2023 -0.0199 -0.5949
 7671TIP3    H122977   3.048   5.567   0.281  1.5042 -0.3738 -2.3286
 7671TIP3    H222978   3.171   5.497   0.334 -0.0619 -1.6296 -0.2107
 7672TIP3   OH222979   2.565   4.839   2.655  0.3751 -0.3958  0.1299
 7672TIP3    H122980   2.563   4.845   2.750 -0.9185 -1.6898  0.2213
 7672TIP3    H222981   2.542   4.927   2.625  2.0169  0.3523  0.9728
 7673TIP3   OH222982   4.107   6.347   5.345  0.3671  0.4419  0.1274
 7673TIP3    H122983   4.025   6.335   5.297  0.4410  0.5690 -0.0298
 7673TIP3    H222984   4.080   6.371   5.434  0.1193 -2.8617  1.0894
 7674TIP3   OH222985   7.043   5.530   2.753 -0.4667 -0.4338 -0.1028
 7674TIP3    H122986   6.979   5.470   2.715  0.3746 -0.3503 -1.7821
 7674TIP3    H222987   7.113   5.534   2.687  2.0041 -1.6702  2.2241
 7675TIP3   OH222988   5.670   2.350   1.682  0.0811  0.1842 -0.0412
 7675TIP3    H122989   5.694   2.276   1.626  0.4024 -0.8206  1.3587
 7675TIP3    H222990   5.590   2.321   1.727 -0.5794  1.2551 -0.4926
 7676TIP3   OH222991   4.688   3.451   2.320 -0.1212  0.0623 -0.1741
 7676TIP3    H122992   4.616   3.424   2.378 -0.3041 -0.5859 -0.6894
 7676TIP3    H222993   4.727   3.368   2.290  0.4767  0.4004 -0.3506
 7677TIP3   OH222994   0.285   3.198   3.886  0.4761  0.1655 -0.2214
 7677TIP3    H122995   0.235   3.242   3.817  0.1584 -1.8202 -1.3305
 7677TIP3    H222996   0.224   3.136   3.925  1.2899 -0.3113  0.3365
 7678TIP3   OH222997   3.178   0.130   4.625 -0.0080  0.1475 -0.1152
 7678TIP3    H122998   3.099   0.078   4.608 -0.1665  0.1169  0.6618
 7678TIP3    H222999   3.145   0.215   4.654  0.2539  0.5999 -1.0825
 7679TIP3   OH223000   6.951   4.801   1.715  0.5694  0.6003 -0.6883
 7679TIP3    H123001   6.935   4.840   1.629  0.7000  0.4169 -0.7946
 7679TIP3    H223002   7.002   4.867   1.762  0.0619  0.9180 -0.5729
 7680TIP3   OH223003   6.830   6.369   0.924  0.3470 -0.5410 -0.0439
 7680TIP3    H123004   6.836   6.293   0.982 -0.8058 -0.2619  0.4562
 7680TIP3    H223005   6.902   6.357   0.862  1.4958 -0.9484  1.3112
 7681TIP3   OH223006   2.054   0.353   1.804  0.3227  0.2641 -0.2646
 7681TIP3    H123007   2.056   0.306   1.721  0.0088  1.9865 -1.2894
 7681TIP3    H223008   2.146   0.378   1.819  0.4372 -0.3573  0.1132
 7682TIP3   OH223009   1.760   1.007   2.304 -0.6205  0.4184  0.2010
 7682TIP3    H123010   1.744   0.981   2.394 -0.8432  0.2133  0.1025
 7682TIP3    H223011   1.673   1.021   2.266 -0.6107 -1.1005 -0.4494
 7683TIP3   OH223012   2.493   4.194   0.102 -0.6769 -0.0928 -0.3855
 7683TIP3    H123013   2.455   4.242   0.028  0.7834  1.0833 -0.4250
 7683TIP3    H223014   2.568   4.247   0.129 -1.4345 -0.2297  2.2711
 7684TIP3   OH223015   5.225   3.756   0.268 -0.3310 -0.1145 -0.1163
 7684TIP3    H123016   5.232   3.774   0.362 -2.8632  1.7332 -0.1708
 7684TIP3    H223017   5.239   3.661   0.261 -0.3235 -0.3436  2.1389
 7685TIP3   OH223018   2.216   6.447   2.282  0.3290  0.1421 -0.5221
 7685TIP3    H123019   2.208   6.521   2.343  0.5844 -0.9036  0.8291
 7685TIP3    H223020   2.140   6.392   2.302  0.7099 -0.4792 -0.7809
 7686TIP3   OH223021   4.368   2.797   2.740 -0.5565 -0.6917  0.0357
 7686TIP3    H123022   4.420   2.778   2.818 -1.6895  1.5895  1.4528
 7686TIP3    H223023   4.293   2.738   2.745 -1.7111  0.8498  1.8825
 7687TIP3   OH223024   4.248   2.919   1.902  0.2610 -0.0723 -0.3844
 7687TIP3    H123025   4.160   2.933   1.868  0.5135  0.9379 -0.6695
 7687TIP3    H223026   4.299   2.991   1.865  1.4646 -1.2648 -1.1180
 7688TIP3   OH223027   3.723   5.713   0.435  0.4229 -0.7064  0.3759
 7688TIP3    H123028   3.763   5.786   0.481 -0.4266 -1.8956  3.2257
 7688TIP3    H223029   3.796   5.672   0.387  1.5082  0.2605  1.1425
 7689TIP3   OH223030   2.620   5.012   4.321 -0.1245  0.1638  0.3498
 7689TIP3    H123031   2.599   5.034   4.412 -1.4255  0.1644  0.0655
 7689TIP3    H223032   2.545   5.045   4.270 -0.6646 -2.1073 -0.4285
 7690TIP3   OH223033   4.774   0.517   0.475  0.2648  0.0077  0.1866
 7690TIP3    H123034   4.836   0.448   0.500 -1.3707 -0.9832  1.7157
 7690TIP3    H223035   4.712   0.473   0.417  0.2810  0.6962 -0.3652
 7691TIP3   OH223036   4.487   5.898   5.621 -0.2040 -0.5806  0.1137
 7691TIP3    H123037   4.399   5.906   5.584 -0.3066  2.5425  0.7295
 7691TIP3    H223038   4.482   5.822   5.679 -2.4192 -0.6436 -0.0815
 7692TIP3   OH223039   7.088   0.220   3.596  0.2080 -0.6759 -0.1165
 7692TIP3    H123040   7.121   0.133   3.577  0.7336 -0.3300 -0.8360
 7692TIP3    H223041   7.015   0.206   3.657 -1.5128 -1.8512 -2.3019
 7693TIP3   OH223042   5.520   5.064   0.303 -0.2986 -0.2657  0.7148
 7693TIP3    H123043   5.536   5.112   0.222  0.8410  0.6018  1.4288
 7693TIP3    H223044   5.471   5.125   0.358 -1.8556 -1.1592  0.3931
 7694TIP3   OH223045   5.126   2.165   4.185 -0.0323  0.1226 -0.1301
 7694TIP3    H123046   5.120   2.255   4.155  0.9218 -0.6234 -2.8189
 7694TIP3    H223047   5.038   2.143   4.216 -0.2493  1.9501  0.6562
 7695TIP3   OH223048   4.625   3.020   5.102  0.3792 -0.3189 -0.0364
 7695TIP3    H123049   4.644   3.065   5.184  0.2767  0.7273 -0.5725
 7695TIP3    H223050   4.708   2.979   5.078  0.8527  0.7106 -0.2150
 7696TIP3   OH223051   5.056   4.456   4.996 -0.1537 -0.4234  0.0158
 7696TIP3    H123052   4.971   4.440   4.954 -0.7985  0.1713  1.0604
 7696TIP3    H223053   5.104   4.511   4.934 -1.3601  1.0417  0.3224
 7697TIP3   OH223054   3.854   3.081   4.498 -0.4145  0.3840 -0.6436
 7697TIP3    H123055   3.945   3.066   4.524 -0.7633 -0.7209 -0.0049
 7697TIP3    H223056   3.849   3.176   4.481  0.2131  0.9470  1.8795
 7698TIP3   OH223057   6.150   5.152   0.846 -0.0214 -0.2474  0.6534
 7698TIP3    H123058   6.096   5.188   0.775  0.4734 -0.8556 -0.0385
 7698TIP3    H223059   6.094   5.157   0.923 -0.8119 -0.1969  0.0899
 7699TIP3   OH223060   0.743   2.335   4.036  0.3218 -0.0939 -0.0748
 7699TIP3    H123061   0.670   2.273   4.044  0.5381 -0.7095 -2.1598
 7699TIP3    H223062   0.725   2.402   4.102 -1.4176 -0.9123  0.3522
 7700TIP3   OH223063   2.726   2.092   5.324  0.2672  0.0629 -0.1483
 7700TIP3    H123064   2.688   2.179   5.341  0.8588  0.5177 -1.0942
 7700TIP3    H223065   2.794   2.083   5.391  1.6604  1.2611 -1.3569
 7701TIP3   OH223066   4.759   0.985   0.410  0.1009  0.1616 -0.5622
 7701TIP3    H123067   4.782   0.995   0.318 -2.1044 -0.4210 -1.2375
 7701TIP3    H223068   4.702   1.059   0.429  0.5194  0.2686  0.3592
 7702TIP3   OH223069   1.264   4.092   3.680  0.0686  0.2914 -0.2168
 7702TIP3    H123070   1.199   4.141   3.630 -1.2416  0.3251  1.3987
 7702TIP3    H223071   1.224   4.006   3.694  0.0328  0.5198  1.3335
 7703TIP3   OH223072   1.512   5.200   2.419  0.5909 -0.1204 -0.4717
 7703TIP3    H123073   1.444   5.205   2.353  1.0096  0.2811 -0.8790
 7703TIP3    H223074   1.473   5.149   2.490 -0.0769 -0.0199 -0.7601
 7704TIP3   OH223075   3.770   0.251   1.828 -0.1130  0.4542  0.1116
 7704TIP3    H123076   3.763   0.162   1.863 -1.8633  0.7544  0.6255
 7704TIP3    H223077   3.854   0.252   1.782 -0.4029 -1.7144 -0.5811
 7705TIP3   OH223078   6.111   0.827   0.873 -0.1303 -0.7643 -0.5228
 7705TIP3    H123079   6.178   0.852   0.808 -0.7854  3.5318  0.1045
 7705TIP3    H223080   6.035   0.881   0.850 -1.2254 -0.9262  2.3431
 7706TIP3   OH223081   5.357   0.055   2.921  0.1234  0.1001 -0.7804
 7706TIP3    H123082   5.316  -0.006   2.982 -0.3185  1.8031  0.6785
 7706TIP3    H223083   5.284   0.088   2.868  0.2673 -0.0713 -1.0946
 7707TIP3   OH223084   1.371   0.949   0.914 -0.1844  0.2623  0.4748
 7707TIP3    H123085   1.344   0.936   1.005  2.0584  1.9804  1.4760
 7707TIP3    H223086   1.367   1.043   0.900  1.2211  0.2058 -0.6043
 7708TIP3   OH223087   5.983   0.023   4.727  0.4081 -0.4180 -0.0970
 7708TIP3    H123088   6.032   0.050   4.650  1.3467 -0.1670  0.5726
 7708TIP3    H223089   5.996   0.094   4.790  0.0039 -0.8124  0.4461
 7709TIP3   OH223090   0.778   1.639   5.720 -0.5188  0.4808  0.0023
 7709TIP3    H123091   0.695   1.683   5.700 -0.3552  1.8596  2.0792
 7709TIP3    H223092   0.845   1.702   5.696  0.1452 -1.2226 -3.2023
 7710TIP3   OH223093   3.510   3.998   0.075 -0.6189  0.2359 -1.1183
 7710TIP3    H123094   3.512   4.021   0.168 -0.0150 -0.3095 -0.9870
 7710TIP3    H223095   3.548   3.910   0.072 -0.4194  0.3447 -1.9046
 7711TIP3   OH223096   5.224   0.146   5.096 -0.1040  0.9235  0.0876
 7711TIP3    H123097   5.243   0.052   5.105 -0.8789  0.8049  0.6577
 7711TIP3    H223098   5.309   0.188   5.108  0.8301  0.2008 -3.1036
 7712TIP3   OH223099   0.127   6.222   1.934 -0.3482 -1.0108 -0.1537
 7712TIP3    H123100   0.168   6.285   1.875  0.1106 -0.0260  1.1757
 7712TIP3    H223101   0.153   6.136   1.900  2.1008 -0.4387  0.1206
 7713TIP3   OH223102   3.966   2.518   3.439  0.3874  0.0359 -0.0983
 7713TIP3    H123103   3.902   2.587   3.453 -0.7412 -0.9045 -0.4931
 7713TIP3    H223104   3.937   2.446   3.495  1.3265 -0.2734  0.0117
 7714TIP3   OH223105   1.792   3.259   0.796 -0.8659 -0.0768 -0.2757
 7714TIP3    H123106   1.818   3.174   0.759  0.2408  0.2049 -0.1742
 7714TIP3    H223107   1.830   3.324   0.737 -1.5554  0.3616 -0.2485
 7715TIP3   OH223108   6.090   2.612   4.326 -0.6636  0.7647  0.4461
 7715TIP3    H123109   6.077   2.706   4.317 -1.1453  0.5123 -2.4176
 7715TIP3    H223110   6.158   2.590   4.263 -1.2139 -0.9149  0.3718
 7716TIP3   OH223111   1.692   5.144   4.736 -0.2393 -0.3747  0.5458
 7716TIP3    H123112   1.631   5.196   4.789 -0.3832  1.7374 -1.5111
 7716TIP3    H223113   1.713   5.068   4.790 -2.9653 -0.0592  2.2226
 7717TIP3   OH223114   5.574   4.812   0.933  0.0869  0.5094 -0.2821
 7717TIP3    H123115   5.666   4.788   0.939  0.2304  1.3258  1.6656
 7717TIP3    H223116   5.531   4.762   1.003 -0.9648  0.1221 -1.1705
 7718TIP3   OH223117   4.275   4.505   0.555  0.2159  0.2796  0.0963
 7718TIP3    H123118   4.239   4.537   0.638  1.2841 -1.3023  1.2345
 7718TIP3    H223119   4.354   4.558   0.542  1.9061 -1.5735  1.9055
 7719TIP3   OH223120   2.818   3.915   1.845 -0.0349  0.4560  0.4241
 7719TIP3    H123121   2.754   3.958   1.902 -0.0485 -0.3316  1.0260
 7719TIP3    H223122   2.781   3.827   1.830  1.4201 -0.4205  1.7129
 7720TIP3   OH223123   5.790   5.177   1.532  0.6237 -0.6944 -0.4486
 7720TIP3    H123124   5.788   5.145   1.442 -0.3899  1.0170 -1.0805
 7720TIP3    H223125   5.874   5.145   1.566  1.4310 -0.6788 -2.2743
 7721TIP3   OH223126   0.924   6.526   3.793 -0.2262  0.1772 -0.4939
 7721TIP3    H123127   0.977   6.582   3.735 -0.2579  0.1712 -0.5281
 7721TIP3    H223128   0.887   6.587   3.857  1.2246 -0.0225  0.5934
 7722TIP3   OH223129   6.310   0.372   4.305 -0.2074 -0.5340 -0.1165
 7722TIP3    H123130   6.342   0.360   4.395 -0.1576 -0.5418 -0.1356
 7722TIP3    H223131   6.215   0.384   4.315 -0.2559 -0.9344 -0.0998
 7723TIP3   OH223132   6.438   1.629   2.155 -0.4680 -0.2783  0.4189
 7723TIP3    H123133   6.445   1.589   2.241  0.6914 -1.1556 -0.0622
 7723TIP3    H223134   6.465   1.720   2.168 -2.3806  0.2206  1.3675
 7724TIP3   OH223135   0.087   4.838   0.749  0.0306  0.1294  0.0524
 7724TIP3    H123136   0.166   4.890   0.738  1.1193 -1.3477  0.5198
 7724TIP3    H223137   0.029   4.864   0.678  0.3749  2.1996  0.4852
 7725TIP3   OH223138   6.126   5.473   3.971  0.7762 -0.2551  0.0671
 7725TIP3    H123139   6.094   5.476   3.881  1.8180  0.3241 -0.2905
 7725TIP3    H223140   6.058   5.517   4.022  0.1944 -0.5622 -0.4238
 7726TIP3   OH223141   3.973   1.767   5.200  0.0506  0.0848 -0.0433
 7726TIP3    H123142   3.877   1.768   5.205  0.1096  0.9680  1.3686
 7726TIP3    H223143   4.002   1.811   5.280  1.6347  0.4521 -0.7812
 7727TIP3   OH223144   1.117   2.019   1.078 -0.0579  0.2852  0.1002
 7727TIP3    H123145   1.041   2.034   1.020 -0.6359 -1.1763  0.4407
 7727TIP3    H223146   1.154   2.106   1.091 -0.5971  0.7978 -1.5457
 7728TIP3   OH223147   4.888   5.766   1.286  0.1966  0.7925 -0.3776
 7728TIP3    H123148   4.810   5.814   1.259  0.4664  0.8010 -1.1664
 7728TIP3    H223149   4.857   5.707   1.355 -0.1571  2.0073  0.5343
 7729TIP3   OH223150   5.996   2.654   2.932  0.2682  0.6781  0.5391
 7729TIP3    H123151   5.966   2.710   3.004 -3.3280  1.4820 -1.3390
 7729TIP3    H223152   5.954   2.570   2.948  1.1549  0.2003  0.4217
 7730TIP3   OH223153   2.472   0.487   0.819 -0.0014  0.1705 -0.0880
 7730TIP3    H123154   2.542   0.424   0.840 -1.0884 -0.8838  0.5160
 7730TIP3    H223155   2.403   0.434   0.781 -0.6550  1.1329 -0.2764
 7731TIP3   OH223156   5.058   2.641   2.961  0.1098 -0.2892  0.2360
 7731TIP3    H123157   4.969   2.672   2.948 -1.0035 -2.5190  1.8458
 7731TIP3    H223158   5.080   2.594   2.881 -0.3494 -0.1230  0.0146
 7732TIP3   OH223159   5.547   1.969   3.192  0.0575 -0.1966 -0.1590
 7732TIP3    H123160   5.576   2.042   3.247 -0.1217 -0.9855  1.0312
 7732TIP3    H223161   5.514   2.010   3.113 -1.5963  1.1378  1.1530
 7733TIP3   OH223162   6.887   6.516   5.782  0.5828 -0.5217 -0.0034
 7733TIP3    H123163   6.922   6.495   5.869 -1.2609 -1.2512  0.6221
 7733TIP3    H223164   6.908   6.608   5.769  2.4027 -0.8446  0.4484
 7734TIP3   OH223165   1.562   4.327   1.463 -0.7259  0.1076 -0.7318
 7734TIP3    H123166   1.522   4.261   1.520 -0.1615 -0.2884 -0.7804
 7734TIP3    H223167   1.539   4.299   1.374 -2.2432  1.1395 -0.7052
 7735TIP3   OH223168   5.023   3.831   0.117 -0.1676 -0.2671  0.4802
 7735TIP3    H123169   5.100   3.813   0.170  0.6043 -0.1897 -0.5856
 7735TIP3    H223170   5.018   3.757   0.057  1.1266  1.3557 -1.7653
 7736TIP3   OH223171   2.889   0.953   3.006  0.3153 -0.3583  0.2027
 7736TIP3    H123172   2.953   0.941   2.935 -1.0829  1.1374 -1.4020
 7736TIP3    H223173   2.804   0.946   2.963 -0.5945 -0.1015  1.8915
 7737TIP3   OH223174   4.694   0.836   1.113  0.0264 -0.2846  0.1773
 7737TIP3    H123175   4.726   0.913   1.161  1.0915  0.0257 -0.9812
 7737TIP3    H223176   4.655   0.781   1.180  2.9137 -0.6436  1.7463
 7738TIP3   OH223177   1.897   0.261   0.985  0.4912  0.0615 -0.2309
 7738TIP3    H123178   1.865   0.347   0.958  1.4819  0.1876 -1.0501
 7738TIP3    H223179   1.934   0.223   0.906  0.5969 -0.8854  0.2545
 7739TIP3   OH223180   5.626   1.787   5.335 -0.7824 -0.1304 -0.1331
 7739TIP3    H123181   5.557   1.760   5.395 -0.3809  0.4155  0.5989
 7739TIP3    H223182   5.693   1.826   5.392 -0.3846  0.3816 -0.9313
 7740TIP3   OH223183   5.871   4.612   5.572 -0.3246  0.2801 -0.1168
 7740TIP3    H123184   5.914   4.588   5.489 -0.2760 -0.3332  0.0811
 7740TIP3    H223185   5.853   4.528   5.614  0.7452  0.6132  1.0488
 7741TIP3   OH223186   5.856   4.880   0.031 -0.0617 -0.1840  0.0611
 7741TIP3    H123187   5.781   4.821   0.030 -0.1864 -0.0916  1.4195
 7741TIP3    H223188   5.848   4.931  -0.049 -0.3032 -1.5615 -0.8293
 7742TIP3   OH223189   2.701   5.522   2.728  0.6481 -0.3908  0.4137
 7742TIP3    H123190   2.710   5.428   2.716  0.7163 -0.3364  0.0035
 7742TIP3    H223191   2.621   5.533   2.779  1.0047 -0.7026  1.0529
 7743TIP3   OH223192   0.563   4.250   0.161  0.4014 -0.1525  0.1314
 7743TIP3    H123193   0.519   4.186   0.105 -0.0202 -1.6664  2.0807
 7743TIP3    H223194   0.621   4.198   0.215  0.3806  1.1798  1.4912
 7744TIP3   OH223195   3.889   0.325   0.229  0.0896 -0.1013  0.0378
 7744TIP3    H123196   3.941   0.317   0.149  1.6742 -0.5393  1.0675
 7744TIP3    H223197   3.866   0.235   0.251 -1.6233  0.1174 -0.6841
 7745TIP3   OH223198   5.743   5.810   3.767  0.1189  0.0437 -0.3378
 7745TIP3    H123199   5.738   5.817   3.672 -1.3324 -0.1685 -0.2993
 7745TIP3    H223200   5.837   5.807   3.786  0.4243 -0.1757 -1.7710
 7746TIP3   OH223201   2.778   5.907   5.126  0.1129  0.8595  0.1247
 7746TIP3    H123202   2.750   5.995   5.103  1.4855  1.2326 -0.1946
 7746TIP3    H223203   2.730   5.849   5.067 -1.0405  1.3505  0.5550
 7747TIP3   OH223204   0.380   5.740   2.022 -0.6637  0.2118 -0.1147
 7747TIP3    H123205   0.421   5.787   1.949  0.5754 -1.2114 -0.3786
 7747TIP3    H223206   0.447   5.739   2.091 -0.7468 -0.9119 -0.0273
 7748TIP3   OH223207   0.064   2.800   0.478  0.3849  0.1331  0.2894
 7748TIP3    H123208   0.070   2.889   0.512 -0.2325 -0.1759  1.2333
 7748TIP3    H223209  -0.014   2.801   0.423  0.5969  0.2710 -0.0119
 7749TIP3   OH223210   5.448   4.259   5.893  0.2643 -0.1193  0.2864
 7749TIP3    H123211   5.385   4.245   5.822  0.1024  0.3843  0.3272
 7749TIP3    H223212   5.504   4.329   5.862  1.3728 -1.1390 -0.1120
 7750TIP3   OH223213   2.856   1.779   4.213 -0.7166 -0.5533  0.0894
 7750TIP3    H123214   2.891   1.791   4.302  2.2317 -3.7583 -0.4194
 7750TIP3    H223215   2.807   1.697   4.217  1.3500 -1.9813 -1.5828
 7751TIP3   OH223216   2.362   5.535   3.046  0.7487 -0.1345 -0.6181
 7751TIP3    H123217   2.357   5.474   2.972 -1.8865  1.2332 -1.7103
 7751TIP3    H223218   2.300   5.605   3.023  1.3862  1.3931  1.9682
 7752TIP3   OH223219   2.398   6.196   5.652 -0.2357  0.5554  0.5358
 7752TIP3    H123220   2.470   6.205   5.588  1.2285  0.7238  2.1305
 7752TIP3    H223221   2.334   6.261   5.625 -0.2807 -0.2582 -1.5154
 7753TIP3   OH223222   6.261   3.686   2.499 -0.2431 -0.2740 -0.1272
 7753TIP3    H123223   6.319   3.623   2.542  0.6430  0.3018 -0.4532
 7753TIP3    H223224   6.224   3.638   2.425  0.8377 -0.2569 -0.6880
 7754TIP3   OH223225   2.787   6.728   4.338  0.0284 -0.6054 -0.0924
 7754TIP3    H123226   2.816   6.812   4.301  0.3101 -1.5504 -2.1857
 7754TIP3    H223227   2.763   6.749   4.428  0.9194  1.5454 -0.2742
 7755TIP3   OH223228   5.448   2.862   5.042 -0.0265  0.3957  0.6209
 7755TIP3    H123229   5.397   2.807   4.982  0.3934  1.8387 -1.1713
 7755TIP3    H223230   5.393   2.939   5.056 -0.5906 -0.3764  3.0544
 7756TIP3   OH223231   3.331   6.188   2.725  0.2673  0.6847 -0.0815
 7756TIP3    H123232   3.254   6.162   2.776 -1.2726  1.8018 -1.7081
 7756TIP3    H223233   3.295   6.221   2.643  2.6145 -1.2553 -2.0468
 7757TIP3   OH223234   5.954   0.360   3.138 -0.2532 -0.0101  0.0650
 7757TIP3    H123235   6.025   0.413   3.101 -0.4428  0.2136  0.0225
 7757TIP3    H223236   5.932   0.298   3.069  0.6128 -0.7842  0.4476
 7758TIP3   OH223237   4.274   1.985   0.784 -0.1975 -0.3388 -0.1876
 7758TIP3    H123238   4.213   1.912   0.801 -1.2458  1.0172  2.5294
 7758TIP3    H223239   4.311   2.005   0.870 -0.7384  2.9666 -0.5900
 7759TIP3   OH223240   5.693   6.529   4.440 -0.1642  0.3495 -0.3108
 7759TIP3    H123241   5.704   6.604   4.381  1.4492  0.6531  0.3064
 7759TIP3    H223242   5.755   6.464   4.407  0.7730  0.5265  1.0109
 7760TIP3   OH223243   5.058   1.524   3.075  0.1534  0.0574 -0.2691
 7760TIP3    H123244   5.070   1.585   3.147 -0.5336 -0.8834  0.6674
 7760TIP3    H223245   5.126   1.458   3.087  1.1105  0.7653 -1.4710
 7761TIP3   OH223246   2.558   2.113   1.483  0.5685 -0.3670 -0.0418
 7761TIP3    H123247   2.587   2.055   1.413  0.6941 -1.8542  1.1903
 7761TIP3    H223248   2.637   2.157   1.513  0.2537  1.7319 -2.0248
 7762TIP3   OH223249   1.101   1.937   5.468  0.6192  0.2952 -0.2484
 7762TIP3    H123250   1.163   2.004   5.439 -0.5287  1.0993 -0.9512
 7762TIP3    H223251   1.046   1.922   5.391 -0.2264 -0.1920  0.4401
 7763TIP3   OH223252   4.435   0.903   0.212 -0.4146 -0.0349  0.3077
 7763TIP3    H123253   4.343   0.878   0.209 -0.4280  0.0287  0.1632
 7763TIP3    H223254   4.482   0.821   0.225 -0.5604  0.0683  1.6452
 7764TIP3   OH223255   0.387   1.813   0.211 -0.3577 -0.5724 -0.1657
 7764TIP3    H123256   0.322   1.853   0.152  2.0539  0.3295 -2.4321
 7764TIP3    H223257   0.380   1.719   0.193 -0.4777 -0.4110 -1.0369
 7765TIP3   OH223258   5.789   3.329   3.450 -0.8794  0.2298  0.1909
 7765TIP3    H123259   5.786   3.424   3.467  1.2677  0.2892  0.5059
 7765TIP3    H223260   5.776   3.321   3.356 -2.4991  0.6898  0.3364
 7766TIP3   OH223261   3.659   6.332   0.099 -0.0535  0.0075 -0.1492
 7766TIP3    H123262   3.682   6.420   0.130  0.5779  0.0184 -0.6411
 7766TIP3    H223263   3.636   6.344   0.007  0.3218 -0.3790 -0.2974
 7767TIP3   OH223264   3.226   0.468   0.729 -0.2153  0.2515  0.7578
 7767TIP3    H123265   3.139   0.469   0.689 -0.5241  2.1264  1.3990
 7767TIP3    H223266   3.211   0.440   0.819  0.0314 -0.6221  0.5387
 7768TIP3   OH223267   1.413   4.880   0.713  0.0839 -0.0815 -0.2807
 7768TIP3    H123268   1.375   4.936   0.780  0.2988 -0.4929  0.1878
 7768TIP3    H223269   1.340   4.856   0.656 -0.6076 -1.7379  1.2137
 7769TIP3   OH223270   1.830   3.289   4.648  0.3445  0.3209  0.2240
 7769TIP3    H123271   1.738   3.262   4.654  0.5447 -1.0225 -1.6884
 7769TIP3    H223272   1.877   3.225   4.701  0.3959 -0.5978 -0.8890
 7770TIP3   OH223273   0.823   4.354   3.755 -0.1504 -0.7951  0.5320
 7770TIP3    H123274   0.810   4.448   3.746 -0.9879 -0.9591  0.0193
 7770TIP3    H223275   0.838   4.341   3.849 -1.5765 -0.3343  0.8410
 7771TIP3   OH223276   3.530   3.454   4.685 -0.0722 -0.0685 -0.2352
 7771TIP3    H123277   3.535   3.373   4.736  1.9481  0.0024 -0.2539
 7771TIP3    H223278   3.451   3.444   4.633 -1.0147 -1.0931  1.2934
 7772TIP3   OH223279   0.854   0.701   2.906  0.2365 -0.0517  0.1011
 7772TIP3    H123280   0.800   0.625   2.883 -1.0290  1.3747 -2.0396
 7772TIP3    H223281   0.817   0.731   2.989  0.2025 -1.2609  0.5479
 7773TIP3   OH223282   3.093   1.640   4.082 -0.8017 -0.3937 -0.8650
 7773TIP3    H123283   3.150   1.664   4.155 -0.4385 -0.7751 -1.0193
 7773TIP3    H223284   3.042   1.719   4.064 -0.4284 -0.0956 -0.6237
 7774TIP3   OH223285   6.558   1.738   0.108 -0.3150  0.2450 -0.2777
 7774TIP3    H123286   6.609   1.673   0.155 -0.3492  0.8464  0.6195
 7774TIP3    H223287   6.601   1.746   0.023 -0.7368 -1.4474 -0.6840
 7775TIP3   OH223288   4.739   2.260   1.384  0.4154  0.0576 -0.8428
 7775TIP3    H123289   4.728   2.271   1.478  0.0191  0.4230 -0.9311
 7775TIP3    H223290   4.804   2.190   1.376 -2.0012 -2.4239 -0.2750
 7776TIP3   OH223291   1.172   6.685   0.851 -0.6999  0.2708 -0.0125
 7776TIP3    H123292   1.124   6.602   0.855  0.5692 -0.4521  0.9442
 7776TIP3    H223293   1.169   6.718   0.941 -1.1735  1.2691 -0.3831
 7777TIP3   OH223294   5.882   5.202   5.174 -0.1966 -0.1916  0.1492
 7777TIP3    H123295   5.922   5.124   5.212 -2.7134 -1.1714  0.9679
 7777TIP3    H223296   5.812   5.168   5.118 -0.5309  1.4686 -0.5073
 7778TIP3   OH223297   6.866   5.376   1.610 -0.6251 -0.5438 -0.0907
 7778TIP3    H123298   6.844   5.306   1.671 -0.5578 -0.7228 -0.2716
 7778TIP3    H223299   6.790   5.434   1.613 -1.7789 -1.8847 -1.7768
 7779TIP3   OH223300   3.314   4.960   3.909  0.5743 -0.1380  0.1751
 7779TIP3    H123301   3.300   5.016   3.833  0.9028 -0.1226  0.1226
 7779TIP3    H223302   3.346   4.877   3.873  0.6860 -0.1471  0.2926
 7780TIP3   OH223303   2.544   3.361   1.360  0.2528 -0.1030 -0.3027
 7780TIP3    H123304   2.481   3.426   1.327 -0.9347 -0.7805  0.5411
 7780TIP3    H223305   2.596   3.337   1.284 -0.4945  0.5092 -1.0285
 7781TIP3   OH223306   0.607   1.363   0.698 -0.1818  0.1754 -0.5033
 7781TIP3    H123307   0.560   1.446   0.690 -0.5246 -0.0723 -1.1220
 7781TIP3    H223308   0.671   1.364   0.627  0.3466  0.2445 -0.0357
 7782TIP3   OH223309   2.975   5.621   4.541  0.3737  0.1142  0.1576
 7782TIP3    H123310   2.887   5.658   4.546  1.1771  2.1466  0.3626
 7782TIP3    H223311   2.980   5.561   4.616 -0.7117  0.2543  0.3545
 7783TIP3   OH223312   5.145   2.168   0.162 -0.2255  0.3339  0.0913
 7783TIP3    H123313   5.220   2.117   0.131 -1.9250 -1.1923 -1.7583
 7783TIP3    H223314   5.127   2.230   0.092 -0.6185  0.7910  0.5869
 7784TIP3   OH223315   4.355   2.366   4.551  0.0451  0.9704  0.3460
 7784TIP3    H123316   4.388   2.397   4.636  0.9683 -0.7199  0.6599
 7784TIP3    H223317   4.289   2.301   4.574  0.9561 -0.1833 -0.1705
 7785TIP3   OH223318   3.256   5.856   3.304  0.6425 -0.4075  0.6698
 7785TIP3    H123319   3.262   5.821   3.215  0.5688 -1.4140  1.0476
 7785TIP3    H223320   3.317   5.803   3.354  1.6570  0.9926  0.9819
 7786TIP3   OH223321   3.153   1.512   1.797 -0.2038 -0.6837  0.0453
 7786TIP3    H123322   3.119   1.471   1.717  1.8895 -1.0116 -0.7642
 7786TIP3    H223323   3.080   1.512   1.858 -2.0923  0.2137 -2.0900
 7787TIP3   OH223324   0.525   5.861   5.167 -0.8003 -0.3719  0.2753
 7787TIP3    H123325   0.462   5.849   5.238 -0.2113  1.8762  1.2774
 7787TIP3    H223326   0.606   5.887   5.212 -0.4711  1.3331 -1.1991
 7788TIP3   OH223327   2.129   5.351   4.411 -0.1590  0.3895 -0.1404
 7788TIP3    H123328   2.117   5.380   4.320 -0.0944 -0.9750 -0.6013
 7788TIP3    H223329   2.074   5.273   4.419  2.0421 -1.2094  0.1149
 7789TIP3   OH223330   1.814   1.603   0.038 -0.1185 -0.4985 -0.1097
 7789TIP3    H123331   1.744   1.661   0.007 -0.4976 -1.0568 -0.3164
 7789TIP3    H223332   1.894   1.655   0.029 -0.6923  0.9432  2.0566
 7790TIP3   OH223333   2.882   3.217   2.976 -0.1334  0.1549  0.1900
 7790TIP3    H123334   2.809   3.196   2.919 -1.5050  0.0449  1.8953
 7790TIP3    H223335   2.952   3.245   2.917 -1.0143 -1.2164 -1.6010
 7791TIP3   OH223336   1.512   5.014   5.462  0.0421 -0.6191  0.3827
 7791TIP3    H123337   1.454   4.995   5.388 -1.5760 -0.7954  1.6338
 7791TIP3    H223338   1.600   4.995   5.429 -0.7844 -2.5328 -0.9236
 7792TIP3   OH223339   6.080   4.246   2.387  0.1927  0.3709  0.1749
 7792TIP3    H123340   6.115   4.327   2.424  1.5088  0.7513 -1.7747
 7792TIP3    H223341   6.004   4.275   2.336  0.2663  0.2770  0.0137
 7793TIP3   OH223342   5.715   0.325   3.577 -0.3035 -0.1862  0.0845
 7793TIP3    H123343   5.794   0.380   3.578 -0.4725  0.0689 -0.4441
 7793TIP3    H223344   5.671   0.348   3.496 -0.8371 -0.4567  0.2953
 7794TIP3   OH223345   2.092   3.374   3.761 -0.8046 -0.7390  0.0822
 7794TIP3    H123346   2.036   3.449   3.742  1.7790  1.5755  0.9105
 7794TIP3    H223347   2.106   3.378   3.856  2.1624 -0.0595 -0.3018
 7795TIP3   OH223348   6.838   5.521   0.560 -0.0005  0.0711  0.6953
 7795TIP3    H123349   6.828   5.470   0.481 -1.0632  0.9097  0.2566
 7795TIP3    H223350   6.798   5.467   0.629 -1.1717  0.3044  0.2282
 7796TIP3   OH223351   6.103   0.043   3.437 -0.0584 -0.1934  0.6242
 7796TIP3    H123352   6.011   0.070   3.439  0.2842  1.4214 -1.7290
 7796TIP3    H223353   6.143   0.090   3.510 -0.4413  2.0418 -0.5243
 7797TIP3   OH223354   1.008   6.289   3.913  0.4910  0.0309  0.3587
 7797TIP3    H123355   1.006   6.373   3.867  0.2806  1.1361  2.2605
 7797TIP3    H223356   0.933   6.241   3.878  0.2954  0.8414 -0.3769
 7798TIP3   OH223357   2.753   2.878   5.035  0.1568 -0.1265  0.0324
 7798TIP3    H123358   2.778   2.812   4.970 -0.6816  0.3060 -0.7466
 7798TIP3    H223359   2.683   2.928   4.993 -1.5109 -0.8167  1.8355
 7799TIP3   OH223360   7.173   1.879   1.176 -0.4115  0.2863  0.0426
 7799TIP3    H123361   7.107   1.878   1.245  0.2042 -1.8967  0.6704
 7799TIP3    H223362   7.169   1.792   1.137  1.3815  0.4435 -0.5940
 7800TIP3   OH223363   4.490   4.123   5.776 -0.4876 -0.1796 -0.4126
 7800TIP3    H123364   4.488   4.069   5.855  0.3469  0.2305 -0.1011
 7800TIP3    H223365   4.568   4.093   5.729 -1.8689 -1.5730 -1.9293
 7801TIP3   OH223366   1.413   1.351   5.179  0.2213 -0.2657 -0.4980
 7801TIP3    H123367   1.371   1.295   5.244 -1.2444  1.6501  0.3039
 7801TIP3    H223368   1.341   1.382   5.124  0.8641  1.3129 -0.5131
 7802TIP3   OH223369   1.830   0.195   5.515  0.0034 -0.2357  0.2941
 7802TIP3    H123370   1.915   0.164   5.484 -0.1547 -0.4961  0.1128
 7802TIP3    H223371   1.781   0.213   5.435  0.5299  1.7455  0.3730
 7803TIP3   OH223372   6.639   1.059   4.217  0.4805 -0.2117  0.3874
 7803TIP3    H123373   6.722   1.013   4.209  0.1569 -0.5248 -2.0307
 7803TIP3    H223374   6.573   0.992   4.200 -0.2423  0.1592  1.6715
 7804TIP3   OH223375   2.982   2.297   2.107 -0.0109 -0.0045 -0.1644
 7804TIP3    H123376   3.064   2.339   2.132  0.3312 -0.7664  0.0117
 7804TIP3    H223377   2.927   2.369   2.076  0.9248  0.4422 -0.8333
 7805TIP3   OH223378   6.976   6.226   3.999  0.7998 -0.1300  0.1935
 7805TIP3    H123379   6.940   6.174   4.071  0.1937  0.1099  0.0673
 7805TIP3    H223380   6.931   6.194   3.921 -1.6290  2.3481  0.4135
 7806TIP3   OH223381   6.911   4.070   1.180 -0.6524  0.3667 -0.4131
 7806TIP3    H123382   6.853   4.127   1.230 -0.0149  0.9465 -0.3231
 7806TIP3    H223383   6.867   4.060   1.095 -0.0425  2.2762 -0.9984
 7807TIP3   OH223384   2.177   4.339   3.359 -0.3764 -0.1484 -0.2651
 7807TIP3    H123385   2.234   4.276   3.315 -1.2791 -1.3270  0.2020
 7807TIP3    H223386   2.190   4.420   3.310 -0.0310 -0.9684 -1.6084
 7808TIP3   OH223387   2.069   3.592   3.040  0.0446 -0.3490 -0.1723
 7808TIP3    H123388   2.160   3.574   3.064  0.4375 -0.3642 -1.5791
 7808TIP3    H223389   2.063   3.565   2.949 -0.8804  1.2939 -0.6409
 7809TIP3   OH223390   4.081   3.778   0.839 -0.0142 -0.2410  0.1314
 7809TIP3    H123391   4.048   3.868   0.837 -0.3383 -0.3668 -0.2696
 7809TIP3    H223392   4.176   3.787   0.831  0.1740  0.1727  2.1542
 7810TIP3   OH223393   1.079   0.727   0.751 -0.1412 -0.5263 -0.5461
 7810TIP3    H123394   1.023   0.794   0.788  1.1273  0.1116  0.2759
 7810TIP3    H223395   1.141   0.705   0.821  2.3559  0.7528 -2.2135
 7811TIP3   OH223396   7.097   3.804   3.480 -0.4693  0.6260 -0.3717
 7811TIP3    H123397   7.095   3.883   3.533  1.1709 -1.3724  2.9906
 7811TIP3    H223398   7.185   3.802   3.443 -0.3029  0.1271  0.0382
 7812TIP3   OH223399   7.220   5.159   5.623  0.8089 -0.2395 -0.3807
 7812TIP3    H123400   7.135   5.173   5.582  1.0856 -1.4554 -1.4207
 7812TIP3    H223401   7.230   5.234   5.683 -0.4748  0.5232 -1.0685
 7813TIP3   OH223402   5.793   4.047   2.624  0.4481 -0.3621 -0.3455
 7813TIP3    H123403   5.747   3.963   2.627 -1.4081  0.5281 -1.5487
 7813TIP3    H223404   5.806   4.063   2.531 -0.8777  1.4748 -0.2726
 7814TIP3   OH223405   1.927   4.531   2.470 -0.1916  0.4155 -0.9268
 7814TIP3    H123406   2.017   4.512   2.443  0.1349  0.7740 -0.1058
 7814TIP3    H223407   1.903   4.609   2.420  0.0898  0.5455 -0.8587
 7815TIP3   OH223408   1.298   4.744   5.758  0.5155 -0.1282 -0.1001
 7815TIP3    H123409   1.343   4.758   5.674 -1.5785 -0.9391 -1.4352
 7815TIP3    H223410   1.327   4.657   5.786 -0.0134 -0.5715 -0.8666
 7816TIP3   OH223411   6.310   0.252   4.914  0.3432 -0.2550 -0.3493
 7816TIP3    H123412   6.405   0.260   4.920  0.3282 -0.8113  0.9185
 7816TIP3    H223413   6.283   0.219   5.000 -1.2911  2.5149  0.3236
 7817TIP3   OH223414   2.507   2.828   5.473  0.1714  0.5624  0.2810
 7817TIP3    H123415   2.535   2.761   5.536 -0.9235 -0.5825 -0.4116
 7817TIP3    H223416   2.568   2.819   5.399  0.7671  1.1683  0.6777
 7818TIP3   OH223417   6.896   0.465   2.300  0.0322 -0.6981 -0.4706
 7818TIP3    H123418   6.831   0.530   2.275 -2.1780 -1.2823  2.9981
 7818TIP3    H223419   6.961   0.514   2.351 -1.5179 -0.9899  1.9555
 7819TIP3   OH223420   3.484   4.186   0.910 -0.3281 -0.7601  0.5915
 7819TIP3    H123421   3.528   4.101   0.902 -1.6769 -1.4945  0.7942
 7819TIP3    H223422   3.550   4.243   0.949  0.4503 -1.8292  0.8812
 7820TIP3   OH223423   3.051   1.970   4.736 -0.1760 -0.3161  0.4157
 7820TIP3    H123424   2.995   2.033   4.689 -1.8030 -1.2168  1.0545
 7820TIP3    H223425   3.120   1.947   4.673 -0.6226  0.6974 -0.4769
 7821TIP3   OH223426   1.742   2.258   3.951  0.5029  0.2105  0.5018
 7821TIP3    H123427   1.686   2.285   4.024  0.6026 -0.3332  0.7882
 7821TIP3    H223428   1.779   2.175   3.980  1.4426  0.5549  0.3002
 7822TIP3   OH223429   5.756   5.803   3.221 -0.2350  0.3110  0.3739
 7822TIP3    H123430   5.675   5.753   3.212  0.3991 -0.9947  1.6200
 7822TIP3    H223431   5.761   5.824   3.315  1.0945 -0.0279  0.3954
 7823TIP3   OH223432   6.353   4.624   4.637  0.0373 -0.5434 -0.1217
 7823TIP3    H123433   6.377   4.531   4.643  1.4277 -0.1476  1.1357
 7823TIP3    H223434   6.437   4.668   4.622 -0.3612  0.6528  1.0647
 7824TIP3   OH223435   6.253   6.084   5.759 -0.1573 -0.1066 -0.3379
 7824TIP3    H123436   6.315   6.066   5.688  0.4870  0.6234  0.0354
 7824TIP3    H223437   6.223   5.997   5.786 -0.7749 -0.3893 -1.8120
 7825TIP3   OH223438   5.567   0.631   5.625 -0.2704  0.7135 -0.0136
 7825TIP3    H123439   5.523   0.546   5.636 -0.2782  0.5066 -1.4337
 7825TIP3    H223440   5.600   0.629   5.535  4.1594  0.1677  1.3985
 7826TIP3   OH223441   6.374   4.413   4.266  0.9403  0.2869 -0.1908
 7826TIP3    H123442   6.314   4.438   4.196  0.5518  0.8589  0.3381
 7826TIP3    H223443   6.425   4.341   4.230  1.3626  1.1598 -1.4009
 7827TIP3   OH223444   6.760   2.059   4.378  0.2145 -0.0270  0.1403
 7827TIP3    H123445   6.737   1.970   4.351 -0.3762  0.1674 -0.0083
 7827TIP3    H223446   6.852   2.052   4.405 -0.5482 -1.2769  2.7146
 7828TIP3   OH223447   5.709   1.407   0.888 -0.1962 -0.3624 -0.4114
 7828TIP3    H123448   5.662   1.372   0.964 -0.9263  0.2166 -0.5878
 7828TIP3    H223449   5.665   1.368   0.813 -1.3226  1.2621 -0.6317
 7829TIP3   OH223450   0.168   3.330   3.019  0.1642 -0.4664 -0.0635
 7829TIP3    H123451   0.151   3.424   3.010 -0.9968 -0.5030  1.3853
 7829TIP3    H223452   0.232   3.311   2.951 -0.5874  1.0999 -1.2835
 7830TIP3   OH223453   5.477   6.050   1.739 -0.3992  0.3236 -0.1460
 7830TIP3    H123454   5.553   6.003   1.774  0.9795  2.2825 -0.3239
 7830TIP3    H223455   5.488   6.044   1.644 -1.3179 -0.6213 -0.2147
 7831TIP3   OH223456   3.156   2.588   0.537  0.7594 -0.1639 -0.9341
 7831TIP3    H123457   3.198   2.668   0.568  1.1573 -0.0653 -1.7060
 7831TIP3    H223458   3.193   2.574   0.450  0.7266 -1.2077 -0.7917
 7832TIP3   OH223459   0.144   6.038   3.015 -0.4409  0.4505 -0.1305
 7832TIP3    H123460   0.100   5.953   3.024  0.1309 -0.0584 -1.7588
 7832TIP3    H223461   0.174   6.040   2.924  0.3198  2.0370  0.1218
 7833TIP3   OH223462   3.854   4.508   3.046 -0.1119  0.0235  0.3517
 7833TIP3    H123463   3.842   4.438   3.110 -0.9820  0.2122  0.4072
 7833TIP3    H223464   3.948   4.510   3.029 -0.2278 -2.3530 -0.9743
 7834TIP3   OH223465   2.614   3.641   1.721  0.3541  0.1160 -0.0121
 7834TIP3    H123466   2.653   3.686   1.646  3.6097  0.6564  1.8096
 7834TIP3    H223467   2.632   3.549   1.706  1.5188  0.2729  0.3115
 7835TIP3   OH223468   5.353   5.961   4.620 -0.3766  0.4779 -0.1987
 7835TIP3    H123469   5.366   5.867   4.628 -2.0794  0.2033 -0.2915
 7835TIP3    H223470   5.304   5.985   4.699 -0.5665  1.1571 -0.5155
 7836TIP3   OH223471   1.967   5.842   5.018  0.0881  0.2756  0.3311
 7836TIP3    H123472   1.892   5.888   4.980  0.1978  0.3864  0.2504
 7836TIP3    H223473   1.961   5.753   4.983 -0.1472  0.2163  0.5210
 7837TIP3   OH223474   3.905   4.119   2.450  0.2035 -0.0590 -0.4725
 7837TIP3    H123475   3.829   4.070   2.418  0.9950 -0.7618 -1.3008
 7837TIP3    H223476   3.879   4.210   2.441 -0.1896 -0.2667 -1.6653
 7838TIP3   OH223477   3.884   0.928   0.157  0.2207 -0.1476  0.2652
 7838TIP3    H123478   3.884   0.862   0.226  1.6669 -0.3327  0.1176
 7838TIP3    H223479   3.894   1.012   0.202 -0.9765 -0.0529  0.4038
 7839TIP3   OH223480   3.583   3.311   1.322  0.3419 -0.0539 -0.5026
 7839TIP3    H123481   3.672   3.274   1.317  0.4465  0.2470 -0.9276
 7839TIP3    H223482   3.527   3.243   1.285  0.3922 -0.2484 -0.2268
 7840TIP3   OH223483   1.230   5.481   0.254  0.5456 -0.4222 -0.1936
 7840TIP3    H123484   1.237   5.448   0.164 -2.1345  1.3123 -1.1582
 7840TIP3    H223485   1.263   5.570   0.249 -0.3733 -0.0379  0.3130
 7841TIP3   OH223486   4.726   2.003   2.168 -0.4366 -0.5607 -0.5710
 7841TIP3    H123487   4.768   2.078   2.211 -3.2502  1.8055 -1.6028
 7841TIP3    H223488   4.651   1.982   2.223 -2.4119  0.6294 -2.6052
 7842TIP3   OH223489   3.167   0.328   2.819  0.0402 -0.2186  0.2737
 7842TIP3    H123490   3.089   0.322   2.875 -1.2205 -1.2711 -1.5158
 7842TIP3    H223491   3.221   0.253   2.845  0.3322  0.3253  1.2908
 7843TIP3   OH223492   3.704   2.178   5.509 -0.6664 -0.2154  0.5797
 7843TIP3    H123493   3.651   2.098   5.509 -3.9521  1.7592  1.0005
 7843TIP3    H223494   3.750   2.176   5.593 -0.1814 -1.9043  0.3206
 7844TIP3   OH223495   5.766   2.355   1.260  0.1341  0.3758 -0.4360
 7844TIP3    H123496   5.679   2.334   1.225  0.3314 -2.1609  0.4553
 7844TIP3    H223497   5.807   2.407   1.190 -1.2726 -0.2860 -1.8198
 7845TIP3   OH223498   6.765   0.142   1.085  0.3048 -0.1264  0.0518
 7845TIP3    H123499   6.843   0.150   1.140 -0.1476  2.2550  0.4535
 7845TIP3    H223500   6.694   0.180   1.137 -0.3998  0.9928 -1.6341
 7846TIP3   OH223501   2.806   5.785   3.830 -0.4252 -0.5353  0.1040
 7846TIP3    H123502   2.805   5.700   3.786 -1.5409 -0.3627 -0.2426
 7846TIP3    H223503   2.779   5.766   3.920 -0.4830 -0.5771  0.0782
 7847TIP3   OH223504   5.520   5.158   2.715  0.1748 -0.4031  0.1913
 7847TIP3    H123505   5.467   5.219   2.767  1.3196  1.5868 -0.8411
 7847TIP3    H223506   5.460   5.124   2.649  0.3294  2.8452 -1.8263
 7848TIP3   OH223507   5.282   0.844   4.012  0.2850 -0.1266 -0.2416
 7848TIP3    H123508   5.320   0.823   4.098  0.7233  1.6264  0.0316
 7848TIP3    H223509   5.195   0.877   4.031 -0.0832 -0.8802 -0.5888
 7849TIP3   OH223510   5.888   2.287   4.503 -0.1105 -0.0838 -0.1859
 7849TIP3    H123511   5.980   2.311   4.491 -0.5648  2.4849  0.7902
 7849TIP3    H223512   5.865   2.323   4.588 -2.2339  0.0437 -0.7535
 7850TIP3   OH223513   1.718   3.790   1.364 -0.1950 -0.1968  0.2469
 7850TIP3    H123514   1.787   3.728   1.342  1.4713  0.6022  2.7759
 7850TIP3    H223515   1.708   3.781   1.459 -0.9307  2.3363  0.4771
 7851TIP3   OH223516   1.672   1.254   4.368 -0.0113 -0.0939  0.0529
 7851TIP3    H123517   1.612   1.311   4.320  0.1994 -0.6908 -0.9536
 7851TIP3    H223518   1.721   1.208   4.300  0.3706 -0.8993  0.8453
 7852TIP3   OH223519   7.070   0.679   5.064 -0.2987  0.2748  0.3185
 7852TIP3    H123520   7.144   0.728   5.031  0.2882  1.6033  3.2755
 7852TIP3    H223521   6.999   0.744   5.071 -0.8824 -0.3303  0.1342
 7853TIP3   OH223522   3.824   2.651   3.722 -0.1930 -0.2284 -0.4721
 7853TIP3    H123523   3.897   2.661   3.783 -1.0867  1.9560  0.3609
 7853TIP3    H223524   3.815   2.557   3.710  1.4239 -0.6312  1.0291
 7854TIP3   OH223525   2.025   1.289   4.395 -0.3709  0.3106 -0.3825
 7854TIP3    H123526   1.978   1.230   4.454 -1.2105  2.1649  0.9391
 7854TIP3    H223527   2.090   1.332   4.452  1.5285 -0.6399 -1.7179
 7855TIP3   OH223528   2.766   5.397   5.413 -0.0339  0.4978  0.4443
 7855TIP3    H123529   2.672   5.414   5.404  0.0408  1.0948  0.7367
 7855TIP3    H223530   2.789   5.346   5.336 -0.3606  1.3636 -0.2379
 7856TIP3   OH223531   5.328   2.535   3.216 -0.3438  0.3274  0.6272
 7856TIP3    H123532   5.346   2.448   3.251 -0.1110  0.5728  1.1367
 7856TIP3    H223533   5.313   2.521   3.123  1.6711 -0.0114  0.3008
 7857TIP3   OH223534   2.431   4.067   2.971 -0.6463  0.4784  0.0421
 7857TIP3    H123535   2.376   4.140   2.996 -1.4724 -0.2331  0.3574
 7857TIP3    H223536   2.466   4.091   2.885 -1.5202  0.8961 -0.2016
 7858TIP3   OH223537   6.901   4.344   1.272 -0.1305  0.0418 -0.2340
 7858TIP3    H123538   6.859   4.293   1.342  0.7946  2.1078  1.9585
 7858TIP3    H223539   6.834   4.351   1.204 -1.9342 -0.1187  1.4320
 7859TIP3   OH223540   1.901   6.564   3.056  0.1273  0.0267  0.1691
 7859TIP3    H123541   1.832   6.621   3.022  0.8096  0.5932 -0.3168
 7859TIP3    H223542   1.867   6.529   3.138 -0.8836 -0.0119 -0.2592
 7860TIP3   OH223543   5.607   0.586   4.773  0.1268  0.2837 -0.5240
 7860TIP3    H123544   5.534   0.537   4.736 -0.8866  1.5379 -0.2746
 7860TIP3    H223545   5.630   0.650   4.706  0.4780  0.3995 -0.2970
 7861TIP3   OH223546   6.808   2.081   1.180  0.0623 -1.0403  0.1620
 7861TIP3    H123547   6.862   2.116   1.252  0.2343  0.6201 -0.7131
 7861TIP3    H223548   6.792   1.990   1.204  1.1656 -0.8793  1.6827
 7862TIP3   OH223549   6.986   3.284   3.335  0.4958  0.0268  0.4895
 7862TIP3    H123550   7.070   3.310   3.373  0.9580 -0.1728 -0.3689
 7862TIP3    H223551   6.982   3.190   3.348 -0.2934  0.2370  1.8709
 7863TIP3   OH223552   3.056   3.878   0.873 -0.1789  0.8046  0.9191
 7863TIP3    H123553   3.058   3.782   0.866 -0.8523  0.8084  0.5919
 7863TIP3    H223554   3.059   3.894   0.967 -0.5871  0.4364  1.0025
 7864TIP3   OH223555   1.993   4.888   2.610 -0.3551  0.5503 -0.1195
 7864TIP3    H123556   1.967   4.847   2.527  0.7358 -1.1974  0.3595
 7864TIP3    H223557   2.038   4.969   2.584 -0.3215  0.1938 -1.2027
 7865TIP3   OH223558   3.242   1.918   2.117  0.3507  0.3730  0.0286
 7865TIP3    H123559   3.261   1.839   2.068  0.2552 -0.2818  1.0233
 7865TIP3    H223560   3.265   1.897   2.207  0.5910  1.5704  0.2685
 7866TIP3   OH223561   3.059   4.078   5.629  0.5424  0.4451  0.8595
 7866TIP3    H123562   3.096   4.056   5.544 -2.1056  1.7515 -0.7798
 7866TIP3    H223563   3.111   4.152   5.660  1.1405  0.3606  0.0640
 7867TIP3   OH223564   2.515   6.396   1.645 -0.1220  0.1999  0.4028
 7867TIP3    H123565   2.482   6.478   1.683 -0.2137 -0.7543  2.5289
 7867TIP3    H223566   2.608   6.395   1.668  0.2626  0.4462 -1.0548
 7868TIP3   OH223567   1.825   3.243   0.335 -0.1597  0.0709 -0.1373
 7868TIP3    H123568   1.901   3.260   0.279  0.3017 -0.4327  0.3279
 7868TIP3    H223569   1.770   3.183   0.284 -0.1626  0.3028 -0.4056
 7869TIP3   OH223570   6.620   5.503   4.842  0.1410 -0.0434  0.7325
 7869TIP3    H123571   6.530   5.471   4.847 -0.1324  0.6784  0.4386
 7869TIP3    H223572   6.673   5.428   4.869 -0.4750 -0.8441 -0.2257
 7870TIP3   OH223573   2.636   6.661   2.234  0.0318  0.7477 -0.5181
 7870TIP3    H123574   2.564   6.659   2.171 -0.6823 -0.8145  0.2801
 7870TIP3    H223575   2.713   6.682   2.182 -0.9554  2.2321 -1.4376
 7871TIP3   OH223576   1.729   3.552   5.386 -0.2626  0.4270  0.0613
 7871TIP3    H123577   1.728   3.484   5.454  2.4514  0.1194 -0.0941
 7871TIP3    H223578   1.732   3.634   5.434 -1.7354  0.4030  0.2503
 7872TIP3   OH223579   7.069   3.744   1.091  0.3937 -0.1662  0.0963
 7872TIP3    H123580   7.029   3.725   1.006  1.6637  1.0172 -0.8262
 7872TIP3    H223581   7.134   3.675   1.103 -0.3713 -0.8250  0.5385
 7873TIP3   OH223582   5.115   2.863   4.250 -0.5525  0.5206  0.0174
 7873TIP3    H123583   5.200   2.870   4.294 -0.2515  2.2329 -0.7228
 7873TIP3    H223584   5.109   2.944   4.198 -2.6926  0.5014  0.1535
 7874TIP3   OH223585   5.658   0.360   0.509 -0.3553  0.1054  0.8094
 7874TIP3    H123586   5.638   0.366   0.415  0.6421 -1.5833  0.4587
 7874TIP3    H223587   5.618   0.439   0.546  1.1125  2.0290 -1.3593
 7875TIP3   OH223588   2.173   2.005   1.906 -0.3098 -0.4029 -0.8873
 7875TIP3    H123589   2.233   2.080   1.904 -0.4633 -0.2353  0.1324
 7875TIP3    H223590   2.089   2.041   1.876 -0.6445  0.1052  0.5872
 7876TIP3   OH223591   4.396   3.808   2.720  0.0633 -0.3273 -0.5569
 7876TIP3    H123592   4.488   3.833   2.711 -0.2760  1.9549  1.4606
 7876TIP3    H223593   4.352   3.854   2.648  0.3329 -0.6315 -0.9249
 7877TIP3   OH223594   4.424   6.583   1.795  0.9633  0.5039 -0.4525
 7877TIP3    H123595   4.367   6.638   1.741  1.8216  0.4824 -1.4251
 7877TIP3    H223596   4.512   6.617   1.777  1.3341 -0.0220  0.3356
 7878TIP3   OH223597   2.661   2.556   0.219 -0.1498  0.4824 -0.6775
 7878TIP3    H123598   2.689   2.530   0.132  0.4140  0.3615 -0.4620
 7878TIP3    H223599   2.733   2.608   0.254  0.4998 -1.0913  0.4640
 7879TIP3   OH223600   3.462   6.789   4.410 -0.3122 -0.1394 -0.2163
 7879TIP3    H123601   3.524   6.717   4.422 -2.2752 -2.2580 -1.6965
 7879TIP3    H223602   3.475   6.817   4.320  0.3592  1.3546  0.3169
 7880TIP3   OH223603   4.488   3.922   4.183 -0.2887  0.2167  0.2751
 7880TIP3    H123604   4.569   3.940   4.231  0.3682  0.3901 -0.8609
 7880TIP3    H223605   4.508   3.945   4.093 -1.2849 -0.7205 -0.2105
 7881TIP3   OH223606   0.140   4.370   3.514  0.0433  0.0402 -0.3159
 7881TIP3    H123607   0.142   4.341   3.606  1.4224 -2.2761 -1.0020
 7881TIP3    H223608   0.049   4.355   3.487  0.4432 -3.0826 -0.3420
 7882TIP3   OH223609   2.741   6.389   5.706 -0.9227 -0.4160 -0.3667
 7882TIP3    H123610   2.764   6.320   5.768  2.0174  0.5502 -0.2098
 7882TIP3    H223611   2.782   6.363   5.624  2.0699  1.9095  0.1964
 7883TIP3   OH223612   4.688   6.036   3.599 -0.7488 -0.2700 -0.1670
 7883TIP3    H123613   4.607   6.082   3.575 -0.4547  0.3382 -0.0085
 7883TIP3    H223614   4.681   5.951   3.555 -1.7353 -0.4492  0.2970
 7884TIP3   OH223615   1.133   1.335   5.089  0.0932  0.3524  0.7314
 7884TIP3    H123616   1.128   1.344   4.993 -0.3831  0.2879  0.7478
 7884TIP3    H223617   1.042   1.329   5.117  0.2568 -0.3496  1.1252
 7885TIP3   OH223618   5.978   3.003   2.467  0.2208 -0.0831 -0.5687
 7885TIP3    H123619   6.059   2.957   2.446  1.6562  0.8931  2.2362
 7885TIP3    H223620   5.916   2.934   2.488  0.5215 -0.8256 -1.9812
 7886TIP3   OH223621   1.122   0.328   5.900 -0.1382  0.3164  0.0371
 7886TIP3    H123622   1.032   0.334   5.869 -0.1430 -2.4628 -0.7441
 7886TIP3    H223623   1.170   0.285   5.829  1.2931 -0.2717  1.2946
 7887TIP3   OH223624   0.066   4.427   1.102 -0.1016 -0.9817  0.0065
 7887TIP3    H123625   0.128   4.455   1.035 -0.1387  2.6385  1.2703
 7887TIP3    H223626  -0.015   4.409   1.054  0.1121  0.7081 -1.0647
 7888TIP3   OH223627   6.106   2.329   2.591 -0.2341 -0.3326 -0.0290
 7888TIP3    H123628   6.092   2.321   2.685  4.1399 -1.8147  0.7014
 7888TIP3    H223629   6.098   2.239   2.558  1.9298 -0.4735 -0.3162
 7889TIP3   OH223630   6.034   3.775   2.989  0.7217 -0.0843  0.1572
 7889TIP3    H123631   6.069   3.814   2.908 -0.6417  1.4284  0.2491
 7889TIP3    H223632   6.067   3.686   2.988  1.2685  0.0822 -1.7670
 7890TIP3   OH223633   6.047   4.748   1.908 -0.4894  0.0196 -0.2680
 7890TIP3    H123634   6.024   4.754   2.000 -0.4777  0.0977 -0.2708
 7890TIP3    H223635   6.080   4.658   1.898 -3.5106 -1.1504 -0.8577
 7891TIP3   OH223636   6.290   3.115   5.308  0.2665  0.3366 -0.2180
 7891TIP3    H123637   6.300   3.043   5.246 -1.1093  0.7570 -0.9702
 7891TIP3    H223638   6.327   3.191   5.263  0.4612  0.3855  0.0196
 7892TIP3   OH223639   0.609   6.710   0.695 -0.6011  0.0132  0.0805
 7892TIP3    H123640   0.517   6.719   0.673 -0.7049 -1.1129 -0.0211
 7892TIP3    H223641   0.629   6.618   0.676  0.2404 -0.0494  1.1688
 7893TIP3   OH223642   6.847   1.139   2.103 -0.3235  0.1101 -0.2107
 7893TIP3    H123643   6.934   1.178   2.105 -0.3868  0.2456 -0.0962
 7893TIP3    H223644   6.793   1.196   2.158 -0.0981 -0.9063  1.1238
 7894TIP3   OH223645   3.783   1.793   4.123 -0.1970 -0.5930 -0.8905
 7894TIP3    H123646   3.783   1.841   4.040  0.2606  1.1858  0.0772
 7894TIP3    H223647   3.794   1.701   4.098 -0.4477 -0.1488 -2.7994
 7895TIP3   OH223648   5.689   0.895   5.688  0.4385 -0.3250 -0.2600
 7895TIP3    H123649   5.731   0.949   5.754 -1.0046  0.1814  0.2873
 7895TIP3    H223650   5.666   0.814   5.734 -2.5857  0.8725  0.6021
 7896TIP3   OH223651   4.072   2.157   1.357 -0.7682 -0.8942  0.4299
 7896TIP3    H123652   4.080   2.140   1.264 -2.0710  0.6063 -0.0072
 7896TIP3    H223653   4.112   2.243   1.370 -0.4089 -1.1752  1.2924
 7897TIP3   OH223654   3.156   3.264   3.500  0.5699 -0.1721  0.1018
 7897TIP3    H123655   3.118   3.337   3.451  1.8567  1.4425  1.4100
 7897TIP3    H223656   3.249   3.265   3.478  0.5117 -1.9373 -0.4347
 7898TIP3   OH223657   4.308   6.074   4.906  0.3520 -0.4192  0.6778
 7898TIP3    H123658   4.253   6.004   4.869  1.2930 -0.9002  0.1425
 7898TIP3    H223659   4.319   6.136   4.833  0.6774 -0.4270  0.7193
 7899TIP3   OH223660   6.934   3.878   5.438 -0.1547 -0.5261 -0.5061
 7899TIP3    H123661   6.878   3.872   5.515 -0.4215  1.9622 -0.4389
 7899TIP3    H223662   6.873   3.885   5.364  0.1090 -1.7417 -0.8731
 7900TIP3   OH223663   3.824   3.164   4.015 -0.3298 -0.5979  0.4499
 7900TIP3    H123664   3.804   3.115   3.935 -0.3147  0.0981  0.0195
 7900TIP3    H223665   3.844   3.252   3.985  1.0500 -0.6708  1.0944
 7901TIP3   OH223666   6.780   6.766   2.073 -0.1485  0.7175 -0.4151
 7901TIP3    H123667   6.714   6.805   2.130 -1.2103 -0.7325 -0.5815
 7901TIP3    H223668   6.753   6.790   1.985  0.7428  1.8501 -0.3971
 7902TIP3   OH223669   3.993   2.460   5.801  0.3879  0.2368 -0.1153
 7902TIP3    H123670   4.086   2.441   5.798  0.3611 -0.3484  1.5249
 7902TIP3    H223671   3.978   2.493   5.890 -0.7165  1.7785 -0.8231
 7903TIP3   OH223672   3.482   4.079   2.220  0.1719 -0.4522  0.1431
 7903TIP3    H123673   3.556   4.102   2.163 -0.9430  1.7817 -0.5381
 7903TIP3    H223674   3.504   4.117   2.305  0.1117 -0.3921  0.1319
 7904TIP3   OH223675   5.603   5.349   2.063  0.6291 -0.0283 -0.2641
 7904TIP3    H123676   5.508   5.349   2.066  0.6561 -0.6449  0.9172
 7904TIP3    H223677   5.624   5.300   1.983 -0.0324  0.1420 -0.5500
 7905TIP3   OH223678   6.207   0.199   3.650  0.0269  0.2866  0.5398
 7905TIP3    H123679   6.217   0.269   3.715  1.2352 -0.0088  0.7088
 7905TIP3    H223680   6.270   0.132   3.678 -1.0211 -0.8286  0.3144
 7906TIP3   OH223681   6.377   0.281   1.581  0.5033  0.6378  0.0544
 7906TIP3    H123682   6.285   0.303   1.566  0.5339  0.2550 -0.6965
 7906TIP3    H223683   6.375   0.192   1.617  0.7063 -0.3938 -2.3453
 7907TIP3   OH223684   4.088   4.571   2.846  0.0447 -0.4711  0.1889
 7907TIP3    H123685   4.023   4.592   2.779 -0.4617  0.5657  0.9863
 7907TIP3    H223686   4.136   4.496   2.809  0.7172  0.9275 -1.9749
 7908TIP3   OH223687   3.232   2.169   0.865  0.0536  0.0318 -0.2205
 7908TIP3    H123688   3.315   2.129   0.890  0.7553  2.0574  0.9400
 7908TIP3    H223689   3.255   2.258   0.838 -1.5969  0.2164 -1.1727
 7909TIP3   OH223690   2.115   1.275   0.966 -0.3061 -0.1314 -0.4856
 7909TIP3    H123691   2.159   1.245   1.045  3.0326 -0.8449 -2.4569
 7909TIP3    H223692   2.103   1.369   0.980  2.4571  0.2371 -0.0189
 7910TIP3   OH223693   5.021   6.635   4.741  0.1549 -0.5747 -0.1958
 7910TIP3    H123694   5.023   6.544   4.771  2.3548  0.1092  2.1099
 7910TIP3    H223695   5.027   6.628   4.645 -0.8658 -2.8309 -0.1656
 7911TIP3   OH223696   0.837   5.079   2.553 -0.3571  0.0544  0.6356
 7911TIP3    H123697   0.763   5.095   2.494 -1.0453  0.7964  1.6668
 7911TIP3    H223698   0.865   4.990   2.531  1.3529  1.2819 -2.8543
 7912TIP3   OH223699   2.596   5.858   3.660 -0.2757  0.0464  0.3060
 7912TIP3    H123700   2.644   5.913   3.599  0.2999 -1.0860 -0.2941
 7912TIP3    H223701   2.648   5.860   3.741  1.4219 -1.9591 -0.6331
 7913TIP3   OH223702   4.441   3.398   2.416  1.0075  0.4784  0.1591
 7913TIP3    H123703   4.362   3.414   2.467  0.9888 -1.0052  0.6409
 7913TIP3    H223704   4.422   3.434   2.329  0.5981  1.9829  0.8415
 7914TIP3   OH223705   3.317   0.774   3.751  0.6000 -0.0321 -0.6098
 7914TIP3    H123706   3.236   0.806   3.709  0.1711 -1.3822 -0.8381
 7914TIP3    H223707   3.363   0.728   3.681  1.4746  0.5271 -0.4175
 7915TIP3   OH223708   5.969   1.830   4.190 -1.1647 -0.5261  0.8090
 7915TIP3    H123709   5.887   1.875   4.171  0.0351  1.3876 -0.2215
 7915TIP3    H223710   5.970   1.755   4.130 -0.8724  1.1341 -1.3843
 7916TIP3   OH223711   5.084   4.252   0.197  0.4025 -0.9155  0.4764
 7916TIP3    H123712   5.136   4.302   0.259  0.9455 -3.5378  2.2878
 7916TIP3    H223713   4.994   4.282   0.210  0.8430  0.3448  0.6859
 7917TIP3   OH223714   6.884   6.730   0.380  0.5090  0.0217  0.6261
 7917TIP3    H123715   6.792   6.750   0.398  1.1116  1.0267  2.9033
 7917TIP3    H223716   6.894   6.746   0.286 -1.7133 -0.5048  0.2506
 7918TIP3   OH223717   2.363   0.166   2.313  0.2432  0.3493 -0.4057
 7918TIP3    H123718   2.313   0.096   2.270  0.5040  0.3164 -0.6589
 7918TIP3    H223719   2.354   0.241   2.256  1.4028  0.0308 -1.0358
 7919TIP3   OH223720   6.451   1.553   1.318  0.2382 -0.5085  0.2639
 7919TIP3    H123721   6.356   1.542   1.328  0.2803 -0.0148  1.3727
 7919TIP3    H223722   6.478   1.480   1.263 -0.9587  0.0338 -1.1024
 7920TIP3   OH223723   2.750   5.076   3.889  0.1520  0.0464  0.1046
 7920TIP3    H123724   2.840   5.100   3.909  0.6961 -1.6152 -0.2527
 7920TIP3    H223725   2.731   5.003   3.947 -0.9982  0.4096  0.2095
 7921TIP3   OH223726   1.863   2.594   4.839  0.3930  0.3746 -0.1949
 7921TIP3    H123727   1.871   2.688   4.856 -0.7207  0.6910 -1.2818
 7921TIP3    H223728   1.868   2.587   4.744  1.6157 -0.8070 -0.0743
 7922TIP3   OH223729   3.767   3.038   0.524  0.2452  0.3031  0.3644
 7922TIP3    H123730   3.790   3.098   0.455 -2.1948  0.4381 -0.4447
 7922TIP3    H223731   3.838   2.974   0.526  2.0222  2.1664  0.0811
 7923TIP3   OH223732   4.982   2.997  -0.004 -0.5866  0.1902 -0.5122
 7923TIP3    H123733   5.044   3.007   0.068  0.3696  1.9210 -1.5067
 7923TIP3    H223734   4.906   2.955   0.036 -0.5828  2.1433  1.8060
 7924TIP3   OH223735   0.243   2.938   0.193 -0.6849  0.1419  0.5662
 7924TIP3    H123736   0.302   3.013   0.203  0.6953 -0.8127 -0.0838
 7924TIP3    H223737   0.159   2.977   0.168  0.6487  1.3760 -2.4171
 7925TIP3   OH223738   3.855   1.452   1.742 -0.0717 -0.0977  0.1221
 7925TIP3    H123739   3.803   1.420   1.667 -0.8193 -1.3216  1.1238
 7925TIP3    H223740   3.863   1.546   1.727 -1.9913  0.0181 -0.4557
 7926TIP3   OH223741   0.245   4.882   1.339  0.2382 -0.5352  0.2493
 7926TIP3    H123742   0.229   4.976   1.339  0.9156 -0.3393 -2.2621
 7926TIP3    H223743   0.324   4.871   1.392 -0.0102  0.2738  0.8018
 7927TIP3   OH223744   3.617   3.642   2.717 -0.3326  0.4657 -0.4862
 7927TIP3    H123745   3.538   3.694   2.701 -0.4289  1.3966  2.4160
 7927TIP3    H223746   3.673   3.700   2.769  1.0579 -1.1791 -0.0659
 7928TIP3   OH223747   4.056   5.665   1.126  0.1352 -0.0428  0.1606
 7928TIP3    H123748   3.995   5.615   1.072  0.0301  1.0244 -0.7505
 7928TIP3    H223749   4.038   5.638   1.216 -3.1308  1.7097  0.1686
 7929TIP3   OH223750   3.010   3.684   5.381  0.3871 -0.0603  0.2173
 7929TIP3    H123751   2.965   3.707   5.300 -1.5041  0.7566  1.4411
 7929TIP3    H223752   2.943   3.688   5.448  1.6579 -1.8039  1.6969
 7930TIP3   OH223753   2.652   5.766   5.386  0.0710  0.3210  0.2117
 7930TIP3    H123754   2.655   5.839   5.324 -3.2764 -0.1667 -0.7193
 7930TIP3    H223755   2.742   5.735   5.391  0.7590  1.3627 -3.2583
 7931TIP3   OH223756   5.858   4.749   5.190 -0.0778 -0.1651 -0.0107
 7931TIP3    H123757   5.881   4.840   5.174  0.1031 -0.7345 -3.8509
 7931TIP3    H223758   5.941   4.708   5.219 -0.1972  0.8066  1.8767
 7932TIP3   OH223759   6.048   4.224   5.586 -0.1333 -0.3814 -0.3127
 7932TIP3    H123760   5.958   4.257   5.581 -0.4993 -0.8325  1.9390
 7932TIP3    H223761   6.084   4.265   5.665  1.2661 -1.1020 -0.5389
 7933TIP3   OH223762   3.458   0.615   0.807  0.2160 -0.5234 -0.4525
 7933TIP3    H123763   3.365   0.609   0.785  0.6235 -1.4470 -2.0551
 7933TIP3    H223764   3.487   0.524   0.816  0.6857 -0.2332  1.4123
 7934TIP3   OH223765   3.280   2.654   3.848 -0.0631 -0.2155 -0.0033
 7934TIP3    H123766   3.282   2.662   3.752 -1.2106  0.3820  0.0100
 7934TIP3    H223767   3.347   2.715   3.878  1.5709 -1.6966 -0.4628
 7935TIP3   OH223768   0.516   4.321   4.869 -0.5631  0.7084  0.0276
 7935TIP3    H123769   0.544   4.230   4.880  0.1444  1.1512  2.5296
 7935TIP3    H223770   0.555   4.348   4.787  2.4246 -0.1856  1.0313
 7936TIP3   OH223771   1.985   6.351   0.310 -0.4028 -0.5963 -0.3137
 7936TIP3    H123772   2.078   6.333   0.318 -0.4435  0.1095  3.3731
 7936TIP3    H223773   1.946   6.317   0.391 -3.4569 -1.1212 -1.8136
 7937TIP3   OH223774   0.409   3.274   5.693  0.4221 -0.1445  0.2222
 7937TIP3    H123775   0.379   3.188   5.722 -2.2746  0.6276 -0.0462
 7937TIP3    H223776   0.432   3.320   5.774  1.0884 -0.8041  0.4243
 7938TIP3   OH223777   2.019   5.914   5.501 -0.1355 -0.1881 -0.0755
 7938TIP3    H123778   2.044   5.840   5.446  0.3774  0.0496 -0.1715
 7938TIP3    H223779   1.924   5.907   5.509 -0.3076  0.1589 -1.5508
 7939TIP3   OH223780   3.710   4.091   4.577 -0.3310 -0.2132 -0.3974
 7939TIP3    H123781   3.739   4.179   4.603  0.6546 -0.2835 -1.1896
 7939TIP3    H223782   3.703   4.096   4.482  0.9931 -1.3348 -0.5909
 7940TIP3   OH223783   0.706   4.155   0.544 -0.1084 -0.3799 -0.2028
 7940TIP3    H123784   0.645   4.091   0.509 -1.2478  0.5147  0.0850
 7940TIP3    H223785   0.771   4.167   0.475 -0.2186 -1.3875 -0.4901
 7941TIP3   OH223786   5.237   3.893   1.009 -0.1990  0.3098 -0.3120
 7941TIP3    H123787   5.292   3.970   1.021  0.7282  0.2122 -3.2602
 7941TIP3    H223788   5.168   3.921   0.949  1.3372 -1.5556 -3.1551
 7942TIP3   OH223789   2.040   1.975   5.297  0.5758 -0.3322  0.7520
 7942TIP3    H123790   1.971   1.945   5.357  0.0636  0.8453  0.7862
 7942TIP3    H223791   2.023   2.068   5.286  1.2413 -0.3355 -0.4861
 7943TIP3   OH223792   5.121   2.843   2.311 -0.7522  0.4506 -0.6157
 7943TIP3    H123793   5.201   2.798   2.282 -0.7078 -0.1133  0.3092
 7943TIP3    H223794   5.138   2.863   2.403 -0.7366  2.4829 -1.0122
 7944TIP3   OH223795   4.450   4.770   2.266  0.2874 -0.0735  0.0935
 7944TIP3    H123796   4.516   4.725   2.213  0.9558 -0.4713  1.2203
 7944TIP3    H223797   4.458   4.862   2.242  0.1375 -0.3276 -0.9504
 7945TIP3   OH223798   6.351   1.257   3.038 -0.7431 -0.1888 -0.2464
 7945TIP3    H123799   6.413   1.192   3.004  0.2537  0.3962  0.4124
 7945TIP3    H223800   6.399   1.303   3.106 -0.7117  2.5801 -2.0075
 7946TIP3   OH223801   0.621   3.135   4.009 -0.0057  0.0259  0.2746
 7946TIP3    H123802   0.620   3.163   3.918 -0.6772  1.0139  0.5624
 7946TIP3    H223803   0.545   3.178   4.048 -0.6619 -1.6335  0.9449
 7947TIP3   OH223804   5.964   5.626   3.101  0.1851 -0.2557  0.4252
 7947TIP3    H123805   5.904   5.552   3.106 -2.1337  1.5642  1.6984
 7947TIP3    H223806   5.928   5.690   3.162  2.1544  1.8763 -0.4911
 7948TIP3   OH223807   3.207   2.731   3.584 -0.4934  0.0469 -0.4182
 7948TIP3    H123808   3.189   2.783   3.506 -2.1134 -0.0656 -0.1511
 7948TIP3    H223809   3.149   2.655   3.577 -2.5592  1.2318  2.0318
 7949TIP3   OH223810   0.551   6.742   3.399  0.2904  0.0610  0.0956
 7949TIP3    H123811   0.559   6.647   3.384  0.1809  0.0197  0.2928
 7949TIP3    H223812   0.612   6.760   3.470  1.4321  0.3995 -0.9306
 7950TIP3   OH223813   3.313   6.014   5.007 -0.3819 -0.7645 -0.2948
 7950TIP3    H123814   3.350   5.958   5.075 -0.3182  2.5319  2.6307
 7950TIP3    H223815   3.383   6.074   4.983 -0.3128 -1.9845 -3.6429
 7951TIP3   OH223816   5.035   1.935   5.344 -0.5824 -0.4640  0.4345
 7951TIP3    H123817   5.043   1.843   5.369  0.9505 -0.2811  0.7608
 7951TIP3    H223818   5.063   1.937   5.252 -0.6283 -0.3316  0.4233
 7952TIP3   OH223819   5.293   0.332   0.150  0.5526 -0.4431 -0.2561
 7952TIP3    H123820   5.279   0.241   0.176 -0.3104 -0.8577 -2.0093
 7952TIP3    H223821   5.227   0.382   0.198  1.6613 -0.5531  1.4757
 7953TIP3   OH223822   1.533   2.706   1.493 -0.3141 -0.0574  0.2682
 7953TIP3    H123823   1.438   2.692   1.495 -0.5307  1.4036  2.1084
 7953TIP3    H223824   1.545   2.781   1.435 -0.1487 -0.8632 -0.7797
 7954TIP3   OH223825   4.148   2.417   0.157  0.2480 -0.5531  0.6522
 7954TIP3    H123826   4.129   2.324   0.157 -0.3401 -0.4476  1.8908
 7954TIP3    H223827   4.219   2.427   0.093 -1.2087 -1.5097 -1.2334
 7955TIP3   OH223828   3.081   1.098   3.183  0.4543  0.0651  0.4114
 7955TIP3    H123829   3.104   1.183   3.146 -1.8748  0.5090 -0.1486
 7955TIP3    H223830   3.020   1.060   3.120 -0.7785 -0.7582  2.0252
 7956TIP3   OH223831   1.101   1.194   2.217 -0.0334  0.7720  0.4645
 7956TIP3    H123832   1.163   1.238   2.160 -0.4667  0.5372 -0.2067
 7956TIP3    H223833   1.041   1.149   2.157 -1.8127  2.2982  1.0224
 7957TIP3   OH223834   0.479   5.876   1.776 -0.1379  0.5419  0.5034
 7957TIP3    H123835   0.385   5.876   1.758 -0.1069  0.5228  0.3436
 7957TIP3    H223836   0.519   5.901   1.693  0.0423 -0.2358  0.3519
 7958TIP3   OH223837   7.116   5.871   4.161 -0.2374  0.3002  0.2631
 7958TIP3    H123838   7.130   5.933   4.089 -0.3384 -0.9198 -0.8441
 7958TIP3    H223839   7.027   5.838   4.147  0.8945 -2.5024 -1.1669
 7959TIP3   OH223840   6.580   5.345   4.333 -0.1607  0.1707 -0.0531
 7959TIP3    H123841   6.592   5.320   4.242 -3.1088  1.2693 -0.8376
 7959TIP3    H223842   6.619   5.432   4.340 -0.4508  0.3277 -0.4048
 7960TIP3   OH223843   2.144   4.980   2.980  0.4396  0.1437 -0.2816
 7960TIP3    H123844   2.215   4.945   3.033 -0.2895 -0.0615  0.5835
 7960TIP3    H223845   2.182   4.992   2.893  1.4790 -0.1114  0.1287
 7961TIP3   OH223846   6.469   0.522   1.468 -0.6004 -0.2974  0.6519
 7961TIP3    H123847   6.483   0.492   1.378 -1.2519  0.2040  0.3723
 7961TIP3    H223848   6.438   0.444   1.515  0.4069 -0.7278  0.6139
 7962TIP3   OH223849   1.012   3.881   0.709 -0.1152  0.1691  0.5122
 7962TIP3    H123850   0.947   3.888   0.779  0.0831  1.4673  0.5826
 7962TIP3    H223851   0.979   3.810   0.654 -0.6687 -0.3675  1.5005
 7963TIP3   OH223852   0.873   0.230   0.238  0.0009 -0.6885 -0.0024
 7963TIP3    H123853   0.934   0.180   0.185  0.1513 -0.1908 -0.3004
 7963TIP3    H223854   0.909   0.226   0.327  0.0600 -1.0279 -0.0422
 7964TIP3   OH223855   6.482   4.767   0.430 -0.3067 -1.1288  0.1221
 7964TIP3    H123856   6.569   4.731   0.450 -0.2064  0.3010  2.5448
 7964TIP3    H223857   6.493   4.805   0.343  2.5309  1.8107  1.5484
 7965TIP3   OH223858   6.932   6.112   5.730 -0.6061 -0.0956 -0.1164
 7965TIP3    H123859   6.926   6.018   5.711 -2.4076 -0.3986  1.6265
 7965TIP3    H223860   7.019   6.137   5.700 -0.4068 -2.1347 -1.3922
 7966TIP3   OH223861   0.165   1.776   2.184  0.2123 -0.0106  0.1324
 7966TIP3    H123862   0.223   1.840   2.224  0.4426 -0.0113 -0.1902
 7966TIP3    H223863   0.104   1.828   2.132  0.0999 -0.0247  0.2514
 7967TIP3   OH223864   6.561   4.067   3.653  0.0826  0.0877  0.6949
 7967TIP3    H123865   6.533   4.078   3.744 -0.7436 -0.1271  0.4682
 7967TIP3    H223866   6.574   3.973   3.642  1.3537  0.2197  0.9238
 7968TIP3   OH223867   6.883   1.006   3.072 -0.4690  0.3334  0.1696
 7968TIP3    H123868   6.892   1.054   2.989  0.6723  1.1178  0.7177
 7968TIP3    H223869   6.958   1.035   3.124 -0.0501 -1.6659  0.7348
 7969TIP3   OH223870   0.515   0.871   0.198  0.4815 -0.4170 -0.0998
 7969TIP3    H123871   0.539   0.925   0.273 -2.0764 -0.5245  0.8786
 7969TIP3    H223872   0.463   0.929   0.142  1.3425 -0.6841 -1.2080
 7970TIP3   OH223873   4.045   5.937   1.282  0.2333  0.3450  0.2206
 7970TIP3    H123874   4.015   5.912   1.369  1.0652 -0.5229  0.2704
 7970TIP3    H223875   4.059   5.854   1.236  1.8914  0.7072 -0.0138
 7971TIP3   OH223876   4.254   5.090   4.447 -0.1883 -0.0892 -0.2973
 7971TIP3    H123877   4.299   5.006   4.437 -0.8177 -0.2916 -1.6398
 7971TIP3    H223878   4.242   5.122   4.357 -1.3976  0.6557  0.1063
 7972TIP3   OH223879   0.541   3.089   0.411  0.2571  0.9741 -0.0400
 7972TIP3    H123880   0.509   3.010   0.369 -0.9873  2.2902 -1.7240
 7972TIP3    H223881   0.513   3.082   0.502 -0.7156 -0.0782 -0.4019
 7973TIP3   OH223882   4.071   3.160   3.657  0.1360 -0.1994  0.6796
 7973TIP3    H123883   4.051   3.066   3.654  0.5726 -0.3082  1.0265
 7973TIP3    H223884   3.986   3.203   3.647  0.0297 -0.6225 -0.3922
 7974TIP3   OH223885   5.482   2.187   0.213 -0.4218 -0.2178 -0.1092
 7974TIP3    H123886   5.404   2.237   0.235  0.0730  0.5354 -0.0008
 7974TIP3    H223887   5.520   2.162   0.297  0.0360  0.3667 -0.1334
 7975TIP3   OH223888   2.988   2.111   3.172 -0.4715  0.8144 -0.0269
 7975TIP3    H123889   3.064   2.073   3.127 -0.0830  0.1613  1.1413
 7975TIP3    H223890   2.926   2.130   3.101  0.5996  0.9526 -0.9593
 7976TIP3   OH223891   4.882   3.266   2.462  0.4159 -0.0625  0.0952
 7976TIP3    H123892   4.793   3.265   2.496  0.2092 -1.6125 -0.4191
 7976TIP3    H223893   4.929   3.202   2.515  1.5203  1.4644  1.0388
 7977TIP3   OH223894   5.144   4.591   4.496 -0.0758  0.3937  0.1015
 7977TIP3    H123895   5.198   4.652   4.446  0.1447  0.2058  0.1064
 7977TIP3    H223896   5.076   4.564   4.434 -0.6567  1.2578  0.3451
 7978TIP3   OH223897   3.470   3.660   1.810  0.3885  0.0114 -0.4612
 7978TIP3    H123898   3.412   3.729   1.778  0.6685  0.3517 -0.2362
 7978TIP3    H223899   3.465   3.666   1.905  0.7681  0.0256 -0.4385
 7979TIP3   OH223900   4.072   2.573   4.816 -0.4861 -0.3338 -0.1404
 7979TIP3    H123901   4.101   2.595   4.728 -2.2718  2.1359 -0.2075
 7979TIP3    H223902   4.006   2.505   4.803 -1.5558  0.7966 -0.8719
 7980TIP3   OH223903   1.935   5.717   4.450 -0.0663 -0.2309  0.1206
 7980TIP3    H123904   1.870   5.739   4.516 -1.4459 -0.9174 -0.9574
 7980TIP3    H223905   1.988   5.649   4.492 -1.0732 -0.8338  0.4672
 7981TIP3   OH223906   1.913   5.427   0.061 -0.7273 -0.3802 -0.1938
 7981TIP3    H123907   1.974   5.389   0.125 -0.8802 -0.0189  0.1755
 7981TIP3    H223908   1.860   5.354   0.032  1.0788 -1.0992 -1.9378
 7982TIP3   OH223909   1.483   5.944   5.534  0.0631  0.1801 -0.8226
 7982TIP3    H123910   1.420   5.992   5.480  0.5172  1.7942 -0.0042
 7982TIP3    H223911   1.435   5.869   5.567 -1.6896  1.7236  0.3210
 7983TIP3   OH223912   5.526   6.188   4.642  0.4581 -0.2345 -0.3918
 7983TIP3    H123913   5.469   6.116   4.615  1.2386 -1.4617  1.0585
 7983TIP3    H223914   5.610   6.169   4.599  0.2262  0.7170 -1.2947
 7984TIP3   OH223915   4.557   1.870   0.303  0.4794  0.0363 -0.2837
 7984TIP3    H123916   4.599   1.908   0.226  1.5118  1.8104  1.0817
 7984TIP3    H223917   4.565   1.938   0.370  0.1409 -1.6825  1.5649
 7985TIP3   OH223918   5.414   1.653   2.343 -0.2608 -0.0032  0.1040
 7985TIP3    H123919   5.437   1.635   2.434  0.4799 -1.7148 -0.3989
 7985TIP3    H223920   5.365   1.736   2.347  1.8117  1.2362  1.7724
 7986TIP3   OH223921   7.183   3.705   2.477  0.3326 -0.0122  0.1434
 7986TIP3    H123922   7.206   3.752   2.397  0.0500  1.2482  0.7774
 7986TIP3    H223923   7.200   3.613   2.456  0.6043  0.3226 -1.2369
 7987TIP3   OH223924   6.372   1.648   3.372 -0.1343 -0.6533 -0.7404
 7987TIP3    H123925   6.365   1.742   3.389  0.7184 -0.8067  0.6242
 7987TIP3    H223926   6.292   1.626   3.323 -1.5326  0.3416  0.9750
 7988TIP3   OH223927   5.915   6.701   3.343 -0.0220  0.5818  0.0083
 7988TIP3    H123928   5.947   6.699   3.253 -1.8624 -0.0940 -0.6648
 7988TIP3    H223929   5.893   6.610   3.362  0.6520  0.6621  1.2804
 7989TIP3   OH223930   4.457   0.045   1.713 -0.0063 -0.0420 -0.3733
 7989TIP3    H123931   4.393   0.067   1.781  2.7516  0.9562  2.0845
 7989TIP3    H223932   4.481   0.129   1.675  1.7952 -0.0335  0.6835
 7990TIP3   OH223933   1.004   5.277   5.134 -0.1113 -0.0749  0.4490
 7990TIP3    H123934   1.029   5.291   5.043 -0.2758  0.9869  0.5539
 7990TIP3    H223935   1.075   5.318   5.184 -1.5461  2.2056  0.7605
 7991TIP3   OH223936   6.474   6.579   4.532 -0.2439 -0.0554 -0.2986
 7991TIP3    H123937   6.450   6.664   4.495 -3.0779 -1.4021 -1.8699
 7991TIP3    H223938   6.569   6.585   4.546 -0.4368  3.6070  0.5035
 7992TIP3   OH223939   0.183   0.002   4.113  0.2473 -0.2619 -0.3944
 7992TIP3    H123940   0.111   0.064   4.129  1.2157  0.6176  0.7253
 7992TIP3    H223941   0.223  -0.011   4.199  2.5133  0.6137 -1.2527
 7993TIP3   OH223942   2.093   5.215   1.975 -0.2986  0.3581 -0.2720
 7993TIP3    H123943   2.116   5.279   2.043  1.3802 -0.0937 -0.3610
 7993TIP3    H223944   2.137   5.247   1.897  0.1818 -0.6445 -0.4298
 7994TIP3   OH223945   3.012   1.763   4.450 -0.1309  0.7044  0.1920
 7994TIP3    H123946   3.056   1.690   4.407 -1.2023  0.5418 -0.6850
 7994TIP3    H223947   3.078   1.833   4.452  0.3040  0.3374 -0.7134
 7995TIP3   OH223948   6.190   0.156   4.571 -0.0817 -0.0646  0.1573
 7995TIP3    H123949   6.274   0.181   4.534  0.0043 -1.5647 -0.7685
 7995TIP3    H223950   6.128   0.221   4.537  0.4756  0.2132 -0.3409
 7996TIP3   OH223951   7.092   5.010   1.827  0.2084  0.3553  0.6649
 7996TIP3    H123952   7.106   5.080   1.763  0.2633 -0.9196 -0.7738
 7996TIP3    H223953   7.180   4.980   1.848  0.1493  0.1477  0.6160
 7997TIP3   OH223954   6.979   4.780   0.044  0.4865  0.0431 -0.4052
 7997TIP3    H123955   6.885   4.796   0.051  0.3204 -1.5962  2.8929
 7997TIP3    H223956   6.988   4.727  -0.036 -1.3838  0.2130 -0.7841
 7998TIP3   OH223957   0.531   3.761   0.714  0.4198  0.2600 -0.0685
 7998TIP3    H123958   0.484   3.694   0.663  1.1345 -0.8335  0.6544
 7998TIP3    H223959   0.606   3.784   0.660  0.2079  0.4254 -0.2920
 7999TIP3   OH223960   2.934   1.858   3.272  0.3520 -0.4712  0.2381
 7999TIP3    H123961   2.967   1.946   3.291  0.0947  0.1052 -1.7315
 7999TIP3    H223962   2.841   1.870   3.256 -0.0373 -1.4169  1.6483
 8000TIP3   OH223963   5.335   4.871   2.120 -0.1059 -0.2156  0.3227
 8000TIP3    H123964   5.418   4.908   2.092 -1.1059 -0.5022 -3.6324
 8000TIP3    H223965   5.352   4.777   2.129  0.3559 -0.0509  1.2645
 8001TIP3   OH223966   5.583   4.949   2.303  0.2340  0.5993 -0.6526
 8001TIP3    H123967   5.589   4.854   2.313 -1.1260  0.5136 -0.5018
 8001TIP3    H223968   5.656   4.972   2.245 -0.0116 -0.6710 -1.5013
 8002TIP3   OH223969   3.698   6.083   4.469 -0.8384  0.1096  0.0048
 8002TIP3    H123970   3.693   6.003   4.416 -2.2788  1.3415 -1.8574
 8002TIP3    H223971   3.608   6.113   4.476 -0.2493  2.0941 -0.2243
 8003TIP3   OH223972   6.883   6.239   4.593  0.4780  0.3202 -0.0741
 8003TIP3    H123973   6.965   6.235   4.643 -0.6869  2.4014  2.2004
 8003TIP3    H223974   6.862   6.148   4.575  0.8061 -0.6967  3.7253
 8004TIP3   OH223975   3.419   0.444   4.128  0.5427 -0.3389  0.2479
 8004TIP3    H123976   3.443   0.438   4.220 -1.3790 -0.2068  0.7887
 8004TIP3    H223977   3.455   0.527   4.098  0.0762  0.2246  1.2309
 8005TIP3   OH223978   2.297   2.672   3.098  0.0225  0.7185 -0.3596
 8005TIP3    H123979   2.301   2.583   3.061  2.3654 -0.1747  1.7622
 8005TIP3    H223980   2.336   2.728   3.031 -0.4674 -0.0104 -1.2772
 8006TIP3   OH223981   2.789   2.168   3.370  0.1528 -0.1039 -0.3676
 8006TIP3    H123982   2.720   2.193   3.308 -0.5245 -1.3923 -0.1683
 8006TIP3    H223983   2.870   2.179   3.321 -0.2599  0.4839 -0.9386
 8007TIP3   OH223984   1.355   6.763   4.736  0.3543 -0.0458  0.2979
 8007TIP3    H123985   1.409   6.752   4.814 -0.5321  1.6225  1.2068
 8007TIP3    H223986   1.408   6.818   4.679  0.1753  0.4572  0.6111
 8008TIP3   OH223987   2.110   0.889   0.472 -0.2452 -0.3581 -0.2098
 8008TIP3    H123988   2.158   0.964   0.437  2.5101 -1.5174  0.7993
 8008TIP3    H223989   2.148   0.813   0.428 -0.5124 -1.4048  1.2650
 8009TIP3   OH223990   3.302   3.897   1.205 -0.3443  0.1663 -0.2684
 8009TIP3    H123991   3.306   3.881   1.299  0.8934  2.9156  0.2509
 8009TIP3    H223992   3.385   3.865   1.171 -0.6928 -0.6050 -0.4291
 8010TIP3   OH223993   3.550   0.226   4.560 -0.3762 -0.6591  0.1620
 8010TIP3    H123994   3.500   0.281   4.620  0.9017 -1.2173  1.8385
 8010TIP3    H223995   3.540   0.267   4.474 -1.1679  0.9482  0.9890
 8011TIP3   OH223996   6.651   6.428   1.873 -0.0754 -0.1468 -0.0389
 8011TIP3    H123997   6.680   6.518   1.856  1.3919 -0.2925  1.4514
 8011TIP3    H223998   6.584   6.411   1.807  1.0607  1.3317 -1.6379
 8012TIP3   OH223999   1.702   5.683   3.975  0.1713  0.5822 -0.5712
 8012TIP3    H124000   1.619   5.710   3.934  0.3471  0.0737 -1.2819
 8012TIP3    H224001   1.700   5.724   4.061 -2.3284 -1.9655  0.7808
 8013TIP3   OH224002   0.605   0.854   3.365 -0.2035  0.3110  0.7402
 8013TIP3    H124003   0.692   0.879   3.397 -0.5031 -0.4918  2.2975
 8013TIP3    H224004   0.581   0.779   3.420 -1.9094  0.5682  0.3786
 8014TIP3   OH224005   1.968   5.782   3.890  0.2031 -0.5370 -0.5068
 8014TIP3    H124006   1.965   5.782   3.794 -0.4599  0.3301 -0.5031
 8014TIP3    H224007   1.910   5.710   3.916 -1.5315  0.6921 -0.7623
 8015TIP3   OH224008   1.513   1.010   3.511  0.3801  0.5697  0.0610
 8015TIP3    H124009   1.572   0.945   3.472  0.2299  1.2951 -1.4232
 8015TIP3    H224010   1.509   1.080   3.447 -1.1113  1.1152  0.7106
 8016TIP3   OH224011   0.978   2.054   2.646  0.9497  0.5901 -0.2618
 8016TIP3    H124012   1.061   2.100   2.632  1.3332 -0.0977 -0.3008
 8016TIP3    H224013   0.985   1.975   2.594  0.1211  0.6806 -0.5286
 8017TIP3   OH224014   3.029   2.881   4.111  0.5013 -0.5413  0.1092
 8017TIP3    H124015   2.980   2.943   4.057 -0.3137 -1.9039 -0.7927
 8017TIP3    H224016   3.012   2.796   4.071  1.7646 -1.3341  1.1683
 8018TIP3   OH224017   0.749   4.188   1.305 -0.1482 -0.5012  0.4683
 8018TIP3    H124018   0.660   4.203   1.336 -0.8001 -1.2779 -0.9171
 8018TIP3    H224019   0.776   4.273   1.269 -1.5329 -0.9492 -1.8756
 8019TIP3   OH224020   6.109   1.065   2.098  0.2851  0.0080  0.3023
 8019TIP3    H124021   6.144   1.153   2.108  2.1394 -0.6350  0.0088
 8019TIP3    H224022   6.037   1.060   2.160  0.4971  1.5593  0.7035
 8020TIP3   OH224023   2.516   1.976   4.348  0.1277 -0.4179 -0.0703
 8020TIP3    H124024   2.429   1.942   4.327  0.8476 -2.0682 -0.5857
 8020TIP3    H224025   2.559   1.904   4.395  1.4994  0.0520 -0.5525
 8021TIP3   OH224026   5.479   3.212   3.386 -0.3472  0.1697 -0.2759
 8021TIP3    H124027   5.495   3.267   3.463 -2.0256  0.7115 -0.2809
 8021TIP3    H224028   5.537   3.248   3.318 -0.1548  0.8146  0.2246
 8022TIP3   OH224029   0.676   5.960   1.561  0.0774  0.6146  0.3744
 8022TIP3    H124030   0.661   6.020   1.487 -0.3023 -1.2086 -1.0970
 8022TIP3    H224031   0.667   5.873   1.523  3.6498 -0.5082  1.7605
 8023TIP3   OH224032   3.354   2.307   2.345 -0.8476 -0.0763  0.1011
 8023TIP3    H124033   3.386   2.264   2.266  0.1619  0.4153  0.2255
 8023TIP3    H224034   3.344   2.399   2.320  2.2652  0.7125  1.2371
 8024TIP3   OH224035   1.964   1.935   3.639  0.7253 -0.0729 -0.6827
 8024TIP3    H124036   1.914   1.854   3.649  0.7049  0.0322  0.1295
 8024TIP3    H224037   2.037   1.926   3.700  0.5500  0.6491 -0.3537
 8025TIP3   OH224038   1.918   5.581   3.100  0.1798 -0.0940 -0.3120
 8025TIP3    H124039   1.855   5.591   3.172  0.8124 -0.0756  0.2505
 8025TIP3    H224040   1.912   5.663   3.051  0.8514  0.5422  0.6351
 8026TIP3   OH224041   3.255   4.223   4.915  0.7583  0.4127  0.2075
 8026TIP3    H124042   3.264   4.297   4.856 -1.3491  0.4738 -0.1024
 8026TIP3    H224043   3.331   4.168   4.896  0.6688  0.9213 -1.8473
 8027TIP3   OH224044   6.187   4.085   1.287 -0.1629 -0.0874 -0.1446
 8027TIP3    H124045   6.213   4.155   1.227  2.2988 -0.5241  0.2895
 8027TIP3    H224046   6.118   4.038   1.241 -1.3502  2.1138 -0.7701
 8028TIP3   OH224047   2.116   3.332   0.620 -0.2876  0.8668  0.4890
 8028TIP3    H124048   2.038   3.384   0.639 -0.2487  0.7088  1.0977
 8028TIP3    H224049   2.083   3.244   0.600 -0.4253  1.3014 -1.4189
 8029TIP3   OH224050   0.567   5.067   0.999 -0.0996  0.2144 -0.2222
 8029TIP3    H124051   0.584   5.035   0.910  0.4345  0.6104 -0.2630
 8029TIP3    H224052   0.574   5.162   0.993 -3.0495  0.5166 -0.3987
 8030TIP3   OH224053   3.092   5.321   2.761  0.0923  0.2810  0.4340
 8030TIP3    H124054   3.001   5.295   2.745 -0.0222  1.4560 -1.0092
 8030TIP3    H224055   3.138   5.298   2.680  1.1949 -0.7197  1.3176
 8031TIP3   OH224056   5.208  -0.004   3.651  0.1826  0.6119  0.1608
 8031TIP3    H124057   5.116   0.015   3.636 -0.7763 -0.6348  3.5824
 8031TIP3    H224058   5.253   0.079   3.634 -1.7742  1.7415  0.1798
 8032TIP3   OH224059   5.796   3.320   1.605 -0.2283 -0.4329 -0.0125
 8032TIP3    H124060   5.874   3.372   1.627  0.1014 -0.2982 -1.3804
 8032TIP3    H224061   5.749   3.311   1.687  0.1841  1.2641  0.4580
 8033TIP3   OH224062   5.992   0.570   0.252 -0.3823  0.4370 -0.4790
 8033TIP3    H124063   5.975   0.664   0.244 -1.9380  0.1170 -1.2872
 8033TIP3    H224064   6.087   0.562   0.240 -0.2247  1.8845 -0.4392
 8034TIP3   OH224065   3.655   3.344   2.439  0.3323 -0.3942  0.6238
 8034TIP3    H124066   3.743   3.326   2.408 -0.6361 -1.4023 -1.8151
 8034TIP3    H224067   3.625   3.416   2.384 -0.2804  0.1625  1.6490
 8035TIP3   OH224068   4.206   2.259   0.695  0.5312 -0.1080  0.3758
 8035TIP3    H124069   4.229   2.168   0.713  1.6145 -0.5595 -2.6711
 8035TIP3    H224070   4.251   2.279   0.613 -0.7580  2.7729  0.2557
 8036TIP3   OH224071   5.337   2.058   5.031 -0.4162  0.0884 -0.6604
 8036TIP3    H124072   5.335   2.153   5.018  2.3368  0.7129  2.1892
 8036TIP3    H224073   5.246   2.034   5.052 -0.8215  2.4528  0.5382
 8037TIP3   OH224074   3.490   3.571   1.465 -0.7433 -0.0502 -0.7072
 8037TIP3    H124075   3.572   3.586   1.417  0.3743  0.3813  1.2094
 8037TIP3    H224076   3.469   3.479   1.450  0.6664 -0.4359 -0.4111
 8038TIP3   OH224077   3.906   6.686   0.945 -0.1723  0.2387 -0.1619
 8038TIP3    H124078   3.903   6.647   0.858 -1.5543 -1.3545  0.5441
 8038TIP3    H224079   3.990   6.658   0.981  0.5307  1.1417 -1.0677
 8039TIP3   OH224080   1.415   4.020   2.340  0.2661  0.0605  0.3338
 8039TIP3    H124081   1.444   4.050   2.426  0.8156 -0.5421  0.3621
 8039TIP3    H224082   1.433   3.926   2.340  0.9109  0.1726 -0.6965
 8040TIP3   OH224083   3.477   4.823   4.269 -0.3870  0.0959 -0.0999
 8040TIP3    H124084   3.569   4.810   4.294 -0.2295 -0.7444 -1.0369
 8040TIP3    H224085   3.476   4.908   4.225  0.3317 -0.6903 -1.7283
 8041TIP3   OH224086   3.723   6.395   3.050 -0.0045  0.5386 -0.1811
 8041TIP3    H124087   3.688   6.307   3.051  3.3904 -0.9903  0.0893
 8041TIP3    H224088   3.711   6.427   3.139  1.4799 -0.9615  0.6153
 8042TIP3   OH224089   6.277   2.926   5.077 -0.3413 -0.0936 -0.0582
 8042TIP3    H124090   6.252   2.836   5.095 -1.5981  0.0346 -1.0491
 8042TIP3    H224091   6.306   2.925   4.986 -1.1087  0.6501 -0.3167
 8043TIP3   OH224092   3.819   2.136   3.236  0.0331  0.1155 -0.0384
 8043TIP3    H124093   3.811   2.172   3.324  1.5509  0.9980 -0.2233
 8043TIP3    H224094   3.843   2.211   3.182  0.9786 -0.7591 -0.8694
 8044TIP3   OH224095   1.241   4.705   2.848 -0.7002  0.7793 -0.2010
 8044TIP3    H124096   1.167   4.731   2.903 -0.2804  0.3690  0.5841
 8044TIP3    H224097   1.205   4.698   2.760 -0.9212  3.6812 -0.4388
 8045TIP3   OH224098   4.986   5.958   2.850 -0.4330  0.0657  0.2575
 8045TIP3    H124099   5.006   5.956   2.757  0.4761 -0.8307  0.4444
 8045TIP3    H224100   4.898   5.923   2.857 -0.5034  0.1324 -0.2616
 8046TIP3   OH224101   3.550   4.952   4.684  0.3256  0.3714  0.5513
 8046TIP3    H124102   3.460   4.931   4.661  1.4552 -1.8919 -2.3784
 8046TIP3    H224103   3.556   4.931   4.778 -2.3727  1.5614  1.0678
 8047TIP3   OH224104   7.189   0.847   3.607  0.4424  0.7838  0.0700
 8047TIP3    H124105   7.155   0.759   3.619  1.2036  0.4486 -0.1566
 8047TIP3    H224106   7.116   0.905   3.629 -0.1184  0.0961  0.0341
 8048TIP3   OH224107   4.907   3.327   0.459  0.0819 -0.3926  0.7086
 8048TIP3    H124108   4.986   3.351   0.507 -0.1335  0.2659  0.7425
 8048TIP3    H224109   4.933   3.329   0.367  0.0613  0.0021  0.7097
 8049TIP3   OH224110   5.103   4.195   3.605  0.5192 -0.2000  0.1554
 8049TIP3    H124111   5.139   4.112   3.637  1.6317 -0.4240 -1.5636
 8049TIP3    H224112   5.022   4.171   3.561  1.6942 -0.6691 -1.8535
 8050TIP3   OH224113   5.347   4.955   3.731  0.6043 -0.0737 -0.0934
 8050TIP3    H124114   5.369   4.873   3.689 -0.8588 -0.2582 -0.5602
 8050TIP3    H224115   5.301   4.930   3.811 -1.5853  0.2148 -1.1764
 8051TIP3   OH224116   5.470   1.038   5.290 -0.6350 -0.4862 -0.2536
 8051TIP3    H124117   5.502   1.062   5.377 -0.3203  0.6805 -0.6695
 8051TIP3    H224118   5.438   1.120   5.253 -2.6118 -1.2940 -0.4988
 8052TIP3   OH224119   1.299   4.529   0.078  0.0876  0.2926 -0.0642
 8052TIP3    H124120   1.270   4.473   0.150 -2.1946  0.1272 -1.0151
 8052TIP3    H224121   1.379   4.488   0.046 -0.5941 -1.4490  0.3546
 8053TIP3   OH224122   6.631   3.325   0.878  0.4442 -0.1438 -0.3466
 8053TIP3    H124123   6.687   3.288   0.946  0.9342 -0.8357 -1.1224
 8053TIP3    H224124   6.543   3.324   0.917  0.9268  1.0079  0.9045
 8054TIP3   OH224125   6.750   0.931   4.679  0.2120 -0.0582  0.0177
 8054TIP3    H124126   6.842   0.905   4.685  0.2072 -0.3667 -0.9772
 8054TIP3    H224127   6.747   1.018   4.720  0.3608 -1.2429  2.7414
 8055TIP3   OH224128   3.723   5.007   0.716 -0.7105  0.0825  0.3538
 8055TIP3    H124129   3.688   5.094   0.698 -1.0401 -0.4067 -1.5907
 8055TIP3    H224130   3.653   4.961   0.760 -1.2620  0.2191 -0.3559
 8056TIP3   OH224131   6.528   3.269   2.316 -0.4133  0.1126 -0.4205
 8056TIP3    H124132   6.609   3.269   2.265 -1.1159  0.4161 -1.5578
 8056TIP3    H224133   6.467   3.216   2.265 -0.5675 -1.2472  1.0815
 8057TIP3   OH224134   4.446   3.559   3.279 -0.1018 -0.0110 -0.7000
 8057TIP3    H124135   4.496   3.629   3.235 -1.2532  0.6194 -1.0345
 8057TIP3    H224136   4.469   3.479   3.231  0.1154  0.3711 -1.2388
 8058TIP3   OH224137   2.601   5.066   5.183 -0.0835 -0.0583  0.4331
 8058TIP3    H124138   2.524   5.029   5.141 -0.5060  1.6157 -0.3189
 8058TIP3    H224139   2.582   5.159   5.192  0.1801 -0.2048  3.9288
 8059TIP3   OH224140   3.940   0.818   3.484 -0.2358 -0.0703  0.4368
 8059TIP3    H124141   3.937   0.761   3.407  0.4142  1.0046 -0.4192
 8059TIP3    H224142   4.032   0.841   3.493 -0.7457  3.0432 -0.9729
 8060TIP3   OH224143   5.724   4.796   4.071 -0.3340  0.1903  0.2780
 8060TIP3    H124144   5.641   4.751   4.053 -0.1722  0.3645 -0.9842
 8060TIP3    H224145   5.791   4.737   4.037 -0.0288  0.6956 -0.0048
 8061TIP3   OH224146   6.100   6.698   5.671 -0.4679  0.0646  0.2105
 8061TIP3    H124147   6.144   6.691   5.586  0.8977  0.5026  0.8448
 8061TIP3    H224148   6.103   6.791   5.691 -0.5284 -0.0693  0.8527
 8062TIP3   OH224149   7.082   6.556   2.930  0.0595  0.5025  0.6433
 8062TIP3    H124150   7.047   6.508   3.005 -0.0659  0.1842  0.3839
 8062TIP3    H224151   7.174   6.571   2.952  1.1520 -3.0641 -0.7895
 8063TIP3   OH224152   2.023   0.943   2.495  0.0599  0.7472  0.8233
 8063TIP3    H124153   2.106   0.985   2.520 -0.3744  1.0881  1.7582
 8063TIP3    H224154   1.966   0.959   2.570 -0.6810  0.0346  0.4137
 8064TIP3   OH224155   1.848   6.436   3.643  0.2240 -0.2821  0.1270
 8064TIP3    H124156   1.807   6.521   3.627  0.0797 -0.4861 -0.6616
 8064TIP3    H224157   1.829   6.417   3.735  0.6479  0.7390  0.4452
 8065TIP3   OH224158   3.841   2.423   3.216 -0.2633 -0.4565  0.4361
 8065TIP3    H124159   3.789   2.396   3.292 -0.9276 -0.8573 -0.1429
 8065TIP3    H224160   3.901   2.489   3.250 -0.6772 -0.4946  1.2699
 8066TIP3   OH224161   6.961   4.577   3.212  0.1341 -0.0539  0.0521
 8066TIP3    H124162   6.897   4.648   3.207 -0.4409 -0.5080  0.7565
 8066TIP3    H224163   7.026   4.608   3.274 -1.8070 -1.3737  2.9958
 8067TIP3   OH224164   2.692   6.704   4.588  0.2668 -0.5317  0.1610
 8067TIP3    H124165   2.608   6.694   4.633  1.0856 -1.4094  1.5379
 8067TIP3    H224166   2.721   6.614   4.572  1.3361 -0.2351  0.4249
 8068TIP3   OH224167   3.363   2.707   4.932  0.2071  0.4465  0.0187
 8068TIP3    H124168   3.374   2.646   4.859  0.4315  1.3454 -0.7175
 8068TIP3    H224169   3.375   2.653   5.010  3.9143  0.1199 -0.5882
 8069TIP3   OH224170   6.150   2.843   4.510  0.2809  0.0224 -0.0451
 8069TIP3    H124171   6.232   2.815   4.470 -0.2759  2.4238 -3.1886
 8069TIP3    H224172   6.172   2.923   4.557  0.0258 -0.2801  0.6082
 8070TIP3   OH224173   1.305   2.282   1.948 -0.3056 -0.4618 -0.1868
 8070TIP3    H124174   1.338   2.226   1.878 -0.3873 -1.2363  0.3756
 8070TIP3    H224175   1.216   2.304   1.922 -0.2822 -0.6204 -0.4001
 8071TIP3   OH224176   2.998   1.360   0.157 -0.2708 -0.0101 -0.2323
 8071TIP3    H124177   2.989   1.269   0.130  1.1053 -0.1046 -0.4725
 8071TIP3    H224178   2.945   1.410   0.095 -2.1832 -0.7246  0.7386
 8072TIP3   OH224179   5.679   2.691   0.235 -0.4726  0.0912  0.2756
 8072TIP3    H124180   5.748   2.733   0.184 -1.3684  1.2205 -0.0419
 8072TIP3    H224181   5.723   2.617   0.278  0.5525 -0.2632 -1.2704
 8073TIP3   OH224182   4.701   4.898   0.344 -0.0491  0.2254  0.1777
 8073TIP3    H124183   4.745   4.939   0.269 -0.6445  0.1697 -0.2114
 8073TIP3    H224184   4.663   4.817   0.308  0.8263 -0.5148  0.8533
 8074TIP3   OH224185   6.947   0.040   3.732  0.0949  0.5110 -0.1470
 8074TIP3    H124186   7.032   0.040   3.776 -0.5926  0.1775  1.2196
 8074TIP3    H224187   6.887  -0.000   3.795 -1.5352  2.7430 -0.1435
 8075TIP3   OH224188   1.038   6.474   1.367  0.4064  0.4364 -0.2834
 8075TIP3    H124189   1.007   6.436   1.285  1.8011  1.5432 -1.3977
 8075TIP3    H224190   0.963   6.524   1.400 -0.3040 -0.3625 -0.6521
 8076TIP3   OH224191   3.282   2.992   2.558 -0.0597  0.0594  0.1583
 8076TIP3    H124192   3.252   2.931   2.626 -1.1454  1.1005  0.6605
 8076TIP3    H224193   3.309   3.070   2.607 -1.8830  1.2517 -0.5991
 8077TIP3   OH224194   3.770   4.871   4.110  0.0094  0.2718 -0.4418
 8077TIP3    H124195   3.809   4.939   4.164 -2.6469  1.2906  0.3700
 8077TIP3    H224196   3.689   4.847   4.156 -1.1163 -0.5921 -2.7005
 8078TIP3   OH224197   7.088   6.149   4.426 -0.4869 -1.0801  0.2769
 8078TIP3    H124198   7.107   6.178   4.516 -0.4696  0.4617 -0.2060
 8078TIP3    H224199   7.170   6.111   4.395  0.0317 -0.0137  0.3146
 8079TIP3   OH224200   5.423   2.066   4.735  0.5174  0.0205  0.3721
 8079TIP3    H124201   5.436   2.012   4.657 -1.3648  0.2240 -0.1375
 8079TIP3    H224202   5.440   2.006   4.808  0.3022 -0.7506 -0.1939
 8080TIP3   OH224203   5.069   5.580   5.206  0.5541 -0.3623  0.7492
 8080TIP3    H124204   5.070   5.591   5.302 -0.6841 -0.5922  0.8038
 8080TIP3    H224205   4.988   5.532   5.189 -0.1276  1.1715 -0.5722
 8081TIP3   OH224206   0.173   4.633   2.629 -0.1627  0.0732  0.2279
 8081TIP3    H124207   0.231   4.695   2.672  0.6356 -1.6479  1.7585
 8081TIP3    H224208   0.090   4.640   2.677 -1.1210  2.0970 -1.5744
 8082TIP3   OH224209   1.820   2.501   1.419 -0.0834  0.2696 -0.0101
 8082TIP3    H124210   1.731   2.477   1.395 -0.0574  0.5588 -0.4101
 8082TIP3    H224211   1.873   2.474   1.344 -0.2353  2.8606 -1.1706
 8083TIP3   OH224212   4.655   5.057   1.572  0.2622 -0.2383  0.1896
 8083TIP3    H124213   4.694   4.971   1.560 -1.2554 -0.8710 -0.3892
 8083TIP3    H224214   4.652   5.095   1.484 -1.8123 -0.8586 -0.0699
 8084TIP3   OH224215   0.492   2.835   0.298 -0.0132  0.0930  0.6682
 8084TIP3    H124216   0.531   2.772   0.237  0.3411  0.0635  0.9237
 8084TIP3    H224217   0.412   2.865   0.253 -0.5596 -1.0486  0.8222
 8085TIP3   OH224218   6.386   4.556   5.694  0.4792 -0.2261  0.1515
 8085TIP3    H124219   6.345   4.608   5.763 -0.1041  2.0855 -1.8080
 8085TIP3    H224220   6.318   4.547   5.627  1.1750 -1.9884 -0.3778
 8086TIP3   OH224221   1.259   3.118   2.712  0.5045  0.3457 -0.1052
 8086TIP3    H124222   1.351   3.089   2.712  0.6433  0.7065 -1.7444
 8086TIP3    H224223   1.212   3.046   2.754  1.3785 -0.3833 -0.3333
 8087TIP3   OH224224   0.245   4.476   2.377 -0.2309 -0.0312  0.0170
 8087TIP3    H124225   0.167   4.426   2.353 -0.7085  1.0878 -0.8317
 8087TIP3    H224226   0.230   4.500   2.469 -0.6574 -0.2417  0.0071
 8088TIP3   OH224227   4.751   4.029   4.015  0.2896 -0.2230  0.4717
 8088TIP3    H124228   4.668   4.077   4.012  0.3166 -0.2403 -0.7497
 8088TIP3    H224229   4.816   4.095   4.041  0.1694  0.1918 -0.2651
 8089TIP3   OH224230   6.615   1.250   5.470 -0.0901 -0.4308 -0.6700
 8089TIP3    H124231   6.607   1.244   5.375  1.1045  0.1588 -0.8280
 8089TIP3    H224232   6.653   1.337   5.485  2.1145 -1.4672  0.1637
 8090TIP3   OH224233   6.103   3.777   4.233  0.4736 -0.6210  0.0305
 8090TIP3    H124234   6.044   3.717   4.187  0.0696  0.1970 -0.5478
 8090TIP3    H224235   6.111   3.853   4.175 -0.9886  0.9672  1.7605
 8091TIP3   OH224236   0.752   4.592   1.479 -0.2398 -0.3168 -0.0343
 8091TIP3    H124237   0.826   4.610   1.537  1.2857 -1.6972 -1.4754
 8091TIP3    H224238   0.756   4.662   1.414 -1.5612  0.8493  1.0550
 8092TIP3   OH224239   3.624   4.542   4.611  0.0992 -0.3721  0.1250
 8092TIP3    H124240   3.560   4.574   4.548 -0.7023 -0.0766  1.0465
 8092TIP3    H224241   3.693   4.608   4.612  0.3160 -0.5770 -0.7166
 8093TIP3   OH224242   0.298   2.957   1.908  0.3625 -0.1765  0.5346
 8093TIP3    H124243   0.372   3.006   1.870 -0.9056  0.7524 -0.8740
 8093TIP3    H224244   0.339   2.894   1.967  2.3297 -0.1769 -0.7265
 8094TIP3   OH224245   2.888   1.448   3.206  0.3340 -0.3230  0.1306
 8094TIP3    H124246   2.914   1.506   3.276 -0.1621 -0.3297  0.3195
 8094TIP3    H224247   2.971   1.410   3.175  0.5840 -0.0775  0.4897
 8095TIP3   OH224248   1.336   1.624   4.429 -0.3988 -0.1153 -0.5220
 8095TIP3    H124249   1.314   1.531   4.425  0.8938 -0.4922  0.7449
 8095TIP3    H224250   1.268   1.666   4.375 -1.4501 -1.6893 -0.4977
 8096TIP3   OH224251   0.456   2.421   5.682  0.1734  0.4479 -0.6333
 8096TIP3    H124252   0.517   2.432   5.609 -0.1235  0.8703 -0.8198
 8096TIP3    H224253   0.373   2.398   5.641 -0.0800  1.0225 -0.4594
 8097TIP3   OH224254   0.883   3.915   0.966 -0.4569 -0.0946  0.3170
 8097TIP3    H124255   0.803   3.957   0.934 -0.4429 -0.9805 -0.9598
 8097TIP3    H224256   0.878   3.826   0.932  0.7121 -0.3939  0.8865
 8098TIP3   OH224257   1.985   1.537   2.397  0.0910 -0.2452  0.7404
 8098TIP3    H124258   2.029   1.482   2.462 -0.9939  0.1528  1.8530
 8098TIP3    H224259   1.906   1.568   2.442 -1.5261 -1.2137 -1.2707
 8099TIP3   OH224260   3.414   2.249   2.645  0.5170 -0.1885  0.1694
 8099TIP3    H124261   3.452   2.330   2.677 -0.2944  0.3414 -0.1663
 8099TIP3    H224262   3.421   2.256   2.549 -0.9046  0.1845  0.0705
 8100TIP3   OH224263   1.253   1.573   0.369  0.1746  0.0488  0.2639
 8100TIP3    H124264   1.225   1.602   0.456  0.7808  1.2188  0.0926
 8100TIP3    H224265   1.172   1.549   0.325 -0.0489 -1.7336  1.5259
 8101TIP3   OH224266   2.261   1.260   0.646  0.5521  0.0646  0.0965
 8101TIP3    H124267   2.186   1.201   0.637 -1.2986  2.0942  1.1470
 8101TIP3    H224268   2.295   1.243   0.733  1.8256 -1.3418 -0.6334
 8102TIP3   OH224269   0.369   0.410   4.433  0.2220 -0.2678 -0.0532
 8102TIP3    H124270   0.330   0.367   4.510  1.3502 -1.6636 -0.2208
 8102TIP3    H224271   0.459   0.430   4.459  0.3138  0.1588 -0.6782
 8103TIP3   OH224272   6.027   1.716   5.693  0.4384  0.4129  0.5374
 8103TIP3    H124273   6.119   1.736   5.676  0.7168 -0.3696  1.0597
 8103TIP3    H224274   6.029   1.655   5.767 -0.4168 -0.5430 -0.1967
 8104TIP3   OH224275   0.440   3.211   4.641 -0.1182 -0.3160  0.4759
 8104TIP3    H124276   0.447   3.123   4.677  1.8344  0.7306  2.8907
 8104TIP3    H224277   0.395   3.261   4.708 -1.9646  0.4389 -1.2084
 8105TIP3   OH224278   2.322   5.035   2.036 -0.1375 -0.1910 -0.4852
 8105TIP3    H124279   2.239   4.995   2.010 -0.4889 -0.6554  1.2071
 8105TIP3    H224280   2.377   5.028   1.958 -1.4382 -0.5372 -1.4134
 8106TIP3   OH224281   3.987   4.118   1.492 -0.1300 -0.0243 -0.1754
 8106TIP3    H124282   3.900   4.158   1.487 -0.2136 -0.0260  0.9196
 8106TIP3    H224283   3.981   4.038   1.440 -0.3652  0.6838 -1.2594
 8107TIP3   OH224284   2.048   5.532   2.311  0.0124 -0.3751 -0.0161
 8107TIP3    H124285   1.955   5.552   2.299  0.1499  0.3274  0.0376
 8107TIP3    H224286   2.093   5.592   2.252  0.4259 -0.7491 -0.0777
 8108TIP3   OH224287   3.193   4.950   1.519  0.1044 -0.2475 -0.5568
 8108TIP3    H124288   3.197   5.031   1.570 -0.9539 -1.3507  1.3901
 8108TIP3    H224289   3.269   4.954   1.461  0.5423  1.7380  0.0831
 8109TIP3   OH224290   3.211   5.930   4.225  0.5374  0.1383 -0.2398
 8109TIP3    H124291   3.276   5.950   4.293 -0.0947 -2.7996  1.3899
 8109TIP3    H224292   3.230   5.840   4.198 -0.3871  0.5887 -2.7122
 8110TIP3   OH224293   1.102   1.026   3.897 -0.1462  0.2884  0.1740
 8110TIP3    H124294   1.139   1.113   3.880  0.3338 -0.4561 -3.5411
 8110TIP3    H224295   1.007   1.039   3.893 -0.0858  0.7326  0.0881
 8111TIP3   OH224296   4.996   4.528   2.458 -0.1499 -0.2509 -0.0406
 8111TIP3    H124297   4.995   4.491   2.546  0.2878 -0.7944 -0.2559
 8111TIP3    H224298   5.043   4.463   2.405  0.2676  0.4164 -0.5170
 8112TIP3   OH224299   4.896   0.992   4.352  0.2091 -0.1986  0.1892
 8112TIP3    H124300   4.803   1.011   4.349  0.2504  0.1606  1.0731
 8112TIP3    H224301   4.910   0.951   4.437  0.5095 -2.2205 -0.7704
 8113TIP3   OH224302   2.878   4.565   2.833  0.1812 -0.0807  0.2126
 8113TIP3    H124303   2.816   4.518   2.889  0.5490 -2.1278 -1.0022
 8113TIP3    H224304   2.910   4.499   2.771  2.7564  1.1697  0.0777
 8114TIP3   OH224305   2.738   6.609   4.920  0.0657  0.0460  0.4843
 8114TIP3    H124306   2.729   6.516   4.900 -0.2596 -0.3727  2.3538
 8114TIP3    H224307   2.819   6.636   4.877  0.2720 -1.1509  0.0892
 8115TIP3   OH224308   0.812   4.074   5.202  0.3966 -0.0988 -0.2140
 8115TIP3    H124309   0.747   4.082   5.272  0.0863 -0.7434 -0.4152
 8115TIP3    H224310   0.892   4.113   5.238 -0.5277  2.2916 -0.5771
 8116TIP3   OH224311   2.135   3.354   5.920  0.9882  0.1446  0.1233
 8116TIP3    H124312   2.145   3.315   5.833 -0.8713 -1.1271  0.4227
 8116TIP3    H224313   2.078   3.430   5.906  2.5194  1.2933 -0.0709
 8117TIP3   OH224314   3.382   1.763   2.369 -0.0431 -0.0649  0.3666
 8117TIP3    H124315   3.338   1.698   2.424  1.5242 -1.3717  0.1883
 8117TIP3    H224316   3.414   1.829   2.430  0.0536 -0.5125  0.8060
 8118TIP3   OH224317   7.110   0.244   4.864 -0.4147  0.2528  0.1711
 8118TIP3    H124318   7.173   0.201   4.922 -1.8032 -1.9080  0.1703
 8118TIP3    H224319   7.143   0.334   4.856  1.2697 -0.1082  2.1479
 8119TIP3   OH224320   0.470   0.515   1.145 -0.0023 -0.2872  0.2945
 8119TIP3    H124321   0.463   0.603   1.181 -0.0290  0.9582 -2.4655
 8119TIP3    H224322   0.408   0.463   1.196 -2.1959  2.0045  0.1871
 8120TIP3   OH224323   0.824   6.437   3.316 -0.0163 -0.0978 -0.2393
 8120TIP3    H124324   0.865   6.374   3.257  0.0299 -1.0485  0.7781
 8120TIP3    H224325   0.895   6.497   3.340  0.2516 -0.4266 -0.2059
 8121TIP3   OH224326   4.225   4.838   1.868 -0.3150 -0.4000  0.3266
 8121TIP3    H124327   4.218   4.883   1.784 -1.8563 -0.3766  0.4464
 8121TIP3    H224328   4.207   4.746   1.848 -0.8041 -0.3768  0.6419
 8122TIP3   OH224329   0.294   6.411   0.314 -0.5335 -0.1251  0.0262
 8122TIP3    H124330   0.311   6.334   0.260  2.1458 -0.8696  1.7397
 8122TIP3    H224331   0.312   6.486   0.256  2.2057 -0.8860 -0.2470
 8123TIP3   OH224332   4.614   0.936   5.584  0.1934  0.1021 -0.2491
 8123TIP3    H124333   4.670   0.860   5.570  0.5969  0.1013  1.2040
 8123TIP3    H224334   4.526   0.900   5.594  0.0802  0.0101 -1.4591
 8124TIP3   OH224335   1.432   5.679   5.587 -0.3228  0.1419 -0.2466
 8124TIP3    H124336   1.352   5.630   5.605 -0.1490  0.1049  0.4695
 8124TIP3    H224337   1.488   5.661   5.663  0.3626  0.1623 -0.7444
 8125TIP3   OH224338   5.911   6.340   1.292  0.0462 -0.1373 -0.2575
 8125TIP3    H124339   5.999   6.336   1.253 -0.2214 -2.0000 -0.7346
 8125TIP3    H224340   5.897   6.254   1.329 -0.8919  0.7105  1.4572
 8126TIP3   OH224341   5.659   3.383   5.646 -0.4722 -0.3446 -0.6548
 8126TIP3    H124342   5.577   3.334   5.648 -0.6354 -0.0767  1.0333
 8126TIP3    H224343   5.634   3.472   5.620 -0.6623 -0.3559 -0.5056
 8127TIP3   OH224344   5.108   2.203   0.850  0.0633 -0.0999 -0.3906
 8127TIP3    H124345   5.129   2.262   0.922 -0.7647 -0.1837 -0.0720
 8127TIP3    H224346   5.019   2.227   0.824 -0.1009 -0.8750 -0.5831
 8128TIP3   OH224347   7.164   5.355   3.487  0.4931 -0.0825 -0.8160
 8128TIP3    H124348   7.182   5.416   3.559 -1.2871 -0.6729  0.2046
 8128TIP3    H224349   7.162   5.410   3.409  1.5926  0.7191 -0.3136
 8129TIP3   OH224350   3.463   3.173   5.360  0.0906 -0.4341  0.4489
 8129TIP3    H124351   3.410   3.177   5.439 -1.7123 -2.8575 -0.5373
 8129TIP3    H224352   3.538   3.118   5.383  0.5636  0.4034  0.9552
 8130TIP3   OH224353   2.852   1.567   5.075  0.3596  0.2080 -0.0877
 8130TIP3    H124354   2.776   1.583   5.020 -2.4169 -1.4982  2.9099
 8130TIP3    H224355   2.891   1.487   5.040  0.9804  1.1664 -1.7201
 8131TIP3   OH224356   5.917   2.707   3.470 -0.7856  0.3787 -0.2008
 8131TIP3    H124357   5.974   2.632   3.455 -1.7204 -0.0449 -1.9032
 8131TIP3    H224358   5.972   2.771   3.515  0.3970 -0.8085  0.0907
 8132TIP3   OH224359   3.001   5.061   4.506  0.6230  0.7332 -0.3893
 8132TIP3    H124360   3.088   5.072   4.468  0.2125 -1.6415 -2.3086
 8132TIP3    H224361   2.961   4.992   4.453 -2.4928  1.8187  0.3632
 8133TIP3   OH224362   3.091   4.524   1.557  0.0086 -0.1610 -0.0300
 8133TIP3    H124363   3.035   4.479   1.494 -0.3030  0.9594 -0.5704
 8133TIP3    H224364   3.168   4.467   1.565 -0.4170 -0.8367 -0.6195
 8134TIP3   OH224365   3.321   5.097   3.161 -0.0701 -0.3209 -0.5395
 8134TIP3    H124366   3.285   5.166   3.106 -0.1063 -0.3032 -0.4932
 8134TIP3    H224367   3.348   5.029   3.099 -1.3000 -0.8642 -0.4975
 8135TIP3   OH224368   4.488   4.627   0.384 -0.8345 -0.1017 -0.1925
 8135TIP3    H124369   4.510   4.549   0.333  1.3117  1.0936 -1.2500
 8135TIP3    H224370   4.551   4.628   0.456 -0.8796  0.6253 -0.1517
 8136TIP3   OH224371   1.193   1.277   1.119  0.3797  0.1614 -0.9440
 8136TIP3    H124372   1.259   1.336   1.156 -0.1627  1.2042 -1.6016
 8136TIP3    H224373   1.111   1.305   1.159  0.2502 -0.7960 -0.5198
 8137TIP3   OH224374   5.847   2.376   5.123 -0.3677  0.2260 -0.5067
 8137TIP3    H124375   5.936   2.357   5.150 -0.5981  1.1598  1.0151
 8137TIP3    H224376   5.797   2.378   5.205 -1.6454  0.4147 -1.2652
 8138TIP3   OH224377   0.680   1.193   5.360  0.2897  0.1116  0.5605
 8138TIP3    H124378   0.635   1.131   5.417  1.3328 -0.7077  0.5313
 8138TIP3    H224379   0.681   1.274   5.410  1.5790 -0.7013  1.9632
 8139TIP3   OH224380   4.433   2.745   2.455  0.3768 -0.2488  0.0728
 8139TIP3    H124381   4.400   2.773   2.540 -1.1996  1.1663 -0.9297
 8139TIP3    H224382   4.399   2.655   2.445  0.0241 -0.1882  0.6612
 8140TIP3   OH224383   6.750   0.555   3.352  0.4045  0.3517  0.2901
 8140TIP3    H124384   6.768   0.491   3.421  1.7999  0.7297  0.3197
 8140TIP3    H224385   6.812   0.627   3.369  0.0015  0.9603 -0.6935
 8141TIP3   OH224386   3.484   0.798   1.228  0.0572 -0.1387 -0.6009
 8141TIP3    H124387   3.574   0.779   1.204  0.5851 -0.3726  1.3734
 8141TIP3    H224388   3.490   0.867   1.294 -1.3335  0.9808 -1.5634
 8142TIP3   OH224389   2.826   2.147   1.104 -0.3305  0.5093  0.4093
 8142TIP3    H124390   2.784   2.226   1.070 -2.4298  0.2061  2.0685
 8142TIP3    H224391   2.891   2.179   1.167 -0.3589  0.9268  0.2279
 8143TIP3   OH224392   2.788   6.170   5.434  0.0213 -0.1409  0.4388
 8143TIP3    H124393   2.847   6.244   5.419  0.2066 -0.4092 -0.1413
 8143TIP3    H224394   2.838   6.111   5.490  0.5163 -0.6243 -0.4962
 8144TIP3   OH224395   2.286   2.257   1.841  0.3454 -0.1381 -0.2149
 8144TIP3    H124396   2.358   2.256   1.779  2.0094  1.4608  1.5471
 8144TIP3    H224397   2.260   2.349   1.846 -1.3061 -0.5748 -0.2108
 8145TIP3   OH224398   1.441   6.240   4.276  0.0104  0.0142 -0.0417
 8145TIP3    H124399   1.469   6.325   4.309  3.3868 -1.1254  0.4154
 8145TIP3    H224400   1.411   6.258   4.187  2.0279  1.5301 -0.4871
 8146TIP3   OH224401   6.514   4.328   1.234 -0.0920 -0.4813  0.3664
 8146TIP3    H124402   6.499   4.382   1.312 -0.9902  0.6477 -0.5558
 8146TIP3    H224403   6.560   4.386   1.173 -1.4220 -0.5928 -0.7903
 8147TIP3   OH224404   0.617   6.114   1.331  0.0316 -0.3592  0.0147
 8147TIP3    H124405   0.563   6.084   1.258 -0.3150 -1.9873  0.9060
 8147TIP3    H224406   0.603   6.209   1.334  1.8798  0.1921 -3.4834
 8148TIP3   OH224407   5.650   6.006   5.796 -0.4772 -0.4875 -0.3990
 8148TIP3    H124408   5.718   6.051   5.846 -1.1923  0.6788 -0.4346
 8148TIP3    H224409   5.569   6.052   5.819 -1.6279 -3.0796  1.1954
 8149TIP3   OH224410   0.468   0.402   2.369  1.0793 -0.4203  0.3964
 8149TIP3    H124411   0.563   0.390   2.359  1.0459 -1.9756  1.4307
 8149TIP3    H224412   0.435   0.408   2.280  2.3590  2.5278  0.0199
 8150TIP3   OH224413   2.607   6.313   0.862  0.1256  0.1787  0.3291
 8150TIP3    H124414   2.681   6.371   0.845  0.8984 -0.7768  0.3515
 8150TIP3    H224415   2.579   6.283   0.776 -0.8651  1.2834  0.2510
 8151TIP3   OH224416   2.297   4.962   4.745  0.2104  0.5796 -0.0034
 8151TIP3    H124417   2.246   5.041   4.728  1.0591  0.9374 -1.0099
 8151TIP3    H224418   2.234   4.891   4.744 -0.5421  1.2131  0.7404
 8152TIP3   OH224419   4.199   3.065   0.039 -0.2249  0.5215  0.4743
 8152TIP3    H124420   4.268   2.999   0.039 -0.1791  0.5290 -1.4462
 8152TIP3    H224421   4.118   3.014   0.035 -0.4210  0.5054  2.8729
 8153TIP3   OH224422   1.256   5.074   4.752  0.4570  0.0784  0.4118
 8153TIP3    H124423   1.310   5.014   4.700  0.7777  0.0993  0.7122
 8153TIP3    H224424   1.201   5.018   4.806 -1.9999 -0.0175 -1.9850
 8154TIP3   OH224425   2.281   5.067   2.744 -0.1841 -0.0180  0.3450
 8154TIP3    H124426   2.366   5.070   2.700  0.1981 -0.6952  1.0287
 8154TIP3    H224427   2.219   5.046   2.674  0.3982 -0.9705  0.0946
 8155TIP3   OH224428   2.065   6.398   0.833 -0.4553 -0.0245 -0.2895
 8155TIP3    H124429   2.046   6.405   0.927 -0.2626 -1.5234 -0.1137
 8155TIP3    H224430   1.982   6.421   0.790 -0.8484 -0.3513  0.2782
 8156TIP3   OH224431   2.470   0.603   4.040 -0.0290 -0.5689  0.2982
 8156TIP3    H124432   2.540   0.609   3.975 -1.1774  1.2830 -0.8716
 8156TIP3    H224433   2.414   0.532   4.009  1.8197 -2.8891  1.8772
 8157TIP3   OH224434   6.725   1.800   2.466  0.0165  0.0868 -0.3870
 8157TIP3    H124435   6.632   1.778   2.474  0.1579 -0.3452  0.1338
 8157TIP3    H224436   6.769   1.743   2.529  0.4592  1.5000  0.6462
 8158TIP3   OH224437   7.178   0.824   5.658  0.2713 -0.4012  0.5250
 8158TIP3    H124438   7.144   0.736   5.676  1.5084 -1.3534 -1.4200
 8158TIP3    H224439   7.126   0.855   5.584  1.0476 -0.2774  0.0184
 8159TIP3   OH224440   1.561   1.423   0.426  0.1237  0.8343 -1.2837
 8159TIP3    H124441   1.648   1.444   0.391  0.4851  1.5926  0.0011
 8159TIP3    H224442   1.566   1.330   0.448  2.2449  1.6824  2.9292
 8160TIP3   OH224443   7.136   6.173   1.620  0.1217 -0.1646 -0.2245
 8160TIP3    H124444   7.131   6.220   1.703 -2.0150 -0.7099  0.0288
 8160TIP3    H224445   7.193   6.227   1.565 -2.7427  3.2682 -0.2128
 8161TIP3   OH224446   6.660   3.301   1.934  0.1700  0.0931 -0.6051
 8161TIP3    H124447   6.585   3.245   1.911  0.1110  0.4746 -1.3814
 8161TIP3    H224448   6.621   3.376   1.978  0.3401 -0.9716  1.4920
 8162TIP3   OH224449   1.750   5.500   4.329 -0.0792 -0.9060  0.2363
 8162TIP3    H124450   1.720   5.429   4.272  0.4796 -1.9954  1.2510
 8162TIP3    H224451   1.744   5.578   4.275 -0.1688 -1.8049 -1.1069
 8163TIP3   OH224452   2.314   0.184   4.873  0.4227 -0.0069 -0.5653
 8163TIP3    H124453   2.404   0.206   4.848  0.2386  0.7921 -0.5722
 8163TIP3    H224454   2.288   0.255   4.931 -0.0809 -0.4310 -0.2682
 8164TIP3   OH224455   0.544   5.371   3.304 -0.6847  0.0748 -0.5884
 8164TIP3    H124456   0.552   5.370   3.208  1.1389  0.8251 -0.4818
 8164TIP3    H224457   0.589   5.451   3.331 -1.2972 -0.0558  0.9044
 8165TIP3   OH224458   1.655   6.070   4.305  0.6355  0.4197 -0.2530
 8165TIP3    H124459   1.569   6.113   4.300  0.2535 -0.3305 -0.2957
 8165TIP3    H224460   1.648   6.012   4.381  1.5115  1.2009  0.4555
 8166TIP3   OH224461   5.671   1.091   1.452 -0.0017 -0.0350 -0.1397
 8166TIP3    H124462   5.614   1.072   1.526 -0.0535  0.4547 -0.0477
 8166TIP3    H224463   5.641   1.033   1.382  0.0179 -0.4657  0.2081
 8167TIP3   OH224464   6.486   5.172   2.546  0.3417 -0.6066 -0.1618
 8167TIP3    H124465   6.512   5.250   2.594  0.3225 -1.1055  0.6725
 8167TIP3    H224466   6.480   5.201   2.455 -0.2954  0.5253  0.2125
 8168TIP3   OH224467   0.048   2.858   4.509 -0.2773 -0.0915 -0.2051
 8168TIP3    H124468   0.107   2.832   4.580 -0.3730  0.8617  0.2317
 8168TIP3    H224469  -0.017   2.787   4.504  0.2213 -0.5707  0.0870
 8169TIP3   OH224470   4.516   1.666   1.092 -0.2168  0.0035 -0.0168
 8169TIP3    H124471   4.592   1.646   1.147 -0.0479  0.7460  0.0328
 8169TIP3    H224472   4.523   1.606   1.018 -1.4397 -2.3330  1.6165
 8170TIP3   OH224473   1.383   0.156   4.812  0.0922 -0.0024  0.5528
 8170TIP3    H124474   1.326   0.233   4.815  3.7297  3.0014 -0.1241
 8170TIP3    H224475   1.369   0.119   4.724 -0.1740  1.2181  0.0662
 8171TIP3   OH224476   6.103   5.639   1.868 -0.1179  0.2434 -0.1683
 8171TIP3    H124477   6.187   5.669   1.834  0.0678  0.0504  0.1136
 8171TIP3    H224478   6.103   5.668   1.960 -1.0267  1.6328 -0.5733
 8172TIP3   OH224479   3.987   3.367   4.438  0.4450 -0.1119  0.6098
 8172TIP3    H124480   4.050   3.340   4.505 -0.2641 -1.9684  0.5705
 8172TIP3    H224481   4.008   3.314   4.362  0.2801  0.9169 -0.1775
 8173TIP3   OH224482   5.031   5.222   2.416 -0.2591  0.0675 -0.6619
 8173TIP3    H124483   4.999   5.178   2.495 -2.0518 -0.0188 -1.3769
 8173TIP3    H224484   5.083   5.155   2.371 -1.4205 -0.7773 -0.8228
 8174TIP3   OH224485   4.399   2.704   1.336 -0.6373  0.1862  0.4937
 8174TIP3    H124486   4.354   2.662   1.262  0.8413 -1.2501  0.3567
 8174TIP3    H224487   4.488   2.719   1.304 -0.2623  0.4785  1.6478
 8175TIP3   OH224488   3.241   3.957   0.335  0.6731 -0.3282  0.4510
 8175TIP3    H124489   3.179   4.018   0.374 -0.2791 -0.2044 -1.1689
 8175TIP3    H224490   3.327   3.992   0.358  0.1469  1.4793 -0.2038
 8176TIP3   OH224491   5.469   1.455   4.273 -1.1263 -0.5433 -0.0535
 8176TIP3    H124492   5.405   1.511   4.230  0.3871  1.3009 -0.0287
 8176TIP3    H224493   5.465   1.479   4.366  0.6938  0.8148 -0.2772
 8177TIP3   OH224494   5.787   0.236   1.674 -0.1953 -0.2081  0.0172
 8177TIP3    H124495   5.811   0.154   1.716  0.3065  0.3719  0.9097
 8177TIP3    H224496   5.735   0.282   1.740  0.6182  0.7334  0.0272
 8178TIP3   OH224497   6.639   3.205   3.773 -0.1194  0.2439 -0.3608
 8178TIP3    H124498   6.699   3.237   3.840  0.0168  1.7324 -1.1548
 8178TIP3    H224499   6.613   3.118   3.803 -1.2718  1.4266  2.4229
 8179TIP3   OH224500   1.604   3.484   2.881  0.2473  0.6740  0.1481
 8179TIP3    H124501   1.644   3.405   2.917 -1.6886 -0.7091 -0.5948
 8179TIP3    H224502   1.541   3.452   2.817 -0.6112  2.8350 -0.1616
 8180TIP3   OH224503   3.149   6.052   2.907  0.1039 -0.8698  0.1805
 8180TIP3    H124504   3.068   6.089   2.872 -0.2013 -0.7934  0.9403
 8180TIP3    H224505   3.133   6.046   3.001  0.7908 -1.3411  0.2716
 8181TIP3   OH224506   1.575   5.791   2.092  0.4807  0.0539  0.3487
 8181TIP3    H124507   1.610   5.824   2.175  0.9087  1.6422 -0.4339
 8181TIP3    H224508   1.507   5.729   2.119  0.5713  0.5694  1.8932
 8182TIP3   OH224509   0.771   6.326   1.112 -0.0006  0.0247  0.2176
 8182TIP3    H124510   0.825   6.302   1.188  0.0281 -0.2489  0.1139
 8182TIP3    H224511   0.835   6.349   1.044 -0.0021 -0.5461  0.0141
 8183TIP3   OH224512   7.151   4.269   1.388  0.4914  0.1891  0.0850
 8183TIP3    H124513   7.194   4.207   1.329  1.8331  1.4202 -0.2969
 8183TIP3    H224514   7.074   4.299   1.340  0.4622 -0.3266 -0.1916
 8184TIP3   OH224515   1.062   4.299   3.020  0.0665  0.3693 -0.4893
 8184TIP3    H124516   0.969   4.321   3.029 -0.0706 -0.0869 -0.7517
 8184TIP3    H224517   1.065   4.204   3.031  0.4522  0.3354 -0.8628
 8185TIP3   OH224518   2.048   1.378   2.095  0.2104 -0.1673  0.2185
 8185TIP3    H124519   2.122   1.435   2.114  2.0712 -2.3085 -0.2088
 8185TIP3    H224520   2.026   1.398   2.004  2.2964 -1.5639 -0.6674
 8186TIP3   OH224521   4.648   1.219   2.346 -0.2689  0.0165  0.1267
 8186TIP3    H124522   4.628   1.262   2.430 -1.2211 -2.3653  1.2132
 8186TIP3    H224523   4.571   1.166   2.328  0.5627 -0.6968 -1.4882
 8187TIP3   OH224524   5.748   3.830   5.072 -0.1948  0.0942 -0.4652
 8187TIP3    H124525   5.725   3.739   5.055  1.3243 -0.6146  0.9388
 8187TIP3    H224526   5.673   3.866   5.119 -0.1077 -0.9576  0.5063
 8188TIP3   OH224527   1.403   4.320   3.807 -0.4920 -0.4414  0.2750
 8188TIP3    H124528   1.419   4.236   3.763 -0.0126  0.3943 -1.2104
 8188TIP3    H224529   1.466   4.321   3.879 -1.4365 -1.9373  1.1911
 8189TIP3   OH224530   2.726   1.058   5.855  0.2969  0.1662 -0.1846
 8189TIP3    H124531   2.778   0.995   5.807  0.3639  0.8113 -0.9829
 8189TIP3    H224532   2.693   1.010   5.932  0.2516 -0.8545 -0.8317
 8190TIP3   OH224533   6.006   1.970   0.235  0.0505  0.2433 -0.2913
 8190TIP3    H124534   6.084   1.960   0.180  0.7426  1.6036  0.3816
 8190TIP3    H224535   5.955   2.038   0.191  0.3811  0.9976  0.4607
 8191TIP3   OH224536   7.128   2.037   1.836 -0.4280  0.7164 -0.1618
 8191TIP3    H124537   7.064   2.107   1.849  1.8993  2.6008  2.4156
 8191TIP3    H224538   7.133   1.994   1.922  0.9094 -0.1764 -0.6632
 8192TIP3   OH224539   3.314   1.254   2.589 -0.3018  0.2652 -0.3689
 8192TIP3    H124540   3.387   1.261   2.527 -1.0819  0.9524 -1.2344
 8192TIP3    H224541   3.294   1.344   2.613 -0.8369  0.0764 -0.0926
 8193TIP3   OH224542   1.658   3.514   0.167  0.1192  0.0248 -0.1820
 8193TIP3    H124543   1.574   3.550   0.194  0.4403  0.7029 -0.0742
 8193TIP3    H224544   1.722   3.578   0.196  0.4840  0.7721 -2.4631
 8194TIP3   OH224545   3.144   5.268   3.026 -0.3091 -0.4912  0.3790
 8194TIP3    H124546   3.105   5.276   2.939 -0.1633  0.1917  0.3695
 8194TIP3    H224547   3.199   5.346   3.035 -1.1911  0.0339  1.5064
 8195TIP3   OH224548   3.060   5.821   2.353  0.1300 -0.5453 -0.3238
 8195TIP3    H124549   3.123   5.765   2.306 -0.8154 -0.7582 -1.3810
 8195TIP3    H224550   3.079   5.805   2.445  0.4577 -1.9801 -0.6074
 8196TIP3   OH224551   3.853   3.450   1.452 -0.2112 -0.3011  0.1255
 8196TIP3    H124552   3.911   3.447   1.376  0.4685 -1.4534  0.6647
 8196TIP3    H224553   3.846   3.543   1.473  1.3095 -0.1193 -0.0503
 8197TIP3   OH224554   6.419   6.045   2.452  0.8955 -0.3056 -0.3173
 8197TIP3    H124555   6.379   6.006   2.530  0.8333 -0.4470 -0.4213
 8197TIP3    H224556   6.399   5.984   2.381  1.6146 -0.5593 -0.2992
 8198TIP3   OH224557   2.292   6.280   3.038 -0.4122 -0.1513  0.3125
 8198TIP3    H124558   2.272   6.188   3.020  1.0694 -0.3602 -0.4526
 8198TIP3    H224559   2.345   6.278   3.118 -1.3460  0.1560  0.9476
 8199TIP3   OH224560   3.289   5.718   3.069 -0.3948 -0.0132  0.1078
 8199TIP3    H124561   3.236   5.673   3.003  0.9677  0.0332 -1.0820
 8199TIP3    H224562   3.370   5.667   3.072  0.5543  1.4289 -0.1028
 8200TIP3   OH224563   2.571   3.319   0.775 -0.2256 -0.3852  0.4783
 8200TIP3    H124564   2.596   3.230   0.801 -0.7669 -1.3396 -1.9788
 8200TIP3    H224565   2.477   3.314   0.758 -0.0829  0.3766 -0.6347
 8201TIP3   OH224566   0.339   2.954   2.331 -0.8933 -0.1868  0.0669
 8201TIP3    H124567   0.346   2.909   2.415  1.4016  0.1863  0.1512
 8201TIP3    H224568   0.333   2.883   2.267  0.5010 -0.5988  0.3535
 8202TIP3   OH224569   6.344   5.134   5.544 -0.4796  0.0493  0.0365
 8202TIP3    H124570   6.395   5.105   5.620 -1.3367  0.1496  0.6527
 8202TIP3    H224571   6.262   5.165   5.580 -0.3565  1.4182 -0.7998
 8203TIP3   OH224572   5.417   6.483   1.355  0.5076 -0.2520  0.6427
 8203TIP3    H124573   5.379   6.408   1.400  1.5168 -0.5993  0.9424
 8203TIP3    H224574   5.503   6.495   1.396  1.5581 -0.7032 -1.2812
 8204TIP3   OH224575   4.200   1.797   1.692  0.4896  0.3991  0.3713
 8204TIP3    H124576   4.144   1.864   1.731 -1.4376 -1.4469  0.9433
 8204TIP3    H224577   4.238   1.840   1.615 -0.2746  2.2692  0.9767
 8205TIP3   OH224578   3.055   5.405   2.109  0.4805 -0.0607 -0.0493
 8205TIP3    H124579   3.102   5.322   2.109 -0.4268 -0.5885 -0.6238
 8205TIP3    H224580   2.969   5.384   2.074 -0.8711  0.5148  2.6603
 8206TIP3   OH224581   3.162   3.666   4.664  0.5561  0.1628 -0.1537
 8206TIP3    H124582   3.159   3.727   4.591  1.1114 -0.7204 -0.9380
 8206TIP3    H224583   3.136   3.582   4.626 -0.8252  0.0113  1.0420
 8207TIP3   OH224584   6.166   1.266   4.467  0.3132 -0.1740 -0.3684
 8207TIP3    H124585   6.089   1.294   4.418  0.4403 -0.1722 -0.5710
 8207TIP3    H224586   6.230   1.336   4.452 -0.3356  0.9201  1.5358
 8208TIP3   OH224587   1.295   6.009   5.356  0.5618  0.4520 -0.0841
 8208TIP3    H124588   1.259   5.920   5.352  0.6378  0.3814  0.7163
 8208TIP3    H224589   1.224   6.062   5.393  1.1976  0.3533  1.2936
 8209TIP3   OH224590   4.084   1.588   3.531  0.4953  0.1594 -0.2783
 8209TIP3    H124591   4.165   1.639   3.534  1.4114 -1.2262 -0.7638
 8209TIP3    H224592   4.051   1.601   3.443 -0.7472  2.0627  0.4027
 8210TIP3   OH224593   4.785   2.607   3.021 -0.0447  0.1408 -0.0686
 8210TIP3    H124594   4.813   2.634   3.108  0.4709  0.5695 -0.3633
 8210TIP3    H224595   4.718   2.540   3.037  1.4507 -1.2488  0.6468
 8211TIP3   OH224596   4.067   2.595   5.090  0.0778  0.0242  0.3650
 8211TIP3    H124597   3.984   2.564   5.128 -0.7853  1.0318 -0.6231
 8211TIP3    H224598   4.053   2.591   4.995  2.3597 -2.9219 -0.0063
 8212TIP3   OH224599   0.332   0.395   5.486 -0.1199 -0.2012 -0.7959
 8212TIP3    H124600   0.288   0.329   5.539 -0.6015  0.9918  0.3541
 8212TIP3    H224601   0.261   0.454   5.459  0.5212  0.8062 -0.3359
 8213TIP3   OH224602   2.222   3.121   1.255 -0.4369 -0.2326  0.0886
 8213TIP3    H124603   2.153   3.104   1.319 -0.8463 -0.3311 -0.3790
 8213TIP3    H224604   2.187   3.190   1.199  0.0295  0.0451  0.1339
 8214TIP3   OH224605   5.905   0.953   0.743  0.4609 -0.3476 -0.0043
 8214TIP3    H124606   5.812   0.942   0.763  0.4831 -1.7449 -0.5151
 8214TIP3    H224607   5.915   1.045   0.721 -0.5884  0.0486  1.0907
 8215TIP3   OH224608   3.719   0.903   0.580  0.7229 -0.0443  0.2408
 8215TIP3    H124609   3.682   0.989   0.600  0.4650  0.1413 -0.9710
 8215TIP3    H224610   3.732   0.862   0.666  0.7038  1.1342  0.8256
 8216TIP3   OH224611   5.633   6.555   4.714  0.2027  0.1532 -0.0048
 8216TIP3    H124612   5.695   6.594   4.652  0.4262  0.9452  0.7108
 8216TIP3    H224613   5.647   6.461   4.705  1.6298  0.3228  0.2530
 8217TIP3   OH224614   0.225   1.247   4.065 -0.2265  0.1788  0.7714
 8217TIP3    H124615   0.156   1.255   4.131 -0.4636  1.2118  0.4191
 8217TIP3    H224616   0.306   1.267   4.112 -0.4651  1.6026  0.6364
 8218TIP3   OH224617   0.815   6.602   4.856  0.3584  0.0949 -0.0283
 8218TIP3    H124618   0.806   6.697   4.864  0.0549 -0.0324  1.6829
 8218TIP3    H224619   0.905   6.589   4.828  0.2032  0.9021 -0.9538
 8219TIP3   OH224620   4.585   0.699   2.357  0.3030 -0.2741  0.2965
 8219TIP3    H124621   4.640   0.696   2.279  0.8896 -2.9175  0.7260
 8219TIP3    H224622   4.498   0.723   2.325  1.1571  1.7541 -0.6853
 8220TIP3   OH224623   1.337   3.258   4.411  0.2852  0.2229  0.0396
 8220TIP3    H124624   1.314   3.186   4.352  0.7193 -0.1893  0.3643
 8220TIP3    H224625   1.339   3.218   4.498  0.3257  0.6769  0.2501
 8221TIP3   OH224626   2.339   1.234   4.099  0.3827  0.5501 -0.0836
 8221TIP3    H124627   2.262   1.178   4.105 -0.3043  1.4522 -0.2709
 8221TIP3    H224628   2.412   1.173   4.084 -0.2161 -0.3501  0.5756
 8222TIP3   OH224629   2.418   6.463   5.084  0.7987  0.5815  0.0098
 8222TIP3    H124630   2.432   6.458   4.990  1.5120  0.0988  0.1292
 8222TIP3    H224631   2.352   6.396   5.102  1.3058  0.0573 -0.0403
 8223TIP3   OH224632   2.768   4.510   0.440  0.1220 -0.3414  0.1733
 8223TIP3    H124633   2.842   4.492   0.498 -1.1788 -0.8157  1.7347
 8223TIP3    H224634   2.691   4.483   0.489 -1.1740  0.8340 -1.1118
 8224TIP3   OH224635   0.282   2.760   2.138 -0.5582 -0.2363 -0.3118
 8224TIP3    H124636   0.371   2.743   2.105 -0.6352 -0.9959 -0.1556
 8224TIP3    H224637   0.248   2.673   2.160 -0.6776  0.2035  1.3387
 8225TIP3   OH224638   7.069   1.881   2.590  1.0806  0.3020 -0.1590
 8225TIP3    H124639   7.058   1.892   2.495 -1.8977 -1.2628 -0.1110
 8225TIP3    H224640   7.089   1.787   2.600 -2.6982 -0.5667  0.8423
 8226TIP3   OH224641   3.832   4.400   1.647  0.2627  0.4058 -0.0967
 8226TIP3    H124642   3.765   4.442   1.701 -0.2469  0.2661 -0.6190
 8226TIP3    H224643   3.798   4.405   1.558 -0.2361 -1.9419 -0.0849
 8227TIP3   OH224644   1.956   1.526   5.300  0.1204  0.2225 -0.4098
 8227TIP3    H124645   2.011   1.589   5.253 -0.2169  0.6682 -0.2180
 8227TIP3    H224646   1.904   1.483   5.233  0.7901 -0.2996 -0.6087
 8228TIP3   OH224647   0.991   4.101   3.789  0.0159  0.2220  0.7084
 8228TIP3    H124648   1.057   4.158   3.828 -1.2307  1.8295  0.5574
 8228TIP3    H224649   0.940   4.158   3.732 -2.7582 -0.4863  2.2979
 8229TIP3   OH224650   4.363   4.514   3.033  0.0315  0.3502  0.6261
 8229TIP3    H124651   4.329   4.472   2.954  0.0888  1.1523  0.1585
 8229TIP3    H224652   4.448   4.549   3.007 -0.2355  1.1875  0.8431
 8230TIP3   OH224653   3.598   0.265   0.077 -0.1793  0.2588 -0.0064
 8230TIP3    H124654   3.667   0.302   0.022 -1.0373  1.7610 -0.1215
 8230TIP3    H224655   3.528   0.242   0.017 -0.3642  0.1222  0.2569
 8231TIP3   OH224656   1.536   4.574   0.374 -0.0461 -0.0026 -0.0423
 8231TIP3    H124657   1.510   4.513   0.306 -0.5145  0.0338  0.0992
 8231TIP3    H224658   1.532   4.523   0.455  0.0478  0.0832  0.0180
 8232TIP3   OH224659   4.024   2.880   3.679  0.3204 -0.2698  0.2512
 8232TIP3    H124660   3.994   2.789   3.679 -2.2235  0.5015  0.1769
 8232TIP3    H224661   4.119   2.873   3.688  0.1315 -2.8914  1.1949
 8233TIP3   OH224662   2.164   3.743   2.177 -0.3505 -0.4779 -0.1353
 8233TIP3    H124663   2.143   3.834   2.157  0.9137 -0.1298  0.0344
 8233TIP3    H224664   2.081   3.704   2.204 -0.5529  1.1417  1.7308
 8234TIP3   OH224665   4.300   0.494   3.050 -0.4517 -0.4204 -0.1103
 8234TIP3    H124666   4.278   0.546   3.127 -1.1009  1.2811 -1.3637
 8234TIP3    H224667   4.395   0.506   3.040 -0.6342  0.8066 -0.5416
 8235TIP3   OH224668   2.922   5.671   4.860 -0.2317 -0.2528  0.0163
 8235TIP3    H124669   2.833   5.702   4.842 -0.1950 -1.2140 -2.0731
 8235TIP3    H224670   2.977   5.714   4.796  0.6336 -0.5923  0.5125
 8236TIP3   OH224671   3.437   5.363   4.283  0.2960 -0.6205  0.3700
 8236TIP3    H124672   3.436   5.363   4.379 -0.3574  1.6832  0.4116
 8236TIP3    H224673   3.530   5.373   4.260  0.2966  0.3770  0.7906
 8237TIP3   OH224674   7.203   1.185   3.831 -0.4964 -0.4123  0.3624
 8237TIP3    H124675   7.168   1.182   3.742  1.2112  0.0753 -0.3598
 8237TIP3    H224676   7.126   1.171   3.887 -1.3686 -2.4423 -1.2060
 8238TIP3   OH224677   4.381   1.248   1.303  0.6133  0.2821  0.0453
 8238TIP3    H124678   4.372   1.264   1.209 -0.5207  1.4372  0.3158
 8238TIP3    H224679   4.431   1.323   1.336 -0.7903  1.0069  0.6447
 8239TIP3   OH224680   6.975   3.231   4.805 -0.1705 -0.0979  0.4712
 8239TIP3    H124681   6.963   3.159   4.866  1.6291 -1.3541 -0.5541
 8239TIP3    H224682   6.944   3.308   4.853 -0.2067 -1.2379  2.4031
 8240TIP3   OH224683   6.643   3.662   1.055 -0.3036  0.3005  0.0473
 8240TIP3    H124684   6.588   3.619   1.120  1.3045 -0.4982  0.9464
 8240TIP3    H224685   6.729   3.668   1.096 -0.2909  4.0833 -0.1851
 8241TIP3   OH224686   3.521   0.662   5.106 -0.1322 -0.1881 -0.2178
 8241TIP3    H124687   3.452   0.690   5.166  0.7938  1.1798  0.2496
 8241TIP3    H224688   3.488   0.687   5.020  0.5415  2.2261  0.1561
 8242TIP3   OH224689   3.204   0.834   4.247  0.1988 -0.1885 -0.5326
 8242TIP3    H124690   3.209   0.789   4.162  1.4324 -3.4041  1.0695
 8242TIP3    H224691   3.173   0.767   4.308  1.9554  1.1549  2.0288
 8243TIP3   OH224692   5.273   2.765   1.002  0.1647  0.2712 -0.1641
 8243TIP3    H124693   5.364   2.789   0.982 -0.0247  1.5778  0.4353
 8243TIP3    H224694   5.265   2.779   1.096 -0.3169 -1.0783  0.0113
 8244TIP3   OH224695   0.208   2.979   3.588  0.2206  0.0790  0.3565
 8244TIP3    H124696   0.123   2.978   3.632 -1.1238 -1.7844 -2.0292
 8244TIP3    H224697   0.214   3.065   3.547 -0.9113 -0.0427 -0.0948
 8245TIP3   OH224698   1.752   2.881   4.732  0.6466 -0.1089  0.2644
 8245TIP3    H124699   1.808   2.902   4.657  0.5957 -0.7630  0.0403
 8245TIP3    H224700   1.666   2.865   4.694  0.5867 -0.3062  0.4801
 8246TIP3   OH224701   3.879   5.652   5.076  0.1542 -0.2537  0.0870
 8246TIP3    H124702   3.866   5.558   5.090 -2.6955 -0.0202 -0.4119
 8246TIP3    H224703   3.928   5.681   5.153  0.0677 -1.9606  0.8343
 8247TIP3   OH224704   6.410   4.247   2.408  0.3941 -0.3725 -0.2847
 8247TIP3    H124705   6.395   4.315   2.343  1.7567  0.2448  0.0225
 8247TIP3    H224706   6.360   4.172   2.376 -1.0136  0.6993 -0.7140
 8248TIP3   OH224707   1.552   0.632   4.749  0.0656  0.2198  0.6251
 8248TIP3    H124708   1.644   0.651   4.768  0.4649 -0.6806 -0.3349
 8248TIP3    H224709   1.538   0.544   4.782 -1.1858  1.2523  3.0758
 8249TIP3   OH224710   7.068   2.666   4.528 -0.3503 -0.4353 -0.4091
 8249TIP3    H124711   7.054   2.609   4.452 -0.6470 -0.5582 -0.2657
 8249TIP3    H224712   6.980   2.681   4.562 -0.3446  0.6210 -0.8177
 8250TIP3   OH224713   5.197   0.357   0.428 -0.2476 -0.2870  0.1817
 8250TIP3    H124714   5.215   0.271   0.389  3.3767  0.1801  0.4841
 8250TIP3    H224715   5.216   0.345   0.521 -2.5981  0.2129  0.8027
 8251TIP3   OH224716   2.416   3.660   1.478 -0.2450  0.0987 -0.2669
 8251TIP3    H124717   2.353   3.596   1.512 -0.7752  0.8335  0.1565
 8251TIP3    H224718   2.501   3.630   1.511 -0.0790 -1.8813 -2.2466
 8252TIP3   OH224719   2.423   1.073   4.955 -1.1040  0.1024 -0.2613
 8252TIP3    H124720   2.510   1.033   4.961 -1.7807 -1.4759 -0.3226
 8252TIP3    H224721   2.383   1.032   4.878 -2.3351 -0.1393  0.4684
 8253TIP3   OH224722   6.410   1.759   1.103  0.3401 -0.0135 -0.3306
 8253TIP3    H124723   6.320   1.750   1.133  0.3113 -0.0858 -0.4371
 8253TIP3    H224724   6.462   1.711   1.167  0.1937 -0.8845 -0.8512
 8254TIP3   OH224725   6.798   2.871   3.869  0.5960  0.2200  0.0685
 8254TIP3    H124726   6.840   2.890   3.953 -0.9671  1.3640  0.6221
 8254TIP3    H224727   6.712   2.912   3.874  0.6710  0.8304 -2.3374
 8255TIP3   OH224728   4.829   2.022   4.921  0.8904 -0.0326 -0.1700
 8255TIP3    H124729   4.886   2.066   4.858  0.1286 -0.2316 -1.0102
 8255TIP3    H224730   4.778   1.961   4.868 -0.4680  0.5091  0.4911
 8256TIP3   OH224731   2.729   4.116   5.235  0.2592 -0.1032 -0.3123
 8256TIP3    H124732   2.645   4.108   5.191 -0.7626  0.1612  1.4958
 8256TIP3    H224733   2.784   4.165   5.173  0.1168 -2.8310 -2.8046
 8257TIP3   OH224734   1.259   1.047   2.604  0.1304  0.2916  0.0008
 8257TIP3    H124735   1.298   0.965   2.633  0.2899 -0.0840 -1.2032
 8257TIP3    H224736   1.184   1.060   2.662  0.0158 -0.7844  0.1216
 8258TIP3   OH224737   3.844   3.220   4.739  0.3318  0.5741 -0.2142
 8258TIP3    H124738   3.843   3.160   4.665 -2.1506  0.2903 -0.0070
 8258TIP3    H224739   3.863   3.165   4.814 -0.8700  0.1974 -0.1688
 8259TIP3   OH224740   3.325   3.625   2.924 -0.2873 -0.1037  0.0713
 8259TIP3    H124741   3.253   3.567   2.899 -0.0864 -0.6772  0.7958
 8259TIP3    H224742   3.342   3.677   2.845 -0.8938 -0.5836 -0.3886
 8260TIP3   OH224743   2.591  -0.002   2.255  0.0050 -0.0671 -0.4676
 8260TIP3    H124744   2.526   0.046   2.306 -0.1849 -1.5659  0.7753
 8260TIP3    H224745   2.636   0.065   2.204  0.4430  1.5773  1.9217
 8261TIP3   OH224746   7.199   2.442   1.057  0.4376 -0.3886  0.3401
 8261TIP3    H124747   7.171   2.356   1.025 -0.2361 -0.4788  1.1540
 8261TIP3    H224748   7.126   2.501   1.037  0.4478 -0.2318  0.7582
 8262TIP3   OH224749   6.612   1.061   3.183 -0.4285  0.3673  0.2842
 8262TIP3    H124750   6.629   1.038   3.274 -0.5515 -0.9865 -0.0161
 8262TIP3    H224751   6.698   1.066   3.142 -0.3381  1.5603  0.5947
 8263TIP3   OH224752   7.049   4.341   0.477 -0.0739 -0.4993  0.6157
 8263TIP3    H124753   6.960   4.372   0.464  0.2400  0.2515  0.1630
 8263TIP3    H224754   7.058   4.267   0.417  0.2136  0.6719 -0.8432
 8264TIP3   OH224755   0.694   0.345   0.530  0.3224  0.4569 -0.3414
 8264TIP3    H124756   0.631   0.321   0.599 -0.0039 -0.5730 -0.9700
 8264TIP3    H224757   0.774   0.298   0.554  0.1574 -0.0397 -0.7344
 8265TIP3   OH224758   3.056   3.477   1.457  0.5167  0.3337  0.3147
 8265TIP3    H124759   3.078   3.522   1.376  1.4042  1.3413  1.0803
 8265TIP3    H224760   3.014   3.543   1.512 -0.4764 -0.4466  0.5308
 8266TIP3   OH224761   2.352   2.805   5.182 -0.3087 -0.5140  0.4662
 8266TIP3    H124762   2.365   2.829   5.091  1.3500 -0.9376  0.5484
 8266TIP3    H224763   2.441   2.797   5.217 -0.9109 -0.6672  2.0310
 8267TIP3   OH224764   6.838   1.556   1.287 -0.2120  0.2821  0.5989
 8267TIP3    H124765   6.758   1.594   1.251  0.0679  1.2105  0.9254
 8267TIP3    H224766   6.808   1.494   1.353 -0.6912 -0.4942 -0.3181
 8268TIP3   OH224767   1.579   4.686   5.255  0.0155 -0.1336  0.1817
 8268TIP3    H124768   1.539   4.772   5.264  1.5229  0.6365 -0.1307
 8268TIP3    H224769   1.669   4.704   5.228  0.8726 -1.7471  1.7746
 8269TIP3   OH224770   6.299   2.588   2.891 -0.2694 -0.3488 -0.3467
 8269TIP3    H124771   6.259   2.670   2.921 -0.0883 -0.2271 -0.4309
 8269TIP3    H224772   6.393   2.605   2.897 -0.2318 -0.4234 -0.7129
 8270TIP3   OH224773   3.016   3.024   4.723 -0.2908 -0.5585 -0.4405
 8270TIP3    H124774   3.075   2.999   4.652  0.0674 -1.1868  0.0623
 8270TIP3    H224775   2.932   3.042   4.680  0.3524  0.7433 -1.2215
 8271TIP3   OH224776   4.353   2.700   5.133  0.5634 -0.4714  0.1423
 8271TIP3    H124777   4.261   2.675   5.141  0.1284  0.7961 -0.5027
 8271TIP3    H224778   4.386   2.702   5.223 -0.3967  0.2798  0.4963
 8272TIP3   OH224779   7.137   0.717   1.724  0.1717  0.1722 -0.4753
 8272TIP3    H124780   7.122   0.627   1.695 -1.2726  0.3125 -0.2267
 8272TIP3    H224781   7.058   0.740   1.772  1.2273  0.9903  0.9736
 8273TIP3   OH224782   3.471   3.033   0.859 -0.4305 -0.0449 -0.6762
 8273TIP3    H124783   3.409   2.969   0.897 -2.4163  1.1439 -1.7787
 8273TIP3    H224784   3.519   2.983   0.793 -0.2827 -0.9618  0.0978
 8274TIP3   OH224785   6.961   6.372   5.129  0.7192  0.7050  0.3564
 8274TIP3    H124786   7.024   6.332   5.069  0.2567  1.3882 -0.6123
 8274TIP3    H224787   7.015   6.410   5.198  1.3407  0.8898 -0.2213
 8275TIP3   OH224788   4.110   5.330   4.010  0.3993 -0.0768  0.0385
 8275TIP3    H124789   4.152   5.414   4.028  0.2973  0.0361 -0.2400
 8275TIP3    H224790   4.131   5.275   4.086 -0.4889  0.5678  0.7740
 8276TIP3   OH224791   0.061   1.126   1.176 -0.4205 -0.3103 -0.1404
 8276TIP3    H124792   0.042   1.119   1.083 -0.9294 -0.2654 -0.0387
 8276TIP3    H224793   0.037   1.215   1.200 -0.9023 -0.5220  0.1746
 8277TIP3   OH224794   0.571   4.872   1.770  0.3496  0.0801  0.6351
 8277TIP3    H124795   0.512   4.845   1.840 -0.3625  1.3180  0.5403
 8277TIP3    H224796   0.545   4.820   1.694 -0.9132  0.8999  0.4864
 8278TIP3   OH224797   0.678   0.914   5.256 -0.4594 -0.2309 -0.1738
 8278TIP3    H124798   0.670   0.960   5.339 -0.3822 -0.9821  0.2665
 8278TIP3    H224799   0.755   0.858   5.267 -1.1426 -1.2366 -0.2867
 8279TIP3   OH224800   0.282   1.310   0.045 -0.1238  0.3340 -0.0655
 8279TIP3    H124801   0.205   1.347   0.003 -1.6891 -1.4230  1.0627
 8279TIP3    H224802   0.351   1.314  -0.022 -1.5561  0.7274 -1.5748
 8280TIP3   OH224803   1.449   3.941   3.992 -0.4428  0.1154 -0.2820
 8280TIP3    H124804   1.501   4.021   4.001 -1.7927  1.0697 -0.7488
 8280TIP3    H224805   1.359   3.968   4.013 -0.9585 -1.2221 -0.6812
 8281TIP3   OH224806   0.411   1.733   4.524  0.2572  0.0861  0.0150
 8281TIP3    H124807   0.488   1.785   4.501  0.5347  0.3634  1.4974
 8281TIP3    H224808   0.397   1.677   4.448  2.8159 -1.0402  0.2540
 8282TIP3   OH224809   2.899   3.454   1.027  0.1220 -0.1059 -0.4597
 8282TIP3    H124810   2.886   3.423   0.937  1.8268  0.0972 -0.8147
 8282TIP3    H224811   2.939   3.379   1.072  1.3752  0.5099 -0.4973
 8283TIP3   OH224812   1.446   1.881   1.193  0.6962  0.2766  0.6790
 8283TIP3    H124813   1.357   1.916   1.190 -0.3400 -1.9317  2.3836
 8283TIP3    H224814   1.456   1.832   1.111 -0.0805 -0.3114  0.9220
 8284TIP3   OH224815   5.374   2.433   1.403 -0.1288  0.4254 -0.2735
 8284TIP3    H124816   5.393   2.448   1.495  1.0057  0.0651 -0.4365
 8284TIP3    H224817   5.394   2.341   1.388  1.4791  0.8845 -1.2682
 8285TIP3   OH224818   4.343   4.201   2.043 -0.0621 -0.5630  0.4265
 8285TIP3    H124819   4.403   4.264   2.083 -0.2100 -0.6886  0.8485
 8285TIP3    H224820   4.256   4.237   2.059 -0.0747  0.1766 -1.1281
 8286TIP3   OH224821   1.563   0.313   4.545 -0.3087 -0.8791 -0.2857
 8286TIP3    H124822   1.503   0.326   4.618 -0.1033  0.1027 -0.2772
 8286TIP3    H224823   1.568   0.218   4.535 -0.7499 -1.0130  0.6277
 8287TIP3   OH224824   4.340   4.182   3.056  0.4392  0.2453 -0.4768
 8287TIP3    H124825   4.421   4.217   3.018  0.0769  1.0024 -0.5748
 8287TIP3    H224826   4.319   4.106   3.002  1.1815 -0.0560 -0.3429
 8288TIP3   OH224827   5.566   1.223   2.975  0.3479 -0.0357 -0.0822
 8288TIP3    H124828   5.627   1.210   2.902  0.1307 -1.2674 -0.0543
 8288TIP3    H224829   5.485   1.182   2.946 -0.0716  0.4098  0.4359
 8289TIP3   OH224830   5.598   6.154   3.318  0.2304 -0.1787 -0.1309
 8289TIP3    H124831   5.628   6.124   3.232  0.7393 -0.3467  0.1012
 8289TIP3    H224832   5.649   6.232   3.336  0.4680 -0.4164  0.2311
 8290TIP3   OH224833   4.923   4.527   1.855  0.1875 -0.1214 -0.4976
 8290TIP3    H124834   4.981   4.594   1.818 -0.4383  0.4130 -0.5290
 8290TIP3    H224835   4.916   4.549   1.947  1.0328 -0.9320 -0.2231
 8291TIP3   OH224836   5.674   5.983   4.875  0.1113  0.0954 -0.4239
 8291TIP3    H124837   5.594   5.974   4.927  0.5792  0.6521  0.4186
 8291TIP3    H224838   5.696   6.076   4.882 -0.1989  0.3430 -2.2194
 8292TIP3   OH224839   1.219   1.362   5.425  0.6336  0.0951  0.6386
 8292TIP3    H124840   1.286   1.392   5.487  1.1562  2.3242 -0.8856
 8292TIP3    H224841   1.204   1.438   5.369 -1.2409 -1.2374 -0.7398
 8293TIP3   OH224842   2.096   6.702   0.708 -0.9590 -0.3998  0.7609
 8293TIP3    H124843   2.003   6.722   0.713 -0.7553  0.9194 -0.4154
 8293TIP3    H224844   2.100   6.616   0.664 -1.5862  0.0170 -0.1327
 8294TIP3   OH224845   6.999   5.082   0.086 -0.2719 -0.0653 -0.3298
 8294TIP3    H124846   6.994   4.990   0.063  1.0552 -0.0952 -0.5732
 8294TIP3    H224847   6.952   5.089   0.169 -2.4884 -0.5016 -1.4875
 8295TIP3   OH224848   1.101   3.062   5.084 -0.3957 -0.1546  0.5389
 8295TIP3    H124849   1.163   3.027   5.020 -0.9122 -0.5238  0.2354
 8295TIP3    H224850   1.148   3.135   5.125  0.6635 -1.1446  1.1410
 8296TIP3   OH224851   1.156   6.324   4.122  0.2349  0.4176  0.2137
 8296TIP3    H124852   1.180   6.417   4.124 -0.6944  0.6660  0.6848
 8296TIP3    H224853   1.092   6.318   4.051 -0.5117  0.3607  0.8763
 8297TIP3   OH224854   6.602   6.326   0.462  0.6830 -0.1507 -0.6680
 8297TIP3    H124855   6.553   6.400   0.427  0.1421  0.0882  0.5332
 8297TIP3    H224856   6.658   6.364   0.530 -0.2587 -0.9380  0.5865
 8298TIP3   OH224857   0.273   3.373   0.870 -0.8698  0.1100 -0.7139
 8298TIP3    H124858   0.234   3.447   0.824 -1.8864  0.4724  0.6717
 8298TIP3    H224859   0.224   3.297   0.839 -0.8330  0.2112 -1.0213
 8299TIP3   OH224860   4.601   5.325   0.536  0.4613 -0.2824 -0.0807
 8299TIP3    H124861   4.690   5.354   0.520 -0.3242  2.3885 -0.1024
 8299TIP3    H224862   4.567   5.304   0.449  0.3377  1.0978 -0.3805
 8300TIP3   OH224863   5.973   5.820   0.393 -0.0543  0.2102  0.0631
 8300TIP3    H124864   5.919   5.742   0.410 -0.2572  0.3977  0.2959
 8300TIP3    H224865   5.912   5.882   0.353  0.1635  0.1657 -0.3376
 8301TIP3   OH224866   2.959   0.646   4.909  0.0239 -0.0436 -0.8081
 8301TIP3    H124867   2.880   0.698   4.924  1.8751  2.0930  3.0843
 8301TIP3    H224868   2.965   0.588   4.985  2.6599  0.6489 -0.3697
 8302TIP3   OH224869   5.482   5.997   0.306 -0.0307  0.0242 -0.2469
 8302TIP3    H124870   5.415   5.939   0.342 -0.5858  1.1129  0.5329
 8302TIP3    H224871   5.445   6.026   0.222  0.1741 -0.5854 -0.5590
 8303TIP3   OH224872   2.669   1.536   2.382 -0.3966 -0.1896  0.3841
 8303TIP3    H124873   2.635   1.535   2.472 -0.1166 -1.7466  0.4920
 8303TIP3    H224874   2.635   1.455   2.343 -0.5180  0.4714 -0.9235
 8304TIP3   OH224875   1.501   6.194   1.143 -0.7457  0.3465  0.1535
 8304TIP3    H124876   1.489   6.114   1.195  0.5916 -0.4423 -0.6626
 8304TIP3    H224877   1.581   6.233   1.178  0.3162 -0.3183 -1.3665
 8305TIP3   OH224878   3.445   6.641   5.588  0.5517 -0.1692 -0.0710
 8305TIP3    H124879   3.504   6.716   5.580 -0.1050  0.4414  0.5950
 8305TIP3    H224880   3.467   6.602   5.672 -1.2578  1.2451  1.1484
 8306TIP3   OH224881   1.114   0.657   3.422  0.1704  0.2502  0.2922
 8306TIP3    H124882   1.039   0.597   3.415  0.8417 -0.5548 -0.2092
 8306TIP3    H224883   1.176   0.625   3.357  1.1706  0.5899  1.0526
 8307TIP3   OH224884   6.949   5.008   0.351 -0.2941  0.7067  0.2356
 8307TIP3    H124885   6.907   4.923   0.340 -0.5476  0.7425  0.8625
 8307TIP3    H224886   7.026   4.989   0.405  0.4212  0.6669 -0.7631
 8308TIP3   OH224887   6.823   4.818   3.158 -0.6875 -0.0552 -0.3831
 8308TIP3    H124888   6.767   4.868   3.098  0.4170 -0.0588 -1.4817
 8308TIP3    H224889   6.912   4.847   3.137 -0.2231 -0.4736  0.8927
 8309TIP3   OH224890   2.999   4.913   3.635  0.7442  0.1799  0.4406
 8309TIP3    H124891   2.992   5.007   3.652 -2.2459  0.5779 -2.1397
 8309TIP3    H224892   3.074   4.905   3.577 -0.3095  1.3551 -1.1468
 8310TIP3   OH224893   3.095   2.227   4.429 -0.3505 -0.1983 -0.0111
 8310TIP3    H124894   3.131   2.306   4.388 -1.4129 -0.0913 -0.7654
 8310TIP3    H224895   3.059   2.176   4.356 -0.1945 -1.1101  0.5360
 8311TIP3   OH224896   5.229   2.346   5.011  0.6610 -0.0509  0.2608
 8311TIP3    H124897   5.307   2.375   4.963 -0.1865 -1.4141 -2.1317
 8311TIP3    H224898   5.164   2.414   4.993  0.5477 -0.2162  0.0372
 8312TIP3   OH224899   0.458   0.430   0.661 -0.3036 -0.3458 -0.0106
 8312TIP3    H124900   0.448   0.438   0.756 -2.5764 -0.0632 -0.2111
 8312TIP3    H224901   0.427   0.513   0.626  0.8435 -0.3042 -1.0150
 8313TIP3   OH224902   7.037   3.988   1.487 -0.5977 -0.3425  0.4109
 8313TIP3    H124903   7.058   3.959   1.576 -0.6317  2.2496  1.3650
 8313TIP3    H224904   6.970   4.056   1.499 -0.5590  0.1195 -1.5894
 8314TIP3   OH224905   4.992   2.485   2.522  0.1056  0.2791 -0.0703
 8314TIP3    H124906   5.043   2.470   2.442  2.8461  1.9421  1.2562
 8314TIP3    H224907   4.960   2.574   2.513  0.4437  0.4790  0.6865
 8315TIP3   OH224908   4.517   5.612   2.754 -0.5770  0.0798 -0.0342
 8315TIP3    H124909   4.426   5.583   2.760 -0.2945 -0.6365  1.4577
 8315TIP3    H224910   4.515   5.704   2.780 -0.8453 -0.0057  0.2565
 8316TIP3   OH224911   1.205   1.635   5.359  0.4317  0.2105  0.6042
 8316TIP3    H124912   1.178   1.635   5.268  1.4713 -1.0372  0.2723
 8316TIP3    H224913   1.129   1.671   5.406  0.1520  1.5334 -0.7941
 8317TIP3   OH224914   3.268   3.248   3.044 -0.2966  0.4787  0.1505
 8317TIP3    H124915   3.334   3.190   3.005  1.5739  2.5391 -0.0058
 8317TIP3    H224916   3.220   3.192   3.104  0.7557 -1.4301 -0.6587
 8318TIP3   OH224917   3.914   3.927   4.479  0.6179  0.4809 -0.3386
 8318TIP3    H124918   3.851   3.979   4.528  0.9068  0.1305  0.4215
 8318TIP3    H224919   3.865   3.895   4.403  0.5078  2.0690 -0.9805
 8319TIP3   OH224920   3.567   3.911   1.389  0.3854 -0.0266  0.4370
 8319TIP3    H124921   3.482   3.901   1.430 -1.0277  0.6920 -2.1099
 8319TIP3    H224922   3.567   3.849   1.316  1.6176  0.6912 -0.2200
 8320TIP3   OH224923   5.925   6.476   5.537  0.0180  0.0335 -0.1945
 8320TIP3    H124924   5.978   6.551   5.562 -1.4372  1.5528 -1.4315
 8320TIP3    H224925   5.927   6.476   5.441 -1.6494 -0.2403 -0.2582
 8321TIP3   OH224926   6.437   2.252   4.245 -0.1121 -0.3883  0.2422
 8321TIP3    H124927   6.519   2.298   4.227 -0.3274  0.2831  0.9037
 8321TIP3    H224928   6.455   2.200   4.323 -1.0766  1.9739  2.1721
 8322TIP3   OH224929   3.184   1.328   5.196 -0.0031 -0.1818  0.3729
 8322TIP3    H124930   3.202   1.409   5.149 -0.7039 -0.1753  0.1003
 8322TIP3    H224931   3.175   1.354   5.288  0.3168 -0.0394  0.3660
 8323TIP3   OH224932   5.138   4.256   3.317 -0.2208 -0.1215  0.5235
 8323TIP3    H124933   5.194   4.326   3.350  1.5813 -0.7458 -1.0722
 8323TIP3    H224934   5.057   4.300   3.293  0.5127  1.2650  0.4651
 8324TIP3   OH224935   6.664   6.199   0.226 -0.2788 -0.8463  0.0761
 8324TIP3    H124936   6.668   6.256   0.303  0.3622 -1.1579  0.2838
 8324TIP3    H224937   6.738   6.139   0.237 -0.6735 -1.4256 -0.3683
 8325TIP3   OH224938   1.913   3.275   1.108  0.0261  0.7407 -0.5571
 8325TIP3    H124939   1.856   3.203   1.082  0.2865  0.5025 -0.4830
 8325TIP3    H224940   1.977   3.283   1.037 -0.3413  1.2753 -0.8324
 8326TIP3   OH224941   5.800   6.033   0.919 -0.4005 -0.0704 -0.2983
 8326TIP3    H124942   5.727   6.062   0.975 -1.8643 -2.4151 -0.8538
 8326TIP3    H224943   5.871   6.093   0.941 -2.2435  1.8920  0.8106
 8327TIP3   OH224944   2.676   2.393   4.072 -0.1258  0.3927  0.2398
 8327TIP3    H124945   2.606   2.416   4.133 -0.4132 -1.2244  0.5712
 8327TIP3    H224946   2.631   2.371   3.990 -0.0594 -1.0463  0.5752
 8328TIP3   OH224947   1.548   6.407   2.278 -0.1982  0.1859  0.0736
 8328TIP3    H124948   1.487   6.460   2.329  0.2084  0.7987 -0.0602
 8328TIP3    H224949   1.500   6.327   2.258 -1.0108  0.7220 -0.1587
 8329TIP3   OH224950   6.299   4.152   3.052 -0.0842 -0.1558 -0.0965
 8329TIP3    H124951   6.315   4.116   3.139  0.0182 -0.0131 -0.0561
 8329TIP3    H224952   6.264   4.079   3.002 -0.4840 -0.1459  0.1643
 8330TIP3   OH224953   5.552   3.153   5.379 -0.1803 -0.0189  0.3136
 8330TIP3    H124954   5.605   3.108   5.445  0.6921 -0.4312 -0.6338
 8330TIP3    H224955   5.555   3.095   5.303 -2.6274 -0.4097  0.4559
 8331TIP3   OH224956   7.150   1.882   3.265 -0.1392 -0.5123  0.7089
 8331TIP3    H124957   7.179   1.795   3.238  0.0915  0.1017 -1.1981
 8331TIP3    H224958   7.068   1.896   3.218  0.2446  0.5937  0.3287
 8332TIP3   OH224959   2.129   1.408   4.012  0.0844  0.1182 -0.3950
 8332TIP3    H124960   2.195   1.356   4.058 -1.0812 -0.0308  1.1886
 8332TIP3    H224961   2.054   1.409   4.071 -2.0667 -1.2754 -2.9055
 8333TIP3   OH224962   3.310   5.383   3.467  0.0327 -0.4116  0.2907
 8333TIP3    H124963   3.261   5.460   3.497 -0.6378 -0.1778 -1.2515
 8333TIP3    H224964   3.348   5.411   3.383  0.7773 -1.3880  0.2847
 8334TIP3   OH224965   4.990   2.144   4.687 -0.4433 -0.5409  0.5089
 8334TIP3    H124966   5.007   2.077   4.621 -0.5847  0.2529 -0.3576
 8334TIP3    H224967   5.074   2.189   4.697 -0.8903  0.5805 -0.5689
 8335TIP3   OH224968   4.832   0.585   3.083  0.3561  0.6216 -0.0111
 8335TIP3    H124969   4.889   0.659   3.063 -0.5492  1.2759 -0.2307
 8335TIP3    H224970   4.885   0.529   3.140  1.6645  0.5536 -1.2369
 8336TIP3   OH224971   0.619   0.090   0.114 -0.1205  0.2418  0.5604
 8336TIP3    H124972   0.589   0.177   0.141  2.0873  1.6501 -1.0685
 8336TIP3    H224973   0.698   0.075   0.166 -0.3455 -0.6809  0.6415
 8337TIP3   OH224974   6.363   5.203   0.305  0.1321  0.7486 -0.1711
 8337TIP3    H124975   6.363   5.123   0.253 -2.7313  0.1584  0.5518
 8337TIP3    H224976   6.328   5.270   0.247  0.9622  1.1012 -0.2732
 8338TIP3   OH224977   2.139   4.791   3.874 -0.3145  0.0421 -0.2391
 8338TIP3    H124978   2.225   4.784   3.915 -0.1788 -0.1796 -0.5572
 8338TIP3    H224979   2.125   4.705   3.833 -1.0559 -0.2211  0.5233
 8339TIP3   OH224980   1.535   6.445   1.343 -0.3991  0.1521 -0.0548
 8339TIP3    H124981   1.594   6.399   1.282  0.4275  1.8248 -0.5761
 8339TIP3    H224982   1.587   6.458   1.422 -0.6006  0.2606  0.0612
 8340TIP3   OH224983   1.928   5.840   1.464 -0.5567 -0.3862 -0.4327
 8340TIP3    H124984   1.994   5.863   1.398 -0.9325  0.4689 -0.5296
 8340TIP3    H224985   1.846   5.833   1.415 -0.6936 -0.5632 -0.1804
 8341TIP3   OH224986   2.463   1.076   1.073 -0.5650  0.2467 -0.3059
 8341TIP3    H124987   2.443   1.140   1.005  1.7798  2.0708  0.5912
 8341TIP3    H224988   2.493   1.127   1.148 -1.0157 -1.8013  1.3939
 8342TIP3   OH224989   6.861   0.965   5.807 -0.1229 -0.1376 -0.0973
 8342TIP3    H124990   6.847   0.920   5.890 -2.8528  0.9502  0.1314
 8342TIP3    H224991   6.927   0.913   5.761 -0.7722 -2.4691  1.4846
 8343TIP3   OH224992   2.026   5.293   0.595  0.1877 -0.6842 -0.2178
 8343TIP3    H124993   2.011   5.200   0.612 -1.5634 -0.0826  2.0315
 8343TIP3    H224994   2.119   5.306   0.611  0.5897 -2.1502 -1.2099
 8344TIP3   OH224995   2.117   2.768   4.933 -0.4270 -0.2382 -0.0201
 8344TIP3    H124996   2.088   2.803   5.017 -1.9091  1.6636 -1.2369
 8344TIP3    H224997   2.146   2.679   4.953 -0.0771  0.3843  2.5957
 8345TIP3   OH224998   4.903   4.774   0.860  0.0387 -0.1247  0.1982
 8345TIP3    H124999   4.941   4.798   0.776 -0.2476 -1.0722 -0.2124
 8345TIP3    H225000   4.976   4.779   0.922  0.4214 -0.1583 -0.2450
 8346TIP3   OH225001   1.669   2.643   3.324 -0.4212  0.1563  0.5539
 8346TIP3    H125002   1.710   2.639   3.238 -1.6017  0.0016 -0.0090
 8346TIP3    H225003   1.730   2.695   3.377  1.0835 -1.0261  0.0734
 8347TIP3   OH225004   3.126   4.158   4.124  0.0531  0.0551  0.0690
 8347TIP3    H125005   3.203   4.215   4.135 -0.5318  1.1327 -1.1776
 8347TIP3    H225006   3.078   4.197   4.051 -0.2090 -2.2439 -1.0619
 8348TIP3   OH225007   4.488   5.100   5.898  1.0279  0.3359  0.0810
 8348TIP3    H125008   4.516   5.098   5.806  2.8943 -0.0132  0.6177
 8348TIP3    H225009   4.486   5.192   5.921  3.3905  0.3536  0.4495
 8349TIP3   OH225010   6.298   0.261   3.069  0.2570  0.3893  0.4596
 8349TIP3    H125011   6.258   0.345   3.048  0.8858  0.4075 -0.7494
 8349TIP3    H225012   6.255   0.199   3.010 -1.7631 -0.6003  2.7826
 8350TIP3   OH225013   3.938   5.892   3.176  0.6883 -0.1739 -0.1467
 8350TIP3    H125014   3.843   5.896   3.189  0.8401  0.3889  0.9181
 8350TIP3    H225015   3.973   5.960   3.234  1.6771  0.3271 -1.2862
 8351TIP3   OH225016   6.015   5.099   4.378 -0.7892  0.9030  0.0417
 8351TIP3    H125017   5.936   5.070   4.424 -0.6892 -0.3100 -0.5262
 8351TIP3    H225018   5.985   5.170   4.321 -1.3357  0.8890  0.3078
 8352TIP3   OH225019   6.940   0.939   4.379 -0.3692 -0.4369  0.1039
 8352TIP3    H125020   6.862   0.885   4.367  0.8097 -1.8843 -1.4650
 8352TIP3    H225021   6.921   1.019   4.330 -0.5023 -1.2183 -1.1721
 8353TIP3   OH225022   1.106   2.176   0.020 -0.2106  0.2145  0.0458
 8353TIP3    H125023   1.066   2.115  -0.042 -0.2821  0.5855 -0.2766
 8353TIP3    H225024   1.050   2.172   0.098 -0.5771  0.3379 -0.2084
 8354TIP3   OH225025   5.749   1.741   5.102 -0.0863  0.1600  0.5263
 8354TIP3    H125026   5.723   1.773   5.188  0.6545 -0.3100  0.9323
 8354TIP3    H225027   5.673   1.759   5.046  0.1130  2.1764  0.8264
 8355TIP3   OH225028   0.995   2.284   3.580 -0.2901 -0.9374  0.5241
 8355TIP3    H125029   1.015   2.339   3.504  0.1913 -1.3335  0.3636
 8355TIP3    H225030   1.081   2.261   3.616 -0.5256  0.0670  1.7816
 8356TIP3   OH225031   1.263   3.084   1.926  0.2412 -0.1599  0.2534
 8356TIP3    H125032   1.170   3.061   1.920  0.5472 -1.9399  1.5036
 8356TIP3    H225033   1.307   3.021   1.870  0.6641  1.4209 -1.2857
 8357TIP3   OH225034   0.668   1.817   0.968  0.4110 -0.1388 -0.0870
 8357TIP3    H125035   0.694   1.776   0.886 -1.2924 -1.4216 -0.0433
 8357TIP3    H225036   0.707   1.763   1.036 -1.0677 -1.2159 -0.0443
 8358TIP3   OH225037   4.267   4.349   2.812  0.0853  0.1158  0.5261
 8358TIP3    H125038   4.342   4.315   2.764  0.5492  1.4134  0.2987
 8358TIP3    H225039   4.253   4.285   2.882  0.0457 -1.2618 -0.6789
 8359TIP3   OH225040   7.151   0.261   4.468 -0.5633 -0.1493  0.2431
 8359TIP3    H125041   7.212   0.278   4.540 -0.1835 -0.0409 -0.0922
 8359TIP3    H225042   7.140   0.347   4.426 -0.7147 -0.2259  0.1253
 8360TIP3   OH225043   4.092   0.482   2.248  0.3672 -0.6296 -0.1269
 8360TIP3    H125044   4.037   0.471   2.170 -0.9362 -1.3653  0.8498
 8360TIP3    H225045   4.182   0.477   2.216 -0.1415 -0.5592 -1.6202
 8361TIP3   OH225046   1.606   0.559   0.623 -0.2206 -0.0288 -0.3557
 8361TIP3    H125047   1.534   0.534   0.681  1.4015  0.3759  1.9694
 8361TIP3    H225048   1.591   0.652   0.604 -0.6591 -0.1147 -0.4276
 8362TIP3   OH225049   6.848   4.027   4.016 -0.1241 -0.0799  0.4014
 8362TIP3    H125050   6.833   4.051   4.108  0.2878 -0.0314  0.4596
 8362TIP3    H225051   6.872   4.109   3.973 -0.1141 -0.1385  0.2948
 8363TIP3   OH225052   3.998   6.371   3.224 -0.5577 -0.0030 -0.0358
 8363TIP3    H125053   4.054   6.388   3.299 -1.0630  1.8955 -0.0442
 8363TIP3    H225054   3.997   6.454   3.175 -1.6647 -0.6483 -1.1716
 8364TIP3   OH225055   6.267   5.801   5.824 -0.0243 -0.3740  0.1178
 8364TIP3    H125056   6.264   5.835   5.913 -0.0236 -0.3486  0.1080
 8364TIP3    H225057   6.256   5.707   5.834 -0.0152 -0.3721  0.1456
 8365TIP3   OH225058   0.867   0.840   4.987  0.5807 -1.1008  0.7594
 8365TIP3    H125059   0.809   0.791   4.929  1.7977 -0.0297 -1.4825
 8365TIP3    H225060   0.823   0.924   5.000  0.5472 -1.1531  0.9920
 8366TIP3   OH225061   5.630   1.832   3.795  0.7744  0.1052 -0.7335
 8366TIP3    H125062   5.718   1.795   3.798  0.9543  0.5764  0.4957
 8366TIP3    H225063   5.629   1.884   3.715  1.0504 -1.2405 -1.6254
 8367TIP3   OH225064   3.991   0.446   3.838  0.1242  0.8226  0.2405
 8367TIP3    H125065   3.897   0.446   3.850  0.3107 -0.0031  1.9505
 8367TIP3    H225066   4.011   0.357   3.806  0.2428  1.3129 -1.1401
 8368TIP3   OH225067   4.904   4.319   2.026  0.0423  0.2902  0.5189
 8368TIP3    H125068   4.885   4.399   2.076 -0.4805  0.3356  0.2600
 8368TIP3    H225069   4.901   4.347   1.934  0.8982  0.1880  0.4490
 8369TIP3   OH225070   7.147   1.728   0.195 -0.4768  0.3348 -0.1396
 8369TIP3    H125071   7.097   1.771   0.125 -1.3007 -0.4082 -0.0269
 8369TIP3    H225072   7.113   1.638   0.197 -0.3213  0.2840  1.0714
 8370TIP3   OH225073   3.118   1.932   2.944  0.1914  0.3180  0.1338
 8370TIP3    H125074   3.040   1.961   2.898 -1.1502 -2.1596  0.6922
 8370TIP3    H225075   3.158   1.868   2.885  0.8889  0.3434  0.5662
 8371TIP3   OH225076   3.306   6.414   1.708  0.1649  0.2099  0.7336
 8371TIP3    H125077   3.243   6.455   1.649  0.5587  0.2022  0.2965
 8371TIP3    H225078   3.341   6.341   1.658  0.4400  0.1502  1.0096
 8372TIP3   OH225079   6.614   5.022   2.154  0.3352 -0.2975  0.3003
 8372TIP3    H125080   6.522   5.041   2.174  0.5072  1.5674 -0.4256
 8372TIP3    H225081   6.631   4.938   2.196 -1.8008 -0.8715  0.1373
 8373TIP3   OH225082   5.715   5.936   1.186  0.1676 -0.1616  0.1127
 8373TIP3    H125083   5.655   6.011   1.179 -2.0401 -1.5286  2.6481
 8373TIP3    H225084   5.664   5.862   1.153  0.8627 -1.1727  1.2485
 8374TIP3   OH225085   1.580   1.919   1.970 -0.5268  0.5742  0.6820
 8374TIP3    H125086   1.560   1.958   2.055 -0.0036 -0.8784  1.5083
 8374TIP3    H225087   1.498   1.878   1.942 -0.6171  0.7889  0.6340
 8375TIP3   OH225088   3.609   1.354   2.206  0.4121  0.0073  0.0171
 8375TIP3    H125089   3.610   1.447   2.182  0.6652  0.7115  2.5284
 8375TIP3    H225090   3.521   1.340   2.240  1.0385 -0.0782  1.6721
 8376TIP3   OH225091   2.678   3.431   3.163  0.2039 -0.2711  0.6010
 8376TIP3    H125092   2.742   3.390   3.221 -0.7499 -1.0184  1.1636
 8376TIP3    H225093   2.594   3.392   3.188 -0.1945 -0.9345 -1.5641
 8377TIP3   OH225094   5.409   5.460   0.599  0.4678 -0.1322  0.2248
 8377TIP3    H125095   5.316   5.442   0.587  0.6283  0.5035 -3.2412
 8377TIP3    H225096   5.453   5.392   0.548  1.9288 -0.2444  1.5608
 8378TIP3   OH225097   5.002   5.869   5.115 -0.2614 -0.1466 -0.2806
 8378TIP3    H125098   4.979   5.799   5.176  1.3630  0.2871  0.8851
 8378TIP3    H225099   4.930   5.870   5.052 -1.1027 -1.7983  0.5882
 8379TIP3   OH225100   1.832   0.147   1.458  0.0981 -0.1127  0.6105
 8379TIP3    H125101   1.800   0.109   1.376  0.2460 -0.4625  0.7156
 8379TIP3    H225102   1.923   0.117   1.464  0.9257  1.9827 -0.3830
 8380TIP3   OH225103   2.324   1.044   0.414 -0.1577  0.4795  0.0969
 8380TIP3    H125104   2.388   0.973   0.413  2.0806  2.3701 -0.3018
 8380TIP3    H225105   2.318   1.069   0.506  0.5126  0.9626  0.0192
 8381TIP3   OH225106   0.159   1.798   3.985 -0.0898  0.0448 -0.2066
 8381TIP3    H125107   0.110   1.787   3.904  2.1642 -1.3642 -1.5071
 8381TIP3    H225108   0.194   1.711   4.004  0.3861  0.5915  1.6552
 8382TIP3   OH225109   7.115   4.434   4.524 -0.0961 -0.0470  0.2017
 8382TIP3    H125110   7.134   4.432   4.430 -1.2442  1.2199 -0.0923
 8382TIP3    H225111   7.052   4.506   4.534  0.8941  0.6150  2.1100
 8383TIP3   OH225112   4.765   5.548   0.125  0.0442  0.1707  0.3224
 8383TIP3    H125113   4.784   5.632   0.084  0.8954  0.0129  0.3783
 8383TIP3    H225114   4.805   5.483   0.068 -0.8610 -0.2306  0.1243
 8384TIP3   OH225115   1.638   5.218   3.450  0.1003  0.1544  0.0728
 8384TIP3    H125116   1.695   5.231   3.526 -0.4439 -0.5145  0.6110
 8384TIP3    H225117   1.594   5.303   3.438 -0.5187  0.0097  1.1141
 8385TIP3   OH225118   0.312   5.774   3.593  0.1341 -0.1987  0.7651
 8385TIP3    H125119   0.314   5.821   3.677  1.9160  0.3257  0.4851
 8385TIP3    H225120   0.357   5.691   3.611 -1.5260 -1.1297  0.8473
 8386TIP3   OH225121   5.439   0.024   5.806  0.2266 -0.5579 -0.2334
 8386TIP3    H125122   5.356  -0.023   5.796  1.6049 -3.4449  0.6006
 8386TIP3    H225123   5.427   0.078   5.884 -0.8879 -0.9112 -0.1421
 8387TIP3   OH225124   1.605   3.610   2.489  0.5055 -0.0293 -0.5695
 8387TIP3    H125125   1.680   3.633   2.544  0.9463 -1.2662 -0.6179
 8387TIP3    H225126   1.543   3.569   2.549  0.8734 -1.1326 -0.9136
 8388TIP3   OH225127   1.715   4.116   1.711 -0.8088 -0.6298 -0.2485
 8388TIP3    H125128   1.787   4.063   1.746  0.0927  0.3992 -0.4999
 8388TIP3    H225129   1.728   4.114   1.617  0.5521  1.7830 -0.1801
 8389TIP3   OH225130   4.421   5.694   5.388 -0.7030 -0.4797  0.1850
 8389TIP3    H125131   4.489   5.641   5.429  0.6949  0.0502 -1.3417
 8389TIP3    H225132   4.459   5.781   5.380 -1.5244 -0.1846 -0.7780
 8390TIP3   OH225133   6.329   3.175   4.405  0.5547 -0.5963  0.3229
 8390TIP3    H125134   6.258   3.235   4.427  0.8943  0.4325 -1.2035
 8390TIP3    H225135   6.314   3.151   4.314  2.2537 -0.1753 -0.1129
 8391TIP3   OH225136   3.085   1.520   1.281 -0.3087  0.1222 -0.7284
 8391TIP3    H125137   2.997   1.482   1.292 -0.8777  1.1304 -1.6203
 8391TIP3    H225138   3.086   1.593   1.343 -0.1791  0.2544 -0.8901
 8392TIP3   OH225139   6.018   0.982   5.381  0.7236  0.5434  0.1777
 8392TIP3    H125140   5.945   0.924   5.358  1.1831 -0.0489  0.1983
 8392TIP3    H225141   6.053   0.945   5.462  0.9692  0.8984  0.2330
 8393TIP3   OH225142   0.558   6.327   5.823  0.1017 -0.1440 -0.4046
 8393TIP3    H125143   0.541   6.385   5.748  0.9297  0.7398  0.0656
 8393TIP3    H225144   0.474   6.319   5.867  0.0247  0.9008 -0.3467
 8394TIP3   OH225145   0.719   0.568   4.376 -0.2493 -0.2342 -0.1913
 8394TIP3    H125146   0.658   0.534   4.441 -0.4509 -0.9330 -0.7312
 8394TIP3    H225147   0.796   0.513   4.384 -0.3653 -0.4798 -0.6955
 8395TIP3   OH225148   3.612   1.094   0.985  0.1822  0.4346 -0.2736
 8395TIP3    H125149   3.645   1.037   1.055  2.5317  1.1720 -0.6934
 8395TIP3    H225150   3.541   1.044   0.944  0.3226 -0.9829  1.1252
 8396TIP3   OH225151   3.066   4.799   4.728 -0.2511 -0.5317  0.2506
 8396TIP3    H125152   2.988   4.855   4.720 -0.2350 -0.6170 -0.6302
 8396TIP3    H225153   3.076   4.785   4.822 -0.1535  1.1024  0.5151
 8397TIP3   OH225154   1.035   0.785   5.181  0.1134  0.8860  0.8169
 8397TIP3    H125155   0.968   0.799   5.115  0.2369  1.1645  0.7506
 8397TIP3    H225156   1.053   0.872   5.216  2.2872  1.2448 -0.9542
 8398TIP3   OH225157   5.379   1.637   4.814 -0.0365  0.5660  0.2074
 8398TIP3    H125158   5.437   1.562   4.802 -0.4061 -0.0157  1.7658
 8398TIP3    H225159   5.436   1.707   4.846  0.0301  0.3797  0.5031
 8399TIP3   OH225160   4.440   2.239   2.389 -0.1264  0.2170  0.2924
 8399TIP3    H125161   4.467   2.282   2.470 -0.4786  0.0715  0.4863
 8399TIP3    H225162   4.361   2.190   2.412  0.9324 -1.5204  0.3799
 8400TIP3   OH225163   1.783   2.070   4.379  0.2791  0.5847  0.6806
 8400TIP3    H125164   1.715   2.138   4.374 -1.0580 -0.7979 -1.8052
 8400TIP3    H225165   1.754   2.013   4.450 -1.0329  0.2314 -0.0888
 8401TIP3   OH225166   6.657   6.654   0.884  0.3498 -0.2573  0.1172
 8401TIP3    H125167   6.593   6.599   0.839  1.5192 -0.3236 -1.5520
 8401TIP3    H225168   6.609   6.735   0.903 -0.4848 -0.6493 -0.2789
 8402TIP3   OH225169   7.083   1.468   3.581 -0.6681 -0.2842 -0.0682
 8402TIP3    H125170   7.058   1.556   3.552 -0.1662  0.4420  1.5587
 8402TIP3    H225171   7.175   1.477   3.608 -1.2547 -0.6526  2.3549
 8403TIP3   OH225172   0.628   1.142   2.706 -0.6691 -0.9021 -0.8733
 8403TIP3    H125173   0.611   1.196   2.784  0.1778 -1.6559 -0.1398
 8403TIP3    H225174   0.656   1.058   2.742 -1.1526 -1.5597 -2.0039
 8404TIP3   OH225175   4.248   0.742   1.930  0.0634 -0.8487 -0.1447
 8404TIP3    H125176   4.197   0.773   2.005 -2.2029 -0.8580 -1.5821
 8404TIP3    H225177   4.250   0.816   1.870 -1.0278 -1.8103 -1.4462
 8405TIP3   OH225178   5.741   1.546   3.422  0.0211 -0.0385  0.1341
 8405TIP3    H125179   5.723   1.497   3.342  1.2796 -0.0288 -0.1798
 8405TIP3    H225180   5.772   1.631   3.392  1.1300 -0.2597  0.6004
 8406TIP3   OH225181   1.280   3.334   3.415 -0.8658  0.5719 -0.4362
 8406TIP3    H125182   1.370   3.338   3.448 -0.6819 -3.5345  0.1589
 8406TIP3    H225183   1.226   3.325   3.493 -1.3163 -0.7908 -0.8625
 8407TIP3   OH225184   2.186   0.041   2.854 -0.0824  0.0001 -0.5222
 8407TIP3    H125185   2.202  -0.053   2.864  0.6867  0.3061  1.5438
 8407TIP3    H225186   2.093   0.051   2.877  0.0753 -0.1515  0.2211
 8408TIP3   OH225187   3.581   5.037   0.979  0.9416  0.2525 -0.2831
 8408TIP3    H125188   3.515   4.979   1.015  2.0208 -0.6664  0.2889
 8408TIP3    H225189   3.537   5.121   0.967 -0.5312 -0.5593 -0.7089
 8409TIP3   OH225190   2.815   2.360   2.360  0.5226  0.5175 -0.0061
 8409TIP3    H125191   2.825   2.353   2.265  1.8492  3.1289 -0.1476
 8409TIP3    H225192   2.726   2.394   2.372  0.4243  0.3743 -0.3363
 8410TIP3   OH225193   4.999   6.408   1.129 -0.9181 -0.4474 -0.3981
 8410TIP3    H125194   4.918   6.393   1.177 -0.1304 -3.2558  0.2150
 8410TIP3    H225195   5.023   6.499   1.150 -2.4993 -0.4178  1.5583
 8411TIP3   OH225196   6.470   2.141   5.631 -0.0242 -0.0416  0.5517
 8411TIP3    H125197   6.452   2.194   5.709  0.3768  0.6876  0.1542
 8411TIP3    H225198   6.564   2.149   5.617 -0.1682  0.2288 -0.2926
 8412TIP3   OH225199   2.994   6.254   4.582  0.0507 -0.2943  0.7861
 8412TIP3    H125200   2.952   6.262   4.667 -1.7071 -0.5050 -0.0110
 8412TIP3    H225201   2.937   6.193   4.533  1.3700 -0.6873 -0.3183
 8413TIP3   OH225202   0.781   5.355   2.449 -0.0744  0.0955 -0.3302
 8413TIP3    H125203   0.798   5.426   2.512  0.4648 -0.2082 -0.1350
 8413TIP3    H225204   0.789   5.275   2.500  1.0849 -0.1943 -0.9357
 8414TIP3   OH225205   6.695   3.924   0.960 -0.4099 -0.1087  0.3769
 8414TIP3    H125206   6.674   3.847   1.012 -0.7043 -0.4943 -0.2904
 8414TIP3    H225207   6.626   3.927   0.893 -0.3907  0.7235  0.3792
 8415TIP3   OH225208   3.278   1.131   1.722  0.1120  0.2985  0.1098
 8415TIP3    H125209   3.270   1.137   1.626  2.1889 -1.9741 -0.2943
 8415TIP3    H225210   3.297   1.220   1.750 -1.6296  1.2286 -1.4218
 8416TIP3   OH225211   4.845   2.141   4.223  0.2673 -0.6371  0.3480
 8416TIP3    H125212   4.787   2.143   4.299 -0.7785  2.4523 -0.3862
 8416TIP3    H225213   4.799   2.087   4.159  0.4501 -2.0104  1.3184
 8417TIP3   OH225214   3.699   5.332   4.345  0.3974 -1.0315  0.1560
 8417TIP3    H125215   3.700   5.263   4.279  0.3322 -0.1575 -0.7858
 8417TIP3    H225216   3.699   5.285   4.428 -3.9039 -2.3145 -0.3394
 8418TIP3   OH225217   4.114   1.965   3.330 -0.2230  0.3775 -0.1579
 8418TIP3    H125218   4.070   1.905   3.390 -2.2427  2.0051  0.0815
 8418TIP3    H225219   4.204   1.971   3.363 -0.7060 -0.4170  1.3844
 8419TIP3   OH225220   5.119   5.917   5.816  0.3947 -0.2905  0.0705
 8419TIP3    H125221   5.183   5.952   5.755 -0.0611  0.0717 -0.2074
 8419TIP3    H225222   5.057   5.989   5.830 -0.7883 -1.1069 -0.8284
 8420TIP3   OH225223   7.103   4.118   0.291  0.1083  0.4075 -0.1967
 8420TIP3    H125224   7.104   4.048   0.226  1.1975  0.9282 -0.7649
 8420TIP3    H225225   7.193   4.119   0.326  0.6370  2.6601 -1.4680
 8421TIP3   OH225226   4.468   6.260   3.164 -0.9082  0.1533  0.0899
 8421TIP3    H125227   4.515   6.321   3.222 -1.0099  0.5560 -0.2428
 8421TIP3    H225228   4.537   6.209   3.121 -0.8521 -0.6359  1.0765
 8422TIP3   OH225229   3.233   1.925   4.533 -0.7282 -0.5813  0.1039
 8422TIP3    H125230   3.257   1.978   4.456  0.4637 -0.6190  0.4332
 8422TIP3    H225231   3.311   1.926   4.588 -1.2759 -1.2859  0.9145
 8423TIP3   OH225232   6.317   3.775   3.124 -0.0098  0.0608  0.0040
 8423TIP3    H125233   6.311   3.726   3.043 -0.8003 -2.1735  1.3139
 8423TIP3    H225234   6.325   3.708   3.192 -0.4007  1.8006  1.8670
 8424TIP3   OH225235   4.776   4.580   5.019  0.5528 -0.5425  0.3900
 8424TIP3    H125236   4.745   4.491   5.039  0.3444 -0.7164 -0.6343
 8424TIP3    H225237   4.775   4.625   5.103 -1.1425 -0.9710  0.6421
 8425TIP3   OH225238   0.615   6.175   3.253 -0.4585  1.0509 -0.1433
 8425TIP3    H125239   0.531   6.147   3.216 -0.6701 -0.3730  1.3018
 8425TIP3    H225240   0.674   6.179   3.177 -1.8332  2.2296 -1.2011
 8426TIP3   OH225241   4.860   1.436   1.360  0.3984 -0.1018 -0.0349
 8426TIP3    H125242   4.889   1.357   1.406  2.9783  0.4738 -0.5262
 8426TIP3    H225243   4.867   1.506   1.426 -0.3499 -0.0213 -0.0377
 8427TIP3   OH225244   3.955   5.666   5.421  0.1296  0.1625 -0.4790
 8427TIP3    H125245   3.984   5.755   5.402  0.9361  0.0906  0.3738
 8427TIP3    H225246   4.009   5.611   5.365 -1.4341  0.2534 -2.1955
 8428TIP3   OH225247   7.124   0.217   5.570  0.2521 -0.0159 -0.4451
 8428TIP3    H125248   7.163   0.305   5.570 -0.3304  0.2694  0.9281
 8428TIP3    H225249   7.034   0.231   5.598  0.4363 -1.1624  0.8269
 8429TIP3   OH225250   0.475   4.663   4.603 -0.4034 -0.4542 -0.1330
 8429TIP3    H125251   0.422   4.690   4.678 -0.1516 -2.5792  0.8788
 8429TIP3    H225252   0.412   4.633   4.538 -0.5497 -1.1725  0.3231
 8430TIP3   OH225253   0.700   1.867   5.046  0.2344  0.2952  0.7458
 8430TIP3    H125254   0.622   1.869   5.101  1.0322 -1.3297  2.0054
 8430TIP3    H225255   0.741   1.953   5.059 -0.4928  0.5632  1.3307
 8431TIP3   OH225256   4.067   0.722   5.755  0.2098 -0.1526  0.2650
 8431TIP3    H125257   3.999   0.775   5.712 -0.4793 -0.6328  0.7481
 8431TIP3    H225258   4.148   0.749   5.712 -0.4238 -0.4327 -1.1714
 8432TIP3   OH225259   4.713   0.208   5.660 -0.2755  0.0945 -0.0942
 8432TIP3    H125260   4.764   0.233   5.582  0.1585  0.2141  0.2209
 8432TIP3    H225261   4.704   0.113   5.654  1.2280 -0.1149  0.5759
 8433TIP3   OH225262   3.373   3.478   3.651 -0.5091  0.0681  0.0201
 8433TIP3    H125263   3.352   3.557   3.602  1.6895  0.5939 -0.2014
 8433TIP3    H225264   3.336   3.407   3.598 -0.2334  0.7880 -1.1892
 8434TIP3   OH225265   3.811   6.762   4.090  0.2717 -0.2116  0.3637
 8434TIP3    H125266   3.722   6.781   4.061  0.4754 -0.8823 -0.7863
 8434TIP3    H225267   3.799   6.704   4.166 -0.2798 -1.3680 -0.5747
 8435TIP3   OH225268   0.192   2.007   5.174  0.2483 -0.2670  0.5223
 8435TIP3    H125269   0.169   2.067   5.246 -0.2369  0.6828 -0.3993
 8435TIP3    H225270   0.109   1.989   5.130  0.8649  1.4696 -1.5336
 8436TIP3   OH225271   1.980   0.940   4.521  0.1081 -0.8472 -0.2904
 8436TIP3    H125272   1.954   0.889   4.598 -0.1306 -1.2235 -0.6151
 8436TIP3    H225273   1.923   1.018   4.524  0.8234 -0.3390  0.4847
 8437TIP3   OH225274   2.037   1.224   5.607 -0.6692 -0.2120  0.4418
 8437TIP3    H125275   2.075   1.146   5.567 -0.5170  1.3362 -2.7722
 8437TIP3    H225276   2.080   1.297   5.564 -1.1556  1.7259  2.9713
 8438TIP3   OH225277   2.552   5.470   3.325  0.1443  0.6006 -0.1430
 8438TIP3    H125278   2.529   5.537   3.389  1.7729  1.1685 -0.1054
 8438TIP3    H225279   2.561   5.518   3.243  0.1016  0.2123 -0.3766
 8439TIP3   OH225280   5.716   0.715   4.555 -0.2577 -0.4156  0.1667
 8439TIP3    H125281   5.742   0.681   4.469 -0.9023 -0.8746  0.1400
 8439TIP3    H225282   5.678   0.800   4.537  1.9145  0.6588  0.2966
 8440TIP3   OH225283   3.730   2.964   4.812  0.1033 -0.4388 -0.3362
 8440TIP3    H125284   3.761   2.888   4.763 -0.5887 -1.0269  0.1116
 8440TIP3    H225285   3.797   2.977   4.880 -0.0845 -1.0307 -0.0342
 8441TIP3   OH225286   6.828   0.360   2.834 -0.1080 -0.3605  0.1346
 8441TIP3    H125287   6.762   0.411   2.787 -1.1433 -0.6332  1.2443
 8441TIP3    H225288   6.911   0.403   2.811 -0.8565  1.2965  0.3256
 8442TIP3   OH225289   4.612   3.001   4.756  0.8949  0.2185 -0.7055
 8442TIP3    H125290   4.541   2.966   4.810 -0.4248 -1.2593 -3.2382
 8442TIP3    H225291   4.684   2.940   4.769  0.1340 -0.9024 -1.5762
 8443TIP3   OH225292   4.525   0.138   0.012 -0.4787 -0.0271 -0.1967
 8443TIP3    H125293   4.467   0.094  -0.050 -0.4438  1.9119 -1.7184
 8443TIP3    H225294   4.539   0.074   0.081 -2.7588 -1.3048 -0.7995
 8444TIP3   OH225295   0.464   0.341   4.819 -0.3102  0.3904 -0.0584
 8444TIP3    H125296   0.513   0.260   4.837 -0.3502 -0.1267 -1.9947
 8444TIP3    H225297   0.413   0.356   4.898  1.2671 -0.3117  1.1573
 8445TIP3   OH225298   0.982   2.493   3.926 -0.3400  0.3798  0.1306
 8445TIP3    H125299   0.956   2.528   3.841 -0.8069 -0.5702 -0.1310
 8445TIP3    H225300   0.903   2.453   3.961 -0.0368  0.3518  0.8106
 8446TIP3   OH225301   2.710   5.535   1.691  0.4820 -0.6670  0.1954
 8446TIP3    H125302   2.792   5.485   1.692  1.0807  0.1536 -2.0226
 8446TIP3    H225303   2.694   5.552   1.598 -1.4292  0.4643  0.6926
 8447TIP3   OH225304   3.229   6.395   2.941  0.4903  0.0945  0.5093
 8447TIP3    H125305   3.271   6.327   2.888 -0.8843 -0.5315  0.1823
 8447TIP3    H225306   3.299   6.428   2.998  1.9890  0.6554 -1.5124
 8448TIP3   OH225307   4.852   3.094   4.337  0.1772  0.7800 -0.5456
 8448TIP3    H125308   4.792   3.100   4.412  1.4460  2.0963  0.4242
 8448TIP3    H225309   4.924   3.154   4.359  1.3937 -0.0357 -2.0863
 8449TIP3   OH225310   1.868   4.795   2.367  0.1748 -0.1302  0.3326
 8449TIP3    H125311   1.895   4.861   2.302 -1.1608 -1.9600 -2.2582
 8449TIP3    H225312   1.780   4.822   2.393  0.3588  0.1072  0.7203
 8450TIP3   OH225313   2.293   5.201   5.817  0.7638  0.1272 -0.8217
 8450TIP3    H125314   2.309   5.110   5.793  1.4304  0.0687 -0.1679
 8450TIP3    H225315   2.235   5.234   5.747  0.0527 -0.9407 -0.7636
 8451TIP3   OH225316   1.769   5.076   5.148  0.2510 -0.1111 -0.0508
 8451TIP3    H125317   1.864   5.079   5.140  0.3806 -3.0355 -0.4937
 8451TIP3    H225318   1.739   5.029   5.070 -1.4700 -0.0458  0.5198
 8452TIP3   OH225319   3.450   3.547   0.336  0.2221 -0.0458 -0.4186
 8452TIP3    H125320   3.375   3.605   0.342  1.0235  1.1031 -1.1764
 8452TIP3    H225321   3.414   3.459   0.347 -1.0458  0.5618  0.4941
 8453TIP3   OH225322   4.109   4.799   0.167  0.1094  0.2458 -0.4204
 8453TIP3    H125323   4.176   4.740   0.132 -0.1233 -0.5489  0.4341
 8453TIP3    H225324   4.032   4.743   0.180 -0.0451  0.6794  0.6248
 8454TIP3   OH225325   3.195   5.008   1.871 -0.1815  0.3055  0.2006
 8454TIP3    H125326   3.181   5.022   1.965  1.2111  0.9808  0.3264
 8454TIP3    H225327   3.290   5.001   1.862 -0.1603  2.0015 -1.3801
 8455TIP3   OH225328   2.792   5.430   4.903 -0.0092  0.6326  0.1382
 8455TIP3    H125329   2.878   5.463   4.878  0.9365 -1.2722  0.6673
 8455TIP3    H225330   2.748   5.411   4.820 -0.2323  2.2770 -0.1482
 8456TIP3   OH225331   3.327   4.980   3.416 -0.0173  0.4754  0.2400
 8456TIP3    H125332   3.331   5.011   3.325 -0.7853  1.4943  0.5247
 8456TIP3    H225333   3.404   4.925   3.426  0.2805  0.6416 -0.9271
 8457TIP3   OH225334   2.713   3.506   2.884  0.6528 -0.4471 -0.1695
 8457TIP3    H125335   2.791   3.562   2.889  0.0600  0.5516 -1.5311
 8457TIP3    H225336   2.709   3.464   2.970  1.7937  0.6904  0.4828
 8458TIP3   OH225337   3.361   1.633   1.437 -0.3267 -0.0386  0.4670
 8458TIP3    H125338   3.321   1.719   1.444  0.2198  0.2777 -0.1638
 8458TIP3    H225339   3.312   1.589   1.368 -0.7633 -0.3367  0.9528
 8459TIP3   OH225340   4.700   0.562   3.510 -0.1929  0.0745  0.2408
 8459TIP3    H125341   4.747   0.495   3.559  0.1935  1.2865  1.5782
 8459TIP3    H225342   4.608   0.551   3.536 -0.6783 -1.9032 -1.9215
 8460TIP3   OH225343   2.777   3.055   0.293 -0.1681 -0.4752 -0.0881
 8460TIP3    H125344   2.785   3.119   0.222 -1.2030  0.3210  0.4873
 8460TIP3    H225345   2.683   3.043   0.304 -0.0457 -0.1734  1.4915
 8461TIP3   OH225346   4.507   6.125   4.538  0.0940 -0.9559  0.4709
 8461TIP3    H125347   4.413   6.145   4.537  0.1899 -0.5320  0.0475
 8461TIP3    H225348   4.521   6.070   4.462  0.5603  0.6968 -0.6857
 8462TIP3   OH225349   2.309   6.730   4.270 -0.1187 -0.6716 -0.0258
 8462TIP3    H125350   2.376   6.797   4.282  0.2314 -0.7767 -1.2765
 8462TIP3    H225351   2.337   6.658   4.328  1.9865 -1.5261 -1.9505
 8463TIP3   OH225352   4.251   6.426   4.442 -0.1229 -0.4354 -0.0663
 8463TIP3    H125353   4.264   6.385   4.356  0.7817  0.2900 -0.2962
 8463TIP3    H225354   4.174   6.382   4.478 -0.3032 -1.0065 -1.0950
 8464TIP3   OH225355   3.184   1.166   4.431 -0.2660  0.1681  0.6197
 8464TIP3    H125356   3.162   1.118   4.510  0.5480 -0.7180  0.3294
 8464TIP3    H225357   3.105   1.163   4.377 -0.5411  0.0247  1.0317
 8465TIP3   OH225358   0.294   0.233   3.060  0.5663 -0.0453  0.0166
 8465TIP3    H125359   0.365   0.236   2.996  0.0672 -0.4082 -0.5618
 8465TIP3    H225360   0.336   0.254   3.143  1.2076  0.5253 -0.4382
 8466TIP3   OH225361   4.077   5.467   5.283  0.4197  0.2944  0.0738
 8466TIP3    H125362   4.041   5.389   5.242 -1.2027  0.8975  0.2868
 8466TIP3    H225363   4.171   5.463   5.264  0.2551 -1.3095 -0.5427
 8467TIP3   OH225364   1.455   3.713   2.767 -0.1700 -0.1542 -0.0635
 8467TIP3    H125365   1.379   3.697   2.710  0.2011 -3.1121  0.0799
 8467TIP3    H225366   1.444   3.651   2.839  1.4493  0.6839  0.9613
 8468TIP3   OH225367   5.680   0.383   4.138  0.5379 -0.6082  0.4639
 8468TIP3    H125368   5.600   0.361   4.090 -0.0287 -0.6801  1.4124
 8468TIP3    H225369   5.666   0.473   4.168  1.4504 -0.0896 -0.6079
 8469TIP3   OH225370   5.276   0.370   0.679  0.0084 -0.4272 -0.0188
 8469TIP3    H125371   5.351   0.339   0.729 -0.4866  0.5089  1.3864
 8469TIP3    H225372   5.209   0.390   0.745 -1.8018 -1.9914 -1.2673
 8470TIP3   OH225373   0.979   5.533   2.880 -0.0336 -0.4173  0.7217
 8470TIP3    H125374   1.032   5.519   2.802  0.6890 -1.0137  1.3033
 8470TIP3    H225375   0.889   5.533   2.848  0.2388 -0.8246 -0.0825
 8471TIP3   OH225376   5.065   1.369   5.131  0.1578  0.5323  0.1222
 8471TIP3    H125377   4.991   1.345   5.076  0.3285  1.2430 -0.4425
 8471TIP3    H225378   5.078   1.462   5.113 -0.3123  1.0073  1.9971
 8472TIP3   OH225379   1.770   4.887   0.605  0.6153  0.5278  0.0635
 8472TIP3    H125380   1.717   4.850   0.676 -0.3841  1.3988 -0.1883
 8472TIP3    H225381   1.716   4.959   0.571  1.6069  0.8915 -0.7819
 8473TIP3   OH225382   3.562   5.006   5.291 -0.0305 -0.0517  0.2630
 8473TIP3    H125383   3.527   4.963   5.369 -0.7584  2.4810  1.4451
 8473TIP3    H225384   3.648   5.037   5.317 -1.1730  2.8274  0.9562
 8474TIP3   OH225385   0.635   0.023   3.805 -0.0510  0.1733 -0.0924
 8474TIP3    H125386   0.543   0.002   3.822  0.3029  0.1869  2.2163
 8474TIP3    H225387   0.640   0.039   3.711 -2.0940 -1.3078 -0.5019
 8475TIP3   OH225388   3.589   4.834   3.466 -0.0879 -0.2824  0.9621
 8475TIP3    H125389   3.660   4.853   3.404  1.0676  0.1290  2.3628
 8475TIP3    H225390   3.561   4.746   3.444 -0.3450  0.1908 -0.7433
 8476TIP3   OH225391   1.911   3.007   1.816 -0.1892  0.2393  0.0668
 8476TIP3    H125392   1.815   3.002   1.813 -0.3169  2.1945 -0.3191
 8476TIP3    H225393   1.936   2.944   1.885 -1.5818 -1.5970 -0.9973
 8477TIP3   OH225394   2.364   3.096   0.810 -0.1739  0.1069  0.2340
 8477TIP3    H125395   2.339   3.005   0.825 -1.7879  0.5088  0.2087
 8477TIP3    H225396   2.409   3.122   0.890  0.1207 -0.6473  0.3203
 8478TIP3   OH225397   6.091   1.354   3.014  0.2092  0.5673 -0.0291
 8478TIP3    H125398   6.178   1.314   3.015 -0.4244 -1.0819  2.8393
 8478TIP3    H225399   6.100   1.433   3.067 -0.1994 -0.2082  1.2527
 8479TIP3   OH225400   1.616   0.155   5.318 -0.1308 -0.2110  0.4190
 8479TIP3    H125401   1.671   0.166   5.241 -1.4821 -0.0134 -0.5496
 8479TIP3    H225402   1.624   0.062   5.341  1.9805  0.1563  1.4082
 8480TIP3   OH225403   6.319   5.756   3.705 -0.4528  0.7727 -0.4806
 8480TIP3    H125404   6.409   5.738   3.732 -0.2724  2.0975 -0.1113
 8480TIP3    H225405   6.303   5.694   3.634  1.1587  1.2678 -1.3342
 8481TIP3   OH225406   4.963   6.413   4.925  0.0258  0.0104 -0.1093
 8481TIP3    H125407   4.923   6.329   4.902 -2.6979  0.2777  2.9680
 8481TIP3    H225408   5.047   6.389   4.964  0.6131 -1.0033 -1.8832
 8482TIP3   OH225409   0.942   4.788   1.065 -0.0494 -0.4487  0.1129
 8482TIP3    H125410   0.861   4.812   1.111  0.4052 -0.8099  1.1305
 8482TIP3    H225411   1.011   4.822   1.121  0.5276 -0.9981 -0.2632
 8483TIP3   OH225412   6.135   6.681   0.262  0.1800 -0.3197 -0.8520
 8483TIP3    H125413   6.063   6.725   0.307  0.6672 -0.3363 -0.0296
 8483TIP3    H225414   6.211   6.737   0.279  0.4285 -0.4796 -1.4263
 8484TIP3   OH225415   0.178   1.553   1.291 -0.7546  0.1931  0.8284
 8484TIP3    H125416   0.111   1.537   1.357 -0.4846 -0.3007  0.9880
 8484TIP3    H225417   0.257   1.573   1.341 -0.5460 -0.1902  0.6625
 8485TIP3   OH225418   5.366   3.513   5.110 -0.6403  0.0322  0.2383
 8485TIP3    H125419   5.275   3.543   5.110 -1.4411 -2.1196  1.5236
 8485TIP3    H225420   5.417   3.590   5.087 -2.7548  1.3913 -0.1991
 8486TIP3   OH225421   6.429   6.520   3.753  0.2483  0.5030 -0.0287
 8486TIP3    H125422   6.354   6.569   3.787 -0.9559 -1.1761 -0.1329
 8486TIP3    H225423   6.397   6.430   3.746  2.3034 -0.2665 -0.0443
 8487TIP3   OH225424   3.197   4.077   1.611  0.0794  0.0668 -0.0524
 8487TIP3    H125425   3.112   4.057   1.573 -2.0585  3.0839  2.6467
 8487TIP3    H225426   3.217   4.003   1.668 -1.0896 -0.3443 -0.1617
 8488TIP3   OH225427   4.374   2.833   0.053  0.1022  0.3759 -0.0654
 8488TIP3    H125428   4.425   2.785  -0.012 -0.1291 -0.7954  0.6032
 8488TIP3    H225429   4.292   2.785   0.060  0.2798  0.2403  1.3845
 8489TIP3   OH225430   3.770   4.916   5.006  0.5905 -0.9519  0.3242
 8489TIP3    H125431   3.768   4.851   5.076 -1.8871  0.3085  1.5644
 8489TIP3    H225432   3.702   4.888   4.945 -0.8377  0.6307  1.1140
 8490TIP3   OH225433   6.157   0.476   1.531  0.2870 -0.4051  0.3901
 8490TIP3    H125434   6.110   0.479   1.448  0.5078 -1.1070  0.2416
 8490TIP3    H225435   6.114   0.407   1.581  0.1557  0.0122  0.8604
 8491TIP3   OH225436   5.232   0.953   5.600  0.5419  0.5961  0.2775
 8491TIP3    H125437   5.297   0.885   5.579 -0.3156 -1.0375  2.4630
 8491TIP3    H225438   5.161   0.937   5.539 -0.2410 -1.4832  1.6204
 8492TIP3   OH225439   3.330   6.085   2.351  0.2196 -0.5356 -1.0451
 8492TIP3    H125440   3.282   6.150   2.402  1.1183  0.5313 -1.5381
 8492TIP3    H225441   3.275   6.069   2.274  0.4951  0.4455 -1.4524
 8493TIP3   OH225442   2.334   5.748   3.837 -0.1725 -0.0394  0.0417
 8493TIP3    H125443   2.285   5.730   3.757 -0.2078 -0.1966  0.0990
 8493TIP3    H225444   2.381   5.830   3.818  1.0645 -0.8927 -0.7190
 8494TIP3   OH225445   5.990   2.115   2.092 -0.0811 -0.3428 -0.4643
 8494TIP3    H125446   5.899   2.123   2.119 -0.4405  1.5014 -2.0085
 8494TIP3    H225447   6.038   2.169   2.155 -0.1566 -0.6053 -0.1777
 8495TIP3   OH225448   2.674   5.056   1.369  0.5945 -0.2733  0.3511
 8495TIP3    H125449   2.747   5.057   1.307  1.4625 -0.2801  1.3420
 8495TIP3    H225450   2.596   5.051   1.314  1.3361 -0.2949 -0.7349
 8496TIP3   OH225451   3.625   3.369   5.141  0.8700 -0.0421  0.0934
 8496TIP3    H125452   3.651   3.323   5.221 -0.4008  1.1354  1.2328
 8496TIP3    H225453   3.607   3.459   5.170  0.4497  0.4220 -1.5299
 8497TIP3   OH225454   3.231   2.711   5.801 -0.3221  0.4521  0.3752
 8497TIP3    H125455   3.322   2.736   5.788 -0.3345 -0.0298 -0.7815
 8497TIP3    H225456   3.197   2.775   5.864  0.5821  1.1269  0.2001
 8498TIP3   OH225457   6.892   3.740   1.381 -0.2765  0.2390 -0.5622
 8498TIP3    H125458   6.813   3.794   1.378 -0.1314  0.4076 -2.1098
 8498TIP3    H225459   6.917   3.740   1.474 -1.6146  0.8584 -0.1699
 8499TIP3   OH225460   0.936   4.588   2.203  0.1530  0.1089  0.1324
 8499TIP3    H125461   0.965   4.506   2.161  0.6642  1.0918 -1.5561
 8499TIP3    H225462   0.841   4.580   2.208  0.3179 -1.4921  2.0694
 8500TIP3   OH225463   4.612   3.699   2.186  0.0772 -0.0678 -0.1802
 8500TIP3    H125464   4.682   3.761   2.166  0.1630  0.0918  0.6168
 8500TIP3    H225465   4.655   3.628   2.233 -0.2294 -0.1640 -0.0440
 8501TIP3   OH225466   4.715   5.147   2.542 -0.1331 -0.1353  0.4386
 8501TIP3    H125467   4.703   5.064   2.496 -2.2831  0.1844  0.3150
 8501TIP3    H225468   4.772   5.125   2.616 -0.5777 -1.6932  0.3499
 8502TIP3   OH225469   1.252   5.639   2.362 -0.1473  0.0116  0.1218
 8502TIP3    H125470   1.212   5.563   2.320 -0.9503  0.1239  0.6650
 8502TIP3    H225471   1.345   5.618   2.367 -0.0952 -0.1607 -1.3542
 8503TIP3   OH225472   3.655   0.935   2.536  0.1465  0.2708 -0.2993
 8503TIP3    H125473   3.683   0.974   2.619  0.7621  1.8243 -1.2011
 8503TIP3    H225474   3.655   0.841   2.553  3.0187  0.3404  0.6557
 8504TIP3   OH225475   5.001   5.894   3.817  0.2583 -0.1902 -0.5583
 8504TIP3    H125476   5.058   5.965   3.787  0.8565  0.0622  1.1064
 8504TIP3    H225477   5.053   5.814   3.802  0.4070 -0.0987 -0.5360
 8505TIP3   OH225478   4.856   5.393   5.234 -0.2286 -0.8192 -0.4049
 8505TIP3    H125479   4.766   5.408   5.205 -0.0945 -2.0553 -1.5456
 8505TIP3    H225480   4.888   5.322   5.179  1.3627 -0.6036  0.1726
 8506TIP3   OH225481   3.942   5.803   1.509 -0.0083  0.0990 -0.1547
 8506TIP3    H125482   3.993   5.725   1.486  1.5542  0.6423  1.2259
 8506TIP3    H225483   3.933   5.798   1.605 -0.3811  1.3127 -0.1115
 8507TIP3   OH225484   0.306   3.265   0.454  0.2881  0.4919 -0.2895
 8507TIP3    H125485   0.314   3.360   0.457  1.2629  0.5039 -1.9352
 8507TIP3    H225486   0.383   3.233   0.502  1.2128  0.5874 -1.6250
 8508TIP3   OH225487   4.901   4.392   4.523  0.0790  0.8728  0.2236
 8508TIP3    H125488   4.845   4.322   4.556 -0.8724  2.4660  2.2389
 8508TIP3    H225489   4.973   4.347   4.479 -0.3239 -1.3657  1.7109
 8509TIP3   OH225490   5.601   0.118   3.758 -0.1665  0.3234  0.2417
 8509TIP3    H125491   5.684   0.071   3.753  0.2850  1.0922  0.2998
 8509TIP3    H225492   5.621   0.205   3.723 -1.2541  0.1315 -0.9471
 8510TIP3   OH225493   3.177   0.165  -0.004 -0.2541 -0.4820 -0.1056
 8510TIP3    H125494   3.184   0.162   0.091 -2.2211 -0.5728  0.0885
 8510TIP3    H225495   3.237   0.097  -0.035  1.4682  0.4951  0.9544
 8511TIP3   OH225496   3.264   2.476   0.814  0.1425 -0.2519  0.3678
 8511TIP3    H125497   3.351   2.514   0.797 -0.5729  1.1513 -0.3586
 8511TIP3    H225498   3.213   2.495   0.735 -0.7101 -1.4571  0.5995
 8512TIP3   OH225499   5.890   0.527   4.838  0.2289  0.0905  0.8513
 8512TIP3    H125500   5.959   0.580   4.800  0.1742  0.4675  1.2737
 8512TIP3    H225501   5.817   0.588   4.852 -0.9132 -0.6397 -1.3571
 8513TIP3   OH225502   5.886   2.134   0.537  0.0458 -0.4364  0.0590
 8513TIP3    H125503   5.877   2.058   0.595 -0.1989  0.3563  1.0955
 8513TIP3    H225504   5.952   2.189   0.579  0.1360 -0.0238 -0.6120
 8514TIP3   OH225505   4.128   0.513   5.376 -0.3591 -0.1472  0.0275
 8514TIP3    H125506   4.096   0.594   5.337  0.0357  0.6445  1.3007
 8514TIP3    H225507   4.147   0.535   5.467  1.7995 -1.1001 -0.1294
 8515TIP3   OH225508   3.979   1.261   1.988  0.7713 -0.2011 -0.2452
 8515TIP3    H125509   4.069   1.280   2.013  0.3271  0.8223  0.6363
 8515TIP3    H225510   3.953   1.334   1.932  0.4555 -0.4413 -0.4202
 8516TIP3   OH225511   3.879   2.413   0.549  0.6264  0.7857  0.1191
 8516TIP3    H125512   3.938   2.372   0.487  0.9988  0.9133  0.3881
 8516TIP3    H225513   3.811   2.348   0.564  0.6479  0.6765 -0.2619
 8517TIP3   OH225514   2.193   0.928   1.679 -0.0293  0.2702 -0.0793
 8517TIP3    H125515   2.170   1.014   1.714  1.5129  0.8761 -0.4891
 8517TIP3    H225516   2.246   0.946   1.601 -1.8743 -1.0465 -1.7586
 8518TIP3   OH225517   3.071   4.542   5.086  0.1330  0.3657  0.2423
 8518TIP3    H125518   3.122   4.523   5.007 -1.5910 -2.0234 -0.4052
 8518TIP3    H225519   3.069   4.637   5.090  1.7321  0.5487 -1.6133
 8519TIP3   OH225520   6.454   5.241   0.803 -0.2267  0.0053  0.0905
 8519TIP3    H125521   6.394   5.200   0.740 -1.2660  0.3694  0.8116
 8519TIP3    H225522   6.400   5.256   0.881  0.9405 -0.1082  0.9477
 8520TIP3   OH225523   4.224   1.451   2.778 -0.3524 -0.2434 -0.1208
 8520TIP3    H125524   4.221   1.447   2.683  1.3363  0.1516 -0.2188
 8520TIP3    H225525   4.305   1.497   2.798  0.0821 -1.6025  1.5266
 8521TIP3   OH225526   1.860   2.872   0.276  0.2682 -0.1542  0.5227
 8521TIP3    H125527   1.783   2.902   0.228 -0.3741  1.6368  2.4655
 8521TIP3    H225528   1.929   2.932   0.250  0.2497  0.0040  0.8240
 8522TIP3   OH225529   5.252   0.269   3.666 -0.2797 -0.1137  0.7680
 8522TIP3    H125530   5.339   0.289   3.632  0.2584 -2.7446  0.3778
 8522TIP3    H225531   5.244   0.321   3.746  0.9517  1.4179 -0.0515
 8523TIP3   OH225532   6.047   2.004   1.679  0.5447 -0.3480  0.5090
 8523TIP3    H125533   6.074   1.917   1.708 -1.5188 -1.0288  0.4805
 8523TIP3    H225534   6.008   1.990   1.593  0.4317  0.6543  0.3800
 8524TIP3   OH225535   4.746   4.462   1.655  0.3385  0.8971 -0.0374
 8524TIP3    H125536   4.774   4.370   1.651  0.6211  1.0277 -1.3176
 8524TIP3    H225537   4.790   4.496   1.733  1.8681  0.4655 -0.6780
 8525TIP3   OH225538   5.906   5.591   4.102  0.0095 -0.3883 -0.6231
 8525TIP3    H125539   5.940   5.608   4.190 -3.1810 -0.8037  0.7971
 8525TIP3    H225540   5.844   5.662   4.086 -3.8579 -3.3088  0.0472
 8526TIP3   OH225541   5.943   6.221   3.865  0.2667  0.6155 -0.2251
 8526TIP3    H125542   5.847   6.213   3.860  0.4862 -2.3003 -2.2699
 8526TIP3    H225543   5.968   6.258   3.780  1.0137  0.5973 -0.0173
 8527TIP3   OH225544   3.315   4.644   3.935  0.3063  0.0609 -0.0256
 8527TIP3    H125545   3.385   4.603   3.884 -0.6665 -0.3336 -1.0986
 8527TIP3    H225546   3.235   4.611   3.895 -0.4963  0.9996  0.7679
 8528TIP3   OH225547   0.953   1.812   2.468 -0.0921  0.0484  0.3542
 8528TIP3    H125548   0.872   1.790   2.514 -0.7482  1.6845  0.0811
 8528TIP3    H225549   0.924   1.836   2.380  0.7504  0.2121  0.1143
 8529TIP3   OH225550   2.779   2.671   4.843 -0.6443  0.1552  0.0225
 8529TIP3    H125551   2.686   2.647   4.832 -0.5719 -1.0106  1.6165
 8529TIP3    H225552   2.803   2.710   4.759 -1.9272 -1.7815 -1.3597
 8530TIP3   OH225553   6.259   4.297   1.119  0.3058 -0.2660 -0.4614
 8530TIP3    H125554   6.262   4.359   1.046  0.0395 -0.8041 -0.9336
 8530TIP3    H225555   6.347   4.301   1.157  0.1061  0.8717 -0.0884
 8531TIP3   OH225556   1.676   1.761   5.655  0.1868  0.2867  0.1040
 8531TIP3    H125557   1.632   1.726   5.577 -0.5403 -0.8774  0.9943
 8531TIP3    H225558   1.625   1.839   5.679  0.8429  1.0744 -0.9611
 8532TIP3   OH225559   2.927   3.047   2.129 -0.3703  0.1349  0.1179
 8532TIP3    H125560   3.015   3.032   2.094  0.8838  0.8534  2.6918
 8532TIP3    H225561   2.914   3.141   2.121 -0.4840  0.1643  0.6559
 8533TIP3   OH225562   3.832   6.551   4.300  0.1290  0.2669 -0.0654
 8533TIP3    H125563   3.927   6.561   4.311  0.0022 -0.5352  2.1034
 8533TIP3    H225564   3.821   6.459   4.276 -0.0485  0.6777 -1.6983
 8534TIP3   OH225565   3.417   6.641   1.118  0.5061 -0.2085  0.2861
 8534TIP3    H125566   3.450   6.631   1.207 -3.4103 -0.8575  1.8446
 8534TIP3    H225567   3.430   6.555   1.078 -0.2829 -0.7795  1.2336
 8535TIP3   OH225568   1.912   0.798   3.013  0.0094 -0.5096  1.0048
 8535TIP3    H125569   1.969   0.808   3.089  1.7947 -1.0233 -0.2096
 8535TIP3    H225570   1.926   0.708   2.984  0.3598  0.0523 -0.6745
 8536TIP3   OH225571   6.296   0.912   0.690  0.1457  0.2349 -0.1721
 8536TIP3    H125572   6.320   0.942   0.602  1.1391  1.3048  0.4339
 8536TIP3    H225573   6.321   0.984   0.747 -0.0986 -0.6128  1.0413
 8537TIP3   OH225574   5.032   5.828   3.500  0.0735 -0.2177 -0.4562
 8537TIP3    H125575   5.028   5.793   3.588 -1.5338 -1.9604 -1.1476
 8537TIP3    H225576   5.017   5.922   3.510  1.9275 -0.0428  1.2425
 8538TIP3   OH225577   2.430   5.380   1.379 -0.2447  0.3030  0.1315
 8538TIP3    H125578   2.402   5.462   1.338  0.0502  0.6586  0.6365
 8538TIP3    H225579   2.521   5.394   1.402 -0.0324 -0.3727 -0.2797
 8539TIP3   OH225580   4.757   1.860   4.432 -0.1547 -0.3419  0.4890
 8539TIP3    H125581   4.676   1.824   4.468 -1.0457  1.8144  0.8072
 8539TIP3    H225582   4.826   1.810   4.475 -1.2827 -1.4261  1.1245
 8540TIP3   OH225583   6.211   2.147   1.440  0.1990  0.2110  0.2956
 8540TIP3    H125584   6.141   2.082   1.443  2.4559 -2.5015 -0.4657
 8540TIP3    H225585   6.192   2.200   1.364 -0.7030 -0.8993 -0.2811
 8541TIP3   OH225586   5.800   0.335   0.122  0.2393 -0.3572 -0.4075
 8541TIP3    H125587   5.860   0.395   0.077 -0.6857  1.2631  0.4728
 8541TIP3    H225588   5.744   0.302   0.052 -0.6518  1.5090 -0.6374
 8542TIP3   OH225589   1.438   5.910   0.270 -0.1944  1.1339 -0.7012
 8542TIP3    H125590   1.379   5.889   0.342  0.7402 -1.0415 -0.4930
 8542TIP3    H225591   1.525   5.907   0.309  0.3920 -0.8279 -1.9934
 8543TIP3   OH225592   5.330   1.366   2.306 -0.4018 -0.1051 -0.1684
 8543TIP3    H125593   5.409   1.407   2.272 -1.3348  1.5473 -0.5080
 8543TIP3    H225594   5.268   1.369   2.232 -1.2449  0.0347  0.5274
 8544TIP3   OH225595   7.132   1.809   2.026  0.3025 -0.0980  0.1931
 8544TIP3    H125596   7.095   1.737   1.975 -1.4117  0.3808  0.6893
 8544TIP3    H225597   7.087   1.805   2.110  1.2358  0.6836  0.7549
 8545TIP3   OH225598   0.829   4.252   0.935  0.0263  0.9992 -0.0424
 8545TIP3    H125599   0.779   4.171   0.943  1.0716  0.3168 -0.2422
 8545TIP3    H225600   0.764   4.318   0.912 -0.7457  0.0910 -0.5310
 8546TIP3   OH225601   3.313   1.401   2.919  0.0216 -0.7773 -0.0565
 8546TIP3    H125602   3.318   1.487   2.962  0.5361 -2.1367  2.7922
 8546TIP3    H225603   3.220   1.382   2.915 -0.2128  0.4591 -2.0525
 8547TIP3   OH225604   2.321   0.889   1.220  0.2041  0.3635  0.2646
 8547TIP3    H125605   2.356   0.807   1.186 -2.6109 -0.7503 -0.2225
 8547TIP3    H225606   2.337   0.953   1.150  2.3846  0.2637  0.6318
 8548TIP3   OH225607   6.030   2.927   2.850 -0.0179  0.0637  0.5096
 8548TIP3    H125608   6.064   2.883   2.772  2.0477 -0.0368  1.4261
 8548TIP3    H225609   6.002   2.856   2.907  1.7915 -0.0514  1.3054
 8549TIP3   OH225610   4.565   4.827   1.157 -0.1161 -0.2590 -0.0354
 8549TIP3    H125611   4.618   4.904   1.135 -0.8409  0.2707  0.0124
 8549TIP3    H225612   4.617   4.780   1.222  0.3375  0.1992 -0.0550
 8550TIP3   OH225613   4.661   0.895   4.471  0.0348 -0.2324 -0.1190
 8550TIP3    H125614   4.643   0.913   4.563 -0.8548  0.3110 -0.3844
 8550TIP3    H225615   4.625   0.970   4.424  0.7747 -0.3404 -0.8921
 8551TIP3   OH225616   6.834   5.315   2.621  0.6092 -0.1647  0.6018
 8551TIP3    H125617   6.835   5.219   2.614 -0.4779 -0.1108 -0.4296
 8551TIP3    H225618   6.798   5.345   2.538  0.2105  1.1155  1.2200
 8552TIP3   OH225619   7.065   2.785   0.244 -0.7885  0.6365 -0.0208
 8552TIP3    H125620   6.981   2.746   0.269  0.2622 -1.1599  0.9745
 8552TIP3    H225621   7.057   2.800   0.150 -1.5961 -1.3155 -0.3258
 8553TIP3   OH225622   2.514   6.058   2.125 -0.2694  0.2895 -0.7097
 8553TIP3    H125623   2.525   6.094   2.037 -0.1255 -0.8911 -1.1893
 8553TIP3    H225624   2.558   6.121   2.182 -0.6317  1.2333 -1.4321
 8554TIP3   OH225625   4.986   4.863   0.494  0.1856 -0.6869 -0.2991
 8554TIP3    H125626   5.044   4.878   0.569 -0.1742 -0.6584 -0.0246
 8554TIP3    H225627   4.908   4.915   0.513 -0.7426 -2.2327  0.2655
 8555TIP3   OH225628   5.887   5.283   2.822 -0.3563 -0.3496 -0.0410
 8555TIP3    H125629   5.868   5.327   2.905  1.4548  0.6405 -0.0979
 8555TIP3    H225630   5.966   5.231   2.840 -0.5707 -0.9873 -0.8687
 8556TIP3   OH225631   4.536   2.260   0.627 -0.0628 -0.7301  0.6473
 8556TIP3    H125632   4.485   2.304   0.560  1.0024 -2.0332 -1.0910
 8556TIP3    H225633   4.559   2.329   0.690 -0.6871  0.6128 -0.5598
 8557TIP3   OH225634   6.913   6.509   2.028 -0.3812 -0.2899 -0.7625
 8557TIP3    H125635   6.867   6.591   2.011  1.2281  1.4442  2.3450
 8557TIP3    H225636   6.870   6.474   2.107  0.8698 -0.8043 -0.2785
 8558TIP3   OH225637   4.052   4.973   1.636 -0.1381 -0.1706 -0.5293
 8558TIP3    H125638   4.004   5.034   1.691 -1.3179 -1.4526 -0.0573
 8558TIP3    H225639   4.128   5.022   1.606 -0.5702  1.2276  0.5356
 8559TIP3   OH225640   5.068   5.822   1.076 -0.5553 -0.0171  0.8082
 8559TIP3    H125641   5.131   5.872   1.128 -1.1644  2.2716 -0.5099
 8559TIP3    H225642   4.999   5.797   1.138 -1.1308  2.4112  1.2282
 8560TIP3   OH225643   2.661   3.159   2.495  0.3067  0.3048  0.4513
 8560TIP3    H125644   2.613   3.177   2.414  2.4395 -0.3303 -1.0330
 8560TIP3    H225645   2.697   3.244   2.520  4.6935 -0.2693 -2.7848
 8561TIP3   OH225646   6.651   2.234   2.955 -0.1527 -0.0049 -0.2404
 8561TIP3    H125647   6.714   2.299   2.924  0.1005 -0.5940 -1.0074
 8561TIP3    H225648   6.663   2.159   2.896 -0.3032 -0.8208  0.7361
 8562TIP3   OH225649   3.905   6.186   1.837  0.1912 -0.1481 -0.2086
 8562TIP3    H125650   3.879   6.189   1.929 -0.5629 -0.0142 -0.4223
 8562TIP3    H225651   3.994   6.150   1.839  1.0797  1.9443  0.7382
 8563TIP3   OH225652   5.667   3.619   5.516 -0.2683  0.1092 -0.6619
 8563TIP3    H125653   5.661   3.568   5.436 -0.4649 -0.7998 -0.0866
 8563TIP3    H225654   5.618   3.699   5.498 -0.6039 -0.2406 -1.3189
 8564TIP3   OH225655   5.764   4.386   3.942  0.1175  0.2995  0.5030
 8564TIP3    H125656   5.857   4.378   3.917 -0.4245  0.0606 -1.6682
 8564TIP3    H225657   5.741   4.476   3.918 -0.0719  0.5691  1.6489
 8565TIP3   OH225658   1.999   4.246   0.913 -0.0130  0.0526  0.4662
 8565TIP3    H125659   1.942   4.317   0.943 -1.8938 -1.3608  0.4742
 8565TIP3    H225660   2.063   4.288   0.856 -1.4792  1.6648 -0.0693
 8566TIP3   OH225661   2.581   3.987   5.654  0.0314 -0.2553 -0.2237
 8566TIP3    H125662   2.673   4.006   5.676  0.2279 -1.0684 -0.3038
 8566TIP3    H225663   2.546   4.071   5.624  0.4000  0.3555  0.9714
 8567TIP3   OH225664   0.542   3.812   2.219  0.0493 -0.1447 -0.3623
 8567TIP3    H125665   0.528   3.748   2.150  2.1228 -3.0864  1.6966
 8567TIP3    H225666   0.627   3.852   2.198  1.1408 -1.7131  0.8171
 8568TIP3   OH225667   2.244   5.345   3.251 -0.1993 -0.2725 -0.0102
 8568TIP3    H125668   2.295   5.405   3.197 -2.0529 -0.5847 -2.2597
 8568TIP3    H225669   2.306   5.313   3.316  1.1885  3.0281  0.4933
 8569TIP3   OH225670   6.221   1.484   4.213  0.2020 -0.6506  0.4766
 8569TIP3    H125671   6.155   1.450   4.274 -1.0638  2.8193  1.2471
 8569TIP3    H225672   6.235   1.574   4.241  4.1808 -0.7402 -0.6705
 8570TIP3   OH225673   0.387   4.820   4.881 -0.1885 -0.5731  0.7057
 8570TIP3    H125674   0.448   4.869   4.937 -0.3550  0.0501  0.3553
 8570TIP3    H225675   0.373   4.738   4.927 -1.5941  0.5662  2.4246
 8571TIP3   OH225676   0.884   1.491   3.638 -0.3969  0.0176 -0.1692
 8571TIP3    H125677   0.855   1.415   3.587 -0.3763 -1.2705  1.6264
 8571TIP3    H225678   0.924   1.550   3.574 -1.5968 -0.8716 -1.8206
 8572TIP3   OH225679   3.741   3.515   4.421  0.6283  0.0431  0.0722
 8572TIP3    H125680   3.701   3.430   4.401  1.8750 -0.3787 -0.7000
 8572TIP3    H225681   3.834   3.497   4.428  0.8690  1.2937  0.2674
 8573TIP3   OH225682   6.915   0.084   1.714 -0.3103 -0.0730  0.2154
 8573TIP3    H125683   6.958   0.076   1.629 -1.0373 -1.4494 -0.0520
 8573TIP3    H225684   6.971   0.143   1.764  0.9089 -0.3927 -0.7232
 8574TIP3   OH225685   3.871   5.626   5.689  0.1113  0.5710 -0.5529
 8574TIP3    H125686   3.961   5.624   5.658  0.5445  0.2081  0.6457
 8574TIP3    H225687   3.832   5.702   5.647  0.9274  0.6400 -1.2024
 8575TIP3   OH225688   6.725   4.991   2.951 -0.2609 -0.3030 -0.3462
 8575TIP3    H125689   6.650   5.007   2.894  1.4669  2.4755 -2.1097
 8575TIP3    H225690   6.789   4.946   2.895  0.9394  1.2259 -0.2896
 8576TIP3   OH225691   1.036   0.676   1.581 -0.4656  0.3028 -0.6081
 8576TIP3    H125692   0.987   0.691   1.662 -0.8554 -0.4897 -0.6873
 8576TIP3    H225693   1.128   0.681   1.608 -0.5840 -0.7683  0.0564
 8577TIP3   OH225694   4.605   2.577   4.466 -0.1796  0.0614  0.2452
 8577TIP3    H125695   4.673   2.547   4.405 -2.2982 -0.1210 -2.2375
 8577TIP3    H225696   4.599   2.671   4.451  0.2218  0.2517  1.2353
 8578TIP3   OH225697   5.041   0.848   1.630 -0.1543  0.9939  0.6113
 8578TIP3    H125698   5.059   0.879   1.718 -1.6967  1.4821  0.7972
 8578TIP3    H225699   5.116   0.876   1.578  0.7097  0.8069  1.7391
 8579TIP3   OH225700   3.886   4.439   5.165 -0.0625 -0.0785 -0.1696
 8579TIP3    H125701   3.897   4.438   5.070 -0.0768 -0.9320 -0.1711
 8579TIP3    H225702   3.886   4.532   5.189 -2.2670  0.2803 -1.2652
 8580TIP3   OH225703   6.622   2.225   4.612  0.2036 -0.5788 -0.3285
 8580TIP3    H125704   6.649   2.153   4.554  2.6890  1.0327 -1.3238
 8580TIP3    H225705   6.528   2.233   4.597  0.4400 -1.4011 -2.8231
 8581TIP3   OH225706   4.138   4.757   3.058 -0.3972  0.4285  0.2797
 8581TIP3    H125707   4.230   4.737   3.072 -0.9770 -1.5579  1.8053
 8581TIP3    H225708   4.106   4.686   3.003 -1.8649 -1.4707  3.2880
 8582TIP3   OH225709   2.100   6.042   3.916 -0.0871  0.0158  0.1150
 8582TIP3    H125710   2.042   5.965   3.911 -0.0023  0.0162 -1.4939
 8582TIP3    H225711   2.148   6.040   3.833  1.0370  0.9428  0.7323
 8583TIP3   OH225712   5.393   2.445   1.685  0.5433  0.7057  0.1551
 8583TIP3    H125713   5.403   2.495   1.766 -1.6000  0.0991  0.8511
 8583TIP3    H225714   5.356   2.361   1.712  0.8434  0.0408 -1.3570
 8584TIP3   OH225715   0.214   3.528   1.505 -0.3695 -0.0919  0.3204
 8584TIP3    H125716   0.254   3.478   1.577 -0.2294 -0.8183 -0.2572
 8584TIP3    H225717   0.213   3.618   1.537  1.1560 -0.1529  0.6139
 8585TIP3   OH225718   2.040   2.949   3.660  0.0833 -0.7805  0.0986
 8585TIP3    H125719   2.114   3.004   3.686 -0.0465 -0.5578 -0.0016
 8585TIP3    H225720   1.980   2.953   3.734  0.7375 -1.9972  0.7322
 8586TIP3   OH225721   0.323   2.827   3.816  0.0482 -0.0837  0.1752
 8586TIP3    H125722   0.294   2.742   3.782 -2.7547  0.7346  0.2394
 8586TIP3    H225723   0.300   2.889   3.747  1.2835  0.7555  0.4796
 8587TIP3   OH225724   4.051   2.038   1.795  0.5223  0.0585 -0.1300
 8587TIP3    H125725   4.041   2.048   1.700 -1.2094  1.8683  0.1732
 8587TIP3    H225726   4.094   2.118   1.824 -0.6327  0.3617  0.8136
 8588TIP3   OH225727   2.812   1.067   5.167  0.0452  0.0373  0.1145
 8588TIP3    H125728   2.793   1.145   5.116 -0.1904 -0.6174 -0.8222
 8588TIP3    H225729   2.908   1.067   5.177  0.0858  0.1872 -0.2910
 8589TIP3   OH225730   0.538   2.697   2.069  0.2770 -0.3573  0.1427
 8589TIP3    H125731   0.562   2.611   2.034  0.8903 -0.1630  0.0620
 8589TIP3    H225732   0.614   2.723   2.122  1.2590  1.2434 -1.8549
 8590TIP3   OH225733   2.099   6.331   3.942  0.2974 -0.6158  0.1128
 8590TIP3    H125734   2.166   6.376   3.994 -0.9782 -0.8269  2.0522
 8590TIP3    H225735   2.103   6.240   3.973  0.3806 -1.0513 -1.1381
 8591TIP3   OH225736   1.478   0.634   0.899 -0.1195  0.3383  0.0631
 8591TIP3    H125737   1.544   0.690   0.939 -1.3090  0.3800  2.0923
 8591TIP3    H225738   1.396   0.683   0.906 -0.4043  0.4019 -2.6402
 8592TIP3   OH225739   5.911   0.125   0.287 -0.4792  0.0347  0.4746
 8592TIP3    H125740   5.984   0.125   0.349 -0.8655 -1.7645  0.9916
 8592TIP3    H225741   5.904   0.217   0.259  3.1708  0.0211 -1.0802
 8593TIP3   OH225742   0.524   2.243   4.507 -0.0660 -0.2171 -0.1421
 8593TIP3    H125743   0.431   2.257   4.526  0.4953  1.7963  1.3872
 8593TIP3    H225744   0.570   2.289   4.576  2.1350  1.7182 -2.7038
 8594TIP3   OH225745   2.337   3.526   3.083  0.4446  0.5488  0.3049
 8594TIP3    H125746   2.386   3.599   3.045 -1.1787  0.7135 -1.6638
 8594TIP3    H225747   2.377   3.448   3.045  1.0236  0.5046  0.9923
 8595TIP3   OH225748   6.356   0.731   2.056  0.7937  0.0436  0.2284
 8595TIP3    H125749   6.397   0.759   1.974  0.1800 -0.0891 -0.1289
 8595TIP3    H225750   6.335   0.639   2.042 -1.7732  0.6851 -0.4992
 8596TIP3   OH225751   0.834   1.222   0.818 -0.5250 -0.1620  0.1246
 8596TIP3    H125752   0.831   1.234   0.913 -1.3945 -0.1914  0.1106
 8596TIP3    H225753   0.764   1.278   0.785  0.2338  0.3962 -0.5701
 8597TIP3   OH225754   2.505   0.209   3.044 -0.1539  0.1968 -0.5926
 8597TIP3    H125755   2.564   0.190   2.971  0.7785  1.0570 -0.0833
 8597TIP3    H225756   2.418   0.213   3.004  0.0537 -1.4904 -1.2907
 8598TIP3   OH225757   0.732   2.917   4.459  0.6887 -0.0839  0.0184
 8598TIP3    H125758   0.654   2.966   4.431 -0.6608 -1.8514  0.5014
 8598TIP3    H225759   0.778   2.978   4.518 -0.1493  1.1120 -0.5140
 8599TIP3   OH225760   3.114   0.589   0.053  0.2215 -0.0979  0.5681
 8599TIP3    H125761   3.076   0.676   0.038  1.2171  0.1384 -0.8596
 8599TIP3    H225762   3.186   0.605   0.114  0.3905  0.0764  0.3237
 8600TIP3   OH225763   0.537   1.543   0.099  0.4052 -0.0068  0.9590
 8600TIP3    H125764   0.551   1.583   0.013 -0.0391 -0.3690  0.7115
 8600TIP3    H225765   0.442   1.531   0.104  0.5377 -1.1626  0.9550
 8601TIP3   OH225766   3.246   3.673   0.601  0.4611  0.3760 -0.2028
 8601TIP3    H125767   3.220   3.659   0.693  2.3501  0.3779  0.3645
 8601TIP3    H225768   3.338   3.649   0.598  0.8424  1.8450 -1.7781
 8602TIP3   OH225769   6.069   2.704   3.964  0.2633 -0.2896  0.1576
 8602TIP3    H125770   6.114   2.686   3.882 -1.8766 -0.9918 -0.9346
 8602TIP3    H225771   5.983   2.737   3.938 -0.0529  0.6459  2.1349
 8603TIP3   OH225772   6.165   0.528   3.042 -0.3987  0.2704  0.7263
 8603TIP3    H125773   6.207   0.588   3.104  0.3477 -0.4965  0.9922
 8603TIP3    H225774   6.147   0.581   2.965  0.0478  0.8884  1.0406
 8604TIP3   OH225775   1.180   0.081   1.480  0.6771 -0.5216  0.7865
 8604TIP3    H125776   1.178  -0.006   1.442  0.2198  0.8033 -2.5533
 8604TIP3    H225777   1.096   0.089   1.527  0.4507 -1.6424  0.5869
 8605TIP3   OH225778   2.120   5.753   3.239  0.0348 -0.4094  0.3508
 8605TIP3    H125779   2.082   5.744   3.327 -0.6179  1.0549  0.2532
 8605TIP3    H225780   2.062   5.703   3.183  0.8647 -1.9748  0.8164
 8606TIP3   OH225781   0.699   5.403   1.618 -0.1250 -0.5220  0.7542
 8606TIP3    H125782   0.613   5.382   1.654 -0.4739  2.4831  1.9793
 8606TIP3    H225783   0.761   5.372   1.684 -0.5163  0.6585  1.7121
 8607TIP3   OH225784   1.831   5.589   3.675 -0.1535 -0.5072 -0.3031
 8607TIP3    H125785   1.741   5.587   3.707  0.3568 -0.2584  1.2182
 8607TIP3    H225786   1.847   5.681   3.654  0.0689 -0.3789  0.4131
 8608TIP3   OH225787   1.463   1.668   5.449  0.2409  0.1784  0.2119
 8608TIP3    H125788   1.375   1.657   5.412  0.0937  1.3628  0.1577
 8608TIP3    H225789   1.458   1.625   5.534 -0.9394  1.6771  0.9561
 8609TIP3   OH225790   6.528   4.818   4.057  0.1978  0.0335 -0.3236
 8609TIP3    H125791   6.551   4.902   4.097  0.6583 -0.9863  1.6443
 8609TIP3    H225792   6.453   4.839   4.000  1.3285  2.0522 -1.1880
 8610TIP3   OH225793   0.313   5.601   1.796  0.2712  0.1707 -0.1936
 8610TIP3    H125794   0.344   5.640   1.878  2.9987  1.7776 -1.8401
 8610TIP3    H225795   0.340   5.509   1.802 -3.5624 -1.0229  2.4511
 8611TIP3   OH225796   0.853   6.526   2.331 -0.1932  0.6406  0.5079
 8611TIP3    H125797   0.876   6.437   2.305  0.0547  0.4245  1.4340
 8611TIP3    H225798   0.816   6.565   2.251 -0.1887 -0.2416  0.0556
 8612TIP3   OH225799   5.473   0.778   2.953 -0.2372 -0.0122 -0.4557
 8612TIP3    H125800   5.450   0.824   3.034 -0.5647  2.0771 -1.6531
 8612TIP3    H225801   5.538   0.713   2.980 -1.1759 -0.1836  1.6457
 8613TIP3   OH225802   5.705   5.351   5.801 -0.5892 -0.1202  0.0563
 8613TIP3    H125803   5.623   5.303   5.790  0.5226 -2.5453  1.4557
 8613TIP3    H225804   5.718   5.355   5.896  0.4840  0.9938 -0.1091
 8614TIP3   OH225805   3.856   1.211   4.824  0.5445  0.0699 -0.2316
 8614TIP3    H125806   3.916   1.203   4.750  0.0480  0.7711 -0.7279
 8614TIP3    H225807   3.862   1.303   4.850  0.5342 -0.1122  0.4554
 8615TIP3   OH225808   6.189   6.379   3.332  0.6968  0.5379 -0.1443
 8615TIP3    H125809   6.220   6.458   3.377 -0.6475  1.3858 -0.6507
 8615TIP3    H225810   6.181   6.314   3.401 -1.0518  1.7262  0.8584
 8616TIP3   OH225811   4.470   4.799   4.612  0.4204 -0.1115 -0.0497
 8616TIP3    H125812   4.375   4.801   4.620  0.3423  1.1368 -1.0299
 8616TIP3    H225813   4.501   4.765   4.696 -0.8068  1.3736  1.0542
 8617TIP3   OH225814   5.842   3.727   3.175  0.5730 -0.1028  0.2250
 8617TIP3    H125815   5.908   3.755   3.112  0.3141  1.2893  0.5313
 8617TIP3    H225816   5.786   3.804   3.187 -0.0666 -0.7036  1.2836
 8618TIP3   OH225817   6.803   6.002   5.166 -0.3545 -0.1114  0.4404
 8618TIP3    H125818   6.842   5.956   5.240  0.4839  0.2603  0.2417
 8618TIP3    H225819   6.810   6.095   5.190 -0.8884 -0.0297  0.2879
 8619TIP3   OH225820   0.707   3.576   2.418 -0.4451 -0.3889  1.2119
 8619TIP3    H125821   0.802   3.575   2.434 -0.1121  1.6261 -0.2923
 8619TIP3    H225822   0.693   3.506   2.354  0.5623  1.1734 -0.8381
 8620TIP3   OH225823   2.242   5.764   0.031 -0.2058  0.2395 -0.1656
 8620TIP3    H125824   2.306   5.712   0.081  0.0397  0.0150 -0.7056
 8620TIP3    H225825   2.255   5.853   0.062 -0.9776 -0.0722  1.1409
 8621TIP3   OH225826   4.497   5.925   4.341 -0.1705 -0.6765  0.0197
 8621TIP3    H125827   4.436   5.890   4.406  0.0703  0.8521  1.1338
 8621TIP3    H225828   4.575   5.870   4.349 -0.2368 -0.6616  0.8661
 8622TIP3   OH225829   1.687   6.198   3.186  0.0718  0.2935 -0.2098
 8622TIP3    H125830   1.700   6.242   3.270  1.3248  1.1193 -0.8026
 8622TIP3    H225831   1.592   6.195   3.174 -0.0833  1.0660  0.7727
 8623TIP3   OH225832   6.116   5.016   3.678 -0.5971 -0.9359  0.4767
 8623TIP3    H125833   6.111   4.940   3.621 -2.4280 -0.5339  0.0181
 8623TIP3    H225834   6.069   4.989   3.758 -1.4177 -0.2741  0.2417
 8624TIP3   OH225835   1.979   2.226   2.785 -0.3971  0.3091 -0.2147
 8624TIP3    H125836   1.947   2.310   2.750  0.1986  0.4143 -0.5195
 8624TIP3    H225837   1.899   2.179   2.810 -0.7812  0.6588 -0.7445
 8625TIP3   OH225838   1.129   5.298   4.874 -1.1252  0.3984 -0.3976
 8625TIP3    H125839   1.200   5.349   4.910 -1.0592 -0.1464  0.2622
 8625TIP3    H225840   1.170   5.217   4.842 -1.4606  0.0165  0.1186
 8626TIP3   OH225841   1.202   5.230   2.648 -0.3246 -0.7227  0.3251
 8626TIP3    H125842   1.127   5.219   2.589 -1.3797  1.8851  1.0580
 8626TIP3    H225843   1.227   5.321   2.639  0.0338 -0.4494  3.2329
 8627TIP3   OH225844   2.260   2.186   2.708 -0.4834  0.2551  0.5379
 8627TIP3    H125845   2.195   2.225   2.650  0.2951  1.7162  0.5892
 8627TIP3    H225846   2.214   2.175   2.792 -1.5327 -1.6306 -0.2222
 8628TIP3   OH225847   2.549   2.496   4.773  0.1939  0.5930 -0.0926
 8628TIP3    H125848   2.482   2.427   4.775  0.5961  0.2104  0.5862
 8628TIP3    H225849   2.555   2.521   4.681 -0.4231  0.1800 -0.2529
 8629TIP3   OH225850   6.735   0.764   0.613 -0.0912  0.6106 -0.1917
 8629TIP3    H125851   6.683   0.780   0.692  0.1844  1.8604 -0.2348
 8629TIP3    H225852   6.823   0.795   0.635 -0.2713  2.0600 -1.3307
 8630TIP3   OH225853   2.943   2.720   5.307  0.4411  0.4742  0.5934
 8630TIP3    H125854   3.017   2.760   5.353  0.9811  0.9279 -0.6271
 8630TIP3    H225855   2.983   2.664   5.241 -0.2937  1.1116 -0.4132
 8631TIP3   OH225856   5.604   6.547   2.553 -0.1544 -0.3459  0.0744
 8631TIP3    H125857   5.594   6.605   2.628 -1.0160 -0.4707  0.0684
 8631TIP3    H225858   5.597   6.605   2.477 -0.5158 -0.3882  0.0750
 8632TIP3   OH225859   6.746   2.215   0.867  0.8193  0.2102 -0.1478
 8632TIP3    H125860   6.714   2.224   0.777 -0.5239  0.5938  0.3392
 8632TIP3    H225861   6.679   2.259   0.920  2.7068  2.0611  0.8548
 8633TIP3   OH225862   4.672   4.739   3.268  0.7273  0.2462  0.5473
 8633TIP3    H125863   4.765   4.754   3.280  0.4211  0.6795  2.8030
 8633TIP3    H225864   4.640   4.715   3.355 -1.2976  0.3290 -0.1224
 8634TIP3   OH225865   1.603   6.052   1.972 -0.0098 -0.0533 -0.5039
 8634TIP3    H125866   1.571   5.965   1.996  0.5149  0.7347  4.1416
 8634TIP3    H225867   1.691   6.036   1.937 -0.4809 -1.4464 -1.1353
 8635TIP3   OH225868   4.434   1.717   3.775 -0.8003 -0.3072  0.1337
 8635TIP3    H125869   4.395   1.710   3.688  0.8823  0.8225 -0.7683
 8635TIP3    H225870   4.443   1.811   3.790  2.5048 -0.4347 -0.2332
 8636TIP3   OH225871   1.727   5.913   5.361 -0.3370  0.0969 -0.0524
 8636TIP3    H125872   1.728   6.007   5.343 -0.4080  0.3207  1.0361
 8636TIP3    H225873   1.651   5.901   5.418  0.8829 -0.2606  1.5601
 8637TIP3   OH225874   5.139   4.690   1.794  0.6482 -0.1347  0.4879
 8637TIP3    H125875   5.144   4.776   1.837 -0.7067 -0.3242  1.0852
 8637TIP3    H225876   5.193   4.633   1.849 -0.3905 -0.1858  1.4938
 8638TIP3   OH225877   2.709   1.563   4.288 -0.1352 -0.0446  0.5197
 8638TIP3    H125878   2.665   1.489   4.246  0.3139  0.3311 -0.6369
 8638TIP3    H225879   2.774   1.522   4.346 -1.4382 -0.5836  1.6383
 8639TIP3   OH225880   4.623   4.548   5.324 -0.5786  0.0281 -0.2564
 8639TIP3    H125881   4.713   4.573   5.342 -0.9093  0.8042  0.4355
 8639TIP3    H225882   4.628   4.457   5.296  0.5437  0.4474 -1.5212
 8640TIP3   OH225883   5.812   5.085   1.241 -0.2602  0.3715  0.2703
 8640TIP3    H125884   5.846   5.012   1.189  0.1380  1.0433 -0.4326
 8640TIP3    H225885   5.762   5.137   1.178 -0.4924  0.7369  0.7568
 8641TIP3   OH225886   4.489   2.063   1.689  0.3238 -0.3034 -0.1136
 8641TIP3    H125887   4.431   2.128   1.650 -0.1989 -1.7996 -1.9655
 8641TIP3    H225888   4.519   2.010   1.616  1.5718 -1.5112  1.1955
 8642TIP3   OH225889   6.774   2.108   2.129 -0.2587  0.0154  0.6924
 8642TIP3    H125890   6.687   2.142   2.151 -1.1497 -1.7398  0.1443
 8642TIP3    H225891   6.806   2.070   2.211  0.0659  0.8024  0.9333
 8643TIP3   OH225892   3.005   2.290   1.271  0.5649 -0.8919 -0.1237
 8643TIP3    H125893   3.092   2.251   1.276  1.2706  0.7296  1.4198
 8643TIP3    H225894   2.966   2.274   1.356  0.9714  1.8029  0.6681
 8644TIP3   OH225895   3.440   6.224   3.401  0.1110  0.4957  0.0816
 8644TIP3    H125896   3.525   6.181   3.404  0.1849  0.6870  1.3096
 8644TIP3    H225897   3.388   6.179   3.468 -0.3255  1.2265  0.2514
 8645TIP3   OH225898   5.734   3.423   3.931  0.2541 -0.5105  0.0769
 8645TIP3    H125899   5.768   3.495   3.984 -0.4958  0.6116 -0.9428
 8645TIP3    H225900   5.658   3.459   3.886  0.3030 -1.7241 -1.0330
 8646TIP3   OH225901   4.275   0.579   3.323 -0.3032 -0.1080 -0.1033
 8646TIP3    H125902   4.257   0.499   3.372 -0.6453  0.3301  0.5038
 8646TIP3    H225903   4.224   0.646   3.367  0.6294  0.6175 -0.0964
 8647TIP3   OH225904   4.275   5.538   3.036 -0.5159 -0.6335 -0.6480
 8647TIP3    H125905   4.216   5.567   3.106 -0.1387 -0.4770 -0.3918
 8647TIP3    H225906   4.359   5.525   3.079  0.0234  0.5962 -1.2848
 8648TIP3   OH225907   5.248   5.130   0.420 -0.1191 -0.1848  0.0240
 8648TIP3    H125908   5.303   5.082   0.482 -1.5042 -0.5887  0.9879
 8648TIP3    H225909   5.167   5.079   0.416 -0.7253  0.8071 -0.7663
 8649TIP3   OH225910   6.054   1.448   1.050  0.5969  0.0736 -0.3925
 8649TIP3    H125911   6.142   1.413   1.065  0.7743  0.9886  0.8332
 8649TIP3    H225912   6.007   1.377   1.006  1.5809 -0.8923  0.0782
 8650TIP3   OH225913   3.447   6.233   4.903 -0.2873 -0.2831  0.3166
 8650TIP3    H125914   3.383   6.259   4.836  0.0752 -1.3047 -0.4394
 8650TIP3    H225915   3.464   6.314   4.952 -1.2397  0.2754 -0.2441
 8651TIP3   OH225916   0.931   4.168   1.843  0.1037  0.0001  0.2511
 8651TIP3    H125917   1.008   4.120   1.814  0.2799 -0.1813  1.0052
 8651TIP3    H225918   0.908   4.224   1.768  1.7127  0.9809  0.4342
 8652TIP3   OH225919   4.436   6.750   0.548 -0.0833  0.9482 -0.7711
 8652TIP3    H125920   4.478   6.825   0.506 -0.5348  2.0317  0.6429
 8652TIP3    H225921   4.413   6.692   0.475 -2.0828  3.3589 -2.2385
 8653TIP3   OH225922   2.125   2.298   4.625  0.0095  0.3302  0.0459
 8653TIP3    H125923   2.057   2.365   4.630  0.5497  0.8431  0.9577
 8653TIP3    H225924   2.197   2.341   4.579  0.2354  0.2736  0.3420
 8654TIP3   OH225925   6.668   5.353   3.852  0.7731 -0.4244  0.2933
 8654TIP3    H125926   6.707   5.387   3.771 -1.4157  1.1655 -0.1766
 8654TIP3    H225927   6.654   5.431   3.906  1.6738 -1.3976  2.0068
 8655TIP3   OH225928   4.895   4.844   5.716  0.5448  0.0234  0.0133
 8655TIP3    H125929   4.816   4.811   5.759  0.4629  1.9938  1.5532
 8655TIP3    H225930   4.871   4.933   5.689  2.3247  0.7779  0.8124
 8656TIP3   OH225931   5.785   4.158   4.671 -0.2450  0.4034  0.2164
 8656TIP3    H125932   5.856   4.164   4.608  0.3508  0.4687  0.8777
 8656TIP3    H225933   5.815   4.093   4.735 -0.8728  0.2692  0.3811
 8657TIP3   OH225934   4.202   4.620   5.260  0.0724  0.0245  0.4453
 8657TIP3    H125935   4.131   4.632   5.323 -1.5218  0.9582 -1.3982
 8657TIP3    H225936   4.249   4.542   5.290 -1.7086 -0.5977  1.7650
 8658TIP3   OH225937   6.882   6.045   0.266 -0.5056 -0.9940  0.0535
 8658TIP3    H125938   6.969   6.036   0.228  0.2111  2.3795  0.6018
 8658TIP3    H225939   6.895   6.034   0.360 -1.1732 -2.8451 -0.0185
 8659TIP3   OH225940   1.704   2.544   0.408 -0.0372  0.4998  0.3626
 8659TIP3    H125941   1.676   2.458   0.440 -1.4522  0.6216 -0.4331
 8659TIP3    H225942   1.622   2.588   0.385  0.7809  1.1370 -1.5062
 8660TIP3   OH225943   4.412   3.065   4.544  0.2266  0.1546 -0.7715
 8660TIP3    H125944   4.492   3.024   4.575  1.4509  1.5252 -1.9699
 8660TIP3    H225945   4.385   3.123   4.615 -0.9667 -1.8412  0.5195
 8661TIP3   OH225946   4.061   0.747   2.823  0.0713 -0.5774 -0.3134
 8661TIP3    H125947   4.054   0.743   2.919  1.5079 -0.7087 -0.2051
 8661TIP3    H225948   4.070   0.840   2.804 -0.5530 -0.5197 -0.3631
 8662TIP3   OH225949   3.104   2.488   2.489  0.0690 -0.4253  0.3389
 8662TIP3    H125950   3.157   2.519   2.416 -0.7877 -0.9409 -0.5228
 8662TIP3    H225951   3.151   2.518   2.567  0.2479  1.3823 -0.4242
 8663TIP3   OH225952   4.630   1.988   3.441 -0.0331  0.0890 -0.8979
 8663TIP3    H125953   4.666   1.901   3.455 -2.0800 -0.6561  0.2186
 8663TIP3    H225954   4.703   2.047   3.459  1.0227 -1.3568 -0.2394
 8664TIP3   OH225955   3.811   2.603   2.628 -0.2759  0.6904  0.0587
 8664TIP3    H125956   3.803   2.643   2.714 -0.6940 -0.3613  0.5267
 8664TIP3    H225957   3.847   2.672   2.572  1.7710  0.8371  1.4885
 8665TIP3   OH225958   2.489   4.077   4.604 -0.5247  0.4550  0.3859
 8665TIP3    H125959   2.488   3.987   4.571 -0.3125  0.2717  0.8663
 8665TIP3    H225960   2.458   4.130   4.531 -1.5588 -0.1115  0.3955
 8666TIP3   OH225961   4.646   1.226   3.150  0.0458 -0.1784  0.2484
 8666TIP3    H125962   4.625   1.196   3.061 -0.5654  1.1759 -0.1016
 8666TIP3    H225963   4.728   1.184   3.171  1.4845  1.2839 -1.9414
 8667TIP3   OH225964   0.546   3.491   4.307 -0.3490 -0.4855 -0.6375
 8667TIP3    H125965   0.540   3.584   4.285 -1.9005 -0.0189  1.4464
 8667TIP3    H225966   0.472   3.450   4.263  0.3916 -0.8126 -1.6392
 8668TIP3   OH225967   0.580   0.187   2.537 -0.2593 -0.6794 -0.0415
 8668TIP3    H125968   0.672   0.212   2.541 -0.3626 -0.3803  0.5684
 8668TIP3    H225969   0.537   0.258   2.490 -0.3076 -0.4303  0.3768
 8669TIP3   OH225970   0.409   4.998   2.514 -0.8509  0.1412 -0.2887
 8669TIP3    H125971   0.348   4.929   2.488 -0.0334 -1.1065  1.0072
 8669TIP3    H225972   0.353   5.071   2.540 -1.7361 -0.2568 -1.0092
 8670TIP3   OH225973   4.118   0.663   0.033  0.4064  0.2979  0.3110
 8670TIP3    H125974   4.057   0.639   0.103  0.4818 -1.3171 -0.1330
 8670TIP3    H225975   4.062   0.704  -0.033  0.2182  1.1542  0.9915
 8671TIP3   OH225976   4.481   1.884   5.786  0.8160 -0.0184  0.3358
 8671TIP3    H125977   4.547   1.832   5.831  0.0836 -0.1883  1.2389
 8671TIP3    H225978   4.520   1.972   5.780  1.7178 -0.4542 -0.4725
 8672TIP3   OH225979   4.534   5.817   3.874 -0.2471 -0.0698 -0.3699
 8672TIP3    H125980   4.456   5.808   3.820  0.5602  1.9805 -1.9839
 8672TIP3    H225981   4.508   5.877   3.944 -0.4724 -0.5106 -0.0609
 8673TIP3   OH225982   3.208   2.957   3.353 -0.1367  0.0426 -0.4563
 8673TIP3    H125983   3.147   3.011   3.303  0.6734  1.5613  0.1324
 8673TIP3    H225984   3.286   3.012   3.365  0.7108 -1.2298  0.2354
 8674TIP3   OH225985   0.309   6.480   2.705 -0.3617 -0.2306 -0.2835
 8674TIP3    H125986   0.313   6.512   2.615 -1.1973 -1.4013 -0.7748
 8674TIP3    H225987   0.218   6.451   2.716 -0.6199  1.0789  1.3832
 8675TIP3   OH225988   0.080   2.445   4.698  0.1413 -0.0922 -0.4838
 8675TIP3    H125989   0.070   2.540   4.702  0.7203 -0.0488  2.5761
 8675TIP3    H225990  -0.006   2.412   4.674 -0.4105  1.1525 -0.2764
 8676TIP3   OH225991   1.671   4.619   4.005  0.2397  0.3091 -0.3917
 8676TIP3    H125992   1.622   4.701   4.013 -1.5028 -0.7577  0.6030
 8676TIP3    H225993   1.679   4.606   3.910 -0.5657  1.0187 -0.5739
 8677TIP3   OH225994   3.104   5.648   5.095 -0.8697 -0.1859 -0.3011
 8677TIP3    H125995   3.082   5.736   5.125 -0.2980  0.2316 -1.0695
 8677TIP3    H225996   3.022   5.599   5.101 -1.5581  0.8068 -1.2511
 8678TIP3   OH225997   6.337   0.222   4.090 -0.2313 -0.0789 -0.3006
 8678TIP3    H125998   6.309   0.264   4.171  1.0491  0.8080 -0.2928
 8678TIP3    H225999   6.292   0.137   4.090  0.6406 -0.6063  1.9129
 8679TIP3   OH226000   1.571   4.537   4.265 -0.0151 -0.8472 -0.0135
 8679TIP3    H126001   1.599   4.534   4.173 -0.4163 -0.2806 -0.1598
 8679TIP3    H226002   1.485   4.579   4.262 -0.2852 -1.3467  0.5668
 8680TIP3   OH226003   4.330   0.236   3.800  0.1711  0.7672 -0.1508
 8680TIP3    H126004   4.251   0.193   3.834 -0.8432  1.5804 -1.3726
 8680TIP3    H226005   4.359   0.293   3.872  0.0849 -0.0858  0.5741
 8681TIP3   OH226006   5.276   3.052   2.446 -0.2192  0.0674 -0.5014
 8681TIP3    H126007   5.363   3.024   2.416 -0.3555  0.6092 -1.4458
 8681TIP3    H226008   5.247   3.114   2.379 -1.0774  0.3579  0.1310
 8682TIP3   OH226009   1.689   0.816   3.396  0.5866  0.0564 -0.1978
 8682TIP3    H126010   1.754   0.747   3.385  1.0825  0.5042 -0.1475
 8682TIP3    H226011   1.741   0.895   3.413 -0.0194 -0.1345  3.2164
 8683TIP3   OH226012   1.658   6.434   2.560  0.4583  0.3011 -0.2695
 8683TIP3    H126013   1.600   6.406   2.488  1.0033  1.6718 -1.2886
 8683TIP3    H226014   1.709   6.505   2.523  2.6546 -0.6919  0.6820
 8684TIP3   OH226015   2.268   6.110   5.182 -0.6526 -0.0001 -0.4093
 8684TIP3    H126016   2.353   6.106   5.139 -1.2393 -1.2673 -1.5218
 8684TIP3    H226017   2.232   6.195   5.157 -0.0089  0.2525 -0.4975
 8685TIP3   OH226018   6.386   0.660   4.952 -0.2793  0.0792 -0.0137
 8685TIP3    H126019   6.403   0.660   4.858  0.9007  2.3657  0.1393
 8685TIP3    H226020   6.322   0.730   4.965  0.3248  0.4665  0.9780
 8686TIP3   OH226021   4.900   4.435   0.583  0.2631  0.0037 -0.8124
 8686TIP3    H126022   4.911   4.341   0.595 -1.1910 -0.1431 -0.4474
 8686TIP3    H226023   4.987   4.472   0.601  1.6423 -1.4675 -3.6640
 8687TIP3   OH226024   4.275   2.046   3.994 -0.1885  0.0515  1.2316
 8687TIP3    H126025   4.317   2.044   4.080  1.8383 -2.7964  0.3136
 8687TIP3    H226026   4.224   1.966   3.991  0.7492 -0.5289 -0.6056
 8688TIP3   OH226027   5.684   3.961   3.201  0.2057 -0.3674  0.1967
 8688TIP3    H126028   5.655   3.985   3.112 -0.2701  0.3894  0.5422
 8688TIP3    H226029   5.605   3.968   3.254  0.5761 -0.4159  0.7554
 8689TIP3   OH226030   1.326   2.877   1.759  0.4627  0.3700  0.1556
 8689TIP3    H126031   1.276   2.867   1.677  0.1425 -0.1669  0.4158
 8689TIP3    H226032   1.349   2.788   1.784 -0.1437  0.4620  1.0872
 8690TIP3   OH226033   4.732   5.515   4.229  0.4519 -0.0062 -0.5310
 8690TIP3    H126034   4.751   5.478   4.315  1.9027  0.9817 -0.3928
 8690TIP3    H226035   4.801   5.482   4.172  1.1610  1.6095 -0.6401
 8691TIP3   OH226036   7.067   4.793   2.101  0.3347 -0.4498  0.5412
 8691TIP3    H126037   7.013   4.871   2.093  0.2168 -0.6319 -0.8459
 8691TIP3    H226038   7.078   4.779   2.195  1.8508  2.2496  0.8677
 8692TIP3   OH226039   1.703   1.718   0.658 -0.3208 -0.0133 -0.2282
 8692TIP3    H126040   1.776   1.773   0.686 -0.4480 -0.0404  0.1589
 8692TIP3    H226041   1.724   1.695   0.567  0.8051 -1.0874  0.2770
 8693TIP3   OH226042   6.027   2.909   5.854 -0.3353  0.1712  0.7363
 8693TIP3    H126043   6.055   2.825   5.891 -0.4743 -0.2805 -0.1535
 8693TIP3    H226044   5.996   2.887   5.767 -0.7038  1.1082  0.6258
 8694TIP3   OH226045   3.547   0.549   0.161 -0.1299  0.2583  0.2398
 8694TIP3    H126046   3.539   0.633   0.117 -0.3624 -0.0007 -0.2153
 8694TIP3    H226047   3.529   0.484   0.093  0.8409 -0.1881  0.3912
 8695TIP3   OH226048   5.728   4.262   1.327 -0.5293  0.0117 -0.0095
 8695TIP3    H126049   5.671   4.236   1.254 -0.5908 -0.6623  0.2734
 8695TIP3    H226050   5.814   4.278   1.286 -0.7273  0.2820 -0.3214
 8696TIP3   OH226051   5.647   2.346   2.823  0.5395  0.0929 -0.1387
 8696TIP3    H126052   5.671   2.255   2.806 -0.0719  0.5366 -4.2461
 8696TIP3    H226053   5.552   2.345   2.835  0.3816  0.2657 -1.2787
 8697TIP3   OH226054   1.487   1.092   2.402  0.1223 -0.2001  0.5623
 8697TIP3    H126055   1.465   0.999   2.407 -0.6324  0.0364  2.5690
 8697TIP3    H226056   1.432   1.134   2.469  1.6390  1.4553  0.8742
 8698TIP3   OH226057   0.244   0.421   5.033 -0.3739 -0.1372 -0.5488
 8698TIP3    H126058   0.272   0.501   5.077  1.6509 -0.5156 -1.0365
 8698TIP3    H226059   0.226   0.360   5.105  0.4592  0.0178 -0.1968
 8699TIP3   OH226060   0.377   6.236   5.090  0.6715 -0.3047  0.0622
 8699TIP3    H126061   0.461   6.214   5.051  0.8694  1.0804 -0.3409
 8699TIP3    H226062   0.329   6.283   5.022 -0.6708 -1.5396  0.0997
 8700TIP3   OH226063   1.116   4.796   3.285 -0.6284 -0.7428  0.5595
 8700TIP3    H126064   1.183   4.857   3.255  1.0768 -1.9581  1.6883
 8700TIP3    H226065   1.072   4.842   3.356  0.5556 -0.7438  1.3188
 8701TIP3   OH226066   1.871   2.591   0.154 -0.2763 -0.2547 -0.4493
 8701TIP3    H126067   1.875   2.496   0.149 -1.5134 -0.3317 -0.5086
 8701TIP3    H226068   1.780   2.612   0.131 -0.2655  0.8758  0.4467
 8702TIP3   OH226069   1.187   5.558   3.259  0.2237  0.0039 -0.4673
 8702TIP3    H126070   1.148   5.518   3.337 -0.0938  1.5025  0.1680
 8702TIP3    H226071   1.281   5.555   3.275  0.1495  0.4860  0.0674
 8703TIP3   OH226072   0.554   6.522   4.966  0.3072  0.2520  0.3165
 8703TIP3    H126073   0.541   6.589   4.899 -0.1441 -0.0623  0.0818
 8703TIP3    H226074   0.631   6.473   4.937  0.1976  0.2061  0.0996
 8704TIP3   OH226075   5.344   1.935   2.402 -0.5169  0.1423  0.5717
 8704TIP3    H126076   5.428   1.962   2.365 -1.0256 -0.5956 -1.2360
 8704TIP3    H226077   5.279   1.973   2.343 -1.4068 -0.3644  1.2031
 8705TIP3   OH226078   3.663   3.762   1.654 -0.2317 -0.2026  0.2311
 8705TIP3    H126079   3.597   3.793   1.591  1.9039  1.1955 -1.4882
 8705TIP3    H226080   3.616   3.698   1.708 -2.6248 -0.2947 -1.7444
 8706TIP3   OH226081   3.707   0.428   3.858  0.1400 -0.0070  0.2305
 8706TIP3    H126082   3.655   0.495   3.902 -0.6100 -1.4420  1.6392
 8706TIP3    H226083   3.704   0.452   3.766 -2.7675  0.1869  0.2879
 8707TIP3   OH226084   1.017   5.886   4.539  0.1029 -0.3736 -0.0612
 8707TIP3    H126085   1.028   5.887   4.444 -0.1941 -1.4817 -0.1268
 8707TIP3    H226086   1.102   5.913   4.573  0.9330 -2.0991 -0.6302
 8708TIP3   OH226087   4.988   3.097   4.637  0.5111 -0.0714  0.0715
 8708TIP3    H126088   5.049   3.026   4.616 -1.7328 -1.6797 -1.4889
 8708TIP3    H226089   4.963   3.082   4.728  1.7469  0.0976  0.4517
 8709TIP3   OH226090   1.509   4.173   2.585  0.3822 -0.5546 -0.4503
 8709TIP3    H126091   1.602   4.196   2.583  0.1108  0.5819 -0.5834
 8709TIP3    H226092   1.473   4.225   2.657 -0.3565 -0.1492 -1.0971
 8710TIP3   OH226093   0.988   1.089  -0.007  0.0545  0.2412 -0.2821
 8710TIP3    H126094   0.973   1.075   0.087  2.0847 -0.1854  0.0230
 8710TIP3    H226095   1.008   1.002  -0.041 -0.0847  0.4856 -1.0076
 8711TIP3   OH226096   4.231   1.603   3.964  0.1316 -0.4026 -0.2333
 8711TIP3    H126097   4.183   1.679   3.932  0.1876 -1.3825 -2.8842
 8711TIP3    H226098   4.322   1.621   3.940 -0.0525 -1.8756 -2.2420
 8712TIP3   OH226099   4.512   4.745   2.544  0.0362  0.3116  0.0664
 8712TIP3    H126100   4.496   4.762   2.451 -0.5829  0.3442  0.1739
 8712TIP3    H226101   4.424   4.735   2.582  0.2869  0.2147  0.6302
 8713TIP3   OH226102   0.349   3.719   3.978  0.0130 -0.0774 -0.2615
 8713TIP3    H126103   0.339   3.744   3.886 -0.0229 -1.8521 -0.7778
 8713TIP3    H226104   0.261   3.731   4.016 -0.0872  0.1872 -0.5689
 8714TIP3   OH226105   5.562   3.813   5.708  0.0871  0.4015 -0.1854
 8714TIP3    H126106   5.545   3.836   5.799  1.2896 -0.8583  0.3857
 8714TIP3    H226107   5.598   3.724   5.711 -2.0725 -0.6422 -2.0883
 8715TIP3   OH226108   6.855   4.192   5.420  0.3306  0.3697 -0.5501
 8715TIP3    H126109   6.845   4.233   5.334  1.6060  0.7312 -0.5575
 8715TIP3    H226110   6.769   4.157   5.441 -0.5730  2.2176 -0.9935
 8716TIP3   OH226111   3.780   4.520   3.740  0.3392  0.1049 -0.4755
 8716TIP3    H126112   3.871   4.541   3.763  0.3553 -0.0444 -0.4059
 8716TIP3    H226113   3.732   4.600   3.760  0.4394  0.1513 -0.4192
 8717TIP3   OH226114   3.343   1.232   0.903  0.2003  0.1507 -0.3596
 8717TIP3    H126115   3.283   1.284   0.956 -0.1427  0.0148 -0.6051
 8717TIP3    H226116   3.383   1.294   0.843 -0.4101  0.0996 -0.8349
 8718TIP3   OH226117   0.793   3.094   3.327  0.1004  0.0527  0.2915
 8718TIP3    H126118   0.841   3.176   3.341  0.1883  0.2076 -0.8204
 8718TIP3    H226119   0.795   3.082   3.232  1.2452 -1.9318  0.5128
 8719TIP3   OH226120   3.977   5.445   3.260 -0.6975  0.6023  0.2515
 8719TIP3    H126121   4.029   5.372   3.226 -0.5974 -0.0128  1.6621
 8719TIP3    H226122   4.039   5.516   3.271 -0.5174  0.4527  0.2099
 8720TIP3   OH226123   3.227   2.427   2.115 -0.0364 -0.1792  0.5960
 8720TIP3    H126124   3.284   2.358   2.082 -0.9704 -0.4372 -0.5458
 8720TIP3    H226125   3.280   2.507   2.107  0.0577 -0.3534 -0.8260
 8721TIP3   OH226126   5.085   2.543   4.913 -0.0026 -0.3220 -0.0440
 8721TIP3    H126127   5.006   2.498   4.882  0.2097 -0.0117 -1.0902
 8721TIP3    H226128   5.053   2.621   4.958 -0.2972 -0.2349 -0.4029
 8722TIP3   OH226129   3.631   0.918   3.852 -0.2744  0.5703 -0.3725
 8722TIP3    H126130   3.603   1.009   3.847  0.2269  0.6840 -1.2201
 8722TIP3    H226131   3.727   0.922   3.851 -0.2460  0.0357 -0.3463
 8723TIP3   OH226132   3.172   3.661   3.152 -0.1312  0.0143 -0.2905
 8723TIP3    H126133   3.206   3.735   3.202 -1.9653  0.1765  0.8020
 8723TIP3    H226134   3.214   3.669   3.067  2.4907  0.1963  0.9162
 8724TIP3   OH226135   1.595   0.702   5.450 -0.3839  0.0665 -0.5908
 8724TIP3    H126136   1.621   0.736   5.365 -0.7500 -0.3413 -0.8668
 8724TIP3    H226137   1.665   0.642   5.475 -0.9336 -0.8653 -1.2333
 8725TIP3   OH226138   7.218   3.855   3.819 -0.4075  0.8254 -0.2385
 8725TIP3    H126139   7.163   3.901   3.756 -1.4308  0.8604  0.6466
 8725TIP3    H226140   7.159   3.836   3.892  0.0338 -1.6198 -0.4321
 8726TIP3   OH226141   5.769   5.222   0.858 -0.4273 -0.2502  0.0709
 8726TIP3    H126142   5.833   5.293   0.869  0.2027 -0.9573  1.0358
 8726TIP3    H226143   5.710   5.231   0.933 -2.1793  1.0774 -1.3744
 8727TIP3   OH226144   1.390   4.964   1.094  0.6081 -0.3223  0.4532
 8727TIP3    H126145   1.340   4.882   1.086  0.5027 -0.2896  0.7516
 8727TIP3    H226146   1.352   5.021   1.028 -1.3781  0.5166  2.1980
 8728TIP3   OH226147   4.379   6.741   5.642 -0.2453 -0.2620 -0.0498
 8728TIP3    H126148   4.333   6.824   5.655 -0.0313 -0.1576  0.0454
 8728TIP3    H226149   4.451   6.763   5.582  0.7437 -0.0393  1.1629
 8729TIP3   OH226150   4.098   3.589   4.644 -0.1696 -0.5961  0.5486
 8729TIP3    H126151   4.117   3.675   4.680 -0.9699 -0.2804  0.2525
 8729TIP3    H226152   4.010   3.568   4.677 -1.0622 -0.1736 -1.3652
 8730TIP3   OH226153   3.886   3.490   1.802  0.6025  0.1241  0.6316
 8730TIP3    H126154   3.969   3.442   1.809  0.8821  0.4977  0.0165
 8730TIP3    H226155   3.905   3.560   1.739  0.0351  0.6826  1.0810
 8731TIP3   OH226156   5.409   4.131   5.221 -0.2584  0.0787 -0.2340
 8731TIP3    H126157   5.326   4.166   5.189 -0.7513  0.7228  1.6058
 8731TIP3    H226158   5.438   4.195   5.286  0.9516 -0.8789  0.2037
 8732TIP3   OH226159   2.350   4.841   3.166  0.0980  0.4529 -0.1591
 8732TIP3    H126160   2.377   4.760   3.210 -1.1357 -0.0701 -0.3251
 8732TIP3    H226161   2.363   4.909   3.231  3.1597  0.4899 -0.6754
 8733TIP3   OH226162   5.929   0.282   3.867 -0.0407 -0.1242  0.1374
 8733TIP3    H126163   5.873   0.358   3.886 -1.4507 -0.6596 -1.6517
 8733TIP3    H226164   6.015   0.321   3.850 -0.6604  1.0747 -0.4413
 8734TIP3   OH226165   2.049   3.334   0.107 -0.3215  0.2567  0.5183
 8734TIP3    H126166   2.000   3.280   0.044 -0.7620  2.0798 -0.7764
 8734TIP3    H226167   2.139   3.302   0.101 -0.9681 -2.1262  1.8181
 8735TIP3   OH226168   5.970   4.387   4.770 -0.3976  0.1343 -0.4661
 8735TIP3    H126169   5.940   4.312   4.720 -0.9362  0.3372 -0.4500
 8735TIP3    H226170   5.986   4.353   4.858  0.6315 -0.2404 -0.7843
 8736TIP3   OH226171   7.199   6.028   3.908  0.4289  0.0905 -0.0497
 8736TIP3    H126172   7.155   6.112   3.918 -1.1476 -0.6736 -0.2547
 8736TIP3    H226173   7.262   6.042   3.837 -0.1143  0.9918 -0.3655
 8737TIP3   OH226174   6.388   2.320   1.615  0.0382  0.5074  0.4210
 8737TIP3    H126175   6.466   2.368   1.588  0.7460  0.2476  1.8982
 8737TIP3    H226176   6.362   2.271   1.537  1.8282 -0.0178  0.1055
 8738TIP3   OH226177   0.563   5.375   0.919  0.6434  0.4348  0.0274
 8738TIP3    H126178   0.537   5.427   0.995  0.7681 -1.2719  1.2697
 8738TIP3    H226179   0.658   5.369   0.925  0.5785 -0.4402  0.2278
 8739TIP3   OH226180   2.318   3.794   4.232 -1.0655  0.4938 -0.0922
 8739TIP3    H126181   2.298   3.835   4.148 -1.1210  1.7143  0.5006
 8739TIP3    H226182   2.237   3.748   4.255 -1.1565  0.4156 -0.5490
 8740TIP3   OH226183   2.961   2.436   1.791  0.6141  0.5046 -0.5159
 8740TIP3    H126184   2.934   2.376   1.722 -1.0735 -0.0673  0.5632
 8740TIP3    H226185   2.993   2.380   1.861 -1.0697  0.7734  0.5441
 8741TIP3   OH226186   6.718   0.478   0.460 -0.4226 -0.0462 -0.9294
 8741TIP3    H126187   6.778   0.551   0.442 -1.0391  0.8878  0.6182
 8741TIP3    H226188   6.633   0.519   0.475 -0.4220 -0.8282  1.7958
 8742TIP3   OH226189   5.951   0.651   0.977 -0.2685  0.6506 -0.8892
 8742TIP3    H126190   6.007   0.720   0.942 -0.6441  0.0845 -2.6922
 8742TIP3    H226191   5.995   0.570   0.951 -1.5569  0.2036 -1.7755
 8743TIP3   OH226192   4.222   1.285   2.516  0.4383  0.4068 -0.3469
 8743TIP3    H126193   4.166   1.208   2.509  1.1320 -0.0160 -1.6467
 8743TIP3    H226194   4.165   1.358   2.491 -0.0593  0.2538  0.3126
 8744TIP3   OH226195   4.647   2.309   5.752  0.0200  0.2438  0.1640
 8744TIP3    H126196   4.731   2.269   5.731 -0.2753 -0.1246 -0.3362
 8744TIP3    H226197   4.611   2.336   5.667 -0.4329  0.2675  0.3593
 8745TIP3   OH226198   2.771   3.403   2.319  0.1291  0.6260 -0.1913
 8745TIP3    H126199   2.784   3.343   2.393  0.0581 -0.8850 -1.3522
 8745TIP3    H226200   2.775   3.490   2.358  2.1765 -0.0409  1.3119
 8746TIP3   OH226201   4.917   6.560   2.334 -0.3364 -0.7575 -0.2916
 8746TIP3    H126202   4.908   6.605   2.418 -1.1425 -0.0518 -0.7409
 8746TIP3    H226203   5.012   6.555   2.319 -0.0833  3.9615 -1.8556
 8747TIP3   OH226204   5.740   4.706   2.126  0.2289  0.5887 -0.4422
 8747TIP3    H126205   5.824   4.693   2.171  0.2264  3.0608  0.4265
 8747TIP3    H226206   5.741   4.798   2.100 -2.6142  0.9304  0.4094
 8748TIP3   OH226207   6.470   5.287   3.050 -0.0051 -0.2830  0.0120
 8748TIP3    H126208   6.551   5.304   3.098 -0.3716 -0.3529  0.6583
 8748TIP3    H226209   6.422   5.225   3.104 -0.2332 -0.7010 -0.6535
 8749TIP3   OH226210   4.648   1.430   1.961 -0.4042  0.3999  0.3928
 8749TIP3    H126211   4.643   1.405   1.869 -0.7201  1.4352  0.1115
 8749TIP3    H226212   4.713   1.371   1.999 -0.3519 -0.1046 -0.4704
 8750TIP3   OH226213   4.603   3.545   3.651 -0.6684  0.3122 -0.3954
 8750TIP3    H126214   4.558   3.617   3.607  1.3630  1.5556 -0.5874
 8750TIP3    H226215   4.667   3.515   3.587 -0.2396 -0.4171  0.3617
 8751TIP3   OH226216   0.423   1.457   0.382 -0.1091 -0.4599 -1.2731
 8751TIP3    H126217   0.484   1.484   0.451 -2.3892  0.3000  0.5665
 8751TIP3    H226218   0.438   1.520   0.311  0.3370  0.5246 -0.3399
 8752TIP3   OH226219   3.997   4.420   0.489 -0.1376  0.7699 -0.7653
 8752TIP3    H126220   4.075   4.405   0.436  0.6929 -0.2265  0.6495
 8752TIP3    H226221   3.985   4.515   0.489  0.4682  0.8567 -1.8276
 8753TIP3   OH226222   6.748   4.910   1.095  0.0095  0.2727  0.3856
 8753TIP3    H126223   6.683   4.941   1.032 -0.9669 -0.6017  0.9339
 8753TIP3    H226224   6.719   4.946   1.179 -1.0079 -1.8298  0.9963
 8754TIP3   OH226225   0.267   1.607   0.080 -0.0742  0.3043 -0.3759
 8754TIP3    H126226   0.192   1.658   0.109 -0.4336 -1.5125  2.2099
 8754TIP3    H226227   0.230   1.537   0.027 -0.2050 -0.2983  0.4841
 8755TIP3   OH226228   4.706   4.572   4.530  0.1077  0.0691  0.0974
 8755TIP3    H126229   4.720   4.662   4.499  0.4023 -0.0869 -0.2209
 8755TIP3    H226230   4.793   4.533   4.532 -0.0397 -0.2623  0.0716
 8756TIP3   OH226231   3.951   4.050   0.819  0.0385 -0.2145  0.2773
 8756TIP3    H126232   3.916   4.139   0.815  1.8917  0.6201  1.4405
 8756TIP3    H226233   4.011   4.045   0.745  1.2462  0.1433  1.1999
 8757TIP3   OH226234   4.598   1.764   5.500 -0.0597 -0.7564 -0.1395
 8757TIP3    H126235   4.532   1.815   5.453 -0.4007 -1.4333 -0.4074
 8757TIP3    H226236   4.548   1.697   5.547  0.1491  0.5581  2.1196
 8758TIP3   OH226237   0.865   2.790   0.547 -0.3466 -0.1808  0.2447
 8758TIP3    H126238   0.870   2.835   0.463  0.1100  1.6536  1.1765
 8758TIP3    H226239   0.849   2.699   0.526 -0.4216  0.2717 -1.8105
 8759TIP3   OH226240   0.904   5.478   4.783 -0.6262  0.3862 -0.2725
 8759TIP3    H126241   0.975   5.413   4.786 -1.2547 -0.3496 -1.1512
 8759TIP3    H226242   0.826   5.430   4.809 -0.6683  1.4586  1.8257
 8760TIP3   OH226243   3.250   6.109   0.903 -0.3753  0.1240  0.4184
 8760TIP3    H126244   3.227   6.146   0.988  0.9608  0.5373  0.6209
 8760TIP3    H226245   3.170   6.066   0.873 -0.8593 -0.0366  1.8856
 8761TIP3   OH226246   0.632   2.491   5.224 -0.0091 -0.4266 -0.0176
 8761TIP3    H126247   0.637   2.527   5.136  0.1327 -0.3079  0.0362
 8761TIP3    H226248   0.569   2.419   5.218 -1.9448  1.1454  0.3196
 8762TIP3   OH226249   2.143   1.930   1.226 -0.4344 -0.1820  1.1727
 8762TIP3    H126250   2.197   1.854   1.203 -0.2933 -0.0157  0.9478
 8762TIP3    H226251   2.207   1.998   1.249 -0.1183  1.8308 -4.2198
 8763TIP3   OH226252   3.294   1.465   5.524  0.3430 -0.2448  0.0982
 8763TIP3    H126253   3.286   1.370   5.529 -0.1660 -0.2088  0.0292
 8763TIP3    H226254   3.345   1.480   5.444 -0.2036 -0.4321 -0.2889
 8764TIP3   OH226255   1.622   4.876   2.512 -0.2939 -0.2041 -1.0781
 8764TIP3    H126256   1.529   4.895   2.525 -0.3315 -0.6103 -0.7417
 8764TIP3    H226257   1.647   4.823   2.587 -0.0257 -0.9051 -1.6471
 8765TIP3   OH226258   0.974   2.329   0.348 -0.1768  0.4951 -0.3515
 8765TIP3    H126259   0.979   2.414   0.304  0.8686  0.7920  0.3015
 8765TIP3    H226260   0.892   2.331   0.397 -1.0633  0.3946 -1.7762
 8766TIP3   OH226261   4.578   1.871   5.157 -0.1853  0.6859 -0.3465
 8766TIP3    H126262   4.595   1.779   5.137  1.3585  0.5454  1.3261
 8766TIP3    H226263   4.637   1.920   5.101  0.7588  0.5104  0.4621
 8767TIP3   OH226264   5.672   5.381   5.083  0.8409  0.0850  0.1423
 8767TIP3    H126265   5.606   5.361   5.149 -0.0005  1.6572 -0.1693
 8767TIP3    H226266   5.752   5.338   5.114 -0.4714 -2.4649  0.1618
 8768TIP3   OH226267   0.323   4.146   3.482 -0.5450  0.2394  0.3539
 8768TIP3    H126268   0.290   4.236   3.476  1.2643  0.8754 -1.4212
 8768TIP3    H226269   0.407   4.154   3.528 -0.4375 -0.5634  0.3165
 8769TIP3   OH226270   6.056   2.319   0.638  0.2238 -0.2825  0.1126
 8769TIP3    H126271   6.095   2.239   0.672  0.0030 -0.3649  0.1708
 8769TIP3    H226272   6.131   2.378   0.623  0.5654 -1.0430 -1.4294
 8770TIP3   OH226273   1.614   5.890   4.503  0.4101  0.2029 -0.0489
 8770TIP3    H126274   1.592   5.962   4.562  1.1651 -0.1319  0.6504
 8770TIP3    H226275   1.675   5.836   4.552  0.2522 -0.6435 -0.7622
 8771TIP3   OH226276   2.781   2.474   2.658 -0.4569  0.1354  0.1348
 8771TIP3    H126277   2.700   2.513   2.626  0.3647  2.9214  1.1279
 8771TIP3    H226278   2.775   2.481   2.753  0.8765  0.2794  0.2245
 8772TIP3   OH226279   0.716   3.369   4.564 -0.1891 -0.1126 -0.3499
 8772TIP3    H126280   0.634   3.338   4.602  0.2657  0.0144  0.7506
 8772TIP3    H226281   0.690   3.412   4.483 -1.0873 -1.1173 -0.6177
 8773TIP3   OH226282   4.329   4.074   4.388  0.1435 -0.0297  0.1453
 8773TIP3    H126283   4.239   4.062   4.417  0.0776 -1.6121 -0.5713
 8773TIP3    H226284   4.340   4.009   4.318  2.2175 -0.7640  1.0790
 8774TIP3   OH226285   4.510   1.197   3.753  0.2918  0.1058 -0.0438
 8774TIP3    H126286   4.465   1.248   3.686 -1.4109 -1.4248 -0.1418
 8774TIP3    H226287   4.497   1.106   3.727  2.2812 -0.4596  0.7210
 8775TIP3   OH226288   6.156   6.011   1.406 -0.1179  0.3315 -0.2545
 8775TIP3    H126289   6.184   6.064   1.331  0.6567 -0.8125 -0.7931
 8775TIP3    H226290   6.211   6.042   1.478 -0.4443  1.0193 -0.2943
 8776TIP3   OH226291   6.386   1.693   1.559  0.2929 -0.0417  0.7332
 8776TIP3    H126292   6.465   1.712   1.610  0.3108 -0.6564  0.9369
 8776TIP3    H226293   6.418   1.656   1.477  0.2388  0.3983  0.5068
 8777TIP3   OH226294   0.674   4.095   4.198  0.0617 -0.0139 -0.1852
 8777TIP3    H126295   0.725   4.070   4.121  0.0987 -1.4416  0.2764
 8777TIP3    H226296   0.709   4.041   4.269  0.1390  1.3815  0.8922
 8778TIP3   OH226297   3.970   1.573   0.997 -0.3067  0.2804 -0.0737
 8778TIP3    H126298   3.908   1.528   1.055 -0.0933  1.0883  0.8095
 8778TIP3    H226299   4.049   1.518   1.002 -1.1302 -1.1619 -1.7858
 8779TIP3   OH226300   5.476   0.958   3.206 -0.0367 -0.2029  0.0554
 8779TIP3    H126301   5.438   1.046   3.203 -0.4747 -0.3902 -2.5848
 8779TIP3    H226302   5.553   0.963   3.149  0.9965 -1.1224  1.3017
 8780TIP3   OH226303   5.511   2.931   0.688 -0.0008  0.1403  0.1327
 8780TIP3    H126304   5.496   2.927   0.783 -0.9318 -0.3812 -0.0296
 8780TIP3    H226305   5.440   2.880   0.650  0.9823 -0.5628 -0.8019
 8781TIP3   OH226306   4.081   0.863   2.104 -0.1455  0.1327  0.0573
 8781TIP3    H126307   4.029   0.890   2.028  0.2759 -1.0076 -0.6640
 8781TIP3    H226308   4.047   0.915   2.176 -1.0435  0.7241 -0.7696
 8782TIP3   OH226309   0.038   5.161   1.085  0.3254  0.9533 -0.1139
 8782TIP3    H126310   0.019   5.070   1.105  1.4205  0.3888 -1.4490
 8782TIP3    H226311   0.044   5.164   0.990  2.1220  1.9956 -0.0270
 8783TIP3   OH226312   1.527   0.189   4.053  0.5390  0.1180 -0.0459
 8783TIP3    H126313   1.623   0.182   4.054  0.5076 -1.0489 -1.5347
 8783TIP3    H226314   1.497   0.106   4.090  0.1025  0.2720 -0.0489
 8784TIP3   OH226315   0.911   0.094   3.234 -0.0398  0.4754 -0.5386
 8784TIP3    H126316   0.918   0.002   3.209 -2.1128  0.5372 -1.5564
 8784TIP3    H226317   0.956   0.100   3.318 -0.6249 -1.6598 -0.0189
 8785TIP3   OH226318   2.854   3.057   4.494  0.0616 -0.6759 -0.0556
 8785TIP3    H126319   2.910   3.135   4.497  0.5028 -0.6749 -3.6528
 8785TIP3    H226320   2.835   3.045   4.401 -2.0216 -3.4901  0.5969
 8786TIP3   OH226321   5.094   1.459   4.115  0.0424  0.4148 -0.0218
 8786TIP3    H126322   5.185   1.432   4.101  0.5056  1.6802  0.3089
 8786TIP3    H226323   5.052   1.384   4.156  0.2730 -1.0900 -2.3906
 8787TIP3   OH226324   2.751   3.543   4.045 -0.1171  0.7248 -0.4874
 8787TIP3    H126325   2.723   3.529   4.136  0.7340  2.2222  0.0338
 8787TIP3    H226326   2.833   3.494   4.037 -0.4318  0.2037 -0.6129
 8788TIP3   OH226327   0.407   4.893   5.295  0.3488 -0.6981  0.4434
 8788TIP3    H126328   0.453   4.974   5.273 -1.6804  0.7263  1.1056
 8788TIP3    H226329   0.366   4.911   5.380 -1.6610 -1.7149 -0.2331
 8789TIP3   OH226330   6.439   0.584   0.469 -0.6458  0.0794  0.0804
 8789TIP3    H126331   6.426   0.676   0.446 -0.7583  0.6327  2.2343
 8789TIP3    H226332   6.355   0.555   0.505  0.0256 -0.2219  1.4481
 8790TIP3   OH226333   6.313   0.665   3.249  0.3562 -0.3142 -0.2663
 8790TIP3    H126334   6.255   0.741   3.250 -1.5696 -1.7099 -0.6946
 8790TIP3    H226335   6.401   0.702   3.238 -0.5357  1.8098 -0.7661
 8791TIP3   OH226336   2.779   0.596   3.283  0.5006  0.1365  0.1072
 8791TIP3    H126337   2.752   0.517   3.236  0.1235  0.4453 -0.2004
 8791TIP3    H226338   2.868   0.613   3.251 -0.5577  1.6500 -2.2893
 8792TIP3   OH226339   0.434   6.768   2.508  0.5096 -0.6776  0.1875
 8792TIP3    H126340   0.452   6.674   2.511  2.7815 -0.2755  0.6167
 8792TIP3    H226341   0.508   6.809   2.553  0.5103  1.4286 -1.5382
 8793TIP3   OH226342   5.954   0.857   2.018 -0.3363  0.5450 -0.9247
 8793TIP3    H126343   6.026   0.920   2.021 -0.6843  0.9327 -0.5248
 8793TIP3    H226344   5.897   0.890   1.948 -0.2195  0.3399 -1.1177
 8794TIP3   OH226345   5.873   6.371   0.268  0.0780  0.3580 -0.2034
 8794TIP3    H126346   5.955   6.359   0.221 -0.5350 -0.4027 -1.1258
 8794TIP3    H226347   5.875   6.305   0.336  1.3453  2.0063  1.4622
 8795TIP3   OH226348   4.501   1.609   0.029 -0.0506 -0.1248  0.1060
 8795TIP3    H126349   4.528   1.519   0.049  0.3350  0.0999  0.6324
 8795TIP3    H226350   4.580   1.661   0.045 -0.7567  0.5509  1.5997
 8796TIP3   OH226351   7.128   6.190   4.694 -0.2152 -0.1587 -0.4038
 8796TIP3    H126352   7.125   6.275   4.737  0.3716  0.1717 -1.0079
 8796TIP3    H226353   7.151   6.129   4.764 -0.6778  0.1642  0.0400
 8797TIP3   OH226354   3.882   4.741   2.277 -0.5809 -0.2204 -0.5788
 8797TIP3    H126355   3.907   4.651   2.299 -1.0333 -0.1016  0.4437
 8797TIP3    H226356   3.939   4.796   2.330 -2.3731  0.0557  1.1506
 8798TIP3   OH226357   3.624   1.091   4.163  0.5053  0.0047  0.4441
 8798TIP3    H126358   3.550   1.035   4.139  1.7075 -0.5055 -2.5279
 8798TIP3    H226359   3.584   1.177   4.178 -0.7602 -0.2488 -1.1333
 8799TIP3   OH226360   3.396   0.980   3.229 -0.4938 -0.4712 -0.1730
 8799TIP3    H126361   3.456   0.975   3.303 -0.7768 -2.1654 -0.0082
 8799TIP3    H226362   3.311   0.957   3.266 -0.6022 -1.5694 -1.0475
 8800TIP3   OH226363   1.765   5.149   3.089 -0.2864 -0.1982  0.0640
 8800TIP3    H126364   1.700   5.207   3.048 -1.3991 -0.2533  1.6667
 8800TIP3    H226365   1.840   5.205   3.106  0.0506 -0.0802 -1.6222
 8801TIP3   OH226366   0.160   4.913   1.840  0.1490  0.2173  0.3004
 8801TIP3    H126367   0.182   4.961   1.760 -0.0624  2.7545  1.6614
 8801TIP3    H226368   0.244   4.898   1.884  0.4746 -2.6303 -1.0169
 8802TIP3   OH226369   5.480   2.267   1.157  0.6265 -0.2534 -0.2350
 8802TIP3    H126370   5.484   2.338   1.092  0.9530  1.5492  1.6359
 8802TIP3    H226371   5.393   2.229   1.145 -0.1012  1.3673 -0.4211
 8803TIP3   OH226372   6.579   4.983   1.313  0.1695 -0.2988  0.1602
 8803TIP3    H126373   6.604   4.894   1.340  1.1756 -0.9466 -2.5464
 8803TIP3    H226374   6.502   4.970   1.258  0.5274  0.4243 -0.5339
 8804TIP3   OH226375   2.833   0.510  -0.011 -0.0581 -0.5066  0.0319
 8804TIP3    H126376   2.761   0.501   0.051 -0.1474 -0.2428 -0.0307
 8804TIP3    H226377   2.901   0.557   0.038 -0.1219 -0.3140 -0.0608
 8805TIP3   OH226378   2.684   6.314   2.021  0.4044 -0.6954 -0.1367
 8805TIP3    H126379   2.623   6.387   2.027  2.2836  0.8508  1.0765
 8805TIP3    H226380   2.746   6.328   2.092  1.6773 -2.6901 -0.7678
 8806TIP3   OH226381   0.277   1.975   0.445 -0.3575 -0.1343  0.3129
 8806TIP3    H126382   0.188   1.941   0.437 -0.2895  0.0144 -1.6473
 8806TIP3    H226383   0.320   1.949   0.363  1.0971  0.6655  0.7815
 8807TIP3   OH226384   2.643   1.123   1.273  0.2335 -0.1009 -1.1783
 8807TIP3    H126385   2.736   1.106   1.289  0.3273  0.2475 -1.3523
 8807TIP3    H226386   2.598   1.049   1.314  0.6675 -0.9957 -2.2636
 8808TIP3   OH226387   0.605   5.482   4.623 -0.3370 -0.1333  0.3656
 8808TIP3    H126388   0.579   5.572   4.601 -0.0620  0.1269  1.0589
 8808TIP3    H226389   0.616   5.439   4.539  0.0505  0.6402  0.0056
 8809TIP3   OH226390   4.982   5.482   0.352 -0.0877  0.2780 -0.4054
 8809TIP3    H126391   5.002   5.444   0.266 -3.0551 -1.0882 -0.6070
 8809TIP3    H226392   4.968   5.575   0.333  0.3912  0.2037 -1.1921
 8810TIP3   OH226393   5.435   6.620   4.245  0.5456 -0.0548 -0.2343
 8810TIP3    H126394   5.467   6.538   4.207  1.0353  0.1188 -0.2103
 8810TIP3    H226395   5.344   6.627   4.216  0.7938 -0.1218 -1.0478
 8811TIP3   OH226396   1.157   2.820   4.262  0.0897 -0.2802 -0.6493
 8811TIP3    H126397   1.062   2.829   4.268  0.0854  0.9950 -1.9096
 8811TIP3    H226398   1.170   2.747   4.201 -0.0211 -1.5492  0.7763
 8812TIP3   OH226399   5.021   1.420   2.823 -0.4875  0.4680  0.3937
 8812TIP3    H126400   5.037   1.476   2.747 -0.6788  1.0278  0.7618
 8812TIP3    H226401   5.022   1.480   2.898  1.1902 -0.2682  1.0083
 8813TIP3   OH226402   4.158   5.192   1.992 -0.1634 -0.1183 -0.2022
 8813TIP3    H126403   4.245   5.164   2.023 -0.8422  0.8201  2.9158
 8813TIP3    H226404   4.142   5.275   2.037 -2.0539  0.5566 -1.9581
 8814TIP3   OH226405   6.669   1.643   1.803  0.1153  0.3023  0.1677
 8814TIP3    H126406   6.731   1.665   1.873  1.1430 -1.0272 -0.2823
 8814TIP3    H226407   6.589   1.616   1.849  0.6651 -0.2317  0.8283
 8815TIP3   OH226408   3.508   0.340   1.918 -0.1132  0.1845  0.7044
 8815TIP3    H126409   3.580   0.314   1.860 -0.0157 -1.9994  1.7114
 8815TIP3    H226410   3.548   0.405   1.976  0.4459  0.5775 -0.0920
 8816TIP3   OH226411   2.544   2.576   2.555 -0.2387 -0.1196 -0.0371
 8816TIP3    H126412   2.561   2.557   2.463 -2.4234 -0.7668 -0.3884
 8816TIP3    H226413   2.518   2.668   2.556  0.3773  0.0516  0.0219
 8817TIP3   OH226414   5.087   5.919   1.733 -0.1826  0.1774  0.4567
 8817TIP3    H126415   5.169   5.888   1.772 -0.2577  0.4501  0.8386
 8817TIP3    H226416   5.083   6.012   1.755 -0.2907  0.3028 -0.1007
 8818TIP3   OH226417   1.626   6.572   2.029 -0.1756  0.7037  0.0067
 8818TIP3    H126418   1.625   6.516   2.106 -0.9631 -0.2881 -0.7021
 8818TIP3    H226419   1.566   6.530   1.967  1.0293  1.0386 -1.4549
 8819TIP3   OH226420   2.381   2.038   3.899 -0.1739  0.8326  0.3492
 8819TIP3    H126421   2.321   2.068   3.830  0.0287  0.7817  0.1487
 8819TIP3    H226422   2.451   2.104   3.899 -0.2226  0.8828  0.5711
 8820TIP3   OH226423   2.539   2.912   5.819 -0.3938  0.1691  0.0900
 8820TIP3    H126424   2.472   2.953   5.765 -1.6680 -0.8093  0.8896
 8820TIP3    H226425   2.601   2.983   5.837 -1.6201  1.3067 -0.0075
 8821TIP3   OH226426   3.421   1.803   3.221 -0.8722  0.2003 -0.1095
 8821TIP3    H126427   3.493   1.772   3.276  0.0575 -1.0573 -1.9384
 8821TIP3    H226428   3.355   1.835   3.283  1.2091  1.3737  1.6402
 8822TIP3   OH226429   7.090   1.030   3.237 -0.5103  0.5347 -0.2022
 8822TIP3    H126430   7.150   0.956   3.231 -1.3330 -0.2170  0.7107
 8822TIP3    H226431   7.045   1.019   3.321 -0.7380  1.9980 -0.1025
 8823TIP3   OH226432   3.903   5.093   4.212 -0.0939 -0.5802 -0.0140
 8823TIP3    H126433   3.935   5.170   4.260 -1.1624  0.3602 -0.7366
 8823TIP3    H226434   3.973   5.072   4.150 -0.9407  1.8013 -1.9772
 8824TIP3   OH226435   6.406   6.754   0.243 -0.5432 -0.5452  0.2101
 8824TIP3    H126436   6.393   6.816   0.314 -1.2732 -1.0007  0.4849
 8824TIP3    H226437   6.498   6.763   0.219 -0.6797  0.7377  0.1446
 8825TIP3   OH226438   0.022   6.204   0.708 -0.6191  0.5283  0.3782
 8825TIP3    H126439   0.086   6.262   0.669 -0.5304  1.5558  1.9490
 8825TIP3    H226440   0.073   6.128   0.737 -0.4258  0.4971 -0.0436
 8826TIP3   OH226441   6.966   2.140   2.965 -0.0644 -0.6131  0.1930
 8826TIP3    H126442   6.967   2.226   2.922  1.0151  0.2426  1.8009
 8826TIP3    H226443   7.002   2.080   2.900  2.3420  0.7885  0.0849
 8827TIP3   OH226444   6.921   3.745   1.663 -0.9813  0.2943 -0.5026
 8827TIP3    H126445   6.963   3.690   1.729 -0.8402  1.6640  0.6118
 8827TIP3    H226446   6.850   3.789   1.710 -1.1651  0.9558 -1.3752
 8828TIP3   OH226447   4.919   6.121   0.145 -0.3947 -0.2164  0.7064
 8828TIP3    H126448   4.906   6.177   0.069 -1.3065 -0.3042  0.7911
 8828TIP3    H226449   4.969   6.046   0.111  1.6016  0.9946  0.7615
 8829TIP3   OH226450   0.478   5.147   3.433 -0.0308  0.0595  0.6597
 8829TIP3    H126451   0.491   5.086   3.360 -2.4555 -0.8858  0.9233
 8829TIP3    H226452   0.522   5.228   3.405 -0.2147 -0.5290 -1.5063
 8830TIP3   OH226453   2.438   1.341   2.653 -0.2853 -0.3604 -0.4293
 8830TIP3    H126454   2.436   1.248   2.673 -0.0610  0.2256  2.6899
 8830TIP3    H226455   2.352   1.373   2.679 -0.4200  0.3183 -1.6352
 8831TIP3   OH226456   7.128   1.197   4.744 -0.4450  0.4775  0.6216
 8831TIP3    H126457   7.181   1.210   4.823 -0.7002  1.8921  0.5819
 8831TIP3    H226458   7.076   1.277   4.736  0.3591  0.8575 -1.5835
 8832TIP3   OH226459   3.716   0.269   2.245  0.8895 -0.0477 -0.4226
 8832TIP3    H126460   3.704   0.189   2.195  1.7612 -0.6987  0.3787
 8832TIP3    H226461   3.630   0.285   2.286 -0.0811  0.9292 -2.6663
 8833TIP3   OH226462   2.128   3.882   3.151 -0.7325 -0.5210  0.2372
 8833TIP3    H126463   2.056   3.818   3.149 -0.1386 -1.2757  1.3598
 8833TIP3    H226464   2.187   3.855   3.081 -1.1569 -0.3735 -0.1784
 8834TIP3   OH226465   4.306   1.309   5.446  0.5149  0.3354  0.1963
 8834TIP3    H126466   4.308   1.238   5.382  0.3691  0.6451 -0.1523
 8834TIP3    H226467   4.261   1.381   5.401 -0.1932  0.3287  0.8705
 8835TIP3   OH226468   0.509   5.200   0.724  0.3339  0.5365  0.6175
 8835TIP3    H126469   0.576   5.211   0.657 -0.5045 -1.3093 -0.6065
 8835TIP3    H226470   0.533   5.262   0.793  1.5571  2.0620 -1.1076
 8836TIP3   OH226471   1.020   2.557   1.817 -0.1366  0.3055  0.0901
 8836TIP3    H126472   1.044   2.563   1.725  2.1522  2.2071  0.6998
 8836TIP3    H226473   0.962   2.632   1.832 -2.0377 -1.0515 -0.1358
 8837TIP3   OH226474   3.713   1.927   3.077  0.3800  0.0194 -0.2068
 8837TIP3    H126475   3.753   1.980   3.146  1.3593 -0.6095 -0.2729
 8837TIP3    H226476   3.643   1.879   3.122 -1.2788  2.1508 -0.3699
 8838TIP3   OH226477   4.241   5.496   2.373 -0.0653 -0.4174 -0.1940
 8838TIP3    H126478   4.251   5.559   2.444 -1.6104  0.8077 -1.0029
 8838TIP3    H226479   4.259   5.411   2.413 -1.8408  0.1261  1.9512
 8839TIP3   OH226480   3.462   0.695   4.840 -0.9694  0.2674 -0.7766
 8839TIP3    H126481   3.493   0.785   4.836  0.2360 -0.1088 -0.3864
 8839TIP3    H226482   3.366   0.702   4.843 -0.8900  1.5212 -0.8360
 8840TIP3   OH226483   2.420   2.746   0.268  0.3369 -0.7201 -0.1123
 8840TIP3    H126484   2.417   2.725   0.361  0.0775 -0.5951 -0.0896
 8840TIP3    H226485   2.504   2.712   0.238  0.6654 -0.2622  0.2822
 8841TIP3   OH226486   3.488   4.592   4.840 -0.1778  0.1436 -0.4383
 8841TIP3    H126487   3.534   4.576   4.757  1.9649 -0.7124  0.8484
 8841TIP3    H226488   3.508   4.516   4.894 -1.3921  0.7722  0.9613
 8842TIP3   OH226489   3.942   4.674   0.495  0.3854  0.2429  0.2397
 8842TIP3    H126490   3.857   4.715   0.511  0.3459  0.1245  0.3323
 8842TIP3    H226491   4.006   4.737   0.530  0.2438 -0.7637  2.5240
 8843TIP3   OH226492   0.049   0.893   0.782 -0.3805  1.1128 -0.0989
 8843TIP3    H126493   0.133   0.851   0.765  0.0563  1.4191  1.2205
 8843TIP3    H226494  -0.002   0.827   0.830  0.0940  1.8429  1.4596
 8844TIP3   OH226495   2.811   4.753   3.757 -1.0003 -0.2793  0.0010
 8844TIP3    H126496   2.883   4.772   3.817 -0.9922  0.3269 -0.1888
 8844TIP3    H226497   2.829   4.808   3.680 -0.7979 -1.3369 -0.7267
 8845TIP3   OH226498   6.684   5.137   3.186  0.2848  0.2474  0.3887
 8845TIP3    H126499   6.611   5.095   3.231  1.7090 -1.6275  1.0602
 8845TIP3    H226500   6.707   5.077   3.115  2.2078 -0.0380  1.2052
 8846TIP3   OH226501   5.400   4.575   0.113  0.3640 -0.2525  0.7985
 8846TIP3    H126502   5.380   4.665   0.138 -0.0018 -0.2175  0.4032
 8846TIP3    H226503   5.321   4.526   0.137 -1.1172  0.2097 -2.5314
 8847TIP3   OH226504   1.702   6.426   2.826 -0.5461  0.6531  0.0264
 8847TIP3    H126505   1.686   6.413   2.733 -0.2674  0.9408 -0.0613
 8847TIP3    H226506   1.714   6.520   2.835  0.2510  0.5394  0.2272
 8848TIP3   OH226507   3.216   0.415   3.356  0.3434  0.3123 -0.0080
 8848TIP3    H126508   3.290   0.394   3.299 -0.4149  0.7868 -1.2109
 8848TIP3    H226509   3.145   0.359   3.324  0.1233 -0.0351  1.0384
 8849TIP3   OH226510   6.963   1.734   4.550 -0.0019 -0.1292  0.1438
 8849TIP3    H126511   7.052   1.720   4.518  0.5482  1.2647  0.9903
 8849TIP3    H226512   6.947   1.827   4.538 -2.0643 -0.6228 -1.6608
 8850TIP3   OH226513   5.044   1.647   5.368  0.3572  0.1166 -0.0581
 8850TIP3    H126514   5.090   1.580   5.419  1.3379 -0.1865 -1.2915
 8850TIP3    H226515   5.091   1.650   5.285 -0.0828  1.8781 -0.2745
 8851TIP3   OH226516   5.252   5.752   4.389 -0.2227 -0.1929  0.1195
 8851TIP3    H126517   5.268   5.846   4.393 -1.8860  0.1602 -0.4480
 8851TIP3    H226518   5.267   5.721   4.478  1.9288  0.2819 -0.0231
 8852TIP3   OH226519   3.688   2.068   1.692  0.1896  0.2082 -0.1597
 8852TIP3    H126520   3.624   2.025   1.636 -1.8477  1.3069  1.1992
 8852TIP3    H226521   3.771   2.060   1.645 -1.2659  0.4243 -2.9275
 8853TIP3   OH226522   4.371   4.199   1.773 -0.8092  0.2203 -0.3988
 8853TIP3    H126523   4.371   4.216   1.867 -1.7078 -0.2596 -0.2912
 8853TIP3    H226524   4.425   4.267   1.735  0.8363 -0.4697  0.6159
 8854TIP3   OH226525   3.295   1.890   3.466  0.6947  0.7131  0.0958
 8854TIP3    H126526   3.215   1.942   3.467  0.5294  0.5189 -0.9944
 8854TIP3    H226527   3.361   1.945   3.508 -0.1610  0.5987  1.6214
 8855TIP3   OH226528   5.968   0.394   5.779 -0.1043 -0.3953 -0.5128
 8855TIP3    H126529   5.963   0.481   5.820  0.0493 -1.3989  1.7702
 8855TIP3    H226530   5.970   0.333   5.852  0.7588 -2.3142 -2.0498
 8856TIP3   OH226531   3.120   3.422   2.896 -0.1468  0.4268  0.2774
 8856TIP3    H126532   3.192   3.380   2.943  1.0638  1.5106 -0.5502
 8856TIP3    H226533   3.107   3.368   2.818 -0.6624 -0.1201  0.7356
 8857TIP3   OH226534  -0.026   1.357   5.341 -0.1825 -0.1316  0.5451
 8857TIP3    H126535  -0.028   1.424   5.409  0.5421 -1.2160  1.6846
 8857TIP3    H226536   0.062   1.320   5.347  0.8198  1.4052 -2.6872
 8858TIP3   OH226537   2.559   4.140   1.824  0.3734  0.1391 -0.9112
 8858TIP3    H126538   2.491   4.073   1.832  0.4079 -0.1406 -2.6090
 8858TIP3    H226539   2.620   4.120   1.895 -0.1013 -1.0559 -0.8170
 8859TIP3   OH226540   1.993   6.739   3.950  0.5159 -0.5716 -0.2356
 8859TIP3    H126541   1.978   6.645   3.939  0.7677 -1.0669  2.7128
 8859TIP3    H226542   1.915   6.781   3.914  0.0506 -1.9594 -0.8999
 8860TIP3   OH226543   3.857   5.702   4.806 -0.5989  0.0565  0.0929
 8860TIP3    H126544   3.837   5.705   4.900  0.3268 -1.0454  0.3536
 8860TIP3    H226545   3.806   5.628   4.773 -0.0918 -0.2452 -0.0358
 8861TIP3   OH226546   0.699   2.460   1.634  0.0002  0.2917 -0.4259
 8861TIP3    H126547   0.748   2.501   1.706 -0.1146  0.2803 -0.3401
 8861TIP3    H226548   0.723   2.367   1.639  1.3263  0.5516 -1.4767
 8862TIP3   OH226549   2.167   4.090   1.325 -0.5514  0.6635  0.7504
 8862TIP3    H126550   2.085   4.042   1.318 -0.1459  0.0718 -0.3268
 8862TIP3    H226551   2.218   4.042   1.389 -1.8078  2.2615  3.0886
 8863TIP3   OH226552   4.996   6.604   4.476  0.5775  0.5889 -0.3317
 8863TIP3    H126553   4.915   6.552   4.473 -1.1808  3.1622 -2.8918
 8863TIP3    H226554   5.040   6.583   4.393  1.8770  0.2816  0.4110
 8864TIP3   OH226555   2.637   2.940   1.175 -0.0591  0.8204 -0.2699
 8864TIP3    H126556   2.567   2.893   1.131 -0.8103  1.1302  0.5751
 8864TIP3    H226557   2.717   2.913   1.128 -0.6079 -0.3308 -0.5789
 8865TIP3   OH226558   2.307   6.416   0.723 -0.1814  0.1208 -0.2197
 8865TIP3    H126559   2.314   6.362   0.644  1.2304 -0.3149  0.1715
 8865TIP3    H226560   2.217   6.405   0.752 -0.2788 -0.9721 -0.8893
 8866TIP3   OH226561   4.195   3.541   5.684  0.4589  0.3065 -0.2494
 8866TIP3    H126562   4.276   3.493   5.701 -0.3730 -1.1736 -0.2969
 8866TIP3    H226563   4.130   3.473   5.667 -1.1288  1.3876  1.1630
 8867TIP3   OH226564   3.528   1.766   4.452 -0.1076  0.3643 -0.4179
 8867TIP3    H126565   3.463   1.703   4.484 -0.8683  1.0769 -0.5110
 8867TIP3    H226566   3.509   1.775   4.359  0.8175 -0.2006 -0.6761
 8868TIP3   OH226567   1.343   6.468   3.242  0.1871  0.1655 -0.0151
 8868TIP3    H126568   1.360   6.416   3.321 -2.3624 -0.3330  0.2794
 8868TIP3    H226569   1.363   6.408   3.170  0.2603 -0.1752  0.2845
 8869TIP3   OH226570   4.948   4.211   4.007  0.1086  0.7814 -0.4376
 8869TIP3    H126571   5.002   4.228   3.930  2.5453  0.7458  1.1704
 8869TIP3    H226572   4.938   4.297   4.049 -1.9281  0.9555 -1.1557
 8870TIP3   OH226573   4.803   5.827   3.181 -0.3906  0.3186  0.1957
 8870TIP3    H126574   4.827   5.749   3.229 -0.0169  0.8612  0.9088
 8870TIP3    H226575   4.880   5.885   3.188  0.0650  0.0548 -1.8504
 8871TIP3   OH226576   5.718   5.885   1.801 -0.3319 -0.5285  0.0798
 8871TIP3    H126577   5.754   5.818   1.743 -1.3237 -2.2958  1.4293
 8871TIP3    H226578   5.759   5.869   1.886 -1.0805  0.1603  0.5881
 8872TIP3   OH226579   6.161   4.484   1.900  0.6584  0.4234 -0.9769
 8872TIP3    H126580   6.091   4.458   1.840  0.0025  0.4575 -0.2518
 8872TIP3    H226581   6.138   4.440   1.983  1.7472  0.0621 -0.8490
 8873TIP3   OH226582   3.661   1.454   4.722  0.0987 -0.0449  0.3781
 8873TIP3    H126583   3.567   1.442   4.709 -0.1374  1.4041  0.5625
 8873TIP3    H226584   3.695   1.475   4.635  0.0054  0.8185  0.5420
 8874TIP3   OH226585   3.108   4.273   3.102 -0.1523  0.5421 -0.6205
 8874TIP3    H126586   3.200   4.269   3.075 -0.5200 -0.6020 -1.7644
 8874TIP3    H226587   3.103   4.213   3.177 -0.2517 -0.5663 -1.4889
 8875TIP3   OH226588   3.851   2.412   4.515  0.0127  0.0653 -0.0491
 8875TIP3    H126589   3.841   2.394   4.608  0.2887 -0.8343 -0.1901
 8875TIP3    H226590   3.927   2.471   4.510 -0.3660  0.6001  0.3362
 8876TIP3   OH226591   0.888   3.267   0.080 -0.0066 -0.5224  0.5319
 8876TIP3    H126592   0.946   3.193   0.098  0.6256  0.1613  1.4179
 8876TIP3    H226593   0.827   3.267   0.154 -0.2662 -0.4150  0.3148
 8877TIP3   OH226594   7.155   0.493   4.337  0.2036  0.0028 -0.1082
 8877TIP3    H126595   7.185   0.538   4.415 -0.6537 -0.8495  0.7349
 8877TIP3    H226596   7.155   0.561   4.269  2.2621  0.4288  0.2702
 8878TIP3   OH226597   3.684   3.353   0.246 -0.1952  0.0775  0.7277
 8878TIP3    H126598   3.628   3.397   0.182 -0.5082  0.1889  1.0736
 8878TIP3    H226599   3.771   3.354   0.207 -0.6890 -1.4348 -0.5210
 8879TIP3   OH226600   1.804   3.895   1.882 -0.1326 -0.5543 -0.8475
 8879TIP3    H126601   1.725   3.926   1.927  0.0861  0.2763 -1.0092
 8879TIP3    H226602   1.822   3.810   1.921 -0.2036 -0.0507  0.3379
 8880TIP3   OH226603   3.061   5.173   0.055 -0.2006  0.4994  0.6119
 8880TIP3    H126604   3.148   5.142   0.081 -0.7780 -1.6529  0.0926
 8880TIP3    H226605   3.016   5.187   0.139 -0.1874 -0.9112  0.8828
 8881TIP3   OH226606   4.463   6.497   3.354  0.2559 -0.1459  0.1322
 8881TIP3    H126607   4.465   6.565   3.421  0.2696 -0.8854  0.9011
 8881TIP3    H226608   4.540   6.443   3.371  0.1218 -0.4933 -0.3229
 8882TIP3   OH226609   5.171   2.428   4.521 -0.3462  0.3866  0.7790
 8882TIP3    H126610   5.219   2.386   4.592 -0.9492 -2.3989 -0.3116
 8882TIP3    H226611   5.098   2.472   4.565  0.3481  0.3666  2.0141
 8883TIP3   OH226612   4.980   4.638   5.556 -0.3196 -0.3927  0.5440
 8883TIP3    H126613   4.930   4.701   5.607  0.5532  1.1304 -0.4264
 8883TIP3    H226614   4.953   4.653   5.465  0.6886 -0.6674  0.1799
 8884TIP3   OH226615   2.750   0.743   2.415 -0.2959 -0.2431 -0.6550
 8884TIP3    H126616   2.805   0.665   2.408  0.7777  0.5790 -1.7641
 8884TIP3    H226617   2.690   0.737   2.341  0.3886  0.4049 -1.2846
 8885TIP3   OH226618   4.258   6.314   2.076  0.4136  0.2021  0.1359
 8885TIP3    H126619   4.250   6.285   2.167 -0.0324  0.2290  0.1075
 8885TIP3    H226620   4.351   6.334   2.065  0.7059 -1.0226  0.2139
 8886TIP3   OH226621   4.071   1.745   4.204  0.7676 -0.0899 -0.1336
 8886TIP3    H126622   4.110   1.670   4.159  0.5568  1.0589 -2.3945
 8886TIP3    H226623   3.979   1.742   4.180  0.9256  1.3811 -1.0733
 8887TIP3   OH226624   1.867   1.808   4.215  0.1219  0.3639 -0.2788
 8887TIP3    H126625   1.789   1.829   4.163  0.9246 -0.4001 -1.8850
 8887TIP3    H226626   1.895   1.892   4.251 -1.3031  0.6833  0.1524
 8888TIP3   OH226627   2.351   2.109   3.030  0.0003 -0.6286 -0.4616
 8888TIP3    H126628   2.396   2.070   2.954  0.1598  0.3664 -0.8868
 8888TIP3    H226629   2.277   2.157   2.993 -0.7939 -1.3484  0.1499
 8889TIP3   OH226630   5.057   4.373   3.809 -0.9760  0.0172  0.3654
 8889TIP3    H126631   5.147   4.390   3.837 -0.9120  0.7174 -0.2225
 8889TIP3    H226632   5.067   4.319   3.730 -0.8818  2.7297 -1.6382
 8890TIP3   OH226633   5.211   1.914   4.094 -0.1236  0.0491  0.1707
 8890TIP3    H126634   5.254   1.904   4.009 -1.1169  0.0518 -0.3454
 8890TIP3    H226635   5.171   2.001   4.091 -1.3753 -0.4989  0.0546
 8891TIP3   OH226636   6.318   1.865   3.121 -0.7203 -0.3543  0.9068
 8891TIP3    H126637   6.236   1.914   3.111  0.5063  1.3783 -2.8134
 8891TIP3    H226638   6.343   1.878   3.213 -2.5855  2.5986  1.1365
 8892TIP3   OH226639   5.085   5.002   3.104 -0.3201  0.2558 -0.4766
 8892TIP3    H126640   5.158   5.002   3.042  2.5660 -0.2065  2.6522
 8892TIP3    H226641   5.056   5.093   3.108  0.1416  0.4757 -1.6221
 8893TIP3   OH226642   5.919   1.285   3.451  0.5694 -0.0075 -0.3176
 8893TIP3    H126643   6.011   1.286   3.424  0.7423  0.3699  0.2552
 8893TIP3    H226644   5.892   1.377   3.449  0.2081 -0.1163 -0.4675
 8894TIP3   OH226645   4.696   2.184   0.245 -0.1756  0.1340  0.1011
 8894TIP3    H126646   4.715   2.112   0.184 -1.8374  0.0964 -0.4149
 8894TIP3    H226647   4.607   2.168   0.274 -0.8668  2.3631 -0.5674
 8895TIP3   OH226648   1.273   3.548   3.822 -0.1097 -0.5038 -0.2353
 8895TIP3    H126649   1.194   3.575   3.775  0.2240 -1.5244 -1.4184
 8895TIP3    H226650   1.265   3.453   3.831  1.4766 -0.7896 -1.3854
 8896TIP3   OH226651   4.860   2.408   0.170 -0.4037 -0.3533  0.2359
 8896TIP3    H126652   4.809   2.327   0.173 -0.9325 -0.0006  0.9936
 8896TIP3    H226653   4.812   2.469   0.225  0.4670  0.2114  0.3916
 8897TIP3   OH226654   1.981   5.095   1.452  0.4230  0.3651  0.5289
 8897TIP3    H126655   2.021   5.029   1.395 -3.2509 -2.2508  0.6557
 8897TIP3    H226656   2.005   5.069   1.541 -1.6742 -1.4621  0.6332
 8898TIP3   OH226657   6.382   4.459   2.875  0.6496 -0.5129  0.1060
 8898TIP3    H126658   6.408   4.394   2.810 -0.4487  0.4872 -1.3879
 8898TIP3    H226659   6.462   4.511   2.890  0.9423 -0.8305 -0.3349
 8899TIP3   OH226660   4.560   0.399   1.228  0.6517 -0.0398  0.3727
 8899TIP3    H126661   4.645   0.360   1.207 -0.5206 -1.5322 -1.8942
 8899TIP3    H226662   4.579   0.492   1.239  2.7963 -0.5388  1.3946
 8900TIP3   OH226663   4.334   0.637   1.117  0.4026  0.5393  0.2730
 8900TIP3    H126664   4.245   0.653   1.085  1.1115  0.5539 -1.7780
 8900TIP3    H226665   4.353   0.547   1.091  1.5719  1.0661 -0.8012
 8901TIP3   OH226666   6.192   2.393   3.053 -0.0552  0.7796  0.1156
 8901TIP3    H126667   6.145   2.412   3.134  0.2817  1.3118  0.1884
 8901TIP3    H226668   6.204   2.478   3.012  0.8703  0.6490  0.1078
 8902TIP3   OH226669   1.024   4.902   1.317  0.3015 -0.0034  0.2748
 8902TIP3    H126670   0.957   4.931   1.379 -0.5692  1.9617 -1.4567
 8902TIP3    H226671   1.105   4.901   1.368 -0.3913  1.4285  1.4896
 8903TIP3   OH226672   4.609   5.061   2.859  0.1723  0.1171  0.1427
 8903TIP3    H126673   4.594   5.111   2.939 -1.1737 -0.9090  0.5683
 8903TIP3    H226674   4.561   5.109   2.791  1.1694  0.8891 -0.0504
 8904TIP3   OH226675   5.959   1.221   0.918 -0.1099  0.1375  0.1239
 8904TIP3    H126676   5.886   1.187   0.969 -0.6932 -0.8562 -1.3286
 8904TIP3    H226677   5.919   1.278   0.853  0.6731  1.8429  1.0707
 8905TIP3   OH226678   6.553   4.764   1.957 -0.0487  0.5435  0.0706
 8905TIP3    H126679   6.638   4.742   1.995  1.1271  2.3341 -1.3705
 8905TIP3    H226680   6.521   4.681   1.921  2.0737  0.1831 -1.1817
 8906TIP3   OH226681   0.174   3.764   3.357  0.4690 -0.3191 -1.0250
 8906TIP3    H126682   0.258   3.808   3.347  0.0131  0.4717 -1.4672
 8906TIP3    H226683   0.196   3.671   3.363  1.3383 -0.1536 -1.5370
 8907TIP3   OH226684   0.626   2.838   1.670 -0.1937 -0.1894  0.3622
 8907TIP3    H126685   0.657   2.872   1.586  0.9907  0.3281  0.9862
 8907TIP3    H226686   0.534   2.817   1.655 -0.2490  0.7866 -0.7991
 8908TIP3   OH226687   0.514   6.554   3.855 -0.4058  0.4408  0.1147
 8908TIP3    H126688   0.568   6.517   3.926 -1.1723  1.2751  1.1606
 8908TIP3    H226689   0.494   6.479   3.799 -0.7557 -0.4833  1.4301
 8909TIP3   OH226690   0.679   2.208   3.497 -0.2354 -0.2609  0.2150
 8909TIP3    H126691   0.763   2.246   3.470 -0.0679 -0.6453  0.1849
 8909TIP3    H226692   0.701   2.120   3.527 -0.8317 -0.9454 -1.2483
 8910TIP3   OH226693   0.158   0.647   5.176  0.2971 -0.2844 -0.0828
 8910TIP3    H126694   0.098   0.612   5.243 -0.6339 -2.0567 -1.7447
 8910TIP3    H226695   0.154   0.742   5.189 -3.3818 -0.2168 -0.4305
 8911TIP3   OH226696   1.908   0.620   4.404  0.3750 -0.4242 -0.2820
 8911TIP3    H126697   1.889   0.531   4.431 -0.1230 -1.1740 -2.7859
 8911TIP3    H226698   1.827   0.668   4.419  0.2522 -0.7038 -0.0509
 8912TIP3   OH226699   3.707   4.122   5.101  0.2250 -0.1954  0.5569
 8912TIP3    H126700   3.720   4.071   5.021  0.2695  1.4113 -0.5071
 8912TIP3    H226701   3.795   4.129   5.139  0.5495  0.6453 -0.3024
 8913TIP3   OH226702   5.063   1.896   1.526 -0.1856  0.4379  0.1770
 8913TIP3    H126703   5.076   1.809   1.488  0.9753  0.3025  0.8518
 8913TIP3    H226704   5.111   1.895   1.608 -1.4085  1.2371  0.9439
 8914TIP3   OH226705   6.946   5.765   0.579 -0.3593  0.3382  0.8296
 8914TIP3    H126706   6.890   5.816   0.521 -0.1932  2.5251  2.4819
 8914TIP3    H226707   6.901   5.680   0.587 -1.0782  0.4687 -1.3376
 8915TIP3   OH226708   2.884   6.127   3.634  0.5222 -0.4653  0.4813
 8915TIP3    H126709   2.795   6.106   3.605  1.0778 -0.9478 -0.9906
 8915TIP3    H226710   2.939   6.064   3.587  1.6458 -0.1825  1.3838
 8916TIP3   OH226711   2.506   5.111   2.573 -0.6077 -0.0728  0.2867
 8916TIP3    H126712   2.568   5.125   2.502  0.2777  0.8089  1.1974
 8916TIP3    H226713   2.466   5.197   2.588  0.4541  0.1931  1.9304
 8917TIP3   OH226714   1.776   6.133   3.752 -0.3968  0.0538  0.3343
 8917TIP3    H126715   1.851   6.162   3.700 -0.5264 -3.0750 -1.8654
 8917TIP3    H226716   1.814   6.077   3.819 -0.5762  0.5896  0.8849
 8918TIP3   OH226717   5.423   5.466   1.670 -0.1145  0.1361 -0.8402
 8918TIP3    H126718   5.492   5.409   1.706 -1.2766 -0.4459  0.5697
 8918TIP3    H226719   5.435   5.461   1.576  0.9837 -0.9767 -0.6672
 8919TIP3   OH226720   6.857   5.151   5.131  0.3496  0.3210 -0.1557
 8919TIP3    H126721   6.941   5.106   5.133  0.1031 -0.2031 -0.9126
 8919TIP3    H226722   6.810   5.119   5.208  1.1231  1.2058  0.7093
 8920TIP3   OH226723   4.496   1.913   2.448  0.0570 -0.2693  0.1284
 8920TIP3    H126724   4.412   1.957   2.462  0.3788 -0.4664  3.1431
 8920TIP3    H226725   4.562   1.976   2.480  0.9081 -0.9709 -0.2015
 8921TIP3   OH226726   4.716   3.679   4.711  0.0586 -0.2832  0.0894
 8921TIP3    H126727   4.739   3.617   4.642 -0.4407 -1.4400  0.9368
 8921TIP3    H226728   4.800   3.711   4.744  0.3146 -0.3354 -0.4954
 8922TIP3   OH226729   6.999   1.245   0.968  0.7820  0.3584  0.4683
 8922TIP3    H126730   7.077   1.204   0.930  1.1958  0.8121  0.8212
 8922TIP3    H226731   7.013   1.240   1.062 -0.3848 -1.0368  0.6057
 8923TIP3   OH226732   6.019   1.105   4.701 -0.4531 -0.1331  0.0439
 8923TIP3    H126733   6.003   1.040   4.632  0.8990  0.2367 -0.6522
 8923TIP3    H226734   6.002   1.057   4.783  0.3582 -1.3444 -0.4586
 8924TIP3   OH226735   4.418   6.781   3.074 -0.4455 -0.1205  0.2779
 8924TIP3    H126736   4.410   6.808   2.983  2.3022  0.7527  0.2023
 8924TIP3    H226737   4.435   6.687   3.070  0.9650  0.1266 -0.2618
 8925TIP3   OH226738   5.466   5.283   3.403  0.0018 -0.2141  0.3600
 8925TIP3    H126739   5.465   5.273   3.498 -1.0340 -1.0211  0.2794
 8925TIP3    H226740   5.519   5.209   3.372 -1.1455 -1.0126  0.2268
 8926TIP3   OH226741   2.246   5.966   5.655  0.6063  0.2295 -0.0821
 8926TIP3    H126742   2.261   6.060   5.664 -0.3748  0.2586  1.9989
 8926TIP3    H226743   2.202   5.956   5.571 -1.9098  2.0649  0.8765
 8927TIP3   OH226744   4.720   4.123   3.643  0.1826 -0.7924  0.4448
 8927TIP3    H126745   4.723   4.219   3.639  0.3067 -0.8239 -0.6327
 8927TIP3    H226746   4.768   4.095   3.565  1.9321 -1.7776  1.8075
 8928TIP3   OH226747   6.206   5.300   4.601  0.0031  0.1759 -0.3393
 8928TIP3    H126748   6.220   5.284   4.694 -0.7110  1.2196 -0.0302
 8928TIP3    H226749   6.259   5.377   4.581 -0.0618  0.1258 -0.7231
 8929TIP3   OH226750   2.431   2.751   2.091  0.6369 -0.1268 -0.5515
 8929TIP3    H126751   2.373   2.800   2.034  0.5443 -0.2383 -0.5514
 8929TIP3    H226752   2.511   2.740   2.040 -0.2776 -2.3622 -1.6247
 8930TIP3   OH226753   4.793   1.536   2.476  0.0152  0.5514 -0.0070
 8930TIP3    H126754   4.768   1.602   2.541  0.6292 -1.1266  2.0568
 8930TIP3    H226755   4.713   1.486   2.462  0.0167  0.5927 -0.1647
 8931TIP3   OH226756   0.836   4.749   1.931  0.0210  0.0004 -0.0212
 8931TIP3    H126757   0.815   4.818   1.868  1.4553  2.0576  1.6239
 8931TIP3    H226758   0.926   4.724   1.910 -0.2195 -0.8092 -0.1000
 8932TIP3   OH226759   0.228   3.211   1.113 -0.0001  0.0303  0.1914
 8932TIP3    H126760   0.219   3.253   1.199  1.2363  0.5675  0.0757
 8932TIP3    H226761   0.197   3.278   1.051 -2.1779 -0.8220  0.2500
 8933TIP3   OH226762   3.499   0.156   3.436  0.2507  0.0827 -0.0845
 8933TIP3    H126763   3.425   0.123   3.384 -1.1168  3.9051 -0.9098
 8933TIP3    H226764   3.466   0.157   3.526 -0.8175  1.7353 -0.4411
 8934TIP3   OH226765   6.338   2.979   4.808 -0.0647 -0.0706  0.0662
 8934TIP3    H126766   6.267   3.029   4.769  0.8819  1.8274  0.6290
 8934TIP3    H226767   6.417   3.027   4.783  0.9825 -1.7579 -0.0087
 8935TIP3   OH226768   0.568   5.366   5.582 -0.2290 -0.2440 -0.0287
 8935TIP3    H126769   0.518   5.446   5.599 -0.3360 -0.5664  1.3516
 8935TIP3    H226770   0.501   5.298   5.575 -0.0582 -0.7124  2.0342
 8936TIP3   OH226771   1.680   0.156   1.685  0.1891 -0.0095 -0.1622
 8936TIP3    H126772   1.721   0.164   1.599 -0.6098  2.9870 -0.3846
 8936TIP3    H226773   1.597   0.111   1.668 -0.2214  1.0495 -1.1272
 8937TIP3   OH226774   3.662   3.407   1.658  0.5734 -0.5900 -0.0906
 8937TIP3    H126775   3.704   3.414   1.572  0.3185  1.4525 -0.0892
 8937TIP3    H226776   3.733   3.415   1.721  0.7417 -1.9453 -0.0785
 8938TIP3   OH226777   6.875   0.250   2.020  0.0552 -0.0697  0.1745
 8938TIP3    H126778   6.834   0.322   1.973 -0.6937 -0.6148 -0.0240
 8938TIP3    H226779   6.947   0.291   2.068  0.1302  0.6740 -0.5526
 8939TIP3   OH226780   0.066   4.004   1.233  0.3254 -0.3939 -0.4021
 8939TIP3    H126781   0.106   4.016   1.147  0.7192 -1.0688 -0.3253
 8939TIP3    H226782   0.135   4.031   1.295 -1.2092  3.9069 -0.2595
 8940TIP3   OH226783   4.670   3.875   1.929 -0.2267 -0.1514  0.5193
 8940TIP3    H126784   4.640   3.950   1.981  1.7608  1.0401  0.0485
 8940TIP3    H226785   4.763   3.893   1.913 -0.3137 -1.4552 -1.7614
 8941TIP3   OH226786   6.975   1.435   4.674 -0.1950 -0.0712  0.2139
 8941TIP3    H126787   6.980   1.419   4.580  2.4876 -0.3997  0.3474
 8941TIP3    H226788   6.987   1.530   4.683  1.6644 -0.2822  0.2826
 8942TIP3   OH226789   4.988   1.729   3.637  0.4490 -0.0275  0.6359
 8942TIP3    H126790   4.902   1.691   3.622 -0.0308  1.1561  0.3399
 8942TIP3    H226791   5.049   1.659   3.612 -0.4085 -0.3956 -0.5208
 8943TIP3   OH226792   0.913   2.001   0.871  0.3746  0.0558 -0.4734
 8943TIP3    H126793   0.837   2.023   0.924  0.4603 -0.1477 -0.2644
 8943TIP3    H226794   0.930   1.909   0.890  1.0271  0.2486 -0.0602
 8944TIP3   OH226795   4.596   5.576   3.088  0.6031 -0.5624  0.2274
 8944TIP3    H126796   4.562   5.664   3.068 -0.3197 -0.7334  0.9594
 8944TIP3    H226797   4.647   5.587   3.168  1.7392 -0.4372 -0.4922
 8945TIP3   OH226798   0.550   1.030   0.416 -0.0707  0.1845  0.3084
 8945TIP3    H126799   0.606   1.033   0.494  1.0473  2.2917 -0.4876
 8945TIP3    H226800   0.470   1.076   0.443 -0.6224 -1.0097  0.8152
 8946TIP3   OH226801   6.107   0.139   2.473  0.1578  0.6703 -0.1209
 8946TIP3    H126802   6.041   0.092   2.524  0.7739 -0.3379 -0.2071
 8946TIP3    H226803   6.157   0.070   2.429  1.7841  1.3243  0.5951
 8947TIP3   OH226804   2.686   1.283   0.934 -0.4836 -0.3924 -0.6483
 8947TIP3    H126805   2.640   1.341   0.993 -0.7482 -0.7018 -0.5491
 8947TIP3    H226806   2.737   1.225   0.991  1.0705  0.7885 -0.7836
 8948TIP3   OH226807   6.017   3.284   4.492 -0.8118 -0.1795 -0.2609
 8948TIP3    H126808   5.993   3.226   4.420 -0.0907 -0.6323 -0.1363
 8948TIP3    H226809   5.939   3.286   4.548 -0.5828 -1.6757  0.1622
 8949TIP3   OH226810   1.693   5.980   2.990  0.7145  0.2691  0.4062
 8949TIP3    H126811   1.626   5.993   2.923  1.1584  0.2477 -0.0449
 8949TIP3    H226812   1.719   6.069   3.014  1.0266  0.2704  0.0709
 8950TIP3   OH226813   4.884   6.532   5.541  0.0553  0.2024 -0.0498
 8950TIP3    H126814   4.965   6.570   5.576  1.2734 -0.4941 -1.9738
 8950TIP3    H226815   4.825   6.607   5.532  1.3289  1.1422 -0.8729
 8951TIP3   OH226816   7.076   6.421   4.828 -1.0736 -0.0410  0.5183
 8951TIP3    H126817   7.021   6.498   4.842 -1.9952 -0.3509 -1.0888
 8951TIP3    H226818   7.161   6.444   4.865 -2.1576  0.5940  2.7558
 8952TIP3   OH226819   3.835   5.933   0.559  0.0919 -0.5406 -0.4207
 8952TIP3    H126820   3.769   6.002   0.562  0.8993  0.2190  0.5219
 8952TIP3    H226821   3.907   5.966   0.613  1.1437 -1.4534 -1.2075
 8953TIP3   OH226822   3.849   3.439   3.969 -0.1699  0.3021 -0.1372
 8953TIP3    H126823   3.831   3.463   4.060  1.0422 -1.1051  0.5344
 8953TIP3    H226824   3.916   3.502   3.941  0.5999 -0.1990  0.5045
 8954TIP3   OH226825   1.010   5.654   3.552 -0.4387  0.3071 -0.2604
 8954TIP3    H126826   0.987   5.708   3.476 -0.3069  3.2587  1.6414
 8954TIP3    H226827   0.956   5.576   3.543  0.0662  0.1971 -3.7000
 8955TIP3   OH226828   3.440   3.863   5.163  0.2742 -0.0765 -0.2776
 8955TIP3    H126829   3.346   3.853   5.147  0.3315  0.1438 -0.7822
 8955TIP3    H226830   3.449   3.854   5.258  0.1130 -2.9574 -0.4524
 8956TIP3   OH226831   6.733   6.411   4.381 -0.2844 -0.2621  0.0275
 8956TIP3    H126832   6.754   6.335   4.435  1.2155  0.1830  0.1117
 8956TIP3    H226833   6.743   6.485   4.440  0.4133  0.1549 -0.6063
 8957TIP3   OH226834   2.198   3.643   5.273  0.1481 -0.9161 -0.3604
 8957TIP3    H126835   2.152   3.640   5.189 -1.1599 -0.5191  0.3018
 8957TIP3    H226836   2.156   3.574   5.325 -0.5771  0.2617  0.6745
 8958TIP3   OH226837   5.013   6.309   0.584 -0.6058  0.0974  0.0993
 8958TIP3    H126838   4.932   6.260   0.567 -0.4993 -0.1513  0.2976
 8958TIP3    H226839   4.985   6.400   0.587 -0.9256 -0.0057  0.4192
 8959TIP3   OH226840   0.336   4.679   4.092 -0.7267 -0.2769  0.2233
 8959TIP3    H126841   0.414   4.696   4.147  0.1694  0.4103 -1.2046
 8959TIP3    H226842   0.263   4.714   4.144  0.2923  1.9086  0.3009
 8960TIP3   OH226843   4.876   1.084   1.084  0.4754 -0.1558 -0.1786
 8960TIP3    H126844   4.917   1.147   1.024  1.0900  0.1935  0.5831
 8960TIP3    H226845   4.784   1.111   1.087  0.7995  0.9406  0.3978
 8961TIP3   OH226846   3.741   1.728   5.406  0.2013  0.0579  0.2918
 8961TIP3    H126847   3.818   1.785   5.410 -0.1065  0.6175 -1.3284
 8961TIP3    H226848   3.668   1.785   5.429  0.0298  0.0394 -0.2040
 8962TIP3   OH226849   4.105   4.357   3.756 -0.0582  0.2757  0.3993
 8962TIP3    H126850   4.021   4.347   3.799  0.1105  1.2490  0.9866
 8962TIP3    H226851   4.130   4.448   3.772 -0.3637  0.9700 -2.4307
 8963TIP3   OH226852   6.453   0.765   0.094 -0.3279 -0.0329 -0.3097
 8963TIP3    H126853   6.470   0.815   0.013  0.1714  0.6142  0.1844
 8963TIP3    H226854   6.361   0.784   0.114 -0.6069 -0.5949 -0.9840
 8964TIP3   OH226855   5.467   3.806   4.805 -0.4278 -0.0129 -0.2673
 8964TIP3    H126856   5.554   3.802   4.764 -0.8977 -0.7140 -1.2375
 8964TIP3    H226857   5.439   3.715   4.812 -0.9059  0.1785  0.4500
 8965TIP3   OH226858   5.568   2.186   0.483  0.3557  0.4424  0.1395
 8965TIP3    H126859   5.490   2.213   0.532  0.0694 -0.2633  0.0929
 8965TIP3    H226860   5.593   2.102   0.523 -0.0131 -0.2613 -1.0501
 8966TIP3   OH226861   1.166   0.882   4.505 -0.1101  0.4367 -0.1237
 8966TIP3    H126862   1.127   0.803   4.545 -1.0629  0.1901 -1.4756
 8966TIP3    H226863   1.091   0.932   4.473  0.5439  1.4445 -0.1309
 8967TIP3   OH226864   3.306   6.147   2.000  0.3630  0.5862  0.0075
 8967TIP3    H126865   3.238   6.215   1.997 -1.7314 -1.4022 -0.3790
 8967TIP3    H226866   3.384   6.190   1.964 -0.0185  3.5702  2.3121
 8968TIP3   OH226867   1.903   4.179   2.365 -0.2253 -0.0880  0.3646
 8968TIP3    H126868   1.871   4.146   2.281 -0.7408 -0.0220  0.5331
 8968TIP3    H226869   1.998   4.184   2.354 -0.1096 -1.6277  0.3218
 8969TIP3   OH226870   4.775   1.687   0.010  0.3196  0.1950 -0.6446
 8969TIP3    H126871   4.806   1.663  -0.078  1.5469 -0.2658 -0.1107
 8969TIP3    H226872   4.840   1.649   0.069 -0.0490  1.1861  0.4314
 8970TIP3   OH226873   6.131   1.712   1.644 -0.8098  0.1873 -0.4878
 8970TIP3    H126874   6.093   1.641   1.593 -1.8783  1.5140 -1.6251
 8970TIP3    H226875   6.224   1.711   1.620 -0.6963 -1.1283 -0.0777
 8971TIP3   OH226876   4.537   0.609   5.046 -0.4467 -0.2237  0.0492
 8971TIP3    H126877   4.462   0.574   5.093 -1.4131  2.1819  0.4612
 8971TIP3    H226878   4.505   0.628   4.958  0.0062 -0.2308 -0.1233
 8972TIP3   OH226879   6.022   4.251   3.237  0.5836  0.3995  0.1169
 8972TIP3    H126880   6.077   4.173   3.227 -0.2673 -0.6094  2.4428
 8972TIP3    H226881   6.084   4.323   3.252  1.3376 -0.4260  1.1355
 8973TIP3   OH226882   6.123   2.573   2.307  0.2455  0.0725  1.0515
 8973TIP3    H126883   6.142   2.644   2.246 -0.0565  0.9157  1.8977
 8973TIP3    H226884   6.200   2.567   2.363  0.1972 -0.1390  1.0972
 8974TIP3   OH226885   5.878   5.715   2.258 -0.1468 -0.0541  0.5766
 8974TIP3    H126886   5.873   5.627   2.219 -0.6521 -0.3317  1.2445
 8974TIP3    H226887   5.890   5.699   2.352  0.7131  0.6018  0.5960
 8975TIP3   OH226888   0.870   1.038   3.622  0.7252  0.1008 -0.0033
 8975TIP3    H126889   0.849   1.116   3.571  0.6599  0.7124  0.9474
 8975TIP3    H226890   0.874   0.967   3.557 -0.6921  0.6079 -0.6841
 8976TIP3   OH226891   1.578   1.097   1.423  0.8612  0.2768  0.1826
 8976TIP3    H126892   1.646   1.039   1.457  1.9865  1.1801 -0.4486
 8976TIP3    H226893   1.603   1.114   1.332 -0.7590 -0.1398 -0.3775
 8977TIP3   OH226894   1.036   4.948   3.519 -0.0041 -0.0561  0.2023
 8977TIP3    H126895   0.948   4.924   3.548 -0.4266 -0.4478 -1.3256
 8977TIP3    H226896   1.031   5.042   3.501 -1.0484 -0.5778 -2.8190
 8978TIP3   OH226897   1.250   5.072   4.393 -0.6598 -0.1561 -0.6453
 8978TIP3    H126898   1.224   5.021   4.317  0.2138 -1.3914 -0.1605
 8978TIP3    H226899   1.261   5.161   4.360 -0.0036 -0.7197 -2.0304
 8979TIP3   OH226900   5.859   2.778   1.890  0.7104 -0.2306  0.6350
 8979TIP3    H126901   5.885   2.754   1.801  1.7126  0.7229  0.6546
 8979TIP3    H226902   5.829   2.696   1.929 -0.9385 -0.4709 -0.9646
 8980TIP3   OH226903   5.986   4.616   2.643  0.2921  0.0432 -0.4807
 8980TIP3    H126904   5.928   4.622   2.719  1.4098  0.1793  0.3912
 8980TIP3    H226905   5.978   4.701   2.600  1.0071  0.6388  0.5236
 8981TIP3   OH226906   5.913   3.502   1.366 -0.4701  0.3131 -0.2081
 8981TIP3    H126907   5.924   3.413   1.399  0.7003  0.4724 -0.1023
 8981TIP3    H226908   5.819   3.514   1.360 -0.6557 -0.7688  0.2196
 8982TIP3   OH226909   3.542   3.517   3.100  0.1503  0.6625 -0.3168
 8982TIP3    H126910   3.461   3.557   3.067 -0.7651 -0.7706  0.0771
 8982TIP3    H226911   3.565   3.453   3.032 -0.5199 -0.7599  0.7519
 8983TIP3   OH226912   0.872   1.835   3.227 -0.2253 -0.1045 -0.3358
 8983TIP3    H126913   0.951   1.851   3.175 -0.8377 -0.3774 -1.3820
 8983TIP3    H226914   0.825   1.919   3.225 -0.3357 -0.1667 -0.3810
 8984TIP3   OH226915   3.002   2.697  -0.005  1.0703 -0.0495  0.6463
 8984TIP3    H126916   2.963   2.622  -0.052  1.0958  0.3005  0.0527
 8984TIP3    H226917   2.951   2.705   0.075 -0.0975  0.4156 -0.1288
 8985TIP3   OH226918   5.509   3.542   0.030 -0.0613 -0.1732 -0.3215
 8985TIP3    H126919   5.421   3.508   0.043  0.4007 -0.9061  1.3102
 8985TIP3    H226920   5.497   3.630  -0.005 -1.4444 -0.1566  0.1418
 8986TIP3   OH226921   6.405   2.421   4.586 -0.6992  0.0608 -0.5107
 8986TIP3    H126922   6.420   2.471   4.506 -2.4471 -0.0194 -0.9288
 8986TIP3    H226923   6.446   2.473   4.655 -1.1238  1.2787 -1.1545
 8987TIP3   OH226924   0.792   2.328   3.203  0.0763 -0.0709 -0.3213
 8987TIP3    H126925   0.866   2.343   3.262 -1.2346  1.3649  1.0492
 8987TIP3    H226926   0.735   2.404   3.215  0.4644  1.2287 -4.6953
 8988TIP3   OH226927   4.960   4.968   3.380 -0.3589  0.3484  0.0034
 8988TIP3    H126928   4.935   5.055   3.348 -1.4006 -0.8269 -2.7081
 8988TIP3    H226929   4.999   4.925   3.305 -1.0078 -1.9569  0.8983
 8989TIP3   OH226930   0.235   1.273   5.200  0.4717  0.0727  0.3656
 8989TIP3    H126931   0.309   1.314   5.155 -1.7681  2.8009 -1.1396
 8989TIP3    H226932   0.258   1.279   5.293  2.3697  0.2986 -0.0622
 8990TIP3   OH226933   0.189   4.465   3.238  0.3239  0.3269  0.0982
 8990TIP3    H126934   0.255   4.411   3.193 -0.1518  1.3044 -1.8686
 8990TIP3    H226935   0.185   4.428   3.326  1.4630 -1.5568 -0.5672
 8991TIP3   OH226936   0.105   5.622   2.316  0.1841  0.7915 -0.3408
 8991TIP3    H126937   0.104   5.573   2.399  0.5794  1.1517 -0.1233
 8991TIP3    H226938   0.016   5.654   2.306  0.5433  2.2394  0.8362
 8992TIP3   OH226939   0.149   6.095   5.460  0.7679  0.3038 -0.1320
 8992TIP3    H126940   0.240   6.109   5.483  0.3255  4.5043 -0.0813
 8992TIP3    H226941   0.151   6.073   5.367  1.8380  0.1567 -0.0850
 8993TIP3   OH226942   6.824   1.708   2.968  0.1024  0.2014  0.3994
 8993TIP3    H126943   6.761   1.692   2.897 -0.7269  1.1200  0.8955
 8993TIP3    H226944   6.790   1.786   3.012  2.3839  1.6510 -0.2079
 8994TIP3   OH226945   2.730   0.492   1.368 -0.1134 -0.0501  0.8061
 8994TIP3    H126946   2.725   0.447   1.284  0.0121 -2.4027  1.9712
 8994TIP3    H226947   2.684   0.574   1.354 -1.6454 -1.1470 -1.0975
 8995TIP3   OH226948   3.689   6.285   3.670 -0.5726  0.0180 -0.2858
 8995TIP3    H126949   3.701   6.224   3.598 -2.3819 -1.4411  0.5795
 8995TIP3    H226950   3.684   6.230   3.748  2.0047  1.5610  1.1580
 8996TIP3   OH226951   4.939   0.167   2.634  0.0933 -1.1723  0.4630
 8996TIP3    H126952   4.851   0.183   2.670 -0.1625 -1.0691 -0.1987
 8996TIP3    H226953   4.940   0.074   2.613  0.0700 -1.1300  0.2748
 8997TIP3   OH226954   0.009   1.754   4.442 -1.1278 -0.1651 -0.0793
 8997TIP3    H126955   0.022   1.680   4.382 -0.0569  1.1464 -1.5437
 8997TIP3    H226956   0.078   1.743   4.507  1.0100  1.0709 -1.9748
 8998TIP3   OH226957   2.000   3.055   0.148 -0.1835  0.3297 -0.4422
 8998TIP3    H126958   1.957   3.081   0.067  2.9878  1.0396 -2.0424
 8998TIP3    H226959   2.078   3.008   0.120 -0.0922 -1.3613  2.2834
 8999TIP3   OH226960   1.551   1.484   2.562  0.3194  0.1065  0.3729
 8999TIP3    H126961   1.608   1.558   2.582  2.1316 -0.9937 -0.5276
 8999TIP3    H226962   1.605   1.424   2.512 -1.8747 -0.5956 -1.3548
 9000TIP3   OH226963   1.780   5.792   5.846 -0.6700 -0.6199  0.3527
 9000TIP3    H126964   1.789   5.721   5.783 -0.9798  2.0268 -2.9011
 9000TIP3    H226965   1.868   5.831   5.851 -1.1500  0.5437 -0.1639
 9001TIP3   OH226966   5.097   6.382   3.391  0.1674  0.8498  0.0261
 9001TIP3    H126967   5.105   6.432   3.472  0.3120 -0.9747  1.2010
 9001TIP3    H226968   5.186   6.356   3.369  0.1949  1.7472 -1.0385
 9002TIP3   OH226969   1.339   4.564   3.133 -0.5928 -0.4665 -0.4479
 9002TIP3    H126970   1.316   4.621   3.059 -0.6187  0.1958  0.0550
 9002TIP3    H226971   1.426   4.593   3.160  0.1334 -1.8210 -1.2561
 9003TIP3   OH226972   4.077   0.863   0.753 -0.5467  0.2352  0.2730
 9003TIP3    H126973   4.167   0.845   0.782 -0.6056 -0.1605  0.2219
 9003TIP3    H226974   4.034   0.778   0.758 -0.7196  0.2821 -0.4048
 9004TIP3   OH226975   1.003   4.911   2.834 -0.2665  0.3384  0.3936
 9004TIP3    H126976   0.990   4.867   2.918 -3.5918 -0.3896 -0.3689
 9004TIP3    H226977   1.076   4.971   2.850  1.2663 -1.9403  2.8685
 9005TIP3   OH226978   5.667   4.112   4.952 -0.3467 -0.1098  0.7214
 9005TIP3    H126979   5.750   4.128   4.997  0.1318 -2.4509  0.7708
 9005TIP3    H226980   5.682   4.032   4.902 -3.0664 -1.5932  2.0509
 9006TIP3   OH226981   2.843   1.511   4.001  0.3456 -0.4192  0.4142
 9006TIP3    H126982   2.929   1.508   4.043  1.1948 -0.5246 -1.2201
 9006TIP3    H226983   2.859   1.558   3.919 -0.6799 -2.3118 -0.9340
 9007TIP3   OH226984   6.815   1.151   0.718  0.9655  0.4813  0.8040
 9007TIP3    H126985   6.833   1.074   0.772  1.4936 -0.7832 -1.1050
 9007TIP3    H226986   6.825   1.121   0.628 -0.0011  2.5002 -0.0426
 9008TIP3   OH226987   4.589   3.705   0.723 -0.4143 -0.2412 -0.0281
 9008TIP3    H126988   4.547   3.768   0.663 -3.7677 -0.7026  1.5888
 9008TIP3    H226989   4.652   3.758   0.772 -0.8068  1.1221 -0.9240
 9009TIP3   OH226990   6.414   4.814   5.053 -0.4188 -0.2169 -0.2228
 9009TIP3    H126991   6.427   4.722   5.033  0.8993 -0.2501  0.6676
 9009TIP3    H226992   6.502   4.851   5.055 -0.9536  1.1958 -1.0882
 9010TIP3   OH226993   2.221   1.951   5.068  0.2801 -0.4317 -0.2520
 9010TIP3    H126994   2.316   1.948   5.066  0.2714 -0.2913 -0.8326
 9010TIP3    H226995   2.199   1.946   5.162  0.8615 -0.1635 -0.1009
 9011TIP3   OH226996   6.327   5.743   1.715 -0.3533  0.4461 -0.1056
 9011TIP3    H126997   6.253   5.738   1.655 -0.3085 -0.6530 -0.0875
 9011TIP3    H226998   6.404   5.747   1.658 -0.4407  3.0093 -0.1563
 9012TIP3   OH226999   0.146   3.788   5.826  0.0947  0.1095 -0.0009
 9012TIP3    H127000   0.056   3.761   5.844  0.4408  0.4431  2.5115
 9012TIP3    H227001   0.170   3.739   5.747 -2.3109  0.1419 -0.8198
 9013TIP3   OH227002   1.517   5.612   1.842 -0.1601 -0.4981 -0.5396
 9013TIP3    H127003   1.591   5.665   1.869 -0.4007 -0.0804 -0.6922
 9013TIP3    H227004   1.472   5.590   1.923 -1.1649  1.1690 -0.5942
 9014TIP3   OH227005   0.107   5.114   4.025  0.1067  0.4026  0.6302
 9014TIP3    H127006   0.119   5.021   4.008 -0.6013  0.2068  1.1627
 9014TIP3    H227007   0.196   5.148   4.038  0.5289  0.1753 -1.3845
 9015TIP3   OH227008   0.749   0.096   2.939  0.1091  0.2528 -0.1445
 9015TIP3    H127009   0.754   0.187   2.968 -1.2115 -0.0634  1.2221
 9015TIP3    H227010   0.658   0.084   2.915 -0.1901 -1.1789  1.5085
 9016TIP3   OH227011   0.053   5.023   4.843  0.1728  0.2382 -0.4825
 9016TIP3    H127012   0.133   5.024   4.790  1.8983 -0.3304  1.9492
 9016TIP3    H227013   0.050   5.110   4.883  0.6113 -0.3473  0.8554
 9017TIP3   OH227014   3.598   4.004   3.507 -0.0361  0.0653  0.0697
 9017TIP3    H127015   3.601   4.001   3.411 -0.3051  0.8966  0.0252
 9017TIP3    H227016   3.689   4.013   3.533 -0.1155  2.3760 -0.2418
 9018TIP3   OH227017   1.943   6.771   1.410 -0.3262 -0.3599 -0.5970
 9018TIP3    H127018   1.875   6.809   1.465 -2.0313 -1.4660 -1.8518
 9018TIP3    H227019   2.014   6.750   1.471 -2.0764 -1.4413  1.2115
 9019TIP3   OH227020   3.777   1.510   0.536  0.3451 -0.1071 -0.6582
 9019TIP3    H127021   3.839   1.575   0.503  0.1090  0.4044 -0.0942
 9019TIP3    H227022   3.748   1.463   0.457 -0.5508  1.3952 -1.2788
 9020TIP3   OH227023   4.736   4.804   3.543  0.0587  0.1002  0.1386
 9020TIP3    H127024   4.827   4.826   3.524 -0.1444 -0.0878 -1.1222
 9020TIP3    H227025   4.736   4.778   3.635  1.6039 -1.5253 -0.2745
 9021TIP3   OH227026   0.529   2.749   2.705  0.0678  0.3783 -0.3485
 9021TIP3    H127027   0.512   2.804   2.628  2.0381  0.0703 -1.0439
 9021TIP3    H227028   0.591   2.684   2.675  0.1971 -0.3099  1.3028
 9022TIP3   OH227029   0.162   1.532   2.580 -0.1997  0.2998 -0.4033
 9022TIP3    H127030   0.154   1.437   2.590 -0.5198  0.4895  1.3053
 9022TIP3    H227031   0.248   1.553   2.617  0.1434  0.6368 -1.3383
 9023TIP3   OH227032   4.708   0.943   4.061 -0.3803  0.4564 -0.4865
 9023TIP3    H127033   4.732   1.026   4.020  1.0547  0.2370 -0.1128
 9023TIP3    H227034   4.614   0.934   4.042 -0.4767  1.9696 -0.8448
 9024TIP3   OH227035   1.836   1.540   5.022 -0.2332  0.5178  0.2472
 9024TIP3    H127036   1.753   1.587   5.030  0.0508  0.9811  0.5090
 9024TIP3    H227037   1.903   1.608   5.028  0.1425  0.4125 -1.9665
 9025TIP3   OH227038   5.756   2.636   4.583  0.2104 -0.2757 -0.2365
 9025TIP3    H127039   5.729   2.546   4.599  0.3585 -0.6643 -1.9934
 9025TIP3    H227040   5.841   2.644   4.627 -0.2661 -0.6544  0.7919
 9026TIP3   OH227041   0.901   4.464   5.372  0.1115 -0.1174 -0.4692
 9026TIP3    H127042   0.916   4.529   5.303 -2.9333  0.5171 -0.6555
 9026TIP3    H227043   0.911   4.379   5.328 -1.9085  0.2801 -1.7850
 9027TIP3   OH227044   4.998   5.942   2.581 -0.0426 -0.1315 -0.3530
 9027TIP3    H127045   5.058   5.880   2.539 -1.0884 -0.4843 -1.3835
 9027TIP3    H227046   5.001   6.019   2.525 -1.2829 -0.5232 -0.9982
 9028TIP3   OH227047   0.239   4.119   3.760 -0.4121  0.3994 -0.1747
 9028TIP3    H127048   0.231   4.112   3.664  0.4483  0.6497 -0.2715
 9028TIP3    H227049   0.205   4.206   3.780 -0.8931  0.2269 -0.2040
 9029TIP3   OH227050   3.645   2.107   4.234  0.2228 -0.1204  0.1183
 9029TIP3    H127051   3.699   2.093   4.312 -0.2828 -3.0092  0.0610
 9029TIP3    H227052   3.672   2.192   4.201  1.0217  0.8404  2.9817
 9030TIP3   OH227053   2.086   0.328   5.033 -0.2705  0.0518 -0.6705
 9030TIP3    H127054   2.001   0.288   5.015 -0.2318 -0.2966 -0.1165
 9030TIP3    H227055   2.097   0.393   4.964 -0.5109 -0.6319 -1.3699
 9031TIP3   OH227056   6.638   0.681   4.651 -0.5240  0.3291 -0.2174
 9031TIP3    H127057   6.659   0.770   4.679 -0.0251 -0.6442  2.9143
 9031TIP3    H227058   6.673   0.625   4.720 -1.5021 -2.2766 -1.6843
 9032TIP3   OH227059   1.356   1.787   1.858  0.1909 -0.2108 -0.0617
 9032TIP3    H127060   1.289   1.774   1.925  1.9245 -0.3527  1.7007
 9032TIP3    H227061   1.318   1.851   1.798 -1.4316 -0.1556  0.9821
 9033TIP3   OH227062   5.136   3.420   5.617 -0.0536 -0.2458  0.4339
 9033TIP3    H127063   5.173   3.507   5.634  1.3250 -0.3754 -1.5909
 9033TIP3    H227064   5.108   3.389   5.703  1.4568  1.2994  1.5581
 9034TIP3   OH227065   2.293   5.620   2.436  0.1210 -0.3096  0.5070
 9034TIP3    H127066   2.330   5.592   2.353 -0.0688 -0.5285  0.4957
 9034TIP3    H227067   2.201   5.594   2.432 -0.0937  0.4407  0.4384
 9035TIP3   OH227068   1.589   4.184   3.997 -0.4194 -0.5771 -0.5259
 9035TIP3    H127069   1.683   4.182   3.980 -0.4633 -1.3672 -0.6885
 9035TIP3    H227070   1.581   4.187   4.093 -0.2097  1.6902 -0.5206
 9036TIP3   OH227071   1.756   5.858   1.687  0.0933 -0.1615  0.1252
 9036TIP3    H127072   1.832   5.857   1.629 -1.2119  0.8938 -1.7344
 9036TIP3    H227073   1.776   5.925   1.752  1.5833 -1.3605  0.9803
 9037TIP3   OH227074   4.967   1.905   3.282  0.2060 -1.3542 -0.1892
 9037TIP3    H127075   4.996   1.983   3.235 -1.3968 -0.0247  0.8807
 9037TIP3    H227076   5.040   1.843   3.274  1.5971  0.2963 -0.9532
 9038TIP3   OH227077   6.057   3.951   0.215 -0.1885 -0.0956  0.4545
 9038TIP3    H127078   6.138   3.980   0.257 -0.8583  0.7061  1.2150
 9038TIP3    H227079   6.078   3.863   0.183  0.3791 -0.7453  2.4397
 9039TIP3   OH227080   2.873   6.171   1.913 -0.3676  0.2517 -0.2474
 9039TIP3    H127081   2.790   6.191   1.957 -0.9011 -4.3055  1.3461
 9039TIP3    H227082   2.936   6.232   1.952 -2.3528  1.8081  0.7282
 9040TIP3   OH227083   1.144   4.171   1.102  0.1256 -0.1136  0.2897
 9040TIP3    H127084   1.049   4.171   1.117  0.4626 -0.9965  2.8114
 9040TIP3    H227085   1.161   4.087   1.060 -0.1019 -0.3286  0.6234
 9041TIP3   OH227086   1.523   4.798   1.816 -0.1034  0.5152  0.0875
 9041TIP3    H127087   1.580   4.811   1.740 -1.4615 -0.5153 -1.1617
 9041TIP3    H227088   1.469   4.723   1.794 -0.6318  0.2498  2.0544
 9042TIP3   OH227089   0.229   2.212   2.963 -0.2613 -0.2665  0.6115
 9042TIP3    H127090   0.273   2.263   2.895  1.2438  0.8984  2.3123
 9042TIP3    H227091   0.153   2.265   2.988  0.7529  0.7828  1.6902
 9043TIP3   OH227092   5.319   5.009   1.501 -0.0481 -0.3482  0.0771
 9043TIP3    H127093   5.340   5.075   1.435 -1.0415 -1.2056 -1.1334
 9043TIP3    H227094   5.403   4.987   1.540  0.2655  1.9870  0.8994
 9044TIP3   OH227095   2.317   3.397   1.559  0.4330 -0.0251  0.4559
 9044TIP3    H127096   2.387   3.354   1.509  1.2962  0.9671  0.7705
 9044TIP3    H227097   2.256   3.326   1.581  0.4064 -0.6228 -1.3458
 9045TIP3   OH227098   3.080   2.993   5.862  0.7240 -0.1030  0.0855
 9045TIP3    H127099   3.050   3.078   5.830 -1.2374 -0.9818 -0.5812
 9045TIP3    H227100   3.080   3.001   5.957 -1.2951  0.0846  0.0946
 9046TIP3   OH227101   6.861   0.426   0.143  0.1728 -0.2481  0.3877
 9046TIP3    H127102   6.824   0.340   0.121 -1.5832  1.0497 -2.3158
 9046TIP3    H227103   6.801   0.463   0.208  0.0041 -0.4246  0.3329
 9047TIP3   OH227104   4.836   1.296   1.712 -0.7658 -0.0359 -0.3486
 9047TIP3    H127105   4.923   1.277   1.676  0.0415 -1.4983  2.1563
 9047TIP3    H227106   4.782   1.222   1.683 -1.2920  0.9334 -2.0082
 9048TIP3   OH227107   4.624   3.662   4.165  0.1313 -0.1320 -0.0017
 9048TIP3    H127108   4.594   3.606   4.236  0.1950  0.2773  0.3508
 9048TIP3    H227109   4.561   3.735   4.163 -1.5419 -1.5110 -2.1845
 9049TIP3   OH227110   2.372   4.340   2.107 -0.2323 -0.1136  0.7165
 9049TIP3    H127111   2.436   4.383   2.050  0.0094  0.3845  1.3474
 9049TIP3    H227112   2.417   4.263   2.141 -0.4243 -0.4842  0.1239
 9050TIP3   OH227113   1.211   3.908   0.955  0.2193 -0.1237 -0.0960
 9050TIP3    H127114   1.207   3.822   0.997 -1.0311 -0.2054 -0.3173
 9050TIP3    H227115   1.152   3.900   0.880  1.1053  0.5387 -0.8740
 9051TIP3   OH227116   0.044   2.155   1.282  0.3517 -0.5472 -0.3108
 9051TIP3    H127117   0.092   2.091   1.336  2.4781 -0.0397 -1.4991
 9051TIP3    H227118  -0.019   2.194   1.343  1.9438 -0.7251  1.5682
 9052TIP3   OH227119   1.401   6.019   1.348  0.3323 -0.4243  0.0917
 9052TIP3    H127120   1.332   5.953   1.341  1.5496 -1.7996  0.4377
 9052TIP3    H227121   1.383   6.065   1.429  0.6499 -1.8125  0.9896
 9053TIP3   OH227122   3.255   3.484   1.034  0.0892  0.0985  0.2182
 9053TIP3    H127123   3.348   3.493   1.053 -0.1671  0.6000  1.2833
 9053TIP3    H227124   3.245   3.394   1.003  1.0246  0.2440 -0.5656
 9054TIP3   OH227125   6.158   6.266   2.464 -0.2095 -0.0201  0.0221
 9054TIP3    H127126   6.243   6.306   2.483  0.0035 -0.1081 -0.7191
 9054TIP3    H227127   6.178   6.196   2.402 -0.9252  0.4595 -0.7658
 9055TIP3   OH227128   3.507   2.141   0.926 -0.3971 -0.4274  0.6482
 9055TIP3    H127129   3.598   2.124   0.950 -0.0778  0.3881  0.0970
 9055TIP3    H227130   3.462   2.153   1.010 -0.4603 -2.8221  1.0273
 9056TIP3   OH227131   2.701   0.787   4.900  0.5994  0.3585 -0.1449
 9056TIP3    H127132   2.636   0.776   4.969  0.7987 -0.9756 -0.1281
 9056TIP3    H227133   2.675   0.723   4.833  0.5093  1.5032 -1.2456
 9057TIP3   OH227134   4.756   5.059   5.639  0.3254  0.0419 -0.0227
 9057TIP3    H127135   4.786   5.149   5.630  0.0486  0.2450  1.0614
 9057TIP3    H227136   4.661   5.064   5.633  0.2939 -0.1498  0.3241
 9058TIP3   OH227137   1.724   5.845   3.652 -0.4503 -0.0365  0.0631
 9058TIP3    H127138   1.678   5.893   3.721 -0.7021 -0.3964  0.1500
 9058TIP3    H227139   1.660   5.839   3.580 -0.7495 -1.0198  0.3896
 9059TIP3   OH227140   1.945   4.868   0.185 -0.5153  0.2569  0.2244
 9059TIP3    H127141   1.907   4.813   0.116  0.3494 -0.8021  0.5619
 9059TIP3    H227142   1.947   4.811   0.262  0.9807  0.5238  0.4191
 9060TIP3   OH227143   4.040   0.250   5.422  0.0125 -0.8702 -0.6952
 9060TIP3    H127144   4.107   0.238   5.488  0.7393  1.7619 -0.8747
 9060TIP3    H227145   4.065   0.330   5.375 -2.6885 -0.3419 -1.4205
 9061TIP3   OH227146   6.022   6.511   4.236 -0.0257  0.5630  0.0705
 9061TIP3    H127147   5.933   6.498   4.203  0.1903 -0.4705 -0.1301
 9061TIP3    H227148   6.066   6.428   4.220  0.7037  0.7409  1.0545
 9062TIP3   OH227149   5.056   4.896   4.172  0.0343 -0.4400 -0.1600
 9062TIP3    H127150   4.985   4.848   4.131  0.9873 -1.9096 -0.1301
 9062TIP3    H227151   5.046   4.878   4.266  0.9843 -1.4409 -0.2324
 9063TIP3   OH227152   1.118   0.719   1.262 -0.7528  0.2624  0.3610
 9063TIP3    H127153   1.098   0.806   1.227  2.2665  1.2342  0.8031
 9063TIP3    H227154   1.104   0.728   1.356 -4.5871 -1.0960  0.0997
 9064TIP3   OH227155   4.370   3.654   1.052 -0.1846  0.5266 -0.2698
 9064TIP3    H127156   4.422   3.621   1.125  0.4796 -0.2764 -1.0887
 9064TIP3    H227157   4.382   3.749   1.056 -0.1548  0.4924  0.6518
 9065TIP3   OH227158   0.864   5.991   0.026 -0.2658 -0.5347  0.0019
 9065TIP3    H127159   0.865   5.906   0.070 -0.5004  0.0144  1.0911
 9065TIP3    H227160   0.933   5.985  -0.040  0.0975 -1.3704  0.4474
 9066TIP3   OH227161   5.193   0.390   3.050 -0.1115  0.3828 -0.0916
 9066TIP3    H127162   5.245   0.309   3.049 -0.5430  0.1006  0.1721
 9066TIP3    H227163   5.112   0.367   3.004  0.8889  1.4471 -2.5840
 9067TIP3   OH227164   3.208   4.921   0.070  0.0313  0.4255  0.7866
 9067TIP3    H127165   3.195   4.967  -0.013 -1.1178  0.1768  0.8192
 9067TIP3    H227166   3.279   4.860   0.052  0.2541  0.8448  0.1891
 9068TIP3   OH227167   4.044   2.324   1.919  0.6320  0.2329 -0.4404
 9068TIP3    H127168   4.127   2.295   1.955  0.6657  0.5818 -0.2288
 9068TIP3    H227169   3.981   2.312   1.990  0.8980  1.9236  0.1285
 9069TIP3   OH227170   4.076   1.641   1.944  0.0746 -0.1846 -0.3852
 9069TIP3    H127171   4.000   1.695   1.921  0.9803  0.9899 -0.7194
 9069TIP3    H227172   4.057   1.609   2.032 -1.7749 -1.7098 -1.2673
 9070TIP3   OH227173   1.759   6.281   4.095 -0.3074  0.3779 -0.2949
 9070TIP3    H127174   1.671   6.310   4.118 -0.1665  0.3023  0.3615
 9070TIP3    H227175   1.747   6.191   4.063 -0.3531 -0.0272  0.8040
 9071TIP3   OH227176   6.622   3.608   3.286 -0.0030  0.0031 -0.2600
 9071TIP3    H127177   6.693   3.642   3.232  0.2609 -2.8097 -1.8854
 9071TIP3    H227178   6.661   3.533   3.332 -1.4767 -0.5809  0.0946
 9072TIP3   OH227179   6.585   5.559   2.662 -0.4249 -0.1845 -0.1391
 9072TIP3    H127180   6.607   5.653   2.659 -1.2797  0.0617  0.8907
 9072TIP3    H227181   6.670   5.516   2.676 -0.2242  0.5802  1.2298
 9073TIP3   OH227182   4.824   6.331   1.790  0.1181  0.3457 -0.0390
 9073TIP3    H127183   4.772   6.389   1.734 -0.7010  0.9064  1.2620
 9073TIP3    H227184   4.882   6.389   1.839  0.8768 -0.1447 -0.3388
 9074TIP3   OH227185   2.194   3.919   2.626  0.5487 -0.4427 -0.2697
 9074TIP3    H127186   2.103   3.889   2.621  0.7953 -1.1598 -0.4453
 9074TIP3    H227187   2.196   3.997   2.569  0.2330 -0.8979 -0.9197
 9075TIP3   OH227188   0.900   0.828   3.391  0.0815 -0.1870 -0.5976
 9075TIP3    H127189   0.922   0.853   3.301  0.3257  0.6255 -0.3199
 9075TIP3    H227190   0.979   0.787   3.425 -0.1514 -0.8867 -0.8887
 9076TIP3   OH227191   0.989   4.033   4.365  0.6526  0.1365 -0.5474
 9076TIP3    H127192   1.029   3.990   4.289  1.8410 -1.2471  0.8021
 9076TIP3    H227193   0.934   3.965   4.405 -0.8677  1.1841 -0.7593
 9077TIP3   OH227194   5.407   1.731   3.245 -0.1248  0.6768  0.2490
 9077TIP3    H127195   5.448   1.661   3.193  0.0488 -0.5699  2.0012
 9077TIP3    H227196   5.455   1.810   3.219  1.3202 -0.2484 -0.0032
 9078TIP3   OH227197   4.768   6.494   2.104 -0.2443  0.3678  0.4797
 9078TIP3    H127198   4.818   6.517   2.182 -0.2889  1.0986  0.2977
 9078TIP3    H227199   4.804   6.550   2.035 -1.0944  0.6806  0.2808
 9079TIP3   OH227200   3.558   5.898   3.810 -0.5136  0.5351  0.0007
 9079TIP3    H127201   3.464   5.900   3.792 -0.4845 -0.8376 -0.4451
 9079TIP3    H227202   3.598   5.871   3.727  0.0939 -0.7325  0.6713
 9080TIP3   OH227203   3.482   5.889   5.635  0.0929 -0.3831  0.2671
 9080TIP3    H127204   3.415   5.943   5.595 -0.0879 -0.1617  0.8716
 9080TIP3    H227205   3.467   5.802   5.597  1.1343  0.1944 -1.6350
 9081TIP3   OH227206   3.590   6.622   2.853 -0.2887  0.2324  0.2057
 9081TIP3    H127207   3.522   6.555   2.845 -1.3829  1.3228  0.0929
 9081TIP3    H227208   3.604   6.630   2.947  0.2492 -0.5498  0.1925
 9082TIP3   OH227209   4.023   2.104   3.002 -0.5957 -0.3541  0.2281
 9082TIP3    H127210   3.935   2.117   2.965 -0.4522 -0.8745 -0.3100
 9082TIP3    H227211   4.026   2.163   3.076 -1.0335  0.4289 -0.3618
 9083TIP3   OH227212   2.351   3.539   5.608  0.4940  0.9712 -0.0634
 9083TIP3    H127213   2.418   3.504   5.549 -1.6600 -0.7740 -1.6411
 9083TIP3    H227214   2.356   3.634   5.597  2.4709  0.8758 -0.3342
 9084TIP3   OH227215   1.566   5.896   0.961 -0.6673 -0.1679 -0.4923
 9084TIP3    H127216   1.659   5.890   0.939 -0.3051  2.5840  0.0247
 9084TIP3    H227217   1.522   5.900   0.876 -0.3712 -1.6757 -0.7414
 9085TIP3   OH227218   2.484   2.350   5.820  0.1557 -0.2111 -0.1608
 9085TIP3    H127219   2.515   2.300   5.745  0.2020  0.1412 -0.3825
 9085TIP3    H227220   2.425   2.416   5.782 -1.1831 -1.1074  0.2787
 9086TIP3   OH227221   1.886   2.720   4.260 -0.3515 -0.4097 -0.1104
 9086TIP3    H127222   1.900   2.641   4.312 -1.1756 -1.6909 -1.7459
 9086TIP3    H227223   1.835   2.777   4.317 -2.2920 -2.2586  0.1185
 9087TIP3   OH227224   6.176   0.384   5.160  0.1609  0.0645  0.0157
 9087TIP3    H127225   6.102   0.445   5.156 -0.6489 -0.8376  0.9149
 9087TIP3    H227226   6.136   0.297   5.156  0.8847 -0.5383  3.1121
 9088TIP3   OH227227   2.959   5.668   1.512 -0.2806 -0.2391  0.0390
 9088TIP3    H127228   2.976   5.669   1.606 -0.1884 -1.3132  0.0437
 9088TIP3    H227229   2.863   5.660   1.506 -0.8547  4.1956  0.0090
 9089TIP3   OH227230   7.008   0.218   1.233 -0.4511  0.5817  0.0848
 9089TIP3    H127231   7.021   0.155   1.304  1.1294 -0.3311 -0.9468
 9089TIP3    H227232   7.096   0.231   1.196 -1.4097 -0.4228 -2.8668
 9090TIP3   OH227233   4.334   4.909   3.745 -0.6435  0.7753  0.4586
 9090TIP3    H127234   4.273   4.973   3.708  0.6967  1.7255 -0.2009
 9090TIP3    H227235   4.333   4.836   3.683 -2.3454  0.0063  1.3247
 9091TIP3   OH227236   1.061   1.172   0.257 -0.1131 -0.3012 -0.7210
 9091TIP3    H127237   1.103   1.179   0.343 -0.3657 -1.8393 -0.4353
 9091TIP3    H227238   0.967   1.167   0.276 -0.1402 -1.2372 -1.0096
 9092TIP3   OH227239   5.974   5.776   0.059 -1.0415 -0.1366  0.0380
 9092TIP3    H127240   6.010   5.837  -0.005  0.3266 -0.4245  0.5029
 9092TIP3    H227241   5.945   5.831   0.131  0.2138 -0.0132  0.4682
 9093TIP3   OH227242   3.123   6.573   4.575  0.8956  0.2885 -0.5019
 9093TIP3    H127243   3.202   6.611   4.614  0.3889  0.8765 -0.0353
 9093TIP3    H227244   3.092   6.640   4.514 -0.5973  1.1455  1.0933
 9094TIP3   OH227245   2.580   4.696   5.282  1.0364  0.4148 -0.4550
 9094TIP3    H127246   2.544   4.771   5.234  0.3537  0.3896 -0.0017
 9094TIP3    H227247   2.567   4.720   5.374  2.6885  0.6473 -0.2559
 9095TIP3   OH227248   6.922   4.740   0.326 -0.1942  0.0257  0.5220
 9095TIP3    H127249   6.988   4.676   0.352 -1.6378 -1.6760  0.2328
 9095TIP3    H227250   6.935   4.753   0.232  0.1937  0.2741  0.6098
 9096TIP3   OH227251   0.616   2.408   5.474  0.5202 -0.1160 -0.0905
 9096TIP3    H127252   0.639   2.451   5.392  0.3512  1.0148  0.4268
 9096TIP3    H227253   0.694   2.419   5.529 -0.3176  1.6719  0.8576
 9097TIP3   OH227254   6.818   2.408   2.222 -0.0607 -0.3032  0.1312
 9097TIP3    H127255   6.892   2.397   2.163 -0.4432 -0.0530 -0.4025
 9097TIP3    H227256   6.855   2.398   2.310  0.7073  0.4118 -0.1073
 9098TIP3   OH227257   2.494   1.663   4.471 -0.3563  0.5247 -0.2318
 9098TIP3    H127258   2.555   1.594   4.497 -1.3736 -0.7110 -1.0397
 9098TIP3    H227259   2.511   1.676   4.378  1.3424  2.9707  0.3236
 9099TIP3   OH227260   6.837   5.614   0.972 -0.1350 -0.2953  0.3342
 9099TIP3    H127261   6.801   5.655   0.893 -0.2360  0.3438  0.7064
 9099TIP3    H227262   6.817   5.675   1.042  0.7725 -0.4141  0.7177
 9100TIP3   OH227263   0.813   6.253   5.855  0.0632  0.1405 -0.7007
 9100TIP3    H127264   0.861   6.315   5.909 -2.1819 -0.2560  1.9844
 9100TIP3    H227265   0.722   6.282   5.860 -0.9968 -2.9338  0.1616
 9101TIP3   OH227266   6.256   2.639   5.156  0.3470 -0.6485  0.1770
 9101TIP3    H127267   6.290   2.569   5.212  0.0742 -0.4581  0.5863
 9101TIP3    H227268   6.172   2.606   5.125  0.0667 -0.3622  0.6385
 9102TIP3   OH227269   3.084   6.181   0.441 -0.3171  0.1371 -0.3537
 9102TIP3    H127270   3.175   6.206   0.457 -0.0852  1.5371 -3.1455
 9102TIP3    H227271   3.033   6.234   0.502  0.6282  1.7956 -0.9343
 9103TIP3   OH227272   3.052   4.917   2.713 -0.7231  0.0399  0.0668
 9103TIP3    H127273   3.044   4.990   2.651 -1.4042  0.0603  0.1718
 9103TIP3    H227274   2.978   4.860   2.692 -1.4463  0.4494  1.3858
 9104TIP3   OH227275   2.078   4.007   1.854  0.3361  0.0365 -0.3226
 9104TIP3    H127276   2.068   4.095   1.891  0.0863 -0.0556 -0.1638
 9104TIP3    H227277   1.996   3.963   1.877  1.3955 -1.0082  1.7297
 9105TIP3   OH227278   0.639   1.568   4.660 -0.5363 -0.0603  0.4925
 9105TIP3    H127279   0.600   1.626   4.594 -0.4920 -0.6596 -0.0741
 9105TIP3    H227280   0.683   1.626   4.721  2.2422  0.4347 -1.7546
 9106TIP3   OH227281   2.957   6.732   0.034 -0.1013  0.1781  0.3121
 9106TIP3    H127282   3.033   6.786   0.054 -0.1165  0.8864 -1.3812
 9106TIP3    H227283   2.934   6.690   0.117  0.8675  1.5606  1.3096
 9107TIP3   OH227284   6.027   3.453   1.703  0.9302 -0.7242  0.3384
 9107TIP3    H127285   6.099   3.466   1.764  0.8308  1.0152  0.1277
 9107TIP3    H227286   5.992   3.540   1.687 -0.6680 -1.4272 -0.2573
 9108TIP3   OH227287   1.113   2.929   2.836 -0.1459 -0.0275 -0.2076
 9108TIP3    H127288   1.024   2.942   2.805  0.6799  0.9471 -2.3985
 9108TIP3    H227289   1.131   2.837   2.820 -1.0998 -0.5078  1.3231
 9109TIP3   OH227290   1.662   0.631   2.798 -0.1519  0.4433  0.0771
 9109TIP3    H127291   1.735   0.570   2.810  0.3691  1.2300  1.1030
 9109TIP3    H227292   1.586   0.575   2.782  0.3322 -0.4737  0.8623
 9110TIP3   OH227293   3.602   2.415   3.773  0.7862 -0.2450  0.6842
 9110TIP3    H127294   3.550   2.452   3.702 -0.8026 -3.4476  0.0047
 9110TIP3    H227295   3.684   2.388   3.730  0.3114 -1.0998  0.2935
 9111TIP3   OH227296   1.459   3.298   3.132 -0.0417  0.2176 -0.1744
 9111TIP3    H127297   1.428   3.388   3.141 -0.2404  0.1491 -0.1510
 9111TIP3    H227298   1.379   3.245   3.136 -0.1749  0.1690 -2.1471
 9112TIP3   OH227299   6.561   2.265   4.931  0.3308 -0.6413 -0.2946
 9112TIP3    H127300   6.641   2.214   4.921  0.5330 -0.2323 -0.8311
 9112TIP3    H227301   6.508   2.242   4.855 -0.1661 -1.0777  0.1719
 9113TIP3   OH227302   0.689   1.264   0.297 -0.3193 -0.7547  0.2583
 9113TIP3    H127303   0.700   1.291   0.388  0.7718 -1.3313  0.3057
 9113TIP3    H227304   0.646   1.178   0.303 -1.8642 -0.0256  0.1611
 9114TIP3   OH227305   1.137   1.696   1.997 -0.6892  0.2376 -0.2787
 9114TIP3    H127306   1.116   1.618   1.945  0.2921 -0.1444 -0.1172
 9114TIP3    H227307   1.112   1.673   2.087  2.3085 -1.0507  0.3196
 9115TIP3   OH227308   3.425   2.776   4.571 -0.1389  0.3307 -0.0050
 9115TIP3    H127309   3.469   2.793   4.654 -0.6608  0.7295  0.1949
 9115TIP3    H227310   3.465   2.837   4.509 -1.6043  1.9497  0.5761
 9116TIP3   OH227311   0.647   5.229   5.057 -0.0999  0.1470 -0.5198
 9116TIP3    H127312   0.619   5.281   4.982 -0.7824 -0.6176 -0.8117
 9116TIP3    H227313   0.736   5.201   5.035  0.6200  1.8839  0.0331
 9117TIP3   OH227314   4.854   0.113   2.962  0.4010 -0.0661 -0.0211
 9117TIP3    H127315   4.920   0.104   3.030 -0.2732  2.0303  1.0173
 9117TIP3    H227316   4.869   0.200   2.925 -0.9481 -0.0623 -0.6550
 9118TIP3   OH227317   1.203   4.355   3.245 -0.1083 -0.3614 -0.6341
 9118TIP3    H127318   1.181   4.334   3.154  0.7616  1.5137 -1.3197
 9118TIP3    H227319   1.253   4.436   3.240  2.0532 -1.4520  1.3130
 9119TIP3   OH227320   5.124   4.873   0.738  0.2147 -0.0469  0.4068
 9119TIP3    H127321   5.208   4.828   0.749  0.6995  0.9444  0.9310
 9119TIP3    H227322   5.130   4.950   0.795 -0.8275  0.3556  0.0118
 9120TIP3   OH227323   1.195   2.857   1.258  0.1262 -0.0952 -0.1728
 9120TIP3    H127324   1.226   2.891   1.174  1.8732 -1.6978 -0.2302
 9120TIP3    H227325   1.110   2.817   1.238 -0.3523  1.1817 -0.7689
 9121TIP3   OH227326   0.554   3.233   3.392  0.0611 -0.5622 -0.1300
 9121TIP3    H127327   0.575   3.226   3.299 -0.9215  0.6955 -0.4749
 9121TIP3    H227328   0.627   3.191   3.436  1.0001 -0.3718 -1.4392
 9122TIP3   OH227329   2.609   1.159   0.329  0.0250  0.3143 -0.2242
 9122TIP3    H127330   2.527   1.146   0.377  0.6346 -0.6436  0.5963
 9122TIP3    H227331   2.585   1.147   0.237 -0.7159 -0.2244  0.0254
 9123TIP3   OH227332   6.522   2.006   1.006  0.3505  0.2657  0.0217
 9123TIP3    H127333   6.586   2.053   1.059 -0.1444  2.0228 -0.8655
 9123TIP3    H227334   6.510   1.923   1.052  2.4998  0.2814  0.7577
 9124TIP3   OH227335   2.268   2.337   3.272  0.2577  0.2185 -0.0914
 9124TIP3    H127336   2.330   2.351   3.201 -0.3405  0.2196 -0.6266
 9124TIP3    H227337   2.303   2.263   3.321 -1.2371 -2.3609 -2.6447
 9125TIP3   OH227338   5.665   2.105   1.489 -0.1409  0.3101  0.3089
 9125TIP3    H127339   5.717   2.151   1.423 -1.4638  0.4964 -0.6398
 9125TIP3    H227340   5.695   2.015   1.485 -0.9328  0.0791 -1.3564
 9126TIP3   OH227341   7.058   0.067   1.466  0.3352  0.1514 -0.1771
 9126TIP3    H127342   7.040  -0.024   1.440  2.0386 -0.3024  0.0989
 9126TIP3    H227343   7.142   0.062   1.511  0.3730  1.8646 -0.0176
 9127TIP3   OH227344   6.403   3.184   1.892  0.1078 -0.0890  0.2040
 9127TIP3    H127345   6.393   3.090   1.907 -2.5743  0.3209  1.5984
 9127TIP3    H227346   6.339   3.204   1.823 -1.4347  1.1073  1.9083
 9128TIP3   OH227347   1.225   2.772   1.523 -0.2461  0.0051 -0.0549
 9128TIP3    H127348   1.141   2.726   1.525  0.5054 -1.3852  0.4162
 9128TIP3    H227349   1.230   2.808   1.435 -2.6217  2.6326  0.7254
 9129TIP3   OH227350   5.165   5.026   5.064  0.3099  0.0042  0.0741
 9129TIP3    H127351   5.135   4.938   5.040 -0.3333 -0.0454  0.9991
 9129TIP3    H227352   5.133   5.038   5.153  0.0387  1.3383 -0.1847
 9130TIP3   OH227353   6.871   3.544   2.672 -0.8387  0.2048  0.3016
 9130TIP3    H127354   6.921   3.511   2.597 -1.2824  1.3014 -0.5011
 9130TIP3    H227355   6.936   3.555   2.741 -0.3888 -0.6432  0.0279
 9131TIP3   OH227356   0.477   2.018   2.762  0.0369 -0.2524 -0.7602
 9131TIP3    H127357   0.440   2.105   2.779 -0.8845 -0.7502 -0.1096
 9131TIP3    H227358   0.510   1.989   2.847  0.3139 -0.5510 -0.9687
 9132TIP3   OH227359   2.478   2.429   0.622 -0.3557 -0.1029  0.1900
 9132TIP3    H127360   2.530   2.383   0.557 -0.2036  0.8676 -0.3975
 9132TIP3    H227361   2.540   2.484   0.669 -0.4136 -1.0106  1.3779
 9133TIP3   OH227362   2.525   4.248   0.978 -0.1266 -0.4301 -0.0184
 9133TIP3    H127363   2.575   4.297   1.044  1.2588  1.1234 -2.0918
 9133TIP3    H227364   2.590   4.219   0.915 -1.5752 -0.3233 -1.6365
 9134TIP3   OH227365   6.838   5.853   2.011 -0.4060  0.6707 -0.7227
 9134TIP3    H127366   6.866   5.944   2.011  0.2081  0.5074  0.6987
 9134TIP3    H227367   6.910   5.805   1.970 -0.2212  0.6944 -0.4288
 9135TIP3   OH227368   2.234   0.396   4.537 -0.6658 -0.0373  0.2438
 9135TIP3    H127369   2.181   0.329   4.495 -0.8882 -0.5365  1.3121
 9135TIP3    H227370   2.224   0.473   4.480 -0.6487 -0.8023 -0.8220
 9136TIP3   OH227371   3.744   6.054   4.855 -0.1882  0.2159 -0.7056
 9136TIP3    H127372   3.739   6.149   4.867  0.2905  0.2880 -1.0785
 9136TIP3    H227373   3.808   6.041   4.786 -1.1318 -0.3285 -1.5098
 9137TIP3   OH227374   3.738   4.302   2.325  0.3238  0.0068 -0.5395
 9137TIP3    H127375   3.685   4.349   2.261 -0.1088 -1.0296 -0.9593
 9137TIP3    H227376   3.678   4.282   2.397 -0.2504 -2.3590 -1.6148
 9138TIP3   OH227377   1.758   2.667   5.205  0.0528 -0.3360 -0.8799
 9138TIP3    H127378   1.694   2.616   5.255 -1.3033 -0.1249 -2.2986
 9138TIP3    H227379   1.707   2.702   5.131  1.4550  1.2052 -1.1663
 9139TIP3   OH227380   6.297   1.905   3.380 -0.0815  0.2262  0.1031
 9139TIP3    H127381   6.316   1.998   3.369 -0.3937  0.1764 -1.0344
 9139TIP3    H227382   6.234   1.901   3.452 -1.1674  1.0534 -0.7680
 9140TIP3   OH227383   2.108   2.109   0.793 -0.8703 -0.0952  0.2340
 9140TIP3    H127384   2.116   2.162   0.713 -0.7787 -1.6683 -0.8342
 9140TIP3    H227385   2.065   2.168   0.855  1.0805  1.9325 -0.1979
 9141TIP3   OH227386   4.830   2.280   0.973  0.5154  0.2697  0.3149
 9141TIP3    H127387   4.863   2.358   1.016  0.5989  0.1043  0.5536
 9141TIP3    H227388   4.851   2.209   1.033  0.4275  0.0656  0.1065
 9142TIP3   OH227389   6.857   1.706   0.466 -0.3222  0.2264 -0.0189
 9142TIP3    H127390   6.906   1.629   0.492 -0.6885  0.1921  0.5712
 9142TIP3    H227391   6.895   1.778   0.517 -1.6142  0.0116  1.2806
 9143TIP3   OH227392   5.473   0.075   3.985 -0.0991  0.1615 -0.2213
 9143TIP3    H127393   5.419   0.001   3.956 -0.2965 -0.3806  1.4426
 9143TIP3    H227394   5.541   0.083   3.918 -1.5112  0.1032 -1.7492
 9144TIP3   OH227395   3.767   1.242   5.201 -0.2273  0.1108  0.6569
 9144TIP3    H127396   3.755   1.147   5.207 -0.0254  0.0814  0.6290
 9144TIP3    H227397   3.774   1.271   5.292 -0.8348  0.1756  0.6850
 9145TIP3   OH227398   4.528   0.690   2.848  0.4011  0.0579 -0.1611
 9145TIP3    H127399   4.616   0.728   2.845  0.3390  0.2349  0.1878
 9145TIP3    H227400   4.541   0.602   2.882  0.5583 -0.2843 -1.0754
 9146TIP3   OH227401   5.777   0.696   4.283 -0.0418  1.1336  0.4965
 9146TIP3    H127402   5.851   0.720   4.228 -0.9278  3.0816  0.0774
 9146TIP3    H227403   5.705   0.750   4.252 -1.6170 -0.5382  1.0294
 9147TIP3   OH227404   1.790   0.519   5.519 -0.3340  0.3606  1.1110
 9147TIP3    H127405   1.877   0.538   5.552  0.2405 -0.5514  0.1845
 9147TIP3    H227406   1.805   0.481   5.432 -1.6395 -0.1100  1.0700
 9148TIP3   OH227407   4.503   6.312   1.214 -0.0159  0.8717 -0.0065
 9148TIP3    H127408   4.523   6.394   1.168  2.1500  1.6265  2.0474
 9148TIP3    H227409   4.478   6.340   1.302  2.0062 -0.6375  1.1399
 9149TIP3   OH227410   6.361   4.160   0.582 -0.4614 -0.9569  0.5192
 9149TIP3    H127411   6.341   4.243   0.626 -2.2809  0.2565 -2.3231
 9149TIP3    H227412   6.441   4.179   0.533 -1.7524 -0.2361 -1.4279
 9150TIP3   OH227413   2.474   1.359   2.252 -0.2372  0.0513  0.2048
 9150TIP3    H127414   2.484   1.286   2.191 -3.3876 -0.2804 -0.0383
 9150TIP3    H227415   2.437   1.430   2.199 -2.3108  0.0083  1.4831
 9151TIP3   OH227416   2.634   0.510   3.483  0.2397  0.4672  0.2775
 9151TIP3    H127417   2.580   0.586   3.504  1.0265  1.5493 -1.4225
 9151TIP3    H227418   2.688   0.538   3.409  0.7834 -1.6457 -0.1990
 9152TIP3   OH227419   3.218   0.147   2.222 -0.1251 -0.5532 -0.0327
 9152TIP3    H127420   3.275   0.129   2.148  0.0800 -0.6840  0.1570
 9152TIP3    H227421   3.143   0.193   2.184 -0.8873 -2.1909 -0.6061
 9153TIP3   OH227422   0.681   6.756   3.633 -0.0385  0.0402 -0.2273
 9153TIP3    H127423   0.633   6.673   3.637 -0.3697  0.0875 -2.2928
 9153TIP3    H227424   0.654   6.802   3.712 -3.0468 -0.1716 -0.9893
 9154TIP3   OH227425   1.554   3.877   3.161  0.1900 -0.1097  0.5705
 9154TIP3    H127426   1.613   3.820   3.111 -0.0407 -1.1939  1.4731
 9154TIP3    H227427   1.609   3.911   3.233 -0.0412 -0.3771  0.8764
 9155TIP3   OH227428   3.512   4.604   5.151  0.1245 -0.0907 -0.2404
 9155TIP3    H127429   3.522   4.529   5.093  1.2975 -0.2241  0.0894
 9155TIP3    H227430   3.440   4.581   5.209 -0.3585 -0.4073 -0.9602
 9156TIP3   OH227431   4.063   4.451   4.169  0.8027  0.9039  0.4894
 9156TIP3    H127432   4.017   4.400   4.103  0.6152 -1.3874  2.2789
 9156TIP3    H227433   4.052   4.542   4.141 -0.8559  0.1460 -1.5719
 9157TIP3   OH227434   6.249   5.658   0.113  0.0286 -0.1732 -0.0104
 9157TIP3    H127435   6.301   5.734   0.141  0.8887 -1.2147  1.3331
 9157TIP3    H227436   6.158   5.686   0.122  0.3158  1.1613 -0.9285
 9158TIP3   OH227437   4.416   1.370   3.498 -0.0786  0.3640  0.1163
 9158TIP3    H127438   4.499   1.331   3.470  1.4921  2.2694  1.8116
 9158TIP3    H227439   4.423   1.462   3.472 -1.4374  0.6824  0.7839
 9159TIP3   OH227440   0.806   1.352   1.937 -0.1948 -0.9665 -0.3295
 9159TIP3    H127441   0.746   1.427   1.939  1.1258  0.1104  0.3454
 9159TIP3    H227442   0.759   1.283   1.985 -0.9136 -0.1675  0.1619
 9160TIP3   OH227443   0.722   6.078   0.745  0.2725 -0.7278 -0.1009
 9160TIP3    H127444   0.698   6.065   0.653 -2.5379  1.5838  0.1602
 9160TIP3    H227445   0.817   6.072   0.746  0.3025 -2.3563 -2.8682
 9161TIP3   OH227446   1.018   4.940   0.825 -0.2840  0.7355 -0.4589
 9161TIP3    H127447   0.963   5.004   0.781 -2.3932 -1.3135 -1.0440
 9161TIP3    H227448   0.966   4.911   0.900 -0.0529 -1.2400 -1.0041
 9162TIP3   OH227449   1.711   3.040   1.088  0.3296  0.0198 -0.3668
 9162TIP3    H127450   1.670   3.102   1.028  0.3033  0.7573  0.3959
 9162TIP3    H227451   1.686   3.071   1.175 -0.5180 -1.6480  0.0147
 9163TIP3   OH227452   1.146   5.805   0.103  0.1788 -0.1523  0.1100
 9163TIP3    H127453   1.156   5.793   0.197 -1.3045  0.7398  0.4192
 9163TIP3    H227454   1.061   5.766   0.083  0.0914  0.4160 -0.6860
 9164TIP3   OH227455   4.762   0.599   2.541  0.5084 -0.2599  0.0065
 9164TIP3    H127456   4.833   0.663   2.546 -0.1312  0.3959  0.8467
 9164TIP3    H227457   4.693   0.643   2.492  0.6407 -0.8791 -0.7663
 9165TIP3   OH227458   5.334   0.301   1.150  0.2177  0.2960 -0.6082
 9165TIP3    H127459   5.400   0.350   1.199  0.1731  0.8104 -1.0395
 9165TIP3    H227460   5.381   0.228   1.112 -0.3505 -2.0691  2.8134
 9166TIP3   OH227461   3.538   1.502   2.522 -0.4900 -0.2562  0.0780
 9166TIP3    H127462   3.533   1.434   2.589  1.2258  0.1323  0.6319
 9166TIP3    H227463   3.558   1.583   2.570  2.2203 -0.2126 -0.9554
 9167TIP3   OH227464   2.105   6.648   1.933  0.1100 -0.1768 -0.1964
 9167TIP3    H127465   2.012   6.671   1.932  0.6369  2.2009 -1.1833
 9167TIP3    H227466   2.109   6.563   1.891 -1.4982  0.3560 -1.5366
 9168TIP3   OH227467   4.042   1.819   2.336  0.2239 -0.2854  0.3513
 9168TIP3    H127468   3.978   1.802   2.267  1.1610 -2.2184 -0.1297
 9168TIP3    H227469   3.993   1.812   2.418 -0.4101 -0.5609 -0.0506
 9169TIP3   OH227470   6.346   1.204   2.569  0.2479  0.2430 -0.2545
 9169TIP3    H127471   6.303   1.121   2.584  1.4068 -0.3358 -0.0169
 9169TIP3    H227472   6.305   1.239   2.490 -0.4418 -0.4183 -0.1903
 9170TIP3   OH227473   7.013   3.242   0.149  0.3834  0.3093 -0.2658
 9170TIP3    H127474   6.992   3.330   0.183 -0.2962  0.1391 -0.2220
 9170TIP3    H227475   6.929   3.195   0.152  0.9514 -0.6792  0.6913
 9171TIP3   OH227476   5.340   1.716   5.546  0.0198  0.4250 -0.0854
 9171TIP3    H127477   5.290   1.640   5.515  0.2238  0.6468 -0.9771
 9171TIP3    H227478   5.304   1.734   5.633 -1.5789  0.6794 -0.7703
 9172TIP3   OH227479   6.425   3.541   5.434  0.4776  0.0640 -0.0010
 9172TIP3    H127480   6.395   3.583   5.354 -1.3861  1.4497  1.3214
 9172TIP3    H227481   6.381   3.456   5.434 -1.4560  1.0114  0.6214
 9173TIP3   OH227482   1.436   3.299   5.421  0.1041 -1.0277 -0.4748
 9173TIP3    H127483   1.518   3.296   5.471 -0.6125 -1.3298  0.7206
 9173TIP3    H227484   1.369   3.319   5.486 -0.7942 -0.8591 -1.4278
 9174TIP3   OH227485   0.293   6.706   0.403  0.0112 -0.0253 -0.1243
 9174TIP3    H127486   0.370   6.656   0.375  0.0993 -0.0635  0.1883
 9174TIP3    H227487   0.228   6.690   0.334  0.6383  0.8767 -0.9627
 9175TIP3   OH227488   6.708   3.404   5.713  0.0470 -0.2293  0.6192
 9175TIP3    H127489   6.648   3.389   5.786  0.8719 -0.0787  1.3513
 9175TIP3    H227490   6.732   3.316   5.684 -0.7510 -0.2897  0.1262
 9176TIP3   OH227491   2.749   5.875   2.446 -0.3030  0.1577  0.1958
 9176TIP3    H127492   2.797   5.868   2.364 -0.9897  0.2956 -0.2278
 9176TIP3    H227493   2.817   5.878   2.514  0.2583 -0.2875 -0.3366
 9177TIP3   OH227494   6.096   5.646   5.241 -0.5475 -0.5531  0.6369
 9177TIP3    H127495   6.093   5.691   5.156  0.7088 -0.2058  0.7602
 9177TIP3    H227496   6.009   5.606   5.250 -1.0887  0.3572 -0.2932
 9178TIP3   OH227497   5.913   0.491   3.537 -0.5125  0.4553  0.1561
 9178TIP3    H127498   5.873   0.497   3.450 -0.9182  0.0433  0.3092
 9178TIP3    H227499   6.001   0.526   3.525 -1.0120  1.6914 -0.1249
 9179TIP3   OH227500   4.572  -0.036   4.825  0.7843  0.2243 -0.2209
 9179TIP3    H127501   4.542   0.022   4.755  0.8217  0.3584 -0.1248
 9179TIP3    H227502   4.628   0.019   4.879  1.7868 -0.1987 -0.8005
 9180TIP3   OH227503   4.405   1.532   4.318 -0.1265  0.4654  0.2378
 9180TIP3    H127504   4.387   1.471   4.246  0.0788 -0.7780  1.1950
 9180TIP3    H227505   4.500   1.540   4.320 -0.2076  1.9499 -0.7617
 9181TIP3   OH227506   3.777   0.964   5.341 -0.0447 -0.4260 -0.1166
 9181TIP3    H127507   3.691   0.964   5.383 -1.3038  1.6081 -2.4020
 9181TIP3    H227508   3.784   0.879   5.298 -1.2177 -0.3647 -0.4488
 9182TIP3   OH227509   2.519   5.528   5.396  0.0195 -0.6179 -0.1862
 9182TIP3    H127510   2.568   5.596   5.349  0.1967  0.0279  0.8971
 9182TIP3    H227511   2.529   5.551   5.489 -0.6886 -1.6066  0.1518
 9183TIP3   OH227512   1.482   3.675   1.662  0.0646  0.4339 -0.5037
 9183TIP3    H127513   1.577   3.685   1.657  0.3943 -1.3508  0.9431
 9183TIP3    H227514   1.469   3.582   1.683 -2.0772  0.2913 -2.1277
 9184TIP3   OH227515   6.913   3.997   2.795  0.2701 -0.2046 -0.1918
 9184TIP3    H127516   6.867   3.966   2.873 -0.0967  1.2431  0.2054
 9184TIP3    H227517   6.964   4.073   2.826  0.3037  0.2405 -1.2978
 9185TIP3   OH227518   5.028   4.692   1.536  0.1059  0.5267  0.1621
 9185TIP3    H127519   5.067   4.669   1.620  1.5251 -0.7122 -0.7858
 9185TIP3    H227520   4.996   4.609   1.500 -0.3923  1.0191 -0.5771
 9186TIP3   OH227521   4.557   5.855   3.070  0.4106  0.4773  0.3813
 9186TIP3    H127522   4.496   5.876   3.140  1.1577 -0.4287  1.3332
 9186TIP3    H227523   4.644   5.863   3.111  0.8502 -0.3514 -0.3456
 9187TIP3   OH227524   6.063   1.313   1.682  0.1303  0.1440  0.3377
 9187TIP3    H127525   5.998   1.384   1.681  1.3123  1.2573 -0.8180
 9187TIP3    H227526   6.027   1.246   1.624 -0.7833 -0.0362  1.0838
 9188TIP3   OH227527   5.726   6.161   3.622  0.2149 -0.0969  0.2391
 9188TIP3    H127528   5.792   6.092   3.618  1.2023  0.7008  1.8863
 9188TIP3    H227529   5.764   6.233   3.572 -0.1704 -0.2212 -0.2416
 9189TIP3   OH227530   5.863   5.888   4.128 -0.1126  0.4699  0.1169
 9189TIP3    H127531   5.871   5.983   4.136  0.8759  0.7172 -2.6976
 9189TIP3    H227532   5.784   5.875   4.076  0.1380 -0.2075 -0.1049
 9190TIP3   OH227533   0.901   2.870   0.291  0.0262  0.2420 -0.3552
 9190TIP3    H127534   0.913   2.890   0.198  0.9595 -0.6262 -0.4343
 9190TIP3    H227535   0.955   2.793   0.306  0.0013  0.4636  0.9481
 9191TIP3   OH227536   1.833   4.674   5.058  0.1914 -0.1423 -0.0326
 9191TIP3    H127537   1.885   4.601   5.025 -0.7320 -0.5562 -0.6184
 9191TIP3    H227538   1.896   4.730   5.104  1.0917 -0.7624 -0.4856
 9192TIP3   OH227539   1.270   6.338   5.109  0.0783  0.0066 -0.1289
 9192TIP3    H127540   1.337   6.309   5.171  1.5158  1.8772 -0.7321
 9192TIP3    H227541   1.253   6.260   5.056  1.9240 -0.4789 -0.0846
 9193TIP3   OH227542   0.421   4.092   5.574  0.2176 -0.0457 -0.7892
 9193TIP3    H127543   0.328   4.089   5.597  0.0769  1.8800 -0.8977
 9193TIP3    H227544   0.428   4.037   5.496 -0.8665 -0.1010 -0.8663
 9194TIP3   OH227545   4.610   3.782   1.294  0.2214  0.3973  0.8704
 9194TIP3    H127546   4.693   3.791   1.341  0.2395  0.2001  0.8751
 9194TIP3    H227547   4.565   3.865   1.310 -0.1548  0.0004  1.9730
 9195TIP3   OH227548   3.198   1.178   1.460  0.1878  0.0907  0.3162
 9195TIP3    H127549   3.286   1.215   1.446  1.7946 -3.5979 -0.5945
 9195TIP3    H227550   3.182   1.124   1.382 -2.9742  0.6407  0.4576
 9196TIP3   OH227551   3.146   3.989   5.404 -0.2822 -0.3119 -0.3378
 9196TIP3    H127552   3.174   4.061   5.348 -1.5832  0.8723  0.4729
 9196TIP3    H227553   3.066   3.957   5.363 -0.4510 -0.3950  0.0561
 9197TIP3   OH227554   1.388   6.160   3.230 -0.1738  0.1585 -0.7330
 9197TIP3    H127555   1.333   6.185   3.156  0.0888  0.8888 -0.6859
 9197TIP3    H227556   1.377   6.065   3.237 -1.0150  0.2279 -1.0443
 9198TIP3   OH227557   2.363   5.129   4.484  0.2764 -0.0617 -0.3567
 9198TIP3    H127558   2.356   5.222   4.507 -0.0939  0.6280 -2.9528
 9198TIP3    H227559   2.351   5.127   4.389  1.9913 -2.5939 -0.6176
 9199TIP3   OH227560   4.926   5.113   4.346  0.6103 -0.4427  0.3746
 9199TIP3    H127561   5.007   5.138   4.303  0.6671 -3.2387 -1.4264
 9199TIP3    H227562   4.951   5.098   4.437  1.9806 -0.6140 -0.0018
 9200TIP3   OH227563   5.794   6.592   5.860  0.1327  0.4600  0.3159
 9200TIP3    H127564   5.881   6.552   5.857 -0.2517 -0.4110  0.5291
 9200TIP3    H227565   5.746   6.552   5.787 -0.9207 -1.1014  1.7734
 9201TIP3   OH227566   3.938   3.890   1.321 -0.1011  0.0888 -0.0162
 9201TIP3    H127567   3.985   3.947   1.261 -1.3961 -0.4303 -1.6216
 9201TIP3    H227568   3.990   3.809   1.323  0.9162  0.7404  1.0521
 9202TIP3   OH227569   3.885   2.474   0.832 -0.2258  0.5876  0.2105
 9202TIP3    H127570   3.797   2.484   0.869  0.0506 -1.1984  1.5228
 9202TIP3    H227571   3.872   2.472   0.738 -1.5848  0.5387  0.3841
 9203TIP3   OH227572   1.828   4.697  -0.003 -0.2551 -0.5075  0.4355
 9203TIP3    H127573   1.812   4.605   0.018  2.1754 -0.9369  0.6699
 9203TIP3    H227574   1.746   4.741   0.019 -1.3821 -2.5634  0.5822
 9204TIP3   OH227575   4.999   2.847   1.213 -0.1065  0.1643  0.2063
 9204TIP3    H127576   5.065   2.830   1.279 -0.4885 -2.6375  0.0003
 9204TIP3    H227577   4.917   2.813   1.251 -0.9427  1.3129 -0.4984
 9205TIP3   OH227578   4.860   1.737   5.569 -0.3069  0.0244  0.2942
 9205TIP3    H127579   4.766   1.739   5.551 -0.2581 -2.1259 -0.5575
 9205TIP3    H227580   4.900   1.717   5.484  1.1943  3.2781  0.0896
 9206TIP3   OH227581   5.410   1.532   2.952  0.0321  0.1774 -0.3680
 9206TIP3    H127582   5.465   1.484   2.890  0.2584  0.0982 -0.1066
 9206TIP3    H227583   5.376   1.465   3.012  0.0970  0.2996 -0.1927
 9207TIP3   OH227584   7.106   5.819   0.787 -0.1743 -0.2546  0.0371
 9207TIP3    H127585   7.044   5.779   0.726 -1.3289  2.1702 -0.5233
 9207TIP3    H227586   7.130   5.748   0.847 -1.5203 -1.9038 -1.2628
 9208TIP3   OH227587   0.190   0.914   2.842 -0.2991  0.2560 -0.7514
 9208TIP3    H127588   0.171   0.996   2.887  1.7570  0.5346 -0.3048
 9208TIP3    H227589   0.143   0.847   2.893 -0.9155  0.9894 -0.3406
 9209TIP3   OH227590   0.044   0.058   5.011  0.2379 -0.0478 -0.7331
 9209TIP3    H127591  -0.014   0.106   5.071  0.2396  1.5767 -1.9547
 9209TIP3    H227592   0.008  -0.030   5.007  0.5829 -0.4036  2.0821
 9210TIP3   OH227593   1.591   6.702   1.668 -0.5258 -0.2206 -0.3866
 9210TIP3    H127594   1.642   6.738   1.595  1.5972  0.4912  1.3642
 9210TIP3    H227595   1.597   6.607   1.657 -2.1197 -0.1809 -2.3185
 9211TIP3   OH227596   6.830   5.890   1.473  0.3296  0.7865  0.1844
 9211TIP3    H127597   6.795   5.870   1.559 -1.4048  0.5413 -0.5340
 9211TIP3    H227598   6.803   5.981   1.457 -2.6646 -0.2303 -1.5103
 9212TIP3   OH227599   0.010   3.816   2.211  0.1316 -0.4595 -0.3495
 9212TIP3    H127600   0.033   3.886   2.150  1.6098 -1.1053 -0.5762
 9212TIP3    H227601   0.094   3.778   2.237 -0.3722  0.1209  2.5113
 9213TIP3   OH227602   0.270   3.248   2.408 -0.2977  0.2058  0.3528
 9213TIP3    H127603   0.263   3.266   2.502  0.3995  1.1308  0.2422
 9213TIP3    H227604   0.323   3.169   2.402 -0.7542 -0.1332  0.7547
 9214TIP3   OH227605   6.339   4.204   5.721  0.2890  0.5152  0.2572
 9214TIP3    H127606   6.274   4.265   5.755 -0.8451 -0.9247  0.7920
 9214TIP3    H227607   6.409   4.259   5.687 -0.8316  2.0937  0.4262
 9215TIP3   OH227608   4.982   0.484   5.572  0.5691  0.1556 -0.1519
 9215TIP3    H127609   4.977   0.569   5.527  1.1992  0.7772  0.9005
 9215TIP3    H227610   4.944   0.422   5.510 -1.4442  1.4469 -0.2955
 9216TIP3   OH227611   3.173   1.613   5.893 -0.0886 -0.3731  0.3947
 9216TIP3    H127612   3.243   1.678   5.892 -1.7196  1.4778  1.0773
 9216TIP3    H227613   3.171   1.578   5.804  2.1820 -1.0956  0.5575
 9217TIP3   OH227614   3.978   1.889   5.444 -0.5190  0.0643  0.5140
 9217TIP3    H127615   4.045   1.844   5.495 -0.5154 -0.0982  0.3646
 9217TIP3    H227616   3.974   1.977   5.483  2.1470  1.2454 -1.5264
 9218TIP3   OH227617   5.755   5.158   2.580 -0.0876  0.3248 -0.5549
 9218TIP3    H127618   5.674   5.156   2.631  0.2854 -1.2969  0.0221
 9218TIP3    H227619   5.821   5.195   2.640  0.0880 -0.4770 -0.2418
 9219TIP3   OH227620   6.680   5.401   0.778 -0.5191 -0.0451 -0.1955
 9219TIP3    H127621   6.613   5.333   0.778 -0.0390 -0.5661 -1.8886
 9219TIP3    H227622   6.673   5.441   0.864 -1.0431 -2.0033  0.7335
 9220TIP3   OH227623   0.393   3.174   0.201 -0.4059 -0.1960  0.4482
 9220TIP3    H127624   0.482   3.168   0.236 -0.3623 -0.7640  0.2384
 9220TIP3    H227625   0.343   3.215   0.272 -0.0974 -0.3879  0.7804
 9221TIP3   OH227626   5.629   2.469   0.541  0.1178  0.0977 -0.2120
 9221TIP3    H127627   5.541   2.475   0.506  0.2859  1.9326 -0.4251
 9221TIP3    H227628   5.647   2.375   0.545 -1.8603 -0.3249 -0.0738
 9222TIP3   OH227629   7.169   5.232   1.644  0.0785 -0.1273 -0.3231
 9222TIP3    H127630   7.235   5.270   1.701 -1.2135 -0.1238  1.2512
 9222TIP3    H227631   7.115   5.306   1.617 -0.3929 -0.3673 -0.0577
 9223TIP3   OH227632   1.842   5.005   3.395 -0.5077  0.0689 -0.1953
 9223TIP3    H127633   1.923   5.014   3.344 -0.5055 -1.3255 -0.4632
 9223TIP3    H227634   1.870   5.009   3.486 -0.2613  0.5021 -0.2850
 9224TIP3   OH227635   6.554   2.428   0.735  0.2426 -0.2901  0.0168
 9224TIP3    H127636   6.622   2.486   0.770 -1.2741  1.4854  0.2018
 9224TIP3    H227637   6.582   2.409   0.646  1.8630 -1.1210  0.6480
 9225TIP3   OH227638   5.216   5.546   3.101 -0.1325 -0.0358 -0.0202
 9225TIP3    H127639   5.276   5.562   3.028  0.2619  0.5851  0.4300
 9225TIP3    H227640   5.162   5.625   3.106 -0.3429 -0.1911  0.1776
 9226TIP3   OH227641   6.154   6.095   3.074  0.0595  0.3556  0.0527
 9226TIP3    H127642   6.150   6.188   3.098  0.4005  0.5671 -0.6895
 9226TIP3    H227643   6.098   6.052   3.139  0.8021  0.9300  1.1103
 9227TIP3   OH227644   6.940   6.051   0.538 -0.1387 -0.0337  0.1345
 9227TIP3    H127645   7.007   6.117   0.556  0.7616  0.1224 -3.2334
 9227TIP3    H227646   6.974   5.971   0.580  1.0742  0.5463  0.3003
 9228TIP3   OH227647   0.705   5.269   3.749 -0.2621 -0.3026 -0.3440
 9228TIP3    H127648   0.627   5.217   3.733 -0.1418 -0.9537  1.0459
 9228TIP3    H227649   0.776   5.205   3.758  0.1533  0.1897 -0.0481
 9229TIP3   OH227650   2.489   3.108  -0.017 -0.0306 -0.3259  0.3475
 9229TIP3    H127651   2.436   3.038   0.022  0.5412 -0.5417  0.7424
 9229TIP3    H227652   2.496   3.174   0.051 -0.3668  0.0206  0.0562
 9230TIP3   OH227653   1.871   5.005   2.190  0.2635  0.7815 -0.4012
 9230TIP3    H127654   1.799   4.978   2.133  0.9013 -0.6552 -0.5608
 9230TIP3    H227655   1.881   5.099   2.173 -0.6911  0.7240 -1.3636
 9231TIP3   OH227656   2.425   0.637   3.603 -0.3503 -0.1797  0.5736
 9231TIP3    H127657   2.378   0.629   3.686 -1.3661 -0.8834 -0.0386
 9231TIP3    H227658   2.358   0.665   3.540 -0.3397 -2.5617 -0.6110
 9232TIP3   OH227659   6.280   3.219   0.054  0.2464 -0.4325  0.0166
 9232TIP3    H127660   6.339   3.291   0.075 -0.7580  0.8032 -1.2494
 9232TIP3    H227661   6.311   3.146   0.109  0.8179  1.1563  1.9074
 9233TIP3   OH227662   5.972   5.425   4.497  0.5274 -0.1184  0.0106
 9233TIP3    H127663   6.047   5.368   4.511  1.9601  1.1512 -1.9305
 9233TIP3    H227664   5.949   5.414   4.405 -1.2575  0.0548  0.3911
 9234TIP3   OH227665   1.974   2.398   3.644  0.6171 -1.1938  0.3007
 9234TIP3    H127666   2.020   2.470   3.687 -0.1011  0.7236 -1.9570
 9234TIP3    H227667   2.025   2.381   3.565  0.3916 -2.7319  0.4592
 9235TIP3   OH227668   3.861   1.840   1.117 -0.0308 -0.5171  0.6712
 9235TIP3    H127669   3.928   1.885   1.168 -0.4633  0.3870  0.4608
 9235TIP3    H227670   3.904   1.760   1.086  0.2152 -1.1229  2.4852
 9236TIP3   OH227671   1.900   1.914   5.001  0.1475 -0.2798 -0.4415
 9236TIP3    H127672   1.809   1.907   5.030  0.0957 -1.3283 -0.8193
 9236TIP3    H227673   1.952   1.892   5.078  0.0245 -2.0506 -0.8178
 9237TIP3   OH227674   5.135   3.986   1.292 -0.2409  0.0842  0.3960
 9237TIP3    H127675   5.216   4.009   1.338 -0.0361  1.1668 -0.4806
 9237TIP3    H227676   5.165   3.948   1.209 -0.6346  0.7643 -0.0561
 9238TIP3   OH227677   1.893   6.100   0.999  0.5163  0.3178 -0.2559
 9238TIP3    H127678   1.874   6.025   1.057  1.1632 -0.5390 -1.1170
 9238TIP3    H227679   1.931   6.166   1.057  0.0617 -0.0703  0.5011
 9239TIP3   OH227680   0.079   3.862   5.226  0.3306  0.5725 -0.1750
 9239TIP3    H127681   0.002   3.807   5.210 -0.1737  1.8829 -2.9304
 9239TIP3    H227682   0.140   3.805   5.272 -1.3479 -1.2861 -0.0979
 9240TIP3   OH227683   2.706   1.524   4.605  0.5325 -0.0029 -0.0469
 9240TIP3    H127684   2.649   1.456   4.641  0.5888 -0.7712 -1.3522
 9240TIP3    H227685   2.790   1.480   4.589  0.7496  0.5134 -0.3854
 9241TIP3   OH227686   2.915   0.507   2.778  0.2977  0.4782 -0.4852
 9241TIP3    H127687   2.927   0.453   2.700 -3.3833 -1.5311  0.1120
 9241TIP3    H227688   2.867   0.584   2.747 -1.8582 -0.6832 -0.2510
 9242TIP3   OH227689   1.203   0.773   3.818 -0.2584  0.5555  0.0069
 9242TIP3    H127690   1.149   0.727   3.883 -0.4957  0.4725 -0.2498
 9242TIP3    H227691   1.186   0.866   3.834  0.7081  0.5993  0.9545
 9243TIP3   OH227692   0.475   4.622   1.253 -0.0192 -0.0396  0.3544
 9243TIP3    H127693   0.384   4.594   1.248  0.4141 -1.3893 -2.4197
 9243TIP3    H227694   0.496   4.649   1.163  2.3094  0.1930  0.9115
 9244TIP3   OH227695   2.251   2.037   4.584  0.0553  0.2117 -0.1408
 9244TIP3    H127696   2.221   1.972   4.522  0.8486  0.8745 -1.2542
 9244TIP3    H227697   2.193   2.112   4.570  0.7496  0.6583 -0.6704
 9245TIP3   OH227698   4.405   3.815   5.028  0.3971  0.1130 -1.1681
 9245TIP3    H127699   4.315   3.847   5.037  0.5750  0.5898 -1.0239
 9245TIP3    H227700   4.403   3.759   4.951 -0.1775 -0.4405 -0.7588
 9246TIP3   OH227701   4.368   6.318   4.741  0.0127 -0.7323  0.1720
 9246TIP3    H127702   4.356   6.352   4.653 -0.9844 -1.9800 -0.1950
 9246TIP3    H227703   4.327   6.382   4.798  1.3399  0.4728 -0.1720
 9247TIP3   OH227704   1.979   5.541   1.384  0.2668 -0.0328  0.0380
 9247TIP3    H127705   1.886   5.522   1.388  0.1054  0.9221  1.6138
 9247TIP3    H227706   2.022   5.455   1.391 -0.4797 -0.4106  0.0198
 9248TIP3   OH227707   1.057   2.639   0.370  0.5631  0.3135 -0.0439
 9248TIP3    H127708   1.080   2.563   0.423 -1.4716  0.4566  1.1557
 9248TIP3    H227709   1.116   2.708   0.399  0.4862 -0.0352  0.9651
 9249TIP3   OH227710   4.672   5.097   3.379 -0.7915  0.5627  0.2305
 9249TIP3    H127711   4.729   5.020   3.379  0.6556  1.5442 -1.5964
 9249TIP3    H227712   4.623   5.091   3.461  3.0114  0.4476  2.7352
 9250TIP3   OH227713   2.465   4.128   1.218  0.3803  0.1737 -0.5607
 9250TIP3    H127714   2.413   4.054   1.186  1.2345 -0.9427  0.5628
 9250TIP3    H227715   2.494   4.172   1.139 -2.0155  0.6902 -1.2507
 9251TIP3   OH227716   7.110   4.412   0.725 -0.5205  0.5743 -0.0425
 9251TIP3    H127717   7.079   4.373   0.807 -1.8237  0.5713 -0.5167
 9251TIP3    H227718   7.038   4.398   0.663  0.4751  0.5090 -1.2176
 9252TIP3   OH227719   5.578   6.115   1.486 -0.3670 -0.3642 -0.0725
 9252TIP3    H127720   5.648   6.173   1.513 -0.0769  0.6535 -2.6576
 9252TIP3    H227721   5.621   6.048   1.432 -1.0394 -1.4772  0.7182
 9253TIP3   OH227722   2.912   3.638   4.322 -0.4627  0.3236  0.2157
 9253TIP3    H127723   2.946   3.678   4.242 -0.9089 -2.3970 -1.4532
 9253TIP3    H227724   2.973   3.566   4.340 -2.4307 -1.4336  0.1171
 9254TIP3   OH227725   2.510   2.699   1.565  0.1427  0.5000 -0.3349
 9254TIP3    H127726   2.592   2.653   1.586 -0.5115 -1.1974 -1.3663
 9254TIP3    H227727   2.495   2.755   1.642  0.4457 -1.7662  1.4981
 9255TIP3   OH227728   6.742   5.008   4.515  0.1672  0.0007 -0.1936
 9255TIP3    H127729   6.703   5.054   4.589 -1.6017  0.7002 -1.4585
 9255TIP3    H227730   6.834   4.996   4.538 -0.7595 -1.8677  3.0758
 9256TIP3   OH227731   0.162   3.120   5.526  0.4538  0.3524 -0.1104
 9256TIP3    H127732   0.216   3.198   5.541  0.3478  0.5676 -0.7942
 9256TIP3    H227733   0.091   3.151   5.470  1.1025 -0.4896 -1.4534
 9257TIP3   OH227734   2.788   6.245   3.309  0.7174 -0.3683  0.0686
 9257TIP3    H127735   2.871   6.200   3.322  0.1284 -1.1118  1.5270
 9257TIP3    H227736   2.786   6.313   3.376  1.0714  1.0953 -1.3559
 9258TIP3   OH227737   3.667   2.628   4.490  0.2365  0.3672  0.4634
 9258TIP3    H127738   3.695   2.544   4.454 -0.2151  0.3435  0.1693
 9258TIP3    H227739   3.680   2.691   4.419  0.1438  0.4655  0.5327
 9259TIP3   OH227740   6.974   3.369   4.232  0.3011 -0.2104 -0.1827
 9259TIP3    H127741   6.920   3.297   4.264  1.2969 -0.3338  1.3179
 9259TIP3    H227742   6.927   3.448   4.257  0.7512 -0.3166  1.0814
 9260TIP3   OH227743   6.424   6.030   3.407  0.0822  0.1210  0.0321
 9260TIP3    H127744   6.363   5.958   3.394  1.0101 -0.8327  0.7757
 9260TIP3    H227745   6.502   5.989   3.445  0.0907  1.7191  1.8977
 9261TIP3   OH227746   3.511   4.387   2.153  0.2382 -0.2329 -0.0595
 9261TIP3    H127747   3.529   4.481   2.155 -0.3141 -0.1300  0.8354
 9261TIP3    H227748   3.483   4.370   2.064  2.3021  0.0608 -0.8105
 9262TIP3   OH227749   2.509   2.857   3.564 -0.2476 -0.1968 -0.0640
 9262TIP3    H127750   2.590   2.895   3.531 -0.0714 -0.2301  0.3183
 9262TIP3    H227751   2.476   2.921   3.628 -0.6409 -0.0793 -0.3812
 9263TIP3   OH227752   4.078   2.336   1.653 -0.4465 -0.2186  0.3201
 9263TIP3    H127753   4.045   2.341   1.743  1.1169  3.1573  0.8860
 9263TIP3    H227754   4.005   2.367   1.600 -0.1540  1.7465  0.9627
 9264TIP3   OH227755   0.260   3.642   5.628  0.2965 -0.3354 -0.3445
 9264TIP3    H127756   0.318   3.567   5.614  0.9375 -0.0464  0.6538
 9264TIP3    H227757   0.231   3.667   5.541  0.5727 -1.3552 -0.7406
 9265TIP3   OH227758   3.774   2.064   0.976  0.3186 -0.1377 -0.1839
 9265TIP3    H127759   3.809   1.985   1.018 -1.5286 -0.1081  1.5654
 9265TIP3    H227760   3.851   2.119   0.959  1.4683 -1.6335 -0.0055
 9266TIP3   OH227761   2.614   2.636   5.617 -0.5442 -0.3923 -0.0356
 9266TIP3    H127762   2.655   2.636   5.704  0.3530  0.6271 -0.4313
 9266TIP3    H227763   2.673   2.583   5.563 -0.0973  0.5224 -0.4542
 9267TIP3   OH227764   3.931   0.699   3.093  0.3195  0.3605 -0.0706
 9267TIP3    H127765   3.945   0.656   3.177  3.6691 -0.3044 -0.8235
 9267TIP3    H227766   3.925   0.793   3.114  1.8469  0.2712  0.9041
 9268TIP3   OH227767   0.861   4.352   1.631  0.0633 -0.2800 -0.5413
 9268TIP3    H127768   0.923   4.383   1.565  1.7547 -0.3887  0.9270
 9268TIP3    H227769   0.782   4.330   1.581  1.1365  0.0010 -2.4634
 9269TIP3   OH227770   3.830   1.561   4.503 -0.4101  0.4772  0.0683
 9269TIP3    H127771   3.825   1.654   4.484 -3.1178  0.2717 -0.6232
 9269TIP3    H227772   3.902   1.529   4.449  0.9240  2.2110  0.7236
 9270TIP3   OH227773   6.486   6.262   2.898 -0.4969  0.1994  0.3570
 9270TIP3    H127774   6.554   6.311   2.945 -0.4765  0.6476 -0.1375
 9270TIP3    H227775   6.515   6.260   2.807  0.0570 -1.6982  0.5328
 9271TIP3   OH227776   5.468   5.556   2.678 -0.2181  0.2227  0.0688
 9271TIP3    H127777   5.461   5.506   2.760 -1.0782 -0.3452 -0.3418
 9271TIP3    H227778   5.554   5.533   2.644 -0.6043 -1.0418 -0.1333
 9272TIP3   OH227779   4.622   4.817   1.866  0.4876 -0.4594 -0.3077
 9272TIP3    H127780   4.687   4.865   1.816 -1.2827  0.9243 -1.3878
 9272TIP3    H227781   4.581   4.758   1.803  0.1746 -0.7848  0.1878
 9273TIP3   OH227782   6.172   0.847   0.126  0.2935 -0.3513  0.1346
 9273TIP3    H127783   6.162   0.854   0.031 -0.3910  1.5830  0.3063
 9273TIP3    H227784   6.084   0.833   0.158  0.0483  2.0021  0.6493
 9274TIP3   OH227785   0.628   1.296   4.629  0.4764 -0.1187 -0.1547
 9274TIP3    H127786   0.534   1.288   4.646  0.3595 -1.6418 -1.2779
 9274TIP3    H227787   0.642   1.390   4.617 -0.7797  0.1989  0.6411
 9275TIP3   OH227788   1.740   6.691   3.594  0.3535  0.4808  0.1314
 9275TIP3    H127789   1.747   6.775   3.639 -1.0638  0.1711  1.0035
 9275TIP3    H227790   1.648   6.668   3.599  0.9251 -1.9542  1.5172
 9276TIP3   OH227791   3.559   4.274   1.210 -0.4126 -0.7497 -0.2841
 9276TIP3    H127792   3.630   4.271   1.146  0.1503 -2.9004  0.3591
 9276TIP3    H227793   3.583   4.208   1.275 -3.1467 -1.7568 -0.1827
 9277TIP3   OH227794   0.046   0.790   2.503  0.1028 -0.4186 -0.2074
 9277TIP3    H127795   0.029   0.881   2.478  1.2404 -0.2565 -0.4298
 9277TIP3    H227796   0.029   0.787   2.597  0.0839  0.0320 -0.1952
 9278TIP3   OH227797   6.260   6.450   2.830 -0.3009 -0.0987 -0.0880
 9278TIP3    H127798   6.322   6.388   2.868  0.3090 -1.5849 -3.2129
 9278TIP3    H227799   6.237   6.509   2.902  2.1110 -1.5721  2.0202
 9279TIP3   OH227800   5.221   3.894   5.471  0.6225 -0.3186 -0.3030
 9279TIP3    H127801   5.215   3.982   5.435 -0.2531 -0.3276 -0.2051
 9279TIP3    H227802   5.294   3.898   5.533  1.2774  0.0485 -1.0752
 9280TIP3   OH227803   6.285   3.041   1.041 -0.4462 -0.7502  0.3286
 9280TIP3    H127804   6.292   2.950   1.013  0.0714 -1.0096  1.2475
 9280TIP3    H227805   6.302   3.038   1.135 -3.0079 -0.0362  0.8892
 9281TIP3   OH227806   5.490   5.722   1.734  0.1397 -0.2130 -0.0780
 9281TIP3    H127807   5.472   5.629   1.720 -2.3850 -0.0480  1.5630
 9281TIP3    H227808   5.566   5.724   1.793  0.2529 -1.2139 -0.1846
 9282TIP3   OH227809   5.857   3.178   4.007  0.1660 -0.2820  0.0958
 9282TIP3    H127810   5.814   3.260   3.983 -0.5990 -0.5799  0.4161
 9282TIP3    H227811   5.815   3.112   3.952 -0.1192 -0.6485  0.7485
 9283TIP3   OH227812   1.221   2.979   4.846  0.5225  0.0977 -0.5591
 9283TIP3    H127813   1.229   3.037   4.770  1.8872 -0.9877 -1.2940
 9283TIP3    H227814   1.312   2.959   4.870  0.1420  0.8926  1.7687
 9284TIP3   OH227815   6.357   5.437   4.917  0.8785  0.3823  1.0350
 9284TIP3    H127816   6.377   5.352   4.956  3.0743 -0.0136 -0.7091
 9284TIP3    H227817   6.285   5.419   4.856  0.4392  0.0738  1.6375
 9285TIP3   OH227818   4.504   5.470   0.754 -0.0061  0.6780  0.0315
 9285TIP3    H127819   4.544   5.426   0.679 -0.7392  0.6530 -0.3579
 9285TIP3    H227820   4.577   5.495   0.809  0.8544  3.2747 -2.0835
 9286TIP3   OH227821   2.741   0.031   1.239 -0.0489  0.3088  0.6757
 9286TIP3    H127822   2.806  -0.035   1.216 -1.6780 -0.9011 -0.7627
 9286TIP3    H227823   2.743   0.035   1.334  1.3385 -0.4876  0.7092
 9287TIP3   OH227824   0.190   6.321   4.528 -0.6977 -0.2043  0.0076
 9287TIP3    H127825   0.243   6.242   4.537  0.3736  0.4961  0.1075
 9287TIP3    H227826   0.162   6.341   4.617 -0.5096 -0.1773  0.0621
 9288TIP3   OH227827   6.199   5.176   4.853  0.5343 -0.1857 -0.5094
 9288TIP3    H127828   6.155   5.095   4.828 -0.1195  0.0294 -0.0547
 9288TIP3    H227829   6.160   5.201   4.936  0.5180  0.7637 -0.7890
 9289TIP3   OH227830   5.636   0.356   3.312 -0.7637  0.3005 -0.4295
 9289TIP3    H127831   5.684   0.307   3.244 -0.1959  0.2287  0.0094
 9289TIP3    H227832   5.580   0.416   3.263 -1.8821 -1.1395 -1.0013
 9290TIP3   OH227833   2.742   1.962   3.694  0.3978  0.8778  0.2874
 9290TIP3    H127834   2.723   1.958   3.788 -0.1952  0.4515  0.1590
 9290TIP3    H227835   2.825   1.915   3.684 -0.8086 -1.4158  0.2882
 9291TIP3   OH227836   2.598   1.415   1.414  0.0930 -0.0353 -0.2551
 9291TIP3    H127837   2.518   1.367   1.391  0.0585  0.9328 -2.3512
 9291TIP3    H227838   2.590   1.498   1.366  2.0847  0.3197 -0.0224
 9292TIP3   OH227839   5.995   6.697   3.625 -0.4160 -0.2416  0.5459
 9292TIP3    H127840   5.971   6.699   3.532 -0.5418 -1.7849  0.5124
 9292TIP3    H227841   6.075   6.644   3.628  0.6384  1.3324  1.1398
 9293TIP3   OH227842   0.655   0.092   3.327  0.0879 -0.2663  0.5989
 9293TIP3    H127843   0.745   0.092   3.295 -0.5364 -2.3882 -1.3629
 9293TIP3    H227844   0.603   0.061   3.253 -2.0773 -0.6159  2.1824
 9294TIP3   OH227845   6.416   5.721   4.905 -0.1455 -0.2786 -0.1644
 9294TIP3    H127846   6.328   5.755   4.920 -1.6192 -1.3312 -4.6655
 9294TIP3    H227847   6.407   5.626   4.914  0.6112 -0.3678 -0.2742
 9295TIP3   OH227848   2.047   1.923   0.359 -0.3585 -0.1219 -0.6507
 9295TIP3    H127849   2.073   1.969   0.280 -0.6425 -0.8099 -1.1601
 9295TIP3    H227850   1.974   1.867   0.331  1.5449 -2.7904 -0.7080
 9296TIP3   OH227851   0.758   2.788   3.067 -0.4057  0.3891 -0.3313
 9296TIP3    H127852   0.842   2.815   3.102 -0.0108  1.9992 -2.3171
 9296TIP3    H227853   0.694   2.816   3.133  0.6005 -2.1312  1.8780
 9297TIP3   OH227854   4.974   1.536   0.165  0.2816  0.4610 -0.2498
 9297TIP3    H127855   5.049   1.543   0.223  0.0173  0.0822  0.1494
 9297TIP3    H227856   5.006   1.487   0.089  0.5698  0.7573 -0.3211
 9298TIP3   OH227857   1.842   6.525   5.226  0.6556 -0.1982 -0.5350
 9298TIP3    H127858   1.858   6.534   5.320 -0.5020 -2.5135 -0.0300
 9298TIP3    H227859   1.929   6.511   5.188  1.1413  0.8388  0.1545
 9299TIP3   OH227860   4.064   1.016   5.838 -0.1455 -0.7417 -0.3127
 9299TIP3    H127861   3.995   0.969   5.886  0.6074 -3.2606 -1.5092
 9299TIP3    H227862   4.053   0.987   5.748  1.2787  0.3628 -0.8632
 9300TIP3   OH227863   2.338   1.415   4.920  0.0209  0.0093 -0.2140
 9300TIP3    H127864   2.256   1.370   4.899 -0.2060 -0.6139  1.7742
 9300TIP3    H227865   2.323   1.505   4.893 -1.3462 -0.0881  0.1416
 9301TIP3   OH227866   2.447   4.428   3.611 -0.1396  0.4776 -0.0464
 9301TIP3    H127867   2.515   4.496   3.603  1.2443 -1.0086 -1.6122
 9301TIP3    H227868   2.462   4.389   3.697  2.2777 -1.0372 -1.0462
 9302TIP3   OH227869   3.369   6.372   5.905 -0.1636  0.0065 -0.1383
 9302TIP3    H127870   3.442   6.434   5.897  0.1498 -0.4561 -1.0793
 9302TIP3    H227871   3.391   6.302   5.843 -0.0568 -1.5181  1.5355
 9303TIP3   OH227872   3.917   5.521   0.304  0.1467  0.3189  0.4508
 9303TIP3    H127873   4.011   5.541   0.305  0.4588 -0.7455 -1.6143
 9303TIP3    H227874   3.910   5.437   0.350  0.2065  0.3780  0.5690
 9304TIP3   OH227875   0.225   1.269   0.684 -0.7181  0.4944  0.0173
 9304TIP3    H127876   0.231   1.363   0.666  2.0371  0.4405  0.2447
 9304TIP3    H227877   0.226   1.228   0.597  1.2371  0.6137 -0.0514
 9305TIP3   OH227878   5.379   4.984   2.555 -0.1923 -0.6099 -0.3084
 9305TIP3    H127879   5.338   5.021   2.476 -0.4169 -0.7193 -0.2450
 9305TIP3    H227880   5.376   4.889   2.541 -0.3286 -0.6331 -0.1207
 9306TIP3   OH227881   4.698   1.804   0.905  0.4012 -0.2628 -0.2036
 9306TIP3    H127882   4.722   1.820   0.814 -0.0035  0.7119 -0.1579
 9306TIP3    H227883   4.641   1.878   0.928 -0.2548 -0.9770  0.5589
 9307TIP3   OH227884   5.497   3.757   4.449 -0.7077 -0.7547  0.1285
 9307TIP3    H127885   5.485   3.662   4.450 -1.2158 -0.6940 -0.1290
 9307TIP3    H227886   5.586   3.769   4.414 -1.6144 -1.0607 -2.5177
 9308TIP3   OH227887   2.029   2.238   5.192  0.3583 -0.5653  0.5032
 9308TIP3    H127888   2.076   2.216   5.112 -1.7338 -1.3427 -0.6056
 9308TIP3    H227889   2.048   2.330   5.208  0.0914 -0.1461 -1.4346
 9309TIP3   OH227890   6.464   0.372   4.529  0.0978 -0.8247 -0.1935
 9309TIP3    H127891   6.502   0.416   4.605 -0.6861 -0.1322 -0.1825
 9309TIP3    H227892   6.538   0.330   4.485  0.8042  0.1692  0.0250
 9310TIP3   OH227893   6.165   1.950   1.961  0.0642 -0.7001  0.3787
 9310TIP3    H127894   6.116   2.018   2.007 -0.0197 -0.6723  0.2485
 9310TIP3    H227895   6.225   1.998   1.903 -0.4562 -0.7367 -0.1988
 9311TIP3   OH227896   1.851   2.602   2.044  0.8012  0.4412  0.2286
 9311TIP3    H127897   1.895   2.541   1.986  0.5734 -0.2240  0.7390
 9311TIP3    H227898   1.832   2.551   2.123 -1.2059  0.5897 -0.1015
 9312TIP3   OH227899   3.613   3.283   4.902 -0.0729  0.3509 -0.0602
 9312TIP3    H127900   3.626   3.307   4.994 -1.4699  0.9287  0.0174
 9312TIP3    H227901   3.697   3.249   4.874  0.1538 -0.6507  1.6771
 9313TIP3   OH227902   6.698   0.769   5.463 -0.1970  0.0613 -0.0250
 9313TIP3    H127903   6.658   0.855   5.454  0.4507  0.3328 -0.4503
 9313TIP3    H227904   6.626   0.707   5.448 -0.5120  0.5306 -0.5100
 9314TIP3   OH227905   3.715   4.466   1.391  0.6337 -0.0090 -0.2378
 9314TIP3    H127906   3.664   4.541   1.361  0.6045  0.4493  0.9051
 9314TIP3    H227907   3.667   4.390   1.359 -0.8075  0.4044  0.8271
 9315TIP3   OH227908   4.375   2.302   2.711 -0.1801 -0.3733  0.0961
 9315TIP3    H127909   4.471   2.302   2.713 -0.1774 -0.8692  2.1107
 9315TIP3    H227910   4.350   2.239   2.777 -1.8829  1.6082  1.4636
 9316TIP3   OH227911   0.189   3.293   1.398 -0.0674 -0.1805 -1.0067
 9316TIP3    H127912   0.199   3.386   1.417 -1.0882 -0.5830  2.2122
 9316TIP3    H227913   0.193   3.251   1.484  0.4118 -3.1382 -2.3583
 9317TIP3   OH227914   7.026   3.286   2.778 -0.5163 -0.2040  0.2042
 9317TIP3    H127915   6.996   3.375   2.759  2.1343  0.9536  1.0387
 9317TIP3    H227916   7.035   3.284   2.874  1.9737 -0.3975  0.0334
 9318TIP3   OH227917   4.156   0.891   0.475 -0.0935 -0.0227 -0.1726
 9318TIP3    H127918   4.086   0.849   0.424  0.4809 -2.6354  0.9975
 9318TIP3    H227919   4.119   0.901   0.562  0.0594  1.2670 -0.2457
 9319TIP3   OH227920   0.538   6.664   4.378  0.1064  0.0323 -0.1933
 9319TIP3    H127921   0.552   6.664   4.473 -0.2305  1.1455 -0.1263
 9319TIP3    H227922   0.446   6.687   4.368  0.1965  0.1317 -0.8003
 9320TIP3   OH227923   2.362   3.897   1.105  0.3016 -0.1207  0.4498
 9320TIP3    H127924   2.325   3.859   1.184  0.2566  0.4217  0.6979
 9320TIP3    H227925   2.291   3.948   1.066  0.4482 -0.0270  0.2983
 9321TIP3   OH227926   2.166   4.027   0.981  0.2653  0.3872 -0.0296
 9321TIP3    H127927   2.091   4.076   1.014 -0.1505 -0.8210  0.8727
 9321TIP3    H227928   2.222   4.094   0.942 -0.4662  1.5325  0.8063
 9322TIP3   OH227929   0.907   0.800   4.424 -0.2257  0.0780 -0.0687
 9322TIP3    H127930   0.934   0.823   4.335  2.1645 -0.1767  0.5324
 9322TIP3    H227931   0.855   0.721   4.414 -0.9516  0.6846 -1.3242
 9323TIP3   OH227932   0.451   3.170   0.682  0.5750  0.3979 -0.0224
 9323TIP3    H127933   0.450   3.150   0.775 -0.2725 -0.6770 -0.2426
 9323TIP3    H227934   0.495   3.255   0.676 -1.4084  1.6452  1.5909
 9324TIP3   OH227935   6.946   5.145   5.548 -0.7089  0.3556 -0.7323
 9324TIP3    H127936   6.881   5.212   5.569  0.1121  0.7784  0.5644
 9324TIP3    H227937   6.896   5.064   5.540 -1.1994  0.2467  2.4041
 9325TIP3   OH227938   3.558   4.308   0.231  0.1131  1.2047  0.4527
 9325TIP3    H127939   3.627   4.300   0.164 -0.7771 -1.5605 -0.2770
 9325TIP3    H227940   3.591   4.255   0.304 -1.5544 -1.0728 -0.3174
 9326TIP3   OH227941   4.269   2.794   0.542 -0.1013  0.3921 -0.2199
 9326TIP3    H127942   4.315   2.832   0.467  0.5689  0.6809  0.3224
 9326TIP3    H227943   4.334   2.793   0.612 -0.6552 -0.0677  0.3014
 9327TIP3   OH227944   1.855   0.955   5.377 -0.0252  0.7687  0.1727
 9327TIP3    H127945   1.784   0.982   5.317  0.3211  2.9030  0.6341
 9327TIP3    H227946   1.822   0.977   5.464  1.5551  2.8097  0.3287
 9328TIP3   OH227947   0.908   5.148   0.665  0.0180  0.6898  0.5043
 9328TIP3    H127948   0.895   5.175   0.575 -0.2562 -0.6978  0.1059
 9328TIP3    H227949   0.904   5.229   0.716 -2.0841  1.2606 -0.4825
 9329TIP3   OH227950   5.883   5.381   1.739 -0.1870  0.3561  0.1544
 9329TIP3    H127951   5.924   5.317   1.680 -0.8771 -0.2621  0.3178
 9329TIP3    H227952   5.903   5.466   1.701  0.4305  0.0179 -0.2865
 9330TIP3   OH227953   4.501   3.956   5.539 -0.3301  0.4951 -0.1342
 9330TIP3    H127954   4.449   3.945   5.459 -1.3556 -1.3950  0.7277
 9330TIP3    H227955   4.436   3.966   5.608  0.5416  1.2307  0.6068
 9331TIP3   OH227956   6.220   1.902   0.538  0.4513  0.3637 -0.4615
 9331TIP3    H127957   6.198   1.815   0.506 -0.5218  0.6791 -0.6688
 9331TIP3    H227958   6.198   1.899   0.631  3.5402 -0.6432  0.3537
 9332TIP3   OH227959   4.687   6.298   3.375 -0.3545 -0.3108 -0.0855
 9332TIP3    H127960   4.654   6.215   3.340  0.9008 -0.6431 -0.5790
 9332TIP3    H227961   4.750   6.327   3.309 -0.0185  0.5040  0.5807
 9333TIP3   OH227962   5.771   3.726   4.345  0.4278 -0.3684  0.1209
 9333TIP3    H127963   5.799   3.637   4.366  2.3027  0.1714  0.0783
 9333TIP3    H227964   5.845   3.781   4.371  0.8024  0.8417 -3.0906
 9334TIP3   OH227965   1.479   3.944   5.264 -0.2855 -0.5095 -0.0909
 9334TIP3    H127966   1.387   3.963   5.250  0.0482  0.3370 -1.3108
 9334TIP3    H227967   1.519   4.029   5.281  0.0076 -1.0583  2.3598
 9335TIP3   OH227968   3.539   2.022   0.331 -0.1958 -0.4369  0.1994
 9335TIP3    H127969   3.563   1.941   0.375 -0.3240  0.1629  1.4078
 9335TIP3    H227970   3.623   2.065   0.313 -0.0824 -1.1518 -1.1151
 9336TIP3   OH227971   4.745   3.865   3.788 -0.7336  0.3821 -0.0592
 9336TIP3    H127972   4.800   3.875   3.866 -1.1798 -0.6532  0.4004
 9336TIP3    H227973   4.747   3.952   3.747  1.7918  0.2374 -0.4415
 9337TIP3   OH227974   1.847   6.814   1.012  0.0053  0.0078  0.2816
 9337TIP3    H127975   1.940   6.838   1.010 -0.5040  2.2037  0.7864
 9337TIP3    H227976   1.847   6.726   1.051  1.8677 -0.0867  0.1843
 9338TIP3   OH227977   1.642   3.054   0.202  0.2928 -0.4047  0.4540
 9338TIP3    H127978   1.566   3.028   0.255  0.0595  0.7280  0.7028
 9338TIP3    H227979   1.627   3.013   0.117  0.3274 -1.6900  1.0383
 9339TIP3   OH227980   4.065   3.909   4.719 -0.3129  0.3018  0.0844
 9339TIP3    H127981   4.057   3.991   4.768  1.6430  1.4181 -1.3297
 9339TIP3    H227982   4.019   3.927   4.637 -1.4936 -0.7230  0.4872
 9340TIP3   OH227983  -0.012   1.349   0.506  0.0688 -0.5651 -0.1820
 9340TIP3    H127984   0.053   1.345   0.435  0.8661 -0.1510  0.5196
 9340TIP3    H227985  -0.008   1.262   0.546 -0.7010 -0.9525 -0.9007
 9341TIP3   OH227986   0.179   0.338   1.844  0.4759 -0.1780  0.0775
 9341TIP3    H127987   0.222   0.301   1.767  0.4011 -0.1874  0.0401
 9341TIP3    H227988   0.183   0.433   1.831 -0.9388 -0.1925 -0.7183
 9342TIP3   OH227989   6.626   1.811   1.305 -0.4482 -0.5096  0.4807
 9342TIP3    H127990   6.579   1.888   1.336 -0.4826 -0.5565  0.5457
 9342TIP3    H227991   6.632   1.754   1.382  1.6772  0.4512  1.1136
 9343TIP3   OH227992   1.587   3.939   2.035 -0.4506 -0.2459 -0.3430
 9343TIP3    H127993   1.521   3.899   1.979 -2.0551  1.6670  0.0817
 9343TIP3    H227994   1.539   3.962   2.115  1.2148 -0.6129  0.8206
 9344TIP3   OH227995   5.721   2.056   5.757 -0.2706  0.2483  0.3314
 9344TIP3    H127996   5.808   2.030   5.786 -0.5440 -0.6675  0.3508
 9344TIP3    H227997   5.735   2.094   5.670  0.1649  0.2624  0.4051
 9345TIP3   OH227998   6.269   6.561   1.776  0.5698  0.0618  0.3153
 9345TIP3    H127999   6.173   6.565   1.780  0.5657  0.3448 -0.0537
 9345TIP3    H228000   6.295   6.642   1.732  0.8503 -0.9846 -1.5589
 9346TIP3   OH228001   6.111   0.451   1.856  0.3820 -0.5888 -0.1810
 9346TIP3    H128002   6.065   0.387   1.802 -0.9425  0.1872 -0.0357
 9346TIP3    H228003   6.042   0.490   1.910  1.3050  0.2815  0.4051
 9347TIP3   OH228004   0.850   2.765   1.774  0.2670 -0.3936 -0.6067
 9347TIP3    H128005   0.825   2.775   1.866  0.5715 -0.1749 -0.5473
 9347TIP3    H228006   0.767   2.772   1.726  0.2810  1.0998 -0.4670
 9348TIP3   OH228007   7.077   4.926   3.450 -0.0249 -0.4413  0.2239
 9348TIP3    H128008   7.107   4.840   3.421 -1.3205 -0.4489 -1.2226
 9348TIP3    H228009   7.004   4.907   3.509 -0.6630 -0.3411 -0.5221
 9349TIP3   OH228010   5.345   1.835   5.815 -0.1359 -0.0926 -0.1846
 9349TIP3    H128011   5.431   1.826   5.856 -0.2399 -1.5525 -0.2171
 9349TIP3    H228012   5.294   1.761   5.850 -1.3902  0.7657 -0.1329
 9350TIP3   OH228013   5.115   5.795   3.031  0.1519  0.5622 -0.7979
 9350TIP3    H128014   5.080   5.851   2.962 -0.5302  1.4381  0.2374
 9350TIP3    H228015   5.082   5.833   3.112  1.3255 -0.1664  0.0512
 9351TIP3   OH228016   3.363   2.060   4.335 -0.2557  0.9429 -0.0148
 9351TIP3    H128017   3.450   2.064   4.294  0.8770 -0.3265  2.1007
 9351TIP3    H228018   3.341   2.151   4.354  0.0540  1.3828 -1.5988
 9352TIP3   OH228019   5.434   4.088   4.270  0.3936 -0.5250 -0.1137
 9352TIP3    H128020   5.418   4.165   4.323  1.1910  0.7287 -1.6219
 9352TIP3    H228021   5.511   4.047   4.310  0.4433 -0.1062  0.2282
 9353TIP3   OH228022   2.287   5.752   5.817  0.5537 -0.1158  0.2693
 9353TIP3    H128023   2.289   5.834   5.768 -0.6386 -1.0744 -1.4551
 9353TIP3    H228024   2.270   5.779   5.907  2.7905  1.6944  0.2548
 9354TIP3   OH228025   3.984   5.786   2.467  0.8930  0.1909 -0.3582
 9354TIP3    H128026   3.907   5.836   2.492  1.0170 -0.3599  1.2481
 9354TIP3    H228027   4.057   5.833   2.507  1.2113 -0.2321 -0.4343
 9355TIP3   OH228028   1.691   0.722   3.730 -0.4520 -0.2692  0.0097
 9355TIP3    H128029   1.650   0.647   3.773 -0.2559 -0.7464 -0.6201
 9355TIP3    H228030   1.634   0.796   3.751 -0.6104 -0.5812  0.6936
 9356TIP3   OH228031   6.707   1.699   4.453 -0.2189  0.8894  0.1803
 9356TIP3    H128032   6.650   1.739   4.519  1.5930  1.7914  1.2598
 9356TIP3    H228033   6.796   1.721   4.481  0.6455  0.6665 -2.1576
 9357TIP3   OH228034   2.493   4.611   2.286 -0.0575  0.1827 -0.2090
 9357TIP3    H128035   2.469   4.686   2.340 -1.0574  0.0260 -0.4155
 9357TIP3    H228036   2.445   4.625   2.204 -0.2814 -0.6966 -0.2364
 9358TIP3   OH228037   4.624   2.819   2.272 -0.2021 -0.3946 -0.0379
 9358TIP3    H128038   4.562   2.800   2.202 -0.2230 -1.7922  0.3286
 9358TIP3    H228039   4.579   2.791   2.352 -0.1741  1.1527  0.5549
 9359TIP3   OH228040   3.153   1.532   2.295 -0.0778  0.3339 -0.2308
 9359TIP3    H128041   3.105   1.456   2.263  2.4702 -1.7622  0.5732
 9359TIP3    H228042   3.088   1.583   2.343 -1.8379 -1.4399 -0.5995
 9360TIP3   OH228043   7.016   5.685   3.528 -0.1001  0.3880  0.2494
 9360TIP3    H128044   7.093   5.721   3.574  0.7225  0.8491 -1.4041
 9360TIP3    H228045   6.955   5.758   3.525  0.3319  0.7283 -0.4301
 9361TIP3   OH228046   0.286   0.063   4.388  0.1086  0.5423 -0.1041
 9361TIP3    H128047   0.225   0.115   4.440  0.1480  0.5786 -0.0950
 9361TIP3    H228048   0.279  -0.026   4.424  2.1809  1.0894  1.7935
 9362TIP3   OH228049   7.145   2.544   5.553 -0.2235 -0.5825  0.1766
 9362TIP3    H128050   7.171   2.631   5.584  1.5315 -1.4874  1.4448
 9362TIP3    H228051   7.055   2.533   5.583  0.5443 -0.3601  2.8161
 9363TIP3   OH228052   6.233   4.897   3.190 -0.1373 -0.4633  0.0505
 9363TIP3    H128053   6.145   4.932   3.199  0.6575  1.4733  0.7268
 9363TIP3    H228054   6.261   4.926   3.103  0.6532  0.9589  0.7518
 9364TIP3   OH228055   1.010   1.798   5.691  0.1755  0.4805 -0.2623
 9364TIP3    H128056   1.042   1.854   5.621  1.6643 -0.3911 -0.3226
 9364TIP3    H228057   1.048   1.712   5.672 -1.4471 -0.3878  0.2277
 9365TIP3   OH228058   6.667   2.209   3.961 -0.2028 -0.3097  0.0281
 9365TIP3    H128059   6.618   2.280   3.920 -1.3954 -1.0806  0.0746
 9365TIP3    H228060   6.694   2.245   4.046  0.9056  0.7394 -0.7250
 9366TIP3   OH228061   4.574   6.460   1.525 -0.0902  0.6275 -0.2758
 9366TIP3    H128062   4.495   6.439   1.474  0.3753  1.1529 -1.2421
 9366TIP3    H228063   4.545   6.459   1.616 -0.7281 -1.3884 -0.4475
 9367TIP3   OH228064   3.864   2.386   2.453 -0.0661  0.1236 -0.3136
 9367TIP3    H128065   3.779   2.352   2.425 -0.8500  1.5182  0.2346
 9367TIP3    H228066   3.845   2.436   2.533  1.3154  0.2681 -0.0407
 9368TIP3   OH228067   7.148   2.420   3.911  0.2617 -0.0253 -1.0059
 9368TIP3    H128068   7.210   2.370   3.964 -0.7070 -0.4089 -0.1877
 9368TIP3    H228069   7.178   2.510   3.917  0.6370 -0.1793 -0.4648
 9369TIP3   OH228070   1.315   1.083   5.495  0.1905 -0.1048  0.4568
 9369TIP3    H128071   1.267   1.062   5.575  2.7808  0.5267  2.2854
 9369TIP3    H228072   1.308   1.178   5.486 -0.0412 -0.1658 -0.0769
 9370TIP3   OH228073   6.888   2.404   2.865  0.3265  0.2059  0.1600
 9370TIP3    H128074   6.948   2.479   2.870  2.5918 -1.5744  1.5537
 9370TIP3    H228075   6.918   2.354   2.789  0.2735 -0.4256  0.5515
 9371TIP3   OH228076   4.899   3.896   2.238  0.0874  0.0085 -0.8013
 9371TIP3    H128077   4.936   3.811   2.214 -0.8075 -0.2724 -1.2213
 9371TIP3    H228078   4.892   3.893   2.333  1.9668  0.4233 -0.6081
 9372TIP3   OH228079   2.928   3.933   3.937  0.0312  0.3856 -0.1074
 9372TIP3    H128080   2.878   4.015   3.940  0.6785  0.8860 -1.8689
 9372TIP3    H228081   2.863   3.866   3.913 -0.3793  0.4479  0.7592
 9373TIP3   OH228082   1.630   2.749   5.815  0.4206  1.0164  0.1522
 9373TIP3    H128083   1.597   2.703   5.737  0.6907 -0.5034  0.8932
 9373TIP3    H228084   1.613   2.841   5.797  1.4966  0.8286 -2.2013
 9374TIP3   OH228085   6.777   5.280   4.919  0.1039 -0.2225 -0.2616
 9374TIP3    H128086   6.860   5.270   4.872  1.8153  0.8971  2.2753
 9374TIP3    H228087   6.786   5.225   4.997 -0.2388  2.1038  1.5512
 9375TIP3   OH228088   4.607   1.526   4.552  0.2950  0.1758 -0.4170
 9375TIP3    H128089   4.666   1.509   4.478 -0.6319  1.6974 -1.5750
 9375TIP3    H228090   4.581   1.618   4.541  1.8526  1.1844  3.1033
 9376TIP3   OH228091   0.909   4.955   1.748 -0.3389  0.3042 -0.7570
 9376TIP3    H128092   0.899   5.001   1.665 -0.7346  0.6948 -0.4973
 9376TIP3    H228093   0.879   5.017   1.814 -1.3026 -0.4665 -0.4304
 9377TIP3   OH228094   6.371   6.422   2.561 -0.2971 -0.3760 -0.5900
 9377TIP3    H128095   6.385   6.491   2.497 -0.5043  0.3143  0.0893
 9377TIP3    H228096   6.361   6.469   2.645  3.7656 -1.3660  0.6907
 9378TIP3   OH228097   4.561   2.318   4.330 -0.1439  0.2097 -0.2651
 9378TIP3    H128098   4.615   2.264   4.387  0.4876  0.6854 -0.4009
 9378TIP3    H228099   4.507   2.369   4.390 -0.2368 -0.0616 -0.1183
 9379TIP3   OH228100   5.901   4.262   4.287 -0.3454  0.0616  0.3708
 9379TIP3    H128101   5.816   4.305   4.278 -0.7849 -0.8365  0.0953
 9379TIP3    H228102   5.919   4.265   4.381 -1.3700 -0.9764  0.6335
 9380TIP3   OH228103   2.458   3.635   2.846  0.0486 -0.1527  0.3003
 9380TIP3    H128104   2.428   3.621   2.757 -1.3041  1.6437  0.4316
 9380TIP3    H228105   2.548   3.602   2.846  0.1997  0.1210 -1.8057
 9381TIP3   OH228106   6.788   1.147   4.828  0.4091 -0.1544 -0.0456
 9381TIP3    H128107   6.853   1.138   4.898  0.4288 -0.1753 -0.0667
 9381TIP3    H228108   6.797   1.237   4.798  1.1001 -0.4416 -0.7115
 9382TIP3   OH228109   2.589   0.155   0.491 -0.8112 -0.2492 -0.5171
 9382TIP3    H128110   2.566   0.131   0.581  0.2700 -2.0696 -0.6867
 9382TIP3    H228111   2.631   0.077   0.455 -0.0341  0.8834 -2.1921
 9383TIP3   OH228112   0.813   6.077   5.191 -0.3557  0.3298 -0.2757
 9383TIP3    H128113   0.888   6.135   5.205  0.1421 -0.4124  0.2576
 9383TIP3    H228114   0.845   6.011   5.129  0.0550 -1.0053  1.2534
 9384TIP3   OH228115   5.467   6.653   5.244 -0.4610 -0.0081 -0.1483
 9384TIP3    H128116   5.473   6.668   5.338 -0.7468 -1.0801  0.0517
 9384TIP3    H228117   5.554   6.622   5.219 -1.1057 -2.3922  0.2934
 9385TIP3   OH228118   6.341   0.864   4.473 -0.6800  0.2495 -0.4920
 9385TIP3    H128119   6.399   0.864   4.397 -0.2594 -0.6913 -0.1899
 9385TIP3    H228120   6.354   0.950   4.513 -0.6075  0.5992 -1.2594
 9386TIP3   OH228121   3.030   5.622   3.565 -0.1504 -0.3777  0.3575
 9386TIP3    H128122   2.965   5.601   3.632 -0.3316 -1.0646 -0.0302
 9386TIP3    H228123   3.114   5.602   3.606 -0.1503  0.6528  0.9132
 9387TIP3   OH228124   0.353   2.125   1.002 -0.1232  0.0410 -0.0102
 9387TIP3    H128125   0.361   2.062   1.073 -1.1708 -0.6985 -0.5361
 9387TIP3    H228126   0.317   2.204   1.044  1.2824  0.3543  0.6622
 9388TIP3   OH228127   6.198   6.787   5.423 -0.1745 -0.1285  0.1215
 9388TIP3    H128128   6.213   6.860   5.362 -0.4523  1.2287  1.6204
 9388TIP3    H228129   6.261   6.720   5.397  0.2682  0.7415 -1.1298
 9389TIP3   OH228130   1.035   5.134   1.156  0.2471 -0.2891  0.2313
 9389TIP3    H128131   1.019   5.045   1.189  0.1829 -0.6543 -0.7681
 9389TIP3    H228132   1.035   5.188   1.235 -2.3131 -0.7762  0.6665
 9390TIP3   OH228133   5.886   6.076   1.359 -0.1194 -0.4075 -0.0897
 9390TIP3    H128134   5.978   6.052   1.362  0.5159  1.7845 -0.6329
 9390TIP3    H228135   5.847   6.016   1.295  1.2828 -0.2724 -1.1036
 9391TIP3   OH228136   0.522   2.113   1.512 -0.1699  0.1876  0.8358
 9391TIP3    H128137   0.561   2.137   1.596 -0.3609 -1.2151  1.3453
 9391TIP3    H228138   0.430   2.137   1.521 -0.3650 -0.7197  1.3494
 9392TIP3   OH228139   6.795   2.774   3.029  0.4562  0.2618 -0.1837
 9392TIP3    H128140   6.705   2.743   3.025  0.6804 -0.3611 -0.6331
 9392TIP3    H228141   6.789   2.864   3.061 -0.3943  0.5203 -1.0458
 9393TIP3   OH228142   2.890   2.609   2.169 -0.2254  0.1462 -0.0183
 9393TIP3    H128143   2.914   2.544   2.235 -0.5817  0.8134  0.7786
 9393TIP3    H228144   2.968   2.663   2.159  0.0760 -0.3889 -0.6926
 9394TIP3   OH228145   2.701   3.402   1.610  0.6558 -0.2774  0.0333
 9394TIP3    H128146   2.677   3.386   1.518  0.0338 -0.0887  0.1597
 9394TIP3    H228147   2.789   3.365   1.618  1.2639  0.8528 -0.9825
 9395TIP3   OH228148   0.581   2.844   4.046  0.3033  0.7143  0.4000
 9395TIP3    H128149   0.603   2.927   4.005  0.7205 -0.2155 -1.3872
 9395TIP3    H228150   0.485   2.841   4.046  0.2462  1.6638  1.5682
 9396TIP3   OH228151   1.753   5.707   0.140  0.2176  0.5270 -0.0803
 9396TIP3    H128152   1.817   5.638   0.125  0.7599  0.6243  1.5988
 9396TIP3    H228153   1.798   5.771   0.195  0.1248  2.8628 -2.5348
 9397TIP3   OH228154   7.049   2.020   0.344  0.3500  0.2295  0.2514
 9397TIP3    H128155   7.117   2.087   0.338  1.1881 -0.6293 -0.0864
 9397TIP3    H228156   7.040   1.987   0.255 -0.5987  0.3980  0.2749
 9398TIP3   OH228157   5.648   6.004   3.067  0.0223 -0.0532  0.1942
 9398TIP3    H128158   5.562   5.973   3.038 -0.5661 -2.0521  3.6015
 9398TIP3    H228159   5.693   5.925   3.097  2.0324  1.3133  0.9440
 9399TIP3   OH228160   5.049   5.346   3.783  0.0301  0.1630 -0.3318
 9399TIP3    H128161   5.050   5.259   3.744 -0.4024 -0.0726  0.1502
 9399TIP3    H228162   5.071   5.405   3.712 -1.8485 -0.1374 -1.2503
 9400TIP3   OH228163   5.620   1.057   2.309  0.6037 -0.3569  0.3135
 9400TIP3    H128164   5.524   1.055   2.311  0.5202 -0.3761 -1.4810
 9400TIP3    H228165   5.647   0.970   2.338 -0.0986 -1.5184 -2.2036
 9401TIP3   OH228166   1.657   4.121   0.697 -0.8487  0.2215 -0.2978
 9401TIP3    H128167   1.635   4.207   0.733  0.5333  0.3387  0.3095
 9401TIP3    H228168   1.575   4.072   0.701 -1.6088  1.4433 -0.4778
 9402TIP3   OH228169   5.372   5.974   4.219  0.5518  0.2649  0.1358
 9402TIP3    H128170   5.318   6.027   4.277  0.6644  0.2104  0.2912
 9402TIP3    H228171   5.376   6.024   4.138  0.6901  0.5118  0.2963
 9403TIP3   OH228172   1.275   0.515   2.078 -0.4903 -0.0376 -0.2554
 9403TIP3    H128173   1.251   0.605   2.102 -2.4139 -0.7476  0.6444
 9403TIP3    H228174   1.210   0.460   2.121 -0.3995 -1.7903 -2.2112
 9404TIP3   OH228175   0.458   6.724   4.795  0.4883  0.5058 -1.0524
 9404TIP3    H128176   0.367   6.712   4.767  0.7122  1.9580 -2.6250
 9404TIP3    H228177   0.459   6.812   4.832  0.9984 -0.0111  0.1801
 9405TIP3   OH228178   2.156   6.007   2.747  0.3001 -0.2669 -0.1431
 9405TIP3    H128179   2.180   5.959   2.668  0.1003  1.7567 -1.5006
 9405TIP3    H228180   2.063   6.024   2.738  0.2914  0.0645  0.4790
 9406TIP3   OH228181   2.946   1.746   2.153 -0.2301 -0.6385  0.0946
 9406TIP3    H128182   2.916   1.836   2.142 -0.0377 -0.6881 -0.9488
 9406TIP3    H228183   2.959   1.736   2.247  1.8322  1.0910  0.0529
 9407TIP3   OH228184   3.890   1.371   1.185  0.0409 -0.3422  0.1578
 9407TIP3    H128185   3.797   1.388   1.192  0.1755  0.5520 -0.1366
 9407TIP3    H228186   3.896   1.281   1.154 -0.7876  0.3342 -2.1723
 9408TIP3   OH228187   2.115   4.761   1.613 -0.4558 -0.1576 -0.3802
 9408TIP3    H128188   2.081   4.693   1.554  0.8123 -0.7744 -0.4403
 9408TIP3    H228189   2.059   4.757   1.690 -0.5643 -1.0959 -0.4978
 9409TIP3   OH228190   0.486   4.413   3.633 -0.2949 -0.6397 -0.3634
 9409TIP3    H128191   0.468   4.465   3.711  1.1536  0.8662 -0.9674
 9409TIP3    H228192   0.501   4.324   3.666  1.4788  0.1777  1.2618
 9410TIP3   OH228193   1.405   0.365   2.459 -0.9976  0.7209 -0.4317
 9410TIP3    H128194   1.500   0.358   2.455 -1.0356 -0.5623  0.2492
 9410TIP3    H228195   1.375   0.274   2.464 -2.2582  1.1134 -0.5882
 9411TIP3   OH228196   3.296   4.395   4.323  0.3559 -0.0927  0.1432
 9411TIP3    H128197   3.209   4.402   4.284  1.4025  0.0013 -2.3101
 9411TIP3    H228198   3.302   4.303   4.350 -0.2852 -0.2235 -0.1328
 9412TIP3   OH228199   1.894   2.322   4.899 -0.0467 -0.2875  0.4990
 9412TIP3    H128200   1.877   2.415   4.913 -0.6520 -0.1708 -0.8625
 9412TIP3    H228201   1.990   2.315   4.904 -0.0200  0.3173  1.0350
 9413TIP3   OH228202   2.351   4.724   1.752 -0.0096 -0.2048 -0.0615
 9413TIP3    H128203   2.282   4.691   1.694 -0.3173 -0.1450  0.2665
 9413TIP3    H228204   2.326   4.693   1.839  0.7169 -0.7250 -0.0257
 9414TIP3   OH228205   4.074   2.559   4.488 -0.2007  0.0271 -0.4429
 9414TIP3    H128206   4.064   2.582   4.396 -0.3391  0.7660 -0.2482
 9414TIP3    H228207   4.157   2.599   4.514 -0.3901  0.2180 -0.1270
 9415TIP3   OH228208   5.715   3.243   5.033  0.1387 -0.3694 -0.3573
 9415TIP3    H128209   5.656   3.230   5.107 -1.4976 -1.3673 -1.7524
 9415TIP3    H228210   5.772   3.315   5.059  0.0555 -1.1188  2.1051
 9416TIP3   OH228211   5.023   4.967   1.382 -0.1259  0.3915  0.0276
 9416TIP3    H128212   4.969   4.943   1.458  0.1950  0.1993  0.1944
 9416TIP3    H228213   5.112   4.943   1.407  0.2055  1.7634  0.1948
 9417TIP3   OH228214   3.097   4.803   3.331  0.5120  0.7118  0.0145
 9417TIP3    H128215   3.178   4.760   3.304  0.2374  0.6550 -0.7483
 9417TIP3    H228216   3.061   4.745   3.399  0.8322  0.4513 -0.0358
 9418TIP3   OH228217   5.687   2.682   2.758  0.3140  0.3783  0.4446
 9418TIP3    H128218   5.673   2.737   2.682 -0.3922  0.5065  0.6583
 9418TIP3    H228219   5.748   2.614   2.728 -0.6252 -0.0818 -0.4886
 9419TIP3   OH228220   5.952   3.908   4.423  0.0297 -0.5875 -0.4962
 9419TIP3    H128221   6.018   3.872   4.364 -0.5306 -2.2857 -0.1204
 9419TIP3    H228222   5.998   3.980   4.468  1.8998 -2.1766  0.2909
 9420TIP3   OH228223   7.035   4.595   4.890 -0.5490 -0.1857  0.3510
 9420TIP3    H128224   7.046   4.582   4.796  1.2144 -0.5317  0.5592
 9420TIP3    H228225   6.940   4.595   4.904 -0.8997  1.2919 -1.5896
 9421TIP3   OH228226   6.204   0.655   0.616 -0.6259  0.2073  0.1627
 9421TIP3    H128227   6.128   0.706   0.586  0.1930 -0.1588 -2.7589
 9421TIP3    H228228   6.256   0.718   0.666 -1.2113  1.3922 -0.6620
 9422TIP3   OH228229   6.021   6.325   5.844  0.1545  0.2134 -0.1670
 9422TIP3    H128230   6.058   6.266   5.909 -0.5992 -2.0053 -1.6455
 9422TIP3    H228231   6.074   6.311   5.765 -1.5620 -0.4234 -1.2788
 9423TIP3   OH228232   7.049   4.143   5.618 -0.2723  0.4213 -0.5973
 9423TIP3    H128233   6.969   4.166   5.571 -1.0510 -1.5571 -0.3283
 9423TIP3    H228234   7.101   4.093   5.555 -0.8039 -1.2379  0.2224
 9424TIP3   OH228235   5.487   5.338   5.286 -0.0138  0.8535 -0.2467
 9424TIP3    H128236   5.478   5.255   5.332  0.6229  1.7768  1.6445
 9424TIP3    H228237   5.400   5.356   5.251 -0.1496 -0.5961 -0.7282
 9425TIP3   OH228238   6.070   0.695   4.429 -0.6484  0.3291 -0.1943
 9425TIP3    H128239   6.038   0.668   4.342  0.6729 -0.1739 -0.5403
 9425TIP3    H228240   6.165   0.686   4.424 -0.5472  0.3222  1.3114
 9426TIP3   OH228241   5.237   4.213   2.825  0.2603 -0.2592 -0.2338
 9426TIP3    H128242   5.262   4.143   2.886  1.6161 -0.5291 -1.0542
 9426TIP3    H228243   5.268   4.293   2.866  1.5767 -0.4861 -0.7377
 9427TIP3   OH228244   1.295   5.869   2.947 -0.5920 -0.3773  0.5553
 9427TIP3    H128245   1.213   5.889   2.901 -0.4513 -2.7332 -0.9183
 9427TIP3    H228246   1.308   5.776   2.931  2.4300 -0.0518  0.6823
 9428TIP3   OH228247   6.498   2.198   2.192 -0.0839 -0.3568  0.1570
 9428TIP3    H128248   6.445   2.188   2.271  0.6138  0.5907  0.7716
 9428TIP3    H228249   6.492   2.291   2.170  0.9624 -0.3091 -0.0029
 9429TIP3   OH228250   2.848   6.158   5.808  0.1705  0.4615 -0.6357
 9429TIP3    H128251   2.778   6.135   5.870 -0.7915  0.2799 -1.7438
 9429TIP3    H228252   2.872   6.075   5.767 -0.5894  0.8328 -1.8835
 9430TIP3   OH228253   3.216   5.486   5.562 -0.0858  0.5693 -0.3616
 9430TIP3    H128254   3.156   5.537   5.616 -0.9270  0.3250 -1.0483
 9430TIP3    H228255   3.300   5.532   5.569 -0.6731  1.6664 -0.4398
 9431TIP3   OH228256   3.192   0.725   3.987  0.3669  0.0148  0.0809
 9431TIP3    H128257   3.252   0.747   3.916  1.1369  1.4263  1.1259
 9431TIP3    H228258   3.215   0.635   4.011  1.2274  0.1090 -0.3586
 9432TIP3   OH228259   6.862   1.384   1.699  0.5016  0.0897  0.3968
 9432TIP3    H128260   6.820   1.404   1.616  2.4297 -1.0450 -0.9407
 9432TIP3    H228261   6.790   1.371   1.760 -1.0520 -0.6540 -1.4811
 9433TIP3   OH228262   0.371   5.838   3.332 -0.5553 -0.3691  0.0447
 9433TIP3    H128263   0.351   5.787   3.411 -0.2347 -1.1844 -0.3982
 9433TIP3    H228264   0.289   5.884   3.313 -0.4821  0.2669  1.1621
 9434TIP3   OH228265   2.344   0.296   1.528  0.9915 -0.0940  0.5503
 9434TIP3    H128266   2.431   0.334   1.541  2.0813 -2.6277  1.2498
 9434TIP3    H228267   2.338   0.226   1.593 -0.7733 -1.2707 -0.7708
 9435TIP3   OH228268   0.021   6.545   4.099  0.3938  0.1541 -0.1872
 9435TIP3    H128269   0.019   6.640   4.108 -1.2320  0.0988  0.3711
 9435TIP3    H228270   0.009   6.512   4.188  2.3096 -0.6174 -0.1612
 9436TIP3   OH228271   2.704   2.384   3.183  0.0328  0.8042  0.0798
 9436TIP3    H128272   2.647   2.422   3.250 -1.0954  0.2592 -0.5362
 9436TIP3    H228273   2.644   2.358   3.113  0.9664 -0.4507 -0.2896
 9437TIP3   OH228274   2.632   1.664   4.041  0.4230 -0.6977  0.1404
 9437TIP3    H128275   2.631   1.643   4.134  0.1238 -2.5458 -0.2417
 9437TIP3    H228276   2.695   1.603   4.003  0.5086 -0.0075 -0.8903
 9438TIP3   OH228277   2.146   1.157   1.206  0.1252 -0.1244 -0.5741
 9438TIP3    H128278   2.145   1.076   1.258  0.8200 -0.6175 -1.3048
 9438TIP3    H228279   2.054   1.171   1.182  0.1160 -1.2423 -1.2577
 9439TIP3   OH228280   1.286   2.026   4.620  0.1216  0.2329 -0.0672
 9439TIP3    H128281   1.359   2.017   4.681 -1.4303  0.7844  2.0059
 9439TIP3    H228282   1.259   2.118   4.629 -1.2514 -0.1301 -0.2601
 9440TIP3   OH228283   6.235   2.704   1.753  0.4562  0.1951 -0.0227
 9440TIP3    H128284   6.258   2.789   1.789  0.9677 -0.1610  0.5047
 9440TIP3    H228285   6.173   2.724   1.682  0.5276  0.9934  0.1313
 9441TIP3   OH228286   4.664   2.029   5.605  0.2570  0.3074 -0.1731
 9441TIP3    H128287   4.607   1.955   5.585  0.6577  0.4204 -1.8089
 9441TIP3    H228288   4.696   2.060   5.520  0.8896  1.7360  0.5412
 9442TIP3   OH228289   1.247   3.950   0.466 -0.0559  0.3027 -0.6038
 9442TIP3    H128290   1.161   3.992   0.469 -0.0488  0.2526  0.5766
 9442TIP3    H228291   1.228   3.857   0.458 -0.0760  0.4284 -2.4314
 9443TIP3   OH228292   3.125   5.171   5.005 -0.0371 -0.3404 -0.7163
 9443TIP3    H128293   3.193   5.207   4.948  0.4403 -0.7661 -0.4217
 9443TIP3    H228294   3.061   5.132   4.945  0.5822 -0.9994 -0.9648
 9444TIP3   OH228295   6.011   1.832   1.004  0.5901  0.1048 -0.1377
 9444TIP3    H128296   6.052   1.806   1.086  1.7318 -2.2243 -1.3370
 9444TIP3    H228297   5.942   1.767   0.990 -0.6423  1.3923 -0.3031
 9445TIP3   OH228298   1.670   1.554   3.994  0.2224 -0.2783 -0.2548
 9445TIP3    H128299   1.688   1.639   4.034 -3.1820 -0.1367  1.3378
 9445TIP3    H228300   1.608   1.573   3.924 -0.2406 -1.4067 -0.1657
 9446TIP3   OH228301   5.643   4.682   3.809 -0.0081  0.1776  0.3266
 9446TIP3    H128302   5.606   4.628   3.739  1.3715 -1.8501  1.0693
 9446TIP3    H228303   5.574   4.686   3.875  0.1842 -1.5336  0.6638
 9447TIP3   OH228304   5.715   1.432   0.417 -0.3106 -0.1376  0.1567
 9447TIP3    H128305   5.779   1.480   0.470 -1.3133  2.4271 -0.7790
 9447TIP3    H228306   5.702   1.487   0.340 -1.2391 -2.2020 -1.2425
 9448TIP3   OH228307   5.655   2.730   3.581  0.3442  0.4696 -0.5719
 9448TIP3    H128308   5.597   2.780   3.523  1.7254  0.4895 -2.0201
 9448TIP3    H228309   5.743   2.744   3.544  1.3839  0.9202  1.8713
 9449TIP3   OH228310   6.810   4.167   0.887  0.1302 -0.0004  0.2187
 9449TIP3    H128311   6.748   4.204   0.824 -0.2154  0.0761  0.5980
 9449TIP3    H228312   6.769   4.085   0.915  1.6391 -1.5668 -1.8431
 9450TIP3   OH228313   1.333   1.340   4.400  0.1454  0.3577  0.0255
 9450TIP3    H128314   1.393   1.283   4.353 -0.5444  0.1273 -0.6053
 9450TIP3    H228315   1.286   1.282   4.460 -1.5630 -0.0406 -1.6184
 9451TIP3   OH228316   2.815   1.957   2.391  0.0363  0.0281  0.1941
 9451TIP3    H128317   2.750   1.889   2.373  1.1309 -0.3246 -3.3561
 9451TIP3    H228318   2.818   2.009   2.310  2.0238  1.8678  1.3375
 9452TIP3   OH228319   4.238   2.486   3.372 -0.7088 -0.2060  0.5655
 9452TIP3    H128320   4.160   2.524   3.413 -0.2761  0.7487  0.5407
 9452TIP3    H228321   4.219   2.392   3.367 -1.9250  0.0263  0.3964
 9453TIP3   OH228322   0.520   2.772   3.580 -0.3529  0.1094 -0.1532
 9453TIP3    H128323   0.510   2.694   3.635 -2.3946  2.2055  2.7646
 9453TIP3    H228324   0.608   2.804   3.599 -0.1666 -0.5050  0.0321
 9454TIP3   OH228325   3.400   3.204   2.705  0.2334 -0.4192  0.3943
 9454TIP3    H128326   3.449   3.281   2.733 -0.6032 -0.3937  1.8949
 9454TIP3    H228327   3.396   3.148   2.783 -2.8609 -0.0053  0.6735
 9455TIP3   OH228328   6.677   1.231   2.516  0.5675  0.1472 -0.5088
 9455TIP3    H128329   6.678   1.197   2.605 -0.2216  0.6603 -0.2949
 9455TIP3    H228330   6.769   1.231   2.489  1.2122  2.5320  1.2891
 9456TIP3   OH228331   6.758   6.278   3.548 -0.0292 -0.2147  0.3801
 9456TIP3    H128332   6.719   6.207   3.600  2.0110 -1.7888 -0.0988
 9456TIP3    H228333   6.737   6.357   3.596 -1.4966 -1.2281  1.5114
 9457TIP3   OH228334   0.459   5.646   4.973  0.1728 -0.0796  0.3206
 9457TIP3    H128335   0.370   5.612   4.964 -0.3721  1.6869 -2.2703
 9457TIP3    H228336   0.456   5.702   5.050 -1.1413  0.3895 -0.0423
 9458TIP3   OH228337   5.508   6.377   4.162 -0.0528 -0.2355 -0.8090
 9458TIP3    H128338   5.593   6.335   4.173 -0.3977 -0.2906  3.1335
 9458TIP3    H228339   5.447   6.319   4.208 -1.3015  2.2193  0.8461
 9459TIP3   OH228340   2.432   3.852   3.364  0.2545  0.2111 -0.0013
 9459TIP3    H128341   2.465   3.819   3.280  0.4378  1.4610 -0.4520
 9459TIP3    H228342   2.351   3.803   3.379  0.2563 -0.0807 -0.8730
 9460TIP3   OH228343   4.445   5.952   5.100  0.1098 -0.1826 -0.1230
 9460TIP3    H128344   4.492   6.022   5.146  2.4086 -0.9826 -1.1164
 9460TIP3    H228345   4.391   5.998   5.036 -1.4044  0.8227  1.7709
 9461TIP3   OH228346   3.838   6.479   1.268  0.2117 -0.0927  0.1964
 9461TIP3    H128347   3.771   6.412   1.280 -1.1031  0.8681 -1.4595
 9461TIP3    H228348   3.877   6.459   1.183 -1.0767  1.9284 -0.9332
 9462TIP3   OH228349   1.847   1.171   4.561 -0.0003 -0.7652  0.3803
 9462TIP3    H128350   1.827   1.204   4.649  0.3681  0.1186  0.1448
 9462TIP3    H228351   1.776   1.205   4.506 -0.1137 -1.1370  0.2953
 9463TIP3   OH228352   4.514   5.618   4.360  0.5243 -0.5477  0.5154
 9463TIP3    H128353   4.573   5.601   4.286 -0.1825 -2.5100  0.3365
 9463TIP3    H228354   4.438   5.661   4.320  0.9553  0.1332  0.4194
 9464TIP3   OH228355   5.938   5.603   5.509  0.1427 -0.1436  0.4973
 9464TIP3    H128356   5.927   5.592   5.604 -1.6611  1.3644  0.5187
 9464TIP3    H228357   5.862   5.654   5.482  0.6217 -0.5411 -1.7891
 9465TIP3   OH228358   6.119   2.576   0.924  0.4891 -0.3835 -0.7287
 9465TIP3    H128359   6.170   2.654   0.948 -0.5513  0.1508 -0.1945
 9465TIP3    H228360   6.176   2.528   0.864  1.4298  0.4343 -0.5200
 9466TIP3   OH228361   6.568   0.102   4.187 -0.0791  0.1865  0.4359
 9466TIP3    H128362   6.489   0.154   4.174 -0.5318 -0.3348  1.0488
 9466TIP3    H228363   6.584   0.060   4.103 -0.0361  0.8475  0.1020
 9467TIP3   OH228364   2.532   4.543   1.944  0.2466 -0.6312 -0.1374
 9467TIP3    H128365   2.599   4.479   1.968 -0.6463 -1.3787  0.4197
 9467TIP3    H228366   2.582   4.621   1.919  1.3919  0.3933  4.3525
 9468TIP3   OH228367   3.861   6.567   2.840  0.2476  0.0940  0.3337
 9468TIP3    H128368   3.854   6.504   2.911 -0.3376  1.7482  1.8119
 9468TIP3    H228369   3.771   6.600   2.829  0.5333  0.6437 -0.4308
 9469TIP3   OH228370   5.556   0.615   2.279  0.0868 -0.2914 -0.0452
 9469TIP3    H128371   5.574   0.678   2.209  1.3084  0.5099  0.9444
 9469TIP3    H228372   5.633   0.558   2.281  0.4448  0.1806  1.1102
 9470TIP3   OH228373   4.550   4.065   0.083  0.0223  0.0597  0.0609
 9470TIP3    H128374   4.587   4.153   0.075  1.4887 -0.3316  1.9281
 9470TIP3    H228375   4.514   4.062   0.172  0.4227 -1.3807  0.1971
 9471TIP3   OH228376   1.223   3.993   5.189  0.8097 -0.3777  0.0701
 9471TIP3    H128377   1.160   3.958   5.252  0.3342  2.3275  1.2676
 9471TIP3    H228378   1.178   3.990   5.105 -0.8933  1.2310  0.8581
 9472TIP3   OH228379   1.754   4.963   4.051  0.0631  0.1512  0.2224
 9472TIP3    H128380   1.779   4.956   3.959 -0.2852 -1.1996  0.2168
 9472TIP3    H228381   1.667   5.002   4.050  0.3302  0.7575  0.0246
 9473TIP3   OH228382   7.009   2.490   0.557 -0.6739 -0.1959  0.0189
 9473TIP3    H128383   6.928   2.510   0.511 -1.8436 -0.3380  1.9229
 9473TIP3    H228384   7.031   2.401   0.530 -2.9008 -1.3818  1.7610
 9474TIP3   OH228385   2.705   4.367   2.040  0.1373  0.2945 -0.1705
 9474TIP3    H128386   2.725   4.413   2.121 -0.0645 -0.2999  0.2215
 9474TIP3    H228387   2.666   4.284   2.068 -2.5696  1.2084 -0.8683
 9475TIP3   OH228388   1.281   2.434   3.216  0.5347 -0.7500  0.1013
 9475TIP3    H128389   1.331   2.515   3.205  1.1508 -0.9985  0.9630
 9475TIP3    H228390   1.280   2.420   3.311 -0.1383 -1.3989  0.0049
 9476TIP3   OH228391   4.885   4.429   4.174  0.3878  0.0731 -0.5170
 9476TIP3    H128392   4.869   4.505   4.230 -0.3231 -0.3986 -0.0685
 9476TIP3    H228393   4.839   4.357   4.217  0.9129 -0.5801 -1.0265
 9477TIP3   OH228394   1.670   2.982   3.706 -0.4351  0.6492 -0.2356
 9477TIP3    H128395   1.677   3.070   3.743  0.9444  0.6433 -0.4384
 9477TIP3    H228396   1.593   2.944   3.749 -0.5448  1.6526  0.4850
 9478TIP3   OH228397   5.347   6.678   4.494  0.2209  0.0446 -0.5223
 9478TIP3    H128398   5.384   6.663   4.407  0.0716 -1.7446 -0.2994
 9478TIP3    H228399   5.327   6.591   4.527 -0.2317  0.7352  1.0963
 9479TIP3   OH228400   2.827   0.232   0.216 -0.2545  0.9075  0.0216
 9479TIP3    H128401   2.787   0.176   0.282 -1.5849 -1.6270 -2.6905
 9479TIP3    H228402   2.761   0.298   0.196  0.6871  2.6053  2.0361
 9480TIP3   OH228403   2.896   5.048   4.211  0.2929  0.0993  0.0414
 9480TIP3    H128404   2.952   4.981   4.249 -0.3427 -0.0632  0.7251
 9480TIP3    H228405   2.810   5.033   4.251 -0.4138 -0.0770 -1.4605
 9481TIP3   OH228406   4.785   6.087   3.844 -0.2748 -0.2887 -0.4816
 9481TIP3    H128407   4.837   6.012   3.872 -0.1440  0.1102  0.3905
 9481TIP3    H228408   4.749   6.062   3.759  0.1289 -1.1566 -0.4010
 9482TIP3   OH228409   0.728   5.992   0.450 -0.0608  0.6346 -0.0845
 9482TIP3    H128410   0.656   6.020   0.394  0.7238  2.4715 -0.2398
 9482TIP3    H228411   0.797   6.056   0.434  0.0659  1.5441  3.2933
 9483TIP3   OH228412   2.806   4.586   3.233 -0.6692  0.5108 -0.1410
 9483TIP3    H128413   2.860   4.636   3.172 -2.0901 -0.7220 -2.5452
 9483TIP3    H228414   2.860   4.509   3.255 -0.1521  0.9575  0.1708
 9484TIP3   OH228415   0.778   5.470   3.958 -0.7767  0.4496 -0.3735
 9484TIP3    H128416   0.696   5.497   4.001 -0.5618 -0.3268  0.5695
 9484TIP3    H228417   0.764   5.489   3.866 -0.9935  2.8289  0.1040
 9485TIP3   OH228418   4.905   5.518   1.528 -0.1198  0.0220  0.1896
 9485TIP3    H128419   4.811   5.497   1.523 -0.6515  2.3916 -1.9709
 9485TIP3    H228420   4.909   5.592   1.589  0.4041 -0.1893  0.4168
 9486TIP3   OH228421   4.162   0.767   5.281  0.2857 -0.4477 -0.1210
 9486TIP3    H128422   4.118   0.851   5.295 -3.2557 -1.7896 -1.9281
 9486TIP3    H228423   4.209   0.777   5.198  1.9766  0.4249  0.8953
 9487TIP3   OH228424   6.007   1.629   4.008  0.1761 -0.3288 -0.1275
 9487TIP3    H128425   5.971   1.545   4.034  1.1028 -0.8426 -0.4833
 9487TIP3    H228426   6.094   1.610   3.974  0.0272  0.6358 -1.1495
 9488TIP3   OH228427   0.528   0.679   5.172  0.5453 -0.2781 -0.4919
 9488TIP3    H128428   0.585   0.756   5.166  2.5776 -1.5815  0.8301
 9488TIP3    H228429   0.571   0.622   5.236 -2.8659 -0.8864  1.5112
 9489TIP3   OH228430   6.467   5.661   1.306 -0.2250 -0.2012 -0.4570
 9489TIP3    H128431   6.494   5.688   1.394  1.5066 -2.7034 -0.1007
 9489TIP3    H228432   6.544   5.617   1.270 -1.1095  0.1565 -3.0048
 9490TIP3   OH228433   2.095   4.666   1.016 -0.2014 -0.1026  0.0199
 9490TIP3    H128434   2.073   4.744   0.964  0.1865  0.0819  0.1325
 9490TIP3    H228435   2.080   4.692   1.106 -1.8351 -0.7302 -0.0365
 9491TIP3   OH228436   4.233   0.203   3.182 -0.5050 -0.3501 -0.6541
 9491TIP3    H128437   4.246   0.282   3.130 -0.1608  0.1385  0.1411
 9491TIP3    H228438   4.215   0.236   3.270  0.0263 -1.1673 -0.2297
 9492TIP3   OH228439   4.972   1.242   0.869  0.2464  0.8711 -0.2981
 9492TIP3    H128440   5.012   1.191   0.798 -3.9388 -2.9760 -0.3825
 9492TIP3    H228441   4.902   1.291   0.826 -2.2385 -1.3745  0.8396
 9493TIP3   OH228442   1.917   4.663   0.368 -0.0537  0.0453  0.2463
 9493TIP3    H128443   1.979   4.699   0.432  0.3044 -1.1253  0.5989
 9493TIP3    H228444   1.861   4.605   0.420 -0.0342 -0.5921 -0.4298
 9494TIP3   OH228445   0.158   5.600   4.930  0.4130  0.4401  0.8620
 9494TIP3    H128446   0.091   5.548   4.885 -0.6101  0.7766  1.9344
 9494TIP3    H228447   0.140   5.587   5.023  0.3354  2.4355  1.1643
 9495TIP3   OH228448   5.946   4.400   0.331 -0.1891 -0.2787 -0.0591
 9495TIP3    H128449   5.894   4.337   0.281 -0.2869 -0.1799 -0.0844
 9495TIP3    H228450   5.925   4.485   0.290  0.4014 -0.2990 -0.4109
 9496TIP3   OH228451   2.819   1.063   0.460  0.2433 -0.3164 -0.4009
 9496TIP3    H128452   2.796   1.066   0.553  2.0400 -2.7309  0.2071
 9496TIP3    H228453   2.746   1.108   0.417 -0.6913  0.8135  2.1205
 9497TIP3   OH228454   5.835   4.992   0.716 -0.0043 -0.3547 -0.0564
 9497TIP3    H128455   5.807   5.061   0.775 -0.2367  0.8430 -1.4914
 9497TIP3    H228456   5.756   4.968   0.667  0.4421 -0.3599 -0.7979
 9498TIP3   OH228457   3.393   4.337   3.089 -0.7394 -0.0410  0.2604
 9498TIP3    H128458   3.483   4.332   3.058 -0.6949 -3.5469  0.5129
 9498TIP3    H228459   3.399   4.381   3.174  0.6625  0.1633  0.0776
 9499TIP3   OH228460   1.263   3.280   3.880  0.4782  0.0748 -0.4806
 9499TIP3    H128461   1.313   3.301   3.958  0.3170  1.2659 -0.6820
 9499TIP3    H228462   1.195   3.219   3.910  1.4519 -0.8115 -0.0336
 9500TIP3   OH228463   4.964   0.356   0.571 -0.1709 -0.3570  0.0742
 9500TIP3    H128464   4.972   0.263   0.593 -0.4754 -0.1923  0.9251
 9500TIP3    H228465   5.042   0.375   0.518 -0.5029 -1.2733 -0.7668
 9501TIP3   OH228466   4.196   2.261   4.153 -0.4504 -0.4359 -0.1321
 9501TIP3    H128467   4.243   2.213   4.085 -0.2916  0.0422 -0.3637
 9501TIP3    H228468   4.146   2.194   4.200 -0.9993 -0.6997 -1.0746
 9502TIP3   OH228469   5.621   0.989   4.617 -0.3934  0.4795  0.0069
 9502TIP3    H128470   5.538   0.984   4.570  0.1127  0.1189 -0.8723
 9502TIP3    H228471   5.664   1.068   4.583  1.5479 -1.6013 -2.8884
 9503TIP3   OH228472   5.811   4.797   4.512 -0.0513 -0.0844  0.1440
 9503TIP3    H128473   5.807   4.727   4.577  2.0575  0.7340  1.2561
 9503TIP3    H228474   5.840   4.874   4.561  1.2619  0.6537 -1.6695
 9504TIP3   OH228475   2.623   6.309   0.343 -0.5723 -0.5613 -0.3569
 9504TIP3    H128476   2.571   6.358   0.279 -0.5104 -0.1537 -0.0969
 9504TIP3    H228477   2.713   6.341   0.329 -0.6802  0.1837  0.5243
 9505TIP3   OH228478   2.891   5.684   2.114 -0.3116 -0.0099 -0.2613
 9505TIP3    H128479   2.941   5.757   2.152 -1.4289  0.6603 -0.0262
 9505TIP3    H228480   2.918   5.608   2.164  0.3510  0.3714 -0.0263
 9506TIP3   OH228481   4.353   4.941   0.476  0.5719  0.7463  0.1917
 9506TIP3    H128482   4.340   5.035   0.463 -4.3176 -0.0855 -3.5411
 9506TIP3    H228483   4.386   4.910   0.392 -2.9878 -1.3912 -0.5719
 9507TIP3   OH228484   3.360   4.861   1.041 -0.1836 -0.1745  0.3361
 9507TIP3    H128485   3.343   4.776   1.000 -0.0517 -0.7931  1.5176
 9507TIP3    H228486   3.280   4.911   1.025 -0.7778 -0.9772  0.7298
 9508TIP3   OH228487   3.599   5.011   3.689 -0.1458 -0.1815  0.1221
 9508TIP3    H128488   3.586   4.928   3.643  0.5667  0.0355 -0.4886
 9508TIP3    H228489   3.524   5.064   3.664  0.1186 -0.1462 -0.6274
 9509TIP3   OH228490   5.534   6.292   2.931  0.7483  0.0928  0.1558
 9509TIP3    H128491   5.463   6.299   2.995  0.7836 -1.6233  0.4308
 9509TIP3    H228492   5.596   6.231   2.970  1.7736  0.6112 -0.6312
 9510TIP3   OH228493   4.779   6.735   3.871 -0.0557 -1.1760  0.6430
 9510TIP3    H128494   4.841   6.778   3.812  0.5118 -1.2225  1.1975
 9510TIP3    H228495   4.813   6.752   3.958 -1.6924  0.1436  1.0689
 9511TIP3   OH228496   6.049   2.007   3.123  0.4698  0.2987  0.1961
 9511TIP3    H128497   6.004   1.931   3.161 -1.5402  0.3290 -1.8891
 9511TIP3    H228498   6.039   2.076   3.188  1.4740 -0.8842  1.7010
 9512TIP3   OH228499   5.461   1.360   1.399 -0.1511  0.0965 -0.2251
 9512TIP3    H128500   5.493   1.278   1.363 -2.6556 -1.6761  1.2937
 9512TIP3    H228501   5.508   1.371   1.481 -1.2649 -0.9647  0.5814
 9513TIP3   OH228502   4.338   0.686   0.380 -0.0711 -0.0392 -0.0188
 9513TIP3    H128503   4.374   0.641   0.457  0.5513  0.4846  0.0040
 9513TIP3    H228504   4.268   0.741   0.415  1.8639  2.1590  0.5900
 9514TIP3   OH228505   3.334   1.849   5.176 -0.1071  0.0121  0.4192
 9514TIP3    H128506   3.345   1.907   5.100  0.6661 -1.8072 -0.9373
 9514TIP3    H228507   3.401   1.783   5.165 -1.5046 -1.6531  1.4220
 9515TIP3   OH228508   0.417   1.408   5.654 -0.2023  0.0882  0.3478
 9515TIP3    H128509   0.337   1.360   5.674 -0.2766  0.6361  1.4745
 9515TIP3    H228510   0.475   1.391   5.729  0.5508  0.1004 -0.2165
 9516TIP3   OH228511   0.406   3.785   3.015 -0.3221 -0.0662 -0.0001
 9516TIP3    H128512   0.330   3.828   2.977  0.6450  1.2859 -0.4504
 9516TIP3    H228513   0.472   3.787   2.946  0.1514 -1.2173  0.3868
 9517TIP3   OH228514   3.278   0.329   3.601  0.4239  0.1571 -0.1425
 9517TIP3    H128515   3.316   0.242   3.607  2.1647  0.8861 -0.1135
 9517TIP3    H228516   3.246   0.336   3.511 -0.1463 -0.6489 -0.0131
 9518TIP3   OH228517   5.481   4.107   0.400 -0.1921  0.1130 -0.5709
 9518TIP3    H128518   5.423   4.102   0.476 -0.5846  0.1462 -0.8586
 9518TIP3    H228519   5.422   4.095   0.325  0.2557 -0.4214 -0.8481
 9519TIP3   OH228520   5.857   0.733   2.262 -0.0080 -0.5110 -0.3788
 9519TIP3    H128521   5.869   0.783   2.180 -1.0097 -0.2300 -0.3578
 9519TIP3    H228522   5.805   0.790   2.318 -2.4731 -2.1170 -0.8887
 9520TIP3   OH228523   1.213   1.184   0.505  0.0290 -0.1800 -0.1397
 9520TIP3    H128524   1.210   1.278   0.525 -1.2598 -0.3184  0.4273
 9520TIP3    H228525   1.201   1.141   0.589 -1.4611 -0.8123 -0.6338
 9521TIP3   OH228526   4.230   5.489   2.079  0.0958 -0.5621 -0.3221
 9521TIP3    H128527   4.234   5.502   2.174  0.8929 -0.0066 -0.4145
 9521TIP3    H228528   4.174   5.560   2.047 -2.2160 -2.1865 -0.0478
 9522TIP3   OH228529   4.335   1.665   1.305  0.2978  0.5121 -0.3579
 9522TIP3    H128530   4.388   1.610   1.247 -0.9138 -0.8076 -0.2966
 9522TIP3    H228531   4.266   1.699   1.249  0.0059  0.4954 -0.0116
 9523TIP3   OH228532   5.386   2.372   5.749  0.1089 -0.7301  0.1366
 9523TIP3    H128533   5.315   2.312   5.773 -0.5517 -0.1559 -0.3397
 9523TIP3    H228534   5.456   2.352   5.810 -0.8247 -0.6222  1.2765
 9524TIP3   OH228535   5.409   2.177   1.464 -0.0393 -0.1478 -0.2002
 9524TIP3    H128536   5.363   2.104   1.421 -0.6196 -0.9658  1.7147
 9524TIP3    H228537   5.500   2.148   1.468  0.3585  0.6471 -2.2729
 9525TIP3   OH228538   7.133   6.459   3.868 -0.0914 -0.1287  0.5331
 9525TIP3    H128539   7.094   6.376   3.897  0.3756 -0.3989  0.3995
 9525TIP3    H228540   7.160   6.502   3.949  2.3960 -1.4619  0.5067
 9526TIP3   OH228541   3.540   1.762   2.673  0.1533  0.4206 -0.0144
 9526TIP3    H128542   3.464   1.821   2.680 -2.1339 -2.4032  0.8870
 9526TIP3    H228543   3.572   1.753   2.763  0.8196  0.6424 -0.2233
 9527TIP3   OH228544   3.202   1.866   1.430  0.1032 -0.6404 -0.0139
 9527TIP3    H128545   3.155   1.877   1.348  0.0227  1.2514  0.2380
 9527TIP3    H228546   3.134   1.846   1.494 -0.2539  0.8874  0.1241
 9528TIP3   OH228547   1.811   5.232   0.336 -0.1963 -0.7303 -0.5488
 9528TIP3    H128548   1.907   5.234   0.328 -0.1370 -0.7554  0.0829
 9528TIP3    H228549   1.780   5.212   0.248  0.4489 -2.5786 -0.3950
 9529TIP3   OH228550   1.053   3.533   4.040  0.1000 -0.1710  0.0536
 9529TIP3    H128551   1.010   3.573   4.116  1.5026  0.1959  0.6960
 9529TIP3    H228552   1.093   3.453   4.074 -0.9539 -1.0816 -0.7735
 9530TIP3   OH228553   0.968   1.191   4.586 -0.2442 -0.0673 -0.3922
 9530TIP3    H128554   1.053   1.168   4.548  0.8684  2.9687 -0.0045
 9530TIP3    H228555   0.943   1.272   4.542 -1.9877  0.1885  0.9391
 9531TIP3   OH228556   5.861   2.431   3.071  0.1548  0.6016 -0.7942
 9531TIP3    H128557   5.781   2.484   3.062 -0.9902 -1.1458 -1.2982
 9531TIP3    H228558   5.840   2.348   3.028  1.8229 -0.3601  0.1606
 9532TIP3   OH228559   1.822   4.312   5.005  0.0537  0.4435 -0.0710
 9532TIP3    H128560   1.870   4.373   4.949  0.3010  1.1836  0.9012
 9532TIP3    H228561   1.873   4.232   5.004 -0.7539 -0.0874 -2.0974
 9533TIP3   OH228562   1.824   5.093   0.981  0.3393 -0.0744  0.3262
 9533TIP3    H128563   1.902   5.141   0.953  0.1581  0.1788  0.2510
 9533TIP3    H228564   1.801   5.039   0.906  0.5943 -0.3508  0.4414
 9534TIP3   OH228565   0.742   3.735  -0.011 -0.4616  0.0334  0.0605
 9534TIP3    H128566   0.812   3.720   0.053 -1.0366 -1.6911  0.3570
 9534TIP3    H228567   0.718   3.826   0.001 -0.7534 -0.2961  2.5475
 9535TIP3   OH228568   2.150   1.437   5.524  0.4624 -0.1695 -0.5513
 9535TIP3    H128569   2.178   1.498   5.592 -1.3687 -1.2401  1.3299
 9535TIP3    H228570   2.129   1.492   5.449 -1.1616  1.6187  1.0721
 9536TIP3   OH228571   0.777   3.803   4.423 -0.0161  0.5628 -0.3979
 9536TIP3    H128572   0.751   3.873   4.484  0.5305 -0.2479  0.8084
 9536TIP3    H228573   0.713   3.734   4.438  1.8999 -0.9259  1.6469
 9537TIP3   OH228574   1.602   5.207   1.058  0.5685  0.0860 -0.0211
 9537TIP3    H128575   1.591   5.289   1.011 -0.2762 -0.3268 -0.5659
 9537TIP3    H228576   1.670   5.160   1.009  0.9101  0.3687  0.1761
 9538TIP3   OH228577   0.728   0.543   3.237 -0.2026  0.3440 -0.3383
 9538TIP3    H128578   0.808   0.493   3.254 -0.5257 -0.0703 -0.0358
 9538TIP3    H228579   0.740   0.625   3.285  1.1864  1.4459 -2.3723
 9539TIP3   OH228580   2.934   0.657   1.947 -0.3652 -0.1624  0.1740
 9539TIP3    H128581   2.878   0.602   1.893  1.5615 -1.9734 -0.1240
 9539TIP3    H228582   3.011   0.675   1.892 -0.2239  1.5315  0.8487
 9540TIP3   OH228583   6.119   2.115   5.001 -0.0457  0.2948 -0.0522
 9540TIP3    H128584   6.195   2.122   5.058 -2.3789  0.1576  3.3451
 9540TIP3    H228585   6.096   2.022   5.003 -0.8617  0.4882 -0.2379
 9541TIP3   OH228586   2.222   4.686   2.703  0.4247 -0.0407  0.3272
 9541TIP3    H128587   2.236   4.661   2.794  0.6003  0.0467  0.3257
 9541TIP3    H228588   2.142   4.738   2.704  1.9532  2.4682  0.9025
 9542TIP3   OH228589   3.037   4.224   4.542  0.2071  0.5258 -0.2742
 9542TIP3    H128590   3.131   4.232   4.529  0.2714  1.9107  0.8363
 9542TIP3    H228591   3.012   4.149   4.488  2.5083 -2.2572  2.2072
 9543TIP3   OH228592   3.898   6.340   5.863  0.3379 -0.5690 -0.5749
 9543TIP3    H128593   3.805   6.316   5.871 -0.1276  1.2778  0.0173
 9543TIP3    H228594   3.901   6.404   5.792  1.1099 -0.3741 -0.3805
 9544TIP3   OH228595   2.346   1.340   1.273  0.4379  0.4453  0.2712
 9544TIP3    H128596   2.311   1.396   1.343 -0.3381 -0.8041  0.9222
 9544TIP3    H228597   2.273   1.283   1.250  1.0250  0.1127 -0.8215
 9545TIP3   OH228598   6.247   4.991   0.169  0.4368 -0.4672 -0.0442
 9545TIP3    H128599   6.156   5.005   0.195  0.4345  0.5530 -0.5486
 9545TIP3    H228600   6.241   4.942   0.087  0.3557 -0.7526  0.1310
 9546TIP3   OH228601   6.952   1.615   3.819 -0.6506 -0.0193 -0.8582
 9546TIP3    H128602   6.873   1.573   3.785 -0.5333  0.1380 -1.3338
 9546TIP3    H228603   6.931   1.634   3.910 -1.4665  0.7658 -1.1986
 9547TIP3   OH228604   0.541   0.997   5.466 -0.1147  0.4549  0.3687
 9547TIP3    H128605   0.555   0.974   5.558  2.7165  0.1110 -0.0415
 9547TIP3    H228606   0.505   0.919   5.426 -0.8853  0.4371  1.0846
 9548TIP3   OH228607   2.259   5.201   3.519 -0.3971  1.1198 -0.4289
 9548TIP3    H128608   2.166   5.194   3.500 -0.5236 -1.5896  0.7703
 9548TIP3    H228609   2.264   5.243   3.605 -0.5749  0.2017  0.0298
 9549TIP3   OH228610   6.463   0.668   3.504  0.2442  0.3317 -0.4007
 9549TIP3    H128611   6.497   0.706   3.422  1.0110  0.0917 -0.2075
 9549TIP3    H228612   6.500   0.580   3.506  1.0912  0.6803  0.6965
 9550TIP3   OH228613   6.947   4.608   1.323 -0.2623  0.1697 -0.5067
 9550TIP3    H128614   6.954   4.513   1.312  2.7099  0.3750 -1.3471
 9550TIP3    H228615   6.946   4.642   1.233 -0.6944  0.9521 -0.2140
 9551TIP3   OH228616   0.486   5.090   3.712 -0.2391  0.0168  0.0357
 9551TIP3    H128617   0.465   5.119   3.623  0.3472 -0.2876 -0.2075
 9551TIP3    H228618   0.430   5.014   3.726  1.0354 -1.1261 -0.8148
 9552TIP3   OH228619   0.085   2.554   4.198  0.1938 -0.3312 -0.1831
 9552TIP3    H128620   0.056   2.589   4.283  0.3025  0.6809 -0.5416
 9552TIP3    H228621   0.032   2.476   4.185 -0.0601 -0.3179  0.6693
 9553TIP3   OH228622   3.085   5.428   0.598 -0.3854  0.0288  0.5038
 9553TIP3    H128623   3.100   5.519   0.625  0.1776 -0.6341  2.6161
 9553TIP3    H228624   3.074   5.433   0.503  1.5585  2.0743  0.2941
 9554TIP3   OH228625   4.939   3.630   1.879  0.2064  0.1159  0.0285
 9554TIP3    H128626   4.976   3.652   1.965  0.5126 -1.0191  0.2023
 9554TIP3    H228627   4.954   3.708   1.826  0.6465  0.5746  0.8039
 9555TIP3   OH228628   5.323   0.443   2.381  0.4154  0.5754 -0.6401
 9555TIP3    H128629   5.393   0.502   2.409  0.0240  0.8218 -0.1565
 9555TIP3    H228630   5.368   0.369   2.340  0.9469  0.8326 -0.5219
 9556TIP3   OH228631   0.707   6.681   2.897  0.1201 -0.3698 -0.1424
 9556TIP3    H128632   0.773   6.613   2.880  1.3933  0.7734  0.0876
 9556TIP3    H228633   0.754   6.748   2.947 -0.9019  1.0281 -0.9861
 9557TIP3   OH228634   4.746   6.067   1.471 -0.0226  0.1266  0.4111
 9557TIP3    H128635   4.745   6.154   1.430 -0.0964 -1.2208 -2.6980
 9557TIP3    H228636   4.839   6.048   1.484  0.0859 -0.0119 -0.5249
 9558TIP3   OH228637   0.292   0.308   1.243 -0.1564  0.3427 -0.3058
 9558TIP3    H128638   0.329   0.222   1.219 -2.3344 -0.6167 -0.4562
 9558TIP3    H228639   0.300   0.312   1.338  1.9321  0.9852 -0.4569
 9559TIP3   OH228640   0.257   0.262   4.640 -0.1483  0.6484 -0.3496
 9559TIP3    H128641   0.211   0.284   4.721 -0.8993 -0.7664 -0.3674
 9559TIP3    H228642   0.321   0.196   4.666  0.6315  1.2613 -0.6636
 9560TIP3   OH228643   7.214   2.356   2.871  0.0433  0.0882 -0.2916
 9560TIP3    H128644   7.182   2.435   2.828  0.1268 -0.2885 -1.0685
 9560TIP3    H228645   7.228   2.293   2.800 -1.6978 -1.2433  0.4615
 9561TIP3   OH228646   4.070   3.806   3.679  0.0037 -0.1660  0.2404
 9561TIP3    H128647   4.069   3.901   3.691  0.8218  0.0531 -1.2107
 9561TIP3    H228648   3.983   3.778   3.708 -1.5524  1.4713 -2.3677
 9562TIP3   OH228649   1.372   4.514   5.364 -0.0476 -0.3936  0.0485
 9562TIP3    H128650   1.314   4.512   5.288 -0.1190  1.0730  0.0422
 9562TIP3    H228651   1.455   4.547   5.329 -0.3004  1.0244  0.7227
 9563TIP3   OH228652   2.942   4.430   2.526  0.1874  0.0452 -0.3558
 9563TIP3    H128653   2.984   4.507   2.488 -0.2254  0.7055  0.4901
 9563TIP3    H228654   3.000   4.357   2.502  2.8001  1.0933  2.1775
 9564TIP3   OH228655   7.051   2.716   3.004  0.2868  0.3096  0.0701
 9564TIP3    H128656   7.097   2.790   3.044  1.9196 -0.7698  0.3131
 9564TIP3    H228657   6.959   2.741   3.004  0.4975  1.2983  2.4383
 9565TIP3   OH228658   0.907   4.343   4.886 -0.1556 -0.6328 -0.8710
 9565TIP3    H128659   0.994   4.373   4.857  1.0670 -2.9576  0.1256
 9565TIP3    H228660   0.879   4.283   4.817 -1.0117  0.0790 -1.1650
 9566TIP3   OH228661   6.271   2.900   0.660  0.4566  0.4720  0.4367
 9566TIP3    H128662   6.292   2.823   0.607  0.2532 -0.1247  1.2008
 9566TIP3    H228663   6.340   2.963   0.640  1.0912 -0.2195  0.4130
 9567TIP3   OH228664   4.705   0.846   5.302  0.3625 -0.2160 -0.9114
 9567TIP3    H128665   4.676   0.901   5.229  0.8826 -1.8039 -2.4045
 9567TIP3    H228666   4.634   0.781   5.311  0.1703  0.1381  0.2064
 9568TIP3   OH228667   6.183   4.713   4.131 -0.0864 -0.2916  0.5196
 9568TIP3    H128668   6.203   4.806   4.125  1.8650 -0.6990 -0.0785
 9568TIP3    H228669   6.169   4.698   4.225 -0.8655  0.6754  0.5692
 9569TIP3   OH228670   0.564   3.884   3.733 -0.2711 -0.3390  0.5654
 9569TIP3    H128671   0.608   3.808   3.771 -0.8934 -1.1632 -0.3092
 9569TIP3    H228672   0.471   3.870   3.752 -0.4648 -0.1545 -0.2044
 9570TIP3   OH228673   2.262   4.673   4.831 -0.4224  0.2814  0.1732
 9570TIP3    H128674   2.169   4.664   4.811 -0.3076 -1.6536  0.2908
 9570TIP3    H228675   2.307   4.636   4.754  0.2953  2.0805 -0.3082
 9571TIP3   OH228676   7.096   3.568   2.825  0.5626  0.8359 -0.4183
 9571TIP3    H128677   7.183   3.550   2.790 -0.1561  0.9830 -2.4084
 9571TIP3    H228678   7.099   3.660   2.851  0.4615  1.4344 -2.3519
 9572TIP3   OH228679   7.009   3.816   3.995  0.2499 -0.2460  0.0259
 9572TIP3    H128680   6.951   3.892   3.997  1.0379  0.3888 -0.7050
 9572TIP3    H228681   7.011   3.786   4.086  1.6365  1.9333  0.7945
 9573TIP3   OH228682   5.450   1.217   3.263  0.3492 -0.2490 -0.7188
 9573TIP3    H128683   5.494   1.178   3.339 -0.0281 -0.4186 -0.5864
 9573TIP3    H228684   5.507   1.290   3.238  0.5352 -0.2596 -0.3404
 9574TIP3   OH228685   2.992   3.261   4.854  0.4501 -0.0377 -0.6288
 9574TIP3    H128686   3.021   3.180   4.811 -1.1555 -0.3202 -1.2449
 9574TIP3    H228687   2.999   3.241   4.948 -0.1918 -1.0201 -0.7674
 9575TIP3   OH228688   0.246   1.213   2.132 -0.1053 -0.0042 -0.0525
 9575TIP3    H128689   0.189   1.270   2.183  1.8825  1.5263  0.5975
 9575TIP3    H228690   0.280   1.268   2.062  0.7832 -0.7601 -0.2432
 9576TIP3   OH228691   1.654   6.723   5.634  0.1922  0.4035 -0.2219
 9576TIP3    H128692   1.566   6.750   5.659 -0.5792 -0.3580 -1.9950
 9576TIP3    H228693   1.711   6.766   5.698 -1.5006  0.1770  1.5228
 9577TIP3   OH228694   2.654   0.005   3.174 -0.2642  0.0858  0.3753
 9577TIP3    H128695   2.598   0.076   3.144 -1.2511 -0.2291  1.4333
 9577TIP3    H228696   2.617  -0.074   3.134  0.6184  0.0882 -0.5102
 9578TIP3   OH228697   6.123   1.591   3.121 -0.0270  0.1826  0.4173
 9578TIP3    H128698   6.082   1.663   3.169  1.5584  1.2783  0.2038
 9578TIP3    H228699   6.169   1.633   3.048 -0.1622 -1.1929 -0.5083
 9579TIP3   OH228700   6.046   1.971   5.890  0.1612  0.1498 -0.2800
 9579TIP3    H128701   6.114   1.923   5.843  0.8152 -0.7487  1.5208
 9579TIP3    H228702   5.989   1.902   5.926  0.0062  0.7874  0.7166
 9580TIP3   OH228703   1.008   3.230   2.707 -0.1717  0.5192 -0.6594
 9580TIP3    H128704   1.093   3.188   2.693 -0.8848 -0.5705 -1.9117
 9580TIP3    H228705   1.017   3.315   2.664  0.5439  0.7758 -0.0432
 9581TIP3   OH228706   4.290   5.812   1.014 -0.0155 -1.0214 -0.2773
 9581TIP3    H128707   4.324   5.857   1.092  2.0502 -3.1375  0.1345
 9581TIP3    H228708   4.229   5.748   1.049 -0.6918 -0.5671 -0.6097
 9582TIP3   OH228709   4.741   4.722   3.804  0.4780 -0.3023 -0.0421
 9582TIP3    H128710   4.762   4.774   3.881 -0.3559  0.0344 -0.0330
 9582TIP3    H228711   4.825   4.708   3.760  0.8602  0.0732  0.5638
 9583TIP3   OH228712   2.618   2.627   0.751  0.2415 -0.5766  0.1399
 9583TIP3    H128713   2.692   2.688   0.744 -0.9843  0.8997 -0.5539
 9583TIP3    H228714   2.562   2.665   0.818 -0.6660 -0.7837 -0.4758
 9584TIP3   OH228715   3.110   4.541   3.035 -0.4001 -0.1754 -0.3823
 9584TIP3    H128716   3.091   4.448   3.048 -1.4566  0.3124  2.0193
 9584TIP3    H228717   3.185   4.559   3.092 -1.1995  0.7365  0.4402
 9585TIP3   OH228718   0.815   2.198   1.634 -0.0613  0.3620 -0.6189
 9585TIP3    H128719   0.856   2.185   1.549  0.1912 -0.9813 -0.3225
 9585TIP3    H228720   0.867   2.144   1.694 -1.6958 -0.6552 -0.0639
 9586TIP3   OH228721   7.186   2.635   1.498  0.0788 -0.4914  0.1793
 9586TIP3    H128722   7.195   2.720   1.542  1.4159 -0.3181 -0.3925
 9586TIP3    H228723   7.192   2.571   1.569  0.6790 -0.1547  0.4418
 9587TIP3   OH228724   1.490   5.858   3.509  0.4100  0.4739  0.0293
 9587TIP3    H128725   1.474   5.855   3.415  1.4277  1.6549 -0.2112
 9587TIP3    H228726   1.406   5.883   3.547 -0.0285 -0.0868 -0.5405
 9588TIP3   OH228727   1.632   5.312   2.648  0.4777  0.1752  0.2716
 9588TIP3    H128728   1.671   5.233   2.686 -0.8976 -0.5534  0.2241
 9588TIP3    H228729   1.617   5.289   2.556  2.1679  1.3200 -0.3461
 9589TIP3   OH228730   2.849   4.117   3.112  0.3517 -0.7344  0.1473
 9589TIP3    H128731   2.829   4.117   3.019 -0.2723 -1.3132  0.2736
 9589TIP3    H228732   2.933   4.071   3.119  0.4273 -0.6366 -0.1349
 9590TIP3   OH228733   1.362   1.315   1.526 -0.0525  0.2394  0.0312
 9590TIP3    H128734   1.363   1.316   1.622 -1.8551  0.6908  0.0859
 9590TIP3    H228735   1.438   1.263   1.502  0.5761  0.3212  1.7018
 9591TIP3   OH228736   4.504   5.575   3.994  0.6623 -0.4990 -0.2636
 9591TIP3    H128737   4.542   5.639   3.935 -1.4260  0.7047 -0.4122
 9591TIP3    H228738   4.579   5.528   4.031  2.1903  1.1689 -1.1143
 9592TIP3   OH228739   2.052   1.150   4.165  0.1718 -0.0128  0.0963
 9592TIP3    H128740   2.097   1.075   4.203 -1.5702 -1.0495  0.2492
 9592TIP3    H228741   2.021   1.201   4.240 -1.5282 -0.9859  0.1177
 9593TIP3   OH228742   5.691   3.761   0.526 -0.2268  0.2489 -0.1685
 9593TIP3    H128743   5.717   3.849   0.499 -0.8959 -0.5500 -3.9690
 9593TIP3    H228744   5.706   3.707   0.449  1.6033 -3.3823  2.4330
 9594TIP3   OH228745   4.907   0.643   5.348  0.1474  0.1076  0.4497
 9594TIP3    H128746   4.873   0.556   5.328 -0.7976  0.3987  0.7253
 9594TIP3    H228747   4.833   0.702   5.331  1.3556  1.1026 -1.7177
 9595TIP3   OH228748   2.335   2.841   4.625  0.5049  0.1014 -0.6043
 9595TIP3    H128749   2.349   2.822   4.718 -4.6251 -2.0354  0.0815
 9595TIP3    H228750   2.388   2.776   4.579  1.1970 -0.4609  0.9262
 9596TIP3   OH228751   4.398   0.416   3.984 -0.1803 -0.1997 -0.2897
 9596TIP3    H128752   4.481   0.464   3.985  0.3110 -0.8730 -2.7484
 9596TIP3    H228753   4.331   0.484   3.987  0.4159  0.3709  1.3279
 9597TIP3   OH228754   2.091   6.490   3.322  0.2015  0.0761  1.0158
 9597TIP3    H128755   2.185   6.476   3.322  0.2029 -0.2180 -1.0343
 9597TIP3    H228756   2.078   6.569   3.269 -0.7984 -1.2731 -0.8994
 9598TIP3   OH228757   6.494   4.891   0.206 -0.2936 -0.0670  0.0380
 9598TIP3    H128758   6.480   4.818   0.145 -0.7593 -0.9345  1.1555
 9598TIP3    H228759   6.408   4.931   0.215 -0.4405 -0.5357  0.8425
 9599TIP3   OH228760   4.625   2.537   1.977 -0.1262 -0.1209  0.4873
 9599TIP3    H128761   4.569   2.463   1.998 -0.6298  0.6838  2.2321
 9599TIP3    H228762   4.672   2.555   2.059  1.5825  0.1694 -0.5029
 9600TIP3   OH228763   4.406   6.770   4.882  0.2095 -0.2790 -0.0274
 9600TIP3    H128764   4.388   6.714   4.957  1.1373  0.4136  0.7309
 9600TIP3    H228765   4.483   6.730   4.840  0.0495 -0.3314 -0.2745
 9601TIP3   OH228766   6.922   0.175   4.631 -0.2993  0.1256 -0.3569
 9601TIP3    H128767   7.009   0.168   4.591 -0.5747  1.6471 -1.3102
 9601TIP3    H228768   6.938   0.213   4.717 -0.0055  0.2695 -0.4738
 9602TIP3   OH228769   0.191   4.172   0.320 -0.4077  0.4423 -0.3476
 9602TIP3    H128770   0.241   4.093   0.300 -0.2701  1.0925 -2.8287
 9602TIP3    H228771   0.245   4.219   0.384  0.4390 -0.5282 -0.3319
 9603TIP3   OH228772   4.223   5.210   5.259  0.0941  0.1357  0.0720
 9603TIP3    H128773   4.317   5.213   5.239 -0.2319  0.6939 -1.4991
 9603TIP3    H228774   4.198   5.119   5.244  0.2685  0.1173 -0.1208
 9604TIP3   OH228775   5.749   2.175   2.162 -0.1801 -0.2688  0.0929
 9604TIP3    H128776   5.690   2.108   2.197  0.3767 -0.6807  0.2560
 9604TIP3    H228777   5.724   2.256   2.207 -1.5516 -0.1295 -0.8623
 9605TIP3   OH228778   4.827   4.178   1.644  0.9477  0.1334  0.0903
 9605TIP3    H128779   4.858   4.143   1.561  0.9991  2.8370 -1.1447
 9605TIP3    H228780   4.766   4.112   1.678  4.0284 -2.9709  0.0725
 9606TIP3   OH228781   2.710   4.543   5.640 -0.9579  0.3766  0.1674
 9606TIP3    H128782   2.730   4.489   5.563 -0.2609 -1.4678  1.5737
 9606TIP3    H228783   2.774   4.614   5.636 -0.7492  0.1540 -0.7989
 9607TIP3   OH228784   2.117   5.897   4.348  0.2962  0.3720 -0.7312
 9607TIP3    H128785   2.062   5.824   4.375  0.3819  0.4337 -0.3777
 9607TIP3    H228786   2.056   5.962   4.314  0.0885  0.6601  0.1608
 9608TIP3   OH228787   0.997   0.438   1.826  0.4522  0.1809 -0.2121
 9608TIP3    H128788   0.988   0.533   1.828  1.4983  0.2923  0.2986
 9608TIP3    H228789   0.955   0.411   1.745 -0.6095  0.9833  0.0447
 9609TIP3   OH228790   6.531   6.169   4.750 -0.2701  0.2732  0.2996
 9609TIP3    H128791   6.576   6.112   4.813  1.8661  2.7544  1.2222
 9609TIP3    H228792   6.538   6.256   4.789 -1.3373  1.5176 -2.1270
 9610TIP3   OH228793   4.577   6.626   1.099 -0.0517 -0.2312  0.4738
 9610TIP3    H128794   4.544   6.682   1.029  2.2265  0.5814 -0.0276
 9610TIP3    H228795   4.631   6.561   1.055  3.7079  1.9178  1.4683
 9611TIP3   OH228796   3.716   5.416   1.922  0.0790 -0.1339  0.0016
 9611TIP3    H128797   3.717   5.462   2.006  1.0356  0.5803 -0.3670
 9611TIP3    H228798   3.806   5.426   1.889  0.0530 -1.4784 -0.5381
 9612TIP3   OH228799   1.571   3.264   0.931  0.5620 -0.0507  0.6279
 9612TIP3    H128800   1.658   3.286   0.899  0.6401 -1.4893 -0.2270
 9612TIP3    H228801   1.512   3.317   0.878  0.7128 -2.1472 -1.7984
 9613TIP3   OH228802   7.220   3.711   4.313 -0.1358 -0.4906 -0.6077
 9613TIP3    H128803   7.239   3.640   4.374 -0.8848 -0.4456 -0.3196
 9613TIP3    H228804   7.129   3.733   4.329  0.5687  1.8085  0.6456
 9614TIP3   OH228805   3.120   1.429   0.828  0.1565 -0.1856 -0.3109
 9614TIP3    H128806   3.135   1.463   0.740  1.2837  2.4131  0.8025
 9614TIP3    H228807   3.079   1.501   0.876 -0.1361 -1.4172  1.4012
 9615TIP3   OH228808   5.167   2.887   3.023  0.6913 -0.0859  0.2078
 9615TIP3    H128809   5.117   2.809   3.049  1.9971 -0.6081  1.2413
 9615TIP3    H228810   5.102   2.957   3.021 -0.2777 -0.9501  0.4830
 9616TIP3   OH228811   1.399   4.148   0.354  0.4167  0.0421  0.9762
 9616TIP3    H128812   1.332   4.096   0.399  0.4047  0.7501  1.7959
 9616TIP3    H228813   1.359   4.234   0.342  1.0456  0.3573  1.1240
 9617TIP3   OH228814   1.550   4.777  -0.016 -0.0231 -0.4886  0.1159
 9617TIP3    H128815   1.515   4.698   0.024  0.5533 -1.0350 -0.4411
 9617TIP3    H228816   1.527   4.847   0.045  0.3995 -1.2273  1.1531
 9618TIP3   OH228817   0.554   3.122   4.380  0.0962 -0.4402 -0.1452
 9618TIP3    H128818   0.467   3.131   4.342 -0.0785 -1.0529  0.1071
 9618TIP3    H228819   0.553   3.179   4.456 -0.1901 -0.6880  0.0379
 9619TIP3   OH228820   5.162   2.457   3.643 -0.9201 -0.1706  0.1088
 9619TIP3    H128821   5.103   2.454   3.567 -0.7374 -2.4432 -0.0127
 9619TIP3    H228822   5.126   2.392   3.704  0.6602 -0.6136  0.6226
 9620TIP3   OH228823   3.278   4.551   5.307 -0.1891  0.4701 -0.6590
 9620TIP3    H128824   3.197   4.540   5.258  0.9198  1.1508 -2.8127
 9620TIP3    H228825   3.256   4.527   5.397 -2.9789  1.5574 -0.9602
 9621TIP3   OH228826   5.036   4.640   3.891 -0.4382  0.0469  0.5528
 9621TIP3    H128827   5.041   4.558   3.940  0.3389  0.2239  0.7814
 9621TIP3    H228828   4.988   4.617   3.811  0.8237 -0.9195  0.0393
 9622TIP3   OH228829   3.830   6.370   0.481  0.2360 -0.1096 -0.3507
 9622TIP3    H128830   3.889   6.331   0.545  0.3339 -0.2934 -0.5497
 9622TIP3    H228831   3.848   6.322   0.400  0.0718  0.0799 -0.5006
 9623TIP3   OH228832   3.161   6.270   2.528 -0.0620  0.4857  0.2048
 9623TIP3    H128833   3.067   6.279   2.539 -0.2613  1.7750 -2.0025
 9623TIP3    H228834   3.189   6.354   2.490  2.0229  0.2451  1.0585
 9624TIP3   OH228835   3.239   3.423   5.335  0.2705 -0.5452 -0.0040
 9624TIP3    H128836   3.318   3.368   5.329 -1.4127 -2.9518 -1.7122
 9624TIP3    H228837   3.191   3.387   5.409  1.0228  1.4004  1.5082
 9625TIP3   OH228838   1.046   3.848   2.893 -0.3910  0.0536  0.0230
 9625TIP3    H128839   1.074   3.889   2.975 -0.9609 -1.2056  0.8733
 9625TIP3    H228840   1.082   3.760   2.897 -2.0840 -0.6791 -0.1439
 9626TIP3   OH228841   2.250   0.879   0.806 -0.1139  0.6611 -0.2568
 9626TIP3    H128842   2.206   0.815   0.749 -0.1150  1.8599 -1.6531
 9626TIP3    H228843   2.334   0.839   0.826  0.3208  0.6413 -1.9850
 9627TIP3   OH228844   4.921   0.339   5.798 -0.1666  0.6778  0.3659
 9627TIP3    H128845   4.838   0.295   5.778 -0.2000  1.1415 -0.5830
 9627TIP3    H228846   4.949   0.376   5.714  1.5692 -0.4043  0.4035
 9628TIP3   OH228847   0.763   6.187   3.531 -0.5866 -0.1216 -0.2663
 9628TIP3    H128848   0.741   6.278   3.551 -1.2697 -0.5895  1.3099
 9628TIP3    H228849   0.711   6.167   3.453 -2.2980  0.1838  0.7286
 9629TIP3   OH228850   1.761   1.134   1.004  0.5217 -0.4420  0.2002
 9629TIP3    H128851   1.809   1.079   1.066  0.4695  0.0063  0.6482
 9629TIP3    H228852   1.670   1.128   1.033  0.6439  0.6417  0.8530
 9630TIP3   OH228853   5.890   1.380   2.311 -0.2913  0.1481 -0.0316
 9630TIP3    H128854   5.949   1.356   2.382 -1.6117  1.3755  1.5698
 9630TIP3    H228855   5.835   1.450   2.348 -2.6819 -0.8528 -1.4437
 9631TIP3   OH228856   3.737   5.529   2.182 -0.6711 -0.2621 -0.2260
 9631TIP3    H128857   3.688   5.456   2.219 -0.4725 -0.9159 -1.2182
 9631TIP3    H228858   3.808   5.544   2.244 -0.7638 -0.8454  0.0321
 9632TIP3   OH228859   6.482   1.879   2.232 -0.2124 -0.4150  0.8874
 9632TIP3    H128860   6.468   1.938   2.158  2.8402 -0.0837  0.4408
 9632TIP3    H228861   6.428   1.915   2.303  1.3317  2.8744  0.5758
 9633TIP3   OH228862   6.947   3.850   4.729 -0.5670  0.1522  0.2896
 9633TIP3    H128863   6.987   3.765   4.743 -2.3611 -0.6138  1.0703
 9633TIP3    H228864   7.021   3.912   4.727  0.6039 -1.1069  2.1036
 9634TIP3   OH228865   1.860   4.562   1.730  0.1435  0.2935  0.8305
 9634TIP3    H128866   1.817   4.560   1.644 -0.2169 -1.4187  1.0146
 9634TIP3    H228867   1.860   4.655   1.754 -1.3248  0.6188 -0.2448
 9635TIP3   OH228868   1.649   2.354   0.854 -0.4280  0.5230 -0.4809
 9635TIP3    H128869   1.577   2.389   0.800  0.1541  2.3627 -0.1478
 9635TIP3    H228870   1.660   2.264   0.825 -1.6810  0.7603 -1.7938
 9636TIP3   OH228871   1.605   2.044   5.365 -0.1434  0.0646 -0.0316
 9636TIP3    H128872   1.673   2.046   5.432 -0.3133 -1.5593  0.2332
 9636TIP3    H228873   1.610   2.130   5.323  1.3884  0.3372  0.6404
 9637TIP3   OH228874   4.278   2.525   2.547  0.0752  0.0694 -0.2339
 9637TIP3    H128875   4.301   2.465   2.617 -1.2809  1.1055  1.1653
 9637TIP3    H228876   4.241   2.469   2.479  3.5553 -1.2670 -1.2930
 9638TIP3   OH228877   5.784   1.252   1.800  0.2409  0.4415  0.4616
 9638TIP3    H128878   5.803   1.308   1.875  0.7655  0.0006  0.6621
 9638TIP3    H228879   5.858   1.191   1.796  0.6004  0.9401 -0.8670
 9639TIP3   OH228880   1.875   1.046   1.261 -0.4955  0.2751  0.9509
 9639TIP3    H128881   1.944   1.017   1.320  0.0617 -0.5856 -0.0753
 9639TIP3    H228882   1.880   1.141   1.262  0.1082  0.2385  1.5740
 9640TIP3   OH228883   1.484   6.564   3.632  0.0554 -0.1404  0.2223
 9640TIP3    H128884   1.491   6.469   3.639 -0.8169 -0.3978 -1.8387
 9640TIP3    H228885   1.392   6.583   3.652  0.6533  0.5448  2.6475
 9641TIP3   OH228886   6.932   3.220   5.750  0.0242 -0.5159  0.3721
 9641TIP3    H128887   7.023   3.191   5.762  0.1928  0.2471  1.0417
 9641TIP3    H228888   6.903   3.243   5.838  0.0189  1.6266 -0.1167
 9642TIP3   OH228889   2.282   4.103   3.223  0.2208 -0.2818  0.1449
 9642TIP3    H128890   2.374   4.078   3.217  0.1612 -0.4945  0.1128
 9642TIP3    H228891   2.235   4.020   3.227  0.0483 -0.1739  0.4433
 9643TIP3   OH228892   0.920   0.761   5.813  0.2915 -0.0746  0.6499
 9643TIP3    H128893   0.995   0.725   5.861 -0.1336 -1.6974  0.1883
 9643TIP3    H228894   0.843   0.726   5.859 -0.1229 -1.7275 -1.1662
 9644TIP3   OH228895   3.637   1.441   3.684 -0.1230  0.6743  0.4812
 9644TIP3    H128896   3.603   1.492   3.758  2.4440 -1.2363  3.2264
 9644TIP3    H228897   3.708   1.494   3.649  1.4174 -0.1174  2.2264
 9645TIP3   OH228898   1.734   3.979   3.343 -0.0890  0.0976 -0.1004
 9645TIP3    H128899   1.688   4.062   3.356 -1.1642 -0.4803 -0.0684
 9645TIP3    H228900   1.821   4.004   3.310 -0.9246  1.1943 -1.6177
 9646TIP3   OH228901   0.430   1.118   1.874 -0.4817  0.4963  0.2457
 9646TIP3    H128902   0.405   1.061   1.801 -0.6225  0.6081  0.2057
 9646TIP3    H228903   0.384   1.200   1.857 -2.2455 -0.1669  1.5735
 9647TIP3   OH228904   0.280   4.996   2.210 -0.0695  0.0894  0.1235
 9647TIP3    H128905   0.299   5.076   2.258 -1.4041  0.5702 -0.0986
 9647TIP3    H228906   0.274   4.928   2.278 -0.9332  0.5688  0.5430
 9648TIP3   OH228907   3.503   1.776   0.134  0.1461 -0.4613  0.7937
 9648TIP3    H128908   3.593   1.766   0.103  0.2705 -0.3269  1.1101
 9648TIP3    H228909   3.504   1.854   0.188 -0.5384  0.5576 -0.6002
 9649TIP3   OH228910   3.658   5.534   1.678 -0.1156 -0.3325 -0.0391
 9649TIP3    H128911   3.659   5.508   1.770 -2.1534 -1.0050 -0.1607
 9649TIP3    H228912   3.660   5.630   1.680  0.2771 -0.3487  0.6651
 9650TIP3   OH228913   6.261   0.259   1.230 -0.1376  0.2946  0.1282
 9650TIP3    H128914   6.269   0.164   1.240  0.4431  0.4291  1.2028
 9650TIP3    H228915   6.173   0.280   1.263 -0.4446  0.0776 -0.5569
 9651TIP3   OH228916   2.644   5.863   0.309 -0.5773  0.7050 -0.1961
 9651TIP3    H128917   2.652   5.877   0.214 -1.7195  0.7087 -0.3068
 9651TIP3    H228918   2.729   5.890   0.344 -0.0140  0.3908 -1.2474
 9652TIP3   OH228919   2.228   2.622   5.340 -0.3411 -0.0955 -0.0548
 9652TIP3    H128920   2.163   2.574   5.288  1.9271 -2.4054 -0.9302
 9652TIP3    H228921   2.270   2.681   5.276 -2.0876  2.1417  0.7098
 9653TIP3   OH228922   6.161   0.791   3.576  0.2514 -0.1551 -0.1245
 9653TIP3    H128923   6.202   0.705   3.569 -1.1902 -0.8628 -0.3013
 9653TIP3    H228924   6.148   0.820   3.486 -0.9624 -0.6245 -0.1217
 9654TIP3   OH228925   4.763   0.373   1.029 -0.8550 -0.3920  0.0571
 9654TIP3    H128926   4.824   0.379   0.956 -1.2875  0.9555 -0.2300
 9654TIP3    H228927   4.797   0.434   1.094 -1.7030  0.1390  0.0243
 9655TIP3   OH228928   3.903   0.374   1.563 -0.0460 -0.4391 -0.1892
 9655TIP3    H128929   3.991   0.367   1.601 -0.9633 -2.1731  1.8624
 9655TIP3    H228930   3.913   0.345   1.473  1.4983 -0.5023 -0.0267
 9656TIP3   OH228931   5.977   3.980   1.125 -0.0808 -0.7527  0.2982
 9656TIP3    H128932   5.982   4.046   1.055 -1.0951 -0.5817  0.3691
 9656TIP3    H228933   5.925   3.909   1.087  0.0422 -1.0135  0.6115
 9657TIP3   OH228934   5.843   0.195   5.448  0.1761  0.1868  0.4472
 9657TIP3    H128935   5.911   0.252   5.484  0.4436  1.0707 -1.3838
 9657TIP3    H228936   5.761   0.244   5.461  0.1615  0.1124  0.6380
 9658TIP3   OH228937   5.689   0.241   2.526 -0.7263  0.3687 -0.3778
 9658TIP3    H128938   5.674   0.156   2.568  1.1679  0.0401 -0.2838
 9658TIP3    H228939   5.628   0.242   2.452 -1.1488 -0.8416 -0.0730
 9659TIP3   OH228940   5.639   3.569   5.081 -0.2364  0.0475 -0.3091
 9659TIP3    H128941   5.726   3.533   5.068  0.6035  1.1983  1.6296
 9659TIP3    H228942   5.610   3.533   5.165 -0.5863  1.5434  0.2509
 9660TIP3   OH228943   2.043   4.617   3.583 -0.1948  0.3636  0.0489
 9660TIP3    H128944   2.107   4.589   3.648  0.8435 -1.0809 -1.5214
 9660TIP3    H228945   2.088   4.686   3.534 -0.2811  0.1643 -0.3101
 9661TIP3   OH228946   3.583   6.283   5.181  0.4837  0.4549  0.2033
 9661TIP3    H128947   3.638   6.262   5.106  0.2008  1.0702 -0.1839
 9661TIP3    H228948   3.568   6.378   5.174  0.6670  0.5668  1.1767
 9662TIP3   OH228949   2.066   2.827   3.176  0.3408 -0.6220  0.3801
 9662TIP3    H128950   2.143   2.774   3.153 -0.4751 -1.5673 -0.2302
 9662TIP3    H228951   2.050   2.880   3.097 -0.1788 -1.0918  0.1686
 9663TIP3   OH228952   3.442   4.233   5.790 -0.3644 -0.3217 -0.1988
 9663TIP3    H128953   3.505   4.166   5.814  0.6941  0.5050 -0.5768
 9663TIP3    H228954   3.357   4.190   5.795  0.2994 -1.7128 -0.5324
 9664TIP3   OH228955   5.965   4.302   1.175 -0.7545  0.2544  0.2668
 9664TIP3    H128956   6.059   4.285   1.164 -0.4727  1.8707  0.0141
 9664TIP3    H228957   5.925   4.262   1.097 -0.4953 -1.8628  1.1578
 9665TIP3   OH228958   0.605   4.941   3.912  0.2804  0.5548  0.8515
 9665TIP3    H128959   0.580   5.029   3.886 -2.5088  0.3270  2.3960
 9665TIP3    H228960   0.561   4.884   3.849  1.5161  0.2109  0.2669
 9666TIP3   OH228961   4.408   0.215   2.287  0.7084  0.3500  0.0894
 9666TIP3    H128962   4.434   0.150   2.221  0.5481  1.0729 -0.7030
 9666TIP3    H228963   4.491   0.249   2.321  0.7907  0.1026  0.1406
 9667TIP3   OH228964   4.666   5.568   5.517 -0.1091 -0.0883 -0.1247
 9667TIP3    H128965   4.696   5.628   5.584 -2.0311  2.1307 -1.0999
 9667TIP3    H228966   4.728   5.579   5.445  0.0754  0.0216  0.0510
 9668TIP3   OH228967   6.230   3.225   1.709 -0.6209  0.0978  0.0286
 9668TIP3    H128968   6.140   3.260   1.706 -0.7388 -0.2841 -1.6758
 9668TIP3    H228969   6.282   3.292   1.665 -0.3651 -0.5006 -0.5831
 9669TIP3   OH228970   6.003   6.311   3.620  0.2795 -0.5346  0.0592
 9669TIP3    H128971   5.937   6.327   3.552 -1.1103 -1.1583  1.2082
 9669TIP3    H228972   6.080   6.282   3.572  0.2013  1.4896 -1.4355
 9670TIP3   OH228973   3.206   0.144   1.296  0.1651  0.0249  0.1044
 9670TIP3    H128974   3.300   0.144   1.276  0.7353  3.6429  1.9551
 9670TIP3    H228975   3.175   0.228   1.264 -1.4872  0.6587  3.0221
 9671TIP3   OH228976   4.656   3.426   5.193  0.0064 -0.0844  0.2402
 9671TIP3    H128977   4.702   3.510   5.201  1.1642 -0.4238 -1.9296
 9671TIP3    H228978   4.640   3.417   5.099 -2.7282 -0.9755  0.6984
 9672TIP3   OH228979   3.566   2.736   1.069 -0.6383 -0.1706 -0.3162
 9672TIP3    H128980   3.513   2.813   1.091 -1.3348 -0.0898 -2.1161
 9672TIP3    H228981   3.583   2.694   1.153 -0.2079  1.9637  0.7230
 9673TIP3   OH228982   2.261   3.447   3.581 -0.0408  0.0996  0.3810
 9673TIP3    H128983   2.226   3.381   3.521  1.2249 -0.8956  0.7005
 9673TIP3    H228984   2.219   3.427   3.665  0.4688 -0.4182  0.5169
 9674TIP3   OH228985   4.709   1.945   0.105  0.3837  0.4753 -0.1883
 9674TIP3    H128986   4.744   1.858   0.087 -2.0308 -0.7992  0.7980
 9674TIP3    H228987   4.723   1.994   0.024  0.5927 -1.2594 -1.2469
 9675TIP3   OH228988   3.911   2.962   2.878 -0.3253  0.1599  0.2381
 9675TIP3    H128989   3.865   2.879   2.886  0.0693 -0.1490 -0.6187
 9675TIP3    H228990   3.844   3.024   2.851 -0.6132  0.1289  0.8501
 9676TIP3   OH228991   2.712   3.713   4.885 -0.0981  0.2881 -0.1871
 9676TIP3    H128992   2.807   3.711   4.890 -0.0569  0.5157 -0.7862
 9676TIP3    H228993   2.684   3.625   4.911  0.2754  0.1931 -0.1056
 9677TIP3   OH228994   6.146   0.625   2.206  0.1004 -0.3379  0.3994
 9677TIP3    H128995   6.069   0.614   2.150 -1.0693  1.1591  1.6156
 9677TIP3    H228996   6.198   0.693   2.162  0.7421 -1.3116 -0.3941
 9678TIP3   OH228997   6.896   5.261   4.497 -0.1441  0.2762  0.6074
 9678TIP3    H128998   6.804   5.287   4.497 -0.0004  0.8318  1.2536
 9678TIP3    H228999   6.927   5.283   4.409 -0.6093  0.1278  0.4005
 9679TIP3   OH229000   2.022   3.325   1.377 -0.1275 -0.0969  0.3432
 9679TIP3    H129001   2.061   3.411   1.362  1.2784 -0.5950  1.0074
 9679TIP3    H229002   1.970   3.308   1.297  0.6895  0.7535 -0.3920
 9680TIP3   OH229003   6.249   2.166   0.074  0.1017 -0.3839  0.0082
 9680TIP3    H129004   6.286   2.129   0.154  0.1976  0.9647  0.6194
 9680TIP3    H229005   6.167   2.206   0.103  0.1116  0.0710 -0.5788
 9681TIP3   OH229006   1.282   3.093   5.742  0.3605 -0.3841  0.2778
 9681TIP3    H129007   1.204   3.113   5.691  0.1843  0.1048  0.7196
 9681TIP3    H229008   1.334   3.173   5.738  1.1025 -0.9051 -0.4793
 9682TIP3   OH229009   0.374   6.187   3.914 -0.6821  0.1874 -0.3261
 9682TIP3    H129010   0.458   6.231   3.927 -0.4665 -0.0124 -1.0065
 9682TIP3    H229011   0.309   6.255   3.932 -0.3627  0.5957 -0.6975
 9683TIP3   OH229012   3.377   4.424   3.566 -0.2973 -0.0834 -0.2251
 9683TIP3    H129013   3.322   4.346   3.555 -1.2917  0.6595 -0.6470
 9683TIP3    H229014   3.421   4.410   3.650 -0.0071 -1.3723 -0.5719
 9684TIP3   OH229015   5.396   4.985   0.578 -0.0942  0.2478 -0.1681
 9684TIP3    H129016   5.428   4.898   0.554 -0.2239  0.1680 -0.0482
 9684TIP3    H229017   5.434   5.001   0.664 -1.3853 -0.3629  0.5298
 9685TIP3   OH229018   6.936   2.766   4.122  0.3974  0.0839  0.3669
 9685TIP3    H129019   7.012   2.823   4.107 -0.3506  0.8205 -0.7703
 9685TIP3    H229020   6.973   2.688   4.164  1.5693  1.0217  1.1640
 9686TIP3   OH229021   3.120   0.836   0.652  0.1656  0.0822 -0.2471
 9686TIP3    H129022   3.060   0.812   0.722 -1.1135  0.9222 -1.0056
 9686TIP3    H229023   3.190   0.886   0.695  1.0130 -1.9239  0.8185
 9687TIP3   OH229024   3.900   6.771   2.374  0.0261  0.7592 -0.3141
 9687TIP3    H129025   3.948   6.741   2.451 -0.1732  2.0679  0.3564
 9687TIP3    H229026   3.928   6.714   2.303  0.6840 -0.0700  0.6043
 9688TIP3   OH229027   6.668   0.256   0.584  0.3178 -0.5464 -0.0067
 9688TIP3    H129028   6.705   0.319   0.521  0.5036 -0.6048  0.0434
 9688TIP3    H229029   6.696   0.288   0.669 -1.2255  0.4114  0.1808
 9689TIP3   OH229030   2.920   4.120   2.519 -0.1179  0.0221  0.4682
 9689TIP3    H129031   2.893   4.142   2.430 -1.1462  0.8495  0.9646
 9689TIP3    H229032   2.840   4.086   2.560  0.4548 -0.7807  0.9489
 9690TIP3   OH229033   6.451   0.403   0.238 -0.1959 -0.2414  0.2348
 9690TIP3    H129034   6.538   0.378   0.206 -0.1208 -1.0171  0.9859
 9690TIP3    H229035   6.466   0.434   0.328 -0.7814 -1.1422  0.6613
 9691TIP3   OH229036   4.847   3.407   4.666  0.0114  0.1157 -0.5362
 9691TIP3    H129037   4.815   3.325   4.627  0.4712 -0.2434 -0.1646
 9691TIP3    H229038   4.941   3.406   4.650 -0.0352  0.7622 -0.8665
 9692TIP3   OH229039   6.056   4.895   2.397  0.0826 -1.0262 -0.4097
 9692TIP3    H129040   6.048   4.988   2.418  1.4634 -0.3533 -2.5004
 9692TIP3    H229041   5.993   4.852   2.455 -0.7571  1.2170  0.4757
 9693TIP3   OH229042   4.882   5.694   2.657  0.5810  0.5993 -0.4789
 9693TIP3    H129043   4.813   5.699   2.723  2.3836 -0.1639  1.6125
 9693TIP3    H229044   4.905   5.785   2.640  0.5386  0.8157  0.5245
 9694TIP3   OH229045   2.366   6.324   3.584  0.6234  0.1885 -0.3912
 9694TIP3    H129046   2.315   6.385   3.638  0.5643 -1.2301  1.2277
 9694TIP3    H229047   2.394   6.377   3.509  1.1771  2.4388  1.2721
 9695TIP3   OH229048   2.570   0.316   1.775  0.1893 -0.1486 -0.2032
 9695TIP3    H129049   2.647   0.283   1.728 -1.7062 -2.1203 -2.1075
 9695TIP3    H229050   2.549   0.247   1.837 -1.7008 -1.0292 -1.7309
 9696TIP3   OH229051   1.866   4.012   1.245 -0.7399 -0.0561  0.6000
 9696TIP3    H129052   1.808   4.067   1.191 -0.7659 -0.6311  0.0250
 9696TIP3    H229053   1.807   3.964   1.302 -0.9765 -1.6432 -0.9055
 9697TIP3   OH229054   4.816   4.868   4.498 -0.0262  0.0372 -0.3863
 9697TIP3    H129055   4.893   4.889   4.550 -0.2082 -0.0123 -0.0985
 9697TIP3    H229056   4.785   4.952   4.465  1.3758 -0.1086 -2.2565
 9698TIP3   OH229057   1.277   3.006   1.005 -0.4179  0.0835  0.4704
 9698TIP3    H129058   1.348   2.941   1.001 -0.3878  0.0695  1.0910
 9698TIP3    H229059   1.285   3.055   0.923  0.8312  0.6195  0.8879
 9699TIP3   OH229060   2.544   3.209   1.717 -0.1834 -0.2718 -0.3591
 9699TIP3    H129061   2.499   3.174   1.641 -2.1348  0.1468  0.5510
 9699TIP3    H229062   2.594   3.284   1.684  1.7952 -2.0930 -1.7973
 9700TIP3   OH229063   7.040   2.013   5.442  0.2267 -0.2256  0.3042
 9700TIP3    H129064   7.103   1.976   5.504  0.9396 -0.5723 -0.6009
 9700TIP3    H229065   7.065   2.105   5.436  0.4632 -0.2942  0.1862
 9701TIP3   OH229066   3.249   0.865   5.491 -0.3651 -0.3802 -0.0634
 9701TIP3    H129067   3.156   0.852   5.509  0.1490 -3.0420  1.1570
 9701TIP3    H229068   3.252   0.907   5.405 -2.6805  0.4627  0.2149
 9702TIP3   OH229069   4.341   0.208   3.534 -0.4070  0.3154  0.6723
 9702TIP3    H129070   4.400   0.142   3.497 -1.0801  1.1409 -2.1124
 9702TIP3    H229071   4.337   0.187   3.627 -0.9986 -3.9095 -0.1175
 9703TIP3   OH229072   5.696   3.632   3.414  0.3371  0.6483 -0.8298
 9703TIP3    H129073   5.750   3.664   3.342  0.6017  1.8464 -0.1313
 9703TIP3    H229074   5.607   3.632   3.380  0.5882  0.1143 -1.5071
 9704TIP3   OH229075   6.793   1.545   2.253 -0.6396 -0.1167  0.2938
 9704TIP3    H129076   6.872   1.495   2.273 -0.5906 -0.3912 -0.5413
 9704TIP3    H229077   6.823   1.614   2.194 -1.0992 -0.5228 -0.4235
 9705TIP3   OH229078   5.994   3.076   0.862 -0.4063  0.0829 -0.3509
 9705TIP3    H129079   6.087   3.090   0.847  0.0994 -1.3525  1.2347
 9705TIP3    H229080   5.985   2.982   0.872 -1.9266  0.2703  0.2647
 9706TIP3   OH229081   0.558   5.121   5.298 -0.3499 -1.0032  0.3455
 9706TIP3    H129082   0.631   5.062   5.315  0.9391  0.4079 -0.0967
 9706TIP3    H229083   0.596   5.194   5.249 -1.7797  0.4333  1.2493
 9707TIP3   OH229084   5.972   5.031   0.253 -0.2116  0.4282 -0.1070
 9707TIP3    H129085   5.913   5.072   0.316 -0.1456 -0.5559  0.6070
 9707TIP3    H229086   5.914   4.997   0.184 -0.4367 -0.0501  0.3149
 9708TIP3   OH229087   5.591   2.957   0.334  0.1245  0.1470  0.3326
 9708TIP3    H129088   5.671   2.976   0.284  0.3248 -2.8221 -0.6664
 9708TIP3    H229089   5.619   2.897   0.403 -1.0777 -0.1534  0.5871
 9709TIP3   OH229090   1.447   5.508   1.267 -0.1822  0.3926  1.0189
 9709TIP3    H129091   1.439   5.561   1.187  0.5699 -2.6096 -1.2385
 9709TIP3    H229092   1.362   5.517   1.310 -1.1882  0.9476 -0.9562
 9710TIP3   OH229093   5.924   0.031   3.716  0.4791 -0.2490  0.1987
 9710TIP3    H129094   6.002  -0.024   3.722  0.2589 -0.6300 -0.4075
 9710TIP3    H229095   5.956   0.119   3.736  0.7886 -0.6149  1.3798
 9711TIP3   OH229096   5.192   5.400   1.295  0.0959 -0.3847 -0.6808
 9711TIP3    H129097   5.214   5.461   1.225 -0.6912  0.2745 -0.3763
 9711TIP3    H229098   5.104   5.369   1.273 -0.1176 -0.2420 -0.0415
 9712TIP3   OH229099   5.670   6.656   3.020 -0.2358 -0.2547 -0.0469
 9712TIP3    H129100   5.736   6.622   2.960 -0.2895  1.2046 -0.9750
 9712TIP3    H229101   5.643   6.739   2.981 -0.8748  0.3316  1.5797
 9713TIP3   OH229102   0.256   3.442   5.047  0.6631  0.1358  0.2955
 9713TIP3    H129103   0.349   3.421   5.058  0.4302 -0.1366  1.9587
 9713TIP3    H229104   0.224   3.454   5.136 -0.7956  0.7173 -0.2902
 9714TIP3   OH229105   0.871   0.328   5.785  0.7281 -0.0199  0.3153
 9714TIP3    H129106   0.834   0.262   5.844 -1.4300  1.2892  0.5181
 9714TIP3    H229107   0.795   0.369   5.744  1.9845  2.4815  0.3324
 9715TIP3   OH229108   2.530   6.240   3.216  0.3135 -0.0784 -0.1217
 9715TIP3    H129109   2.619   6.230   3.249 -0.0815 -0.4415  0.8501
 9715TIP3    H229110   2.482   6.167   3.254 -0.6629  0.7429  0.2641
 9716TIP3   OH229111   0.320   2.338   1.815  0.0364 -0.0120 -0.3182
 9716TIP3    H129112   0.393   2.277   1.808  0.9238  1.1713 -2.1148
 9716TIP3    H229113   0.242   2.286   1.794  0.3336 -1.2413  1.4505
 9717TIP3   OH229114   0.028   5.471   3.748  0.4955  0.0596 -0.6179
 9717TIP3    H129115   0.122   5.465   3.735  0.9059  0.2936  1.7520
 9717TIP3    H229116   0.018   5.501   3.839 -1.8595  0.0987 -0.8207
 9718TIP3   OH229117   5.779   1.146   4.063  0.1906 -0.0295  0.5067
 9718TIP3    H129118   5.717   1.079   4.036  1.0675 -0.9767  0.7816
 9718TIP3    H229119   5.838   1.156   3.988 -0.0210  0.5395  0.4136
 9719TIP3   OH229120   2.661   1.512   5.528 -0.1404  0.5197 -0.3008
 9719TIP3    H129121   2.714   1.436   5.552  1.7898  1.5174 -1.1542
 9719TIP3    H229122   2.582   1.475   5.490 -1.2183 -1.0649  3.0771
 9720TIP3   OH229123   1.099   1.945   4.256 -0.7962 -0.2652 -0.6638
 9720TIP3    H129124   1.058   1.951   4.342 -1.0934  0.3450 -0.8408
 9720TIP3    H229125   1.097   1.852   4.234  1.8457 -0.8551  1.2218
 9721TIP3   OH229126   6.157   2.469   3.320  0.3107  0.0091 -0.5204
 9721TIP3    H129127   6.159   2.456   3.415 -0.7442 -0.3025 -0.5344
 9721TIP3    H229128   6.204   2.552   3.307  1.5194 -0.5374  0.1432
 9722TIP3   OH229129   2.234   2.293   1.116  0.5431  0.6959 -0.0050
 9722TIP3    H129130   2.252   2.337   1.033  0.1085  0.9639  0.0427
 9722TIP3    H229131   2.248   2.200   1.098  1.8557  0.8699 -0.0078
 9723TIP3   OH229132   1.509   2.245   3.746  0.1867  0.2757  0.4690
 9723TIP3    H129133   1.438   2.309   3.750  0.3668  0.4247  1.4478
 9723TIP3    H229134   1.471   2.165   3.783 -0.8217 -1.0109 -2.8837
 9724TIP3   OH229135   1.130   4.631   1.902  0.3114 -0.1193  0.1575
 9724TIP3    H129136   1.213   4.587   1.886  0.4429 -0.2995  1.2762
 9724TIP3    H229137   1.084   4.574   1.964  0.0910  0.8381  0.8916
 9725TIP3   OH229138   4.239  -0.003   0.219 -0.5977 -0.6105  0.0245
 9725TIP3    H129139   4.220   0.090   0.235 -0.2590 -0.5334 -0.0160
 9725TIP3    H229140   4.156  -0.039   0.188 -1.5062 -0.9199  2.5189
 9726TIP3   OH229141   6.693   3.550   1.795  0.2975 -0.3355 -0.7909
 9726TIP3    H129142   6.726   3.461   1.783  1.5250  0.0719 -0.5882
 9726TIP3    H229143   6.672   3.555   1.889  0.3269 -0.3874 -0.7814
 9727TIP3   OH229144   6.893   3.657   2.084 -0.3347  0.2675  0.0838
 9727TIP3    H129145   6.929   3.741   2.114  1.8291 -0.9109  0.9555
 9727TIP3    H229146   6.937   3.640   2.001 -0.9243  0.0637 -0.1936
 9728TIP3   OH229147   2.942   2.202   4.669 -0.4296 -0.5943  0.1255
 9728TIP3    H129148   2.878   2.274   4.673 -1.6950 -1.5623 -1.2817
 9728TIP3    H229149   2.987   2.215   4.585  0.1787 -0.7647  0.4255
 9729TIP3   OH229150   3.024   3.627   5.731  0.4805 -0.0979 -0.0586
 9729TIP3    H129151   2.955   3.582   5.781 -0.5891  1.3305 -0.2073
 9729TIP3    H229152   2.983   3.650   5.648  1.6503 -0.6600 -0.8306
 9730TIP3   OH229153   2.363   5.088   3.869  0.4250  0.8352  0.2740
 9730TIP3    H129154   2.285   5.116   3.917  0.0987  1.3098 -0.5053
 9730TIP3    H229155   2.426   5.159   3.881  0.5056  0.7464  0.3758
 9731TIP3   OH229156   4.627   0.777   0.832  0.0954  0.4654  0.1146
 9731TIP3    H129157   4.668   0.788   0.918  0.0254  1.6830  0.0081
 9731TIP3    H229158   4.701   0.768   0.772  0.1960  1.3203  0.0958
 9732TIP3   OH229159   4.560   2.656   4.058  0.3680  0.3724 -0.2407
 9732TIP3    H129160   4.558   2.566   4.092 -0.7808  1.0503  1.6374
 9732TIP3    H229161   4.638   2.695   4.099  1.1487  0.1261 -1.4429
 9733TIP3   OH229162   1.994   5.855   3.634  0.3126 -0.0304  0.0766
 9733TIP3    H129163   1.902   5.850   3.606  1.0193 -0.4064 -2.3854
 9733TIP3    H229164   2.021   5.944   3.610  0.4054  0.4111  1.6478
 9734TIP3   OH229165   3.499   4.792   1.558 -0.0542 -0.2315 -0.0013
 9734TIP3    H129166   3.432   4.752   1.614  0.5952 -0.1025  0.8850
 9734TIP3    H229167   3.450   4.852   1.501 -0.5228  1.2636  1.8815
 9735TIP3   OH229168   0.151   3.781   4.616  0.1446  0.4071 -0.2384
 9735TIP3    H129169   0.243   3.807   4.622 -0.0031  0.8116  0.3952
 9735TIP3    H229170   0.102   3.855   4.653 -0.5234  0.6701 -1.5988
 9736TIP3   OH229171   2.786   4.001   1.046 -0.4297  0.8612 -0.2860
 9736TIP3    H129172   2.756   3.947   0.973 -1.3442  0.2605  0.4989
 9736TIP3    H229173   2.861   3.953   1.081  1.0562  1.9781 -1.7885
 9737TIP3   OH229174   4.211   3.470   2.527  0.2873 -0.3879 -0.2071
 9737TIP3    H129175   4.151   3.507   2.591  1.8130 -0.4208  1.3204
 9737TIP3    H229176   4.238   3.544   2.472  1.0216  0.2176  0.9286
 9738TIP3   OH229177   1.648   4.861   3.170  0.2284 -0.1383  0.1756
 9738TIP3    H129178   1.736   4.860   3.132 -0.0776  1.4216 -0.6877
 9738TIP3    H229179   1.594   4.814   3.107  0.3958 -0.8814  0.5839
 9739TIP3   OH229180   3.344   0.576   1.551  0.3201  0.3772  0.2900
 9739TIP3    H129181   3.260   0.617   1.532  0.4544  0.4785 -0.0952
 9739TIP3    H229182   3.401   0.650   1.574  0.8616  0.5515 -1.4669
 9740TIP3   OH229183   3.999   3.561   3.142  0.2519 -0.6008  0.4563
 9740TIP3    H129184   3.927   3.608   3.100 -0.0530 -1.8082 -0.4462
 9740TIP3    H229185   3.957   3.486   3.184  1.0881 -2.2959 -1.5366
 9741TIP3   OH229186   5.435   3.191   2.657 -0.0502 -1.0429  0.7275
 9741TIP3    H129187   5.395   3.236   2.583 -0.4244 -2.2641  0.1659
 9741TIP3    H229188   5.526   3.219   2.656 -0.4109  0.2052  0.8060
 9742TIP3   OH229189   5.736   6.577   5.035 -0.3335 -0.3285  0.3929
 9742TIP3    H129190   5.809   6.633   5.009 -0.1272  0.6280  2.7622
 9742TIP3    H229191   5.713   6.529   4.956  1.7870  0.5407 -0.8333
 9743TIP3   OH229192   5.836   1.777   0.122 -0.5531  0.2617 -0.1887
 9743TIP3    H129193   5.838   1.870   0.146  0.9959  0.1338  0.3063
 9743TIP3    H229194   5.925   1.746   0.140 -0.9411 -1.2322 -0.7103
 9744TIP3   OH229195   4.630   4.487   5.703 -0.0228 -0.4576 -0.2602
 9744TIP3    H129196   4.655   4.576   5.728 -0.5076 -0.1754 -0.7661
 9744TIP3    H229197   4.647   4.435   5.781  0.1429  0.0999  0.0828
 9745TIP3   OH229198   4.270   2.710   4.592  0.4119  0.1484 -0.1116
 9745TIP3    H129199   4.347   2.689   4.644  1.0409  2.2952 -0.0891
 9745TIP3    H229200   4.274   2.804   4.579 -1.3614  0.1013 -1.4907
 9746TIP3   OH229201   7.048   6.565   4.496  0.5539 -0.1173  0.5815
 9746TIP3    H129202   7.103   6.603   4.427  0.4895 -1.1505 -0.0685
 9746TIP3    H229203   7.084   6.477   4.510 -0.6466 -0.6568  0.4538
 9747TIP3   OH229204   0.963   3.325   3.415  0.0482 -0.8424  0.1975
 9747TIP3    H129205   0.890   3.365   3.463 -1.8312 -2.2926 -1.2766
 9747TIP3    H229206   1.008   3.272   3.481  0.6746  1.1494  1.4454
 9748TIP3   OH229207   0.930   0.073   0.953 -0.0474 -0.5058 -0.0599
 9748TIP3    H129208   0.972   0.138   1.009  1.5427 -1.2157 -0.3796
 9748TIP3    H229209   0.841   0.105   0.942  1.0859  2.5263 -1.5427
 9749TIP3   OH229210   6.031   1.866   2.287 -0.0505 -0.3728 -0.5055
 9749TIP3    H129211   6.066   1.777   2.298  0.9825  0.1392  0.4783
 9749TIP3    H229212   6.057   1.890   2.198  0.1287 -0.8529 -0.5891
   7.20939   6.79708   5.88643   0.00000   0.00000  -2.40314   0.00000  -2.40314  -3.39854
