Title t=  87.00000 step= 43500
44434
    1GLY      N    1   4.304   4.180   4.989
    1GLY    HT1    2   4.369   4.261   4.989
    1GLY    HT2    3   4.283   4.154   4.891
    1GLY    HT3    4   4.346   4.100   5.041
    1GLY     CA    5   4.178   4.221   5.048
    1GLY    HA1    6   4.147   4.311   4.996
    1GLY    HA2    7   4.196   4.226   5.155
    1GLY      C    8   4.071   4.121   5.012
    1GLY      O    9   4.108   4.004   4.989
    2PRO      N   10   3.942   4.160   5.003
    2PRO     CD   11   3.893   4.276   5.087
    2PRO    HD1   12   3.932   4.370   5.043
    2PRO    HD2   13   3.920   4.252   5.192
    2PRO     CA   14   3.842   4.059   4.997
    2PRO     HA   15   3.866   3.977   5.062
    2PRO     CB   16   3.709   4.122   5.049
    2PRO    HB1   17   3.691   4.081   5.150
    2PRO    HB2   18   3.621   4.106   4.983
    2PRO     CG   19   3.741   4.274   5.059
    2PRO    HG1   20   3.725   4.318   4.958
    2PRO    HG2   21   3.670   4.323   5.128
    2PRO      C   22   3.834   4.008   4.856
    2PRO      O   23   3.868   4.077   4.756
    3GLY      N   24   3.785   3.883   4.841
    3GLY     HN   25   3.757   3.835   4.923
    3GLY     CA   26   3.779   3.805   4.718
    3GLY    HA1   27   3.732   3.864   4.641
    3GLY    HA2   28   3.733   3.708   4.731
    3GLY      C   29   3.911   3.765   4.663
    3GLY      O   30   4.013   3.782   4.726
    4ASP      N   31   3.914   3.716   4.541
    4ASP     HN   32   3.827   3.702   4.495
    4ASP     CA   33   4.034   3.683   4.475
    4ASP     HA   34   4.097   3.632   4.547
    4ASP     CB   35   4.010   3.578   4.363
    4ASP    HB1   36   4.109   3.553   4.319
    4ASP    HB2   37   3.952   3.630   4.284
    4ASP     CG   38   3.952   3.447   4.398
    4ASP    OD1   39   3.984   3.399   4.511
    4ASP    OD2   40   3.893   3.375   4.318
    4ASP      C   41   4.114   3.802   4.425
    4ASP      O   42   4.069   3.914   4.400
    5PRO      N   43   4.248   3.796   4.431
    5PRO     CD   44   4.326   3.687   4.495
    5PRO    HD1   45   4.326   3.599   4.427
    5PRO    HD2   46   4.294   3.657   4.597
    5PRO     CA   47   4.343   3.893   4.380
    5PRO     HA   48   4.338   3.969   4.456
    5PRO     CB   49   4.482   3.819   4.377
    5PRO    HB1   50   4.575   3.880   4.385
    5PRO    HB2   51   4.477   3.750   4.290
    5PRO     CG   52   4.470   3.733   4.501
    5PRO    HG1   53   4.554   3.662   4.516
    5PRO    HG2   54   4.486   3.807   4.583
    5PRO      C   55   4.309   3.952   4.244
    5PRO      O   56   4.273   3.876   4.152
    6GLY      N   57   4.311   4.085   4.229
    6GLY     HN   58   4.332   4.135   4.313
    6GLY     CA   59   4.300   4.151   4.102
    6GLY    HA1   60   4.330   4.254   4.116
    6GLY    HA2   61   4.196   4.148   4.074
    6GLY      C   62   4.390   4.097   3.993
    6GLY      O   63   4.479   4.019   4.016
    7SER      N   64   4.365   4.141   3.874
    7SER     HN   65   4.297   4.213   3.862
    7SER     CA   66   4.442   4.106   3.753
    7SER     HA   67   4.441   3.998   3.756
    7SER     CB   68   4.380   4.150   3.611
    7SER    HB1   69   4.453   4.120   3.532
    7SER    HB2   70   4.372   4.261   3.608
    7SER     OG   71   4.253   4.092   3.588
    7SER    HG1   72   4.200   4.120   3.663
    7SER      C   73   4.582   4.135   3.752
    7SER      O   74   4.634   4.225   3.814
    8GLY      N   75   4.656   4.048   3.675
    8GLY     HN   76   4.608   3.973   3.630
    8GLY     CA   77   4.802   4.062   3.645
    8GLY    HA1   78   4.848   3.970   3.611
    8GLY    HA2   79   4.837   4.072   3.746
    8GLY      C   80   4.845   4.173   3.554
    8GLY      O   81   4.765   4.251   3.503
    9ASN      N   82   4.972   4.174   3.531
    9ASN     HN   83   5.032   4.103   3.566
    9ASN     CA   84   5.044   4.271   3.445
    9ASN     HA   85   5.032   4.372   3.484
    9ASN     CB   86   5.197   4.247   3.457
    9ASN    HB1   87   5.219   4.145   3.417
    9ASN    HB2   88   5.208   4.252   3.567
    9ASN     CG   89   5.285   4.351   3.398
    9ASN    OD1   90   5.353   4.324   3.301
    9ASN    ND2   91   5.290   4.473   3.455
    9ASN   HD21   92   5.343   4.544   3.408
    9ASN   HD22   93   5.233   4.494   3.534
    9ASN      C   94   5.007   4.256   3.291
    9ASN      O   95   5.009   4.147   3.244
   10PRO      N   96   4.981   4.366   3.219
   10PRO     CD   97   4.912   4.484   3.272
   10PRO    HD1   98   4.986   4.558   3.309
   10PRO    HD2   99   4.843   4.453   3.354
   10PRO     CA  100   4.971   4.361   3.080
   10PRO     HA  101   4.893   4.292   3.051
   10PRO     CB  102   4.933   4.502   3.043
   10PRO    HB1  103   4.884   4.498   2.943
   10PRO    HB2  104   5.014   4.577   3.031
   10PRO     CG  105   4.839   4.536   3.154
   10PRO    HG1  106   4.809   4.642   3.167
   10PRO    HG2  107   4.749   4.473   3.136
   10PRO      C  108   5.088   4.312   3.001
   10PRO      O  109   5.204   4.311   3.047
   11GLY      N  110   5.060   4.263   2.876
   11GLY     HN  111   4.967   4.249   2.845
   11GLY     CA  112   5.161   4.206   2.782
   11GLY    HA1  113   5.121   4.180   2.685
   11GLY    HA2  114   5.202   4.122   2.836
   11GLY      C  115   5.279   4.290   2.738
   11GLY      O  116   5.269   4.411   2.746
   12SER      N  117   5.393   4.225   2.700
   12SER     HN  118   5.398   4.125   2.696
   12SER     CA  119   5.514   4.290   2.637
   12SER     HA  120   5.576   4.331   2.715
   12SER     CB  121   5.602   4.192   2.555
   12SER    HB1  122   5.690   4.235   2.503
   12SER    HB2  123   5.551   4.155   2.464
   12SER     OG  124   5.656   4.083   2.638
   12SER    HG1  125   5.594   4.011   2.620
   12SER      C  126   5.480   4.412   2.551
   12SER      O  127   5.406   4.409   2.448
   13GLY      N  128   5.532   4.538   2.579
   13GLY     HN  129   5.585   4.554   2.662
   13GLY     CA  130   5.512   4.653   2.502
   13GLY    HA1  131   5.551   4.737   2.557
   13GLY    HA2  132   5.407   4.676   2.487
   13GLY      C  133   5.582   4.648   2.368
   13GLY      O  134   5.623   4.545   2.304
   14ASP      N  135   5.578   4.772   2.322
   14ASP     HN  136   5.560   4.841   2.392
   14ASP     CA  137   5.594   4.802   2.182
   14ASP     HA  138   5.536   4.732   2.124
   14ASP     CB  139   5.546   4.951   2.156
   14ASP    HB1  140   5.599   4.983   2.064
   14ASP    HB2  141   5.583   5.016   2.238
   14ASP     CG  142   5.400   4.978   2.131
   14ASP    OD1  143   5.339   5.066   2.196
   14ASP    OD2  144   5.336   4.918   2.039
   14ASP      C  145   5.738   4.784   2.142
   14ASP      O  146   5.825   4.823   2.224
   15PRO      N  147   5.793   4.727   2.030
   15PRO     CD  148   5.704   4.685   1.917
   15PRO    HD1  149   5.620   4.756   1.902
   15PRO    HD2  150   5.667   4.580   1.922
   15PRO     CA  151   5.939   4.703   1.999
   15PRO     HA  152   5.971   4.638   2.078
   15PRO     CB  153   5.938   4.628   1.866
   15PRO    HB1  154   5.944   4.519   1.887
   15PRO    HB2  155   6.018   4.656   1.794
   15PRO     CG  156   5.803   4.671   1.800
   15PRO    HG1  157   5.817   4.777   1.767
   15PRO    HG2  158   5.776   4.605   1.715
   15PRO      C  159   6.012   4.826   1.991
   15PRO    OT1  160   5.985   4.911   1.905
   15PRO    OT2  161   6.106   4.853   2.073
   16LIT    LIT  162   3.945   3.222   4.418
   17LIT    LIT  163   5.712   3.575   2.000
   18LIT    LIT  164   4.640   0.669   1.289
   19LIT    LIT  165   3.492   4.285   3.709
   20LIT    LIT  166   5.438   6.957   4.024
   21LIT    LIT  167   2.104   1.971   4.131
   22LIT    LIT  168   6.402   1.351   6.128
   23LIT    LIT  169   7.046   6.211   6.181
   24LIT    LIT  170   2.939   0.274   3.100
   25LIT    LIT  171   6.651   0.332   4.472
   26LIT    LIT  172   2.457   3.557   4.141
   27LIT    LIT  173   0.967   0.844   4.534
   28LIT    LIT  174   6.181   1.584   2.117
   29LIT    LIT  175   7.271   0.914   3.508
   30LIT    LIT  176   5.606   7.264   5.565
   31LIT    LIT  177   1.229   0.153   1.576
   32LIT    LIT  178   0.783   1.344   5.346
   33LIT    LIT  179   1.896   7.657   1.165
   34LIT    LIT  180   5.291   4.787   5.696
   35LIT    LIT  181   5.387   3.834   0.496
   36LIT    LIT  182   5.732   0.216   2.425
   37LIT    LIT  183   6.205   0.595   6.668
   38LIT    LIT  184   4.742   5.102   4.886
   39LIT    LIT  185   3.030   1.763   5.372
   40LIT    LIT  186   7.818   6.256   2.313
   41LIT    LIT  187   6.170   4.964   1.925
   42LIT    LIT  188   2.700   2.473   6.633
   43LIT    LIT  189   1.713   1.340   2.156
   44LIT    LIT  190   1.041   0.936   1.605
   45LIT    LIT  191   1.590   2.364   2.251
   46LIT    LIT  192   1.259   0.006   6.737
   47LIT    LIT  193   4.357   1.568   0.614
   48LIT    LIT  194   0.110   5.252   5.132
   49LIT    LIT  195   5.180   5.058   2.103
   50LIT    LIT  196   4.393   1.767   2.308
   51LIT    LIT  197   4.472   3.182   6.388
   52LIT    LIT  198   1.642   5.331   0.363
   53LIT    LIT  199   2.003   5.564   1.832
   54LIT    LIT  200   1.216   7.519   3.750
   55LIT    LIT  201   1.641   0.072   5.730
   56LIT    LIT  202   8.159   0.699   5.158
   57LIT    LIT  203   0.073   1.106   3.540
   58LIT    LIT  204   7.422   3.411   1.049
   59LIT    LIT  205   3.471   5.228   1.443
   60CLA    CLA  206   6.988   7.236   3.048
   61CLA    CLA  207   7.140   5.916   4.904
   62CLA    CLA  208   6.838   4.906   1.687
   63CLA    CLA  209   1.449   1.824   1.859
   64CLA    CLA  210   1.738   1.573   3.954
   65CLA    CLA  211   3.600   1.300   2.016
   66CLA    CLA  212   3.351   2.216   5.440
   67CLA    CLA  213   7.796   1.058   6.527
   68CLA    CLA  214   6.678   1.228   4.768
   69CLA    CLA  215   6.506   7.362   5.306
   70CLA    CLA  216   3.789   5.522   1.216
   71CLA    CLA  217   3.330   1.891   3.259
   72CLA    CLA  218   0.334   1.745   1.741
   73CLA    CLA  219   4.017   5.224   4.372
   74CLA    CLA  220   2.931   5.746   2.088
   75CLA    CLA  221   4.296   2.158   3.763
   76CLA    CLA  222   3.371   5.320   4.627
   77CLA    CLA  223   3.914   4.313   5.915
   78CLA    CLA  224   7.210   1.852   0.528
   79CLA    CLA  225   6.762   7.178   1.097
   80CLA    CLA  226   1.836   7.795   1.668
   81CLA    CLA  227   8.273   0.896   3.470
   82CLA    CLA  228   7.016   1.234   6.435
   83CLA    CLA  229   7.221   3.857   5.039
   84CLA    CLA  230   5.013   2.360   6.039
   85CLA    CLA  231   0.830   3.737   6.647
   86CLA    CLA  232   5.726   3.269   3.070
   87CLA    CLA  233   8.290   3.905   2.568
   88CLA    CLA  234   3.521   0.092   2.088
   89CLA    CLA  235   0.026   2.730   5.976
   90CLA    CLA  236   3.498   0.306   3.217
   91CLA    CLA  237   5.837   0.921   2.253
   92CLA    CLA  238   2.420   3.332   6.210
   93CLA    CLA  239   4.485   1.593   4.141
   94CLA    CLA  240   3.494   4.869   5.819
   95CLA    CLA  241   7.287   3.560   0.952
   96CLA    CLA  242   6.448   0.325   4.368
   97CLA    CLA  243   4.526   3.896   3.261
   98CLA    CLA  244   0.588   4.590   6.533
   99CLA    CLA  245   7.525   7.667   6.606
  100CLA    CLA  246   2.270   5.556   3.004
  101CLA    CLA  247   5.222   1.544   0.983
  102TIP3   OH2  248   3.876   4.095   1.711
  102TIP3    H1  249   3.913   4.178   1.680
  102TIP3    H2  250   3.943   4.059   1.769
  103TIP3   OH2  251   7.422   2.021   3.863
  103TIP3    H1  252   7.339   2.043   3.904
  103TIP3    H2  253   7.471   2.103   3.863
  104TIP3   OH2  254   0.717   6.060   0.253
  104TIP3    H1  255   0.672   6.084   0.172
  104TIP3    H2  256   0.810   6.061   0.230
  105TIP3   OH2  257   2.161   7.489   1.982
  105TIP3    H1  258   2.203   7.418   2.032
  105TIP3    H2  259   2.234   7.540   1.948
  106TIP3   OH2  260   4.778   1.222   0.672
  106TIP3    H1  261   4.708   1.281   0.644
  106TIP3    H2  262   4.854   1.280   0.684
  107TIP3   OH2  263   3.473   2.635   0.396
  107TIP3    H1  264   3.404   2.693   0.428
  107TIP3    H2  265   3.534   2.694   0.351
  108TIP3   OH2  266   1.071   6.889   4.841
  108TIP3    H1  267   1.046   6.944   4.766
  108TIP3    H2  268   1.166   6.898   4.847
  109TIP3   OH2  269   2.983   2.002   0.144
  109TIP3    H1  270   2.925   2.077   0.127
  109TIP3    H2  271   2.996   2.003   0.239
  110TIP3   OH2  272   5.627   1.536   2.813
  110TIP3    H1  273   5.663   1.599   2.751
  110TIP3    H2  274   5.663   1.562   2.897
  111TIP3   OH2  275   7.045   2.668   5.682
  111TIP3    H1  276   7.028   2.574   5.673
  111TIP3    H2  277   6.973   2.701   5.736
  112TIP3   OH2  278   7.598   5.876   2.850
  112TIP3    H1  279   7.689   5.850   2.833
  112TIP3    H2  280   7.559   5.882   2.763
  113TIP3   OH2  281   7.578   5.291   6.705
  113TIP3    H1  282   7.628   5.245   6.637
  113TIP3    H2  283   7.488   5.291   6.672
  114TIP3   OH2  284   6.318   1.453   3.185
  114TIP3    H1  285   6.369   1.472   3.106
  114TIP3    H2  286   6.353   1.512   3.252
  115TIP3   OH2  287   5.181   0.904   2.305
  115TIP3    H1  288   5.128   0.953   2.242
  115TIP3    H2  289   5.171   0.952   2.387
  116TIP3   OH2  290   3.300   3.192   2.841
  116TIP3    H1  291   3.258   3.268   2.802
  116TIP3    H2  292   3.391   3.219   2.855
  117TIP3   OH2  293   3.872   4.234   4.505
  117TIP3    H1  294   3.898   4.323   4.482
  117TIP3    H2  295   3.893   4.226   4.598
  118TIP3   OH2  296   1.368   4.063   1.688
  118TIP3    H1  297   1.344   3.973   1.668
  118TIP3    H2  298   1.422   4.090   1.614
  119TIP3   OH2  299   2.164   4.081   0.250
  119TIP3    H1  300   2.096   4.140   0.218
  119TIP3    H2  301   2.246   4.126   0.231
  120TIP3   OH2  302   3.002   1.483   5.793
  120TIP3    H1  303   2.973   1.416   5.731
  120TIP3    H2  304   2.928   1.543   5.800
  121TIP3   OH2  305   6.520   2.028   5.137
  121TIP3    H1  306   6.486   2.005   5.050
  121TIP3    H2  307   6.452   2.084   5.175
  122TIP3   OH2  308   0.976   6.732   2.310
  122TIP3    H1  309   0.988   6.803   2.374
  122TIP3    H2  310   1.038   6.665   2.337
  123TIP3   OH2  311   6.521   7.692   2.868
  123TIP3    H1  312   6.574   7.623   2.909
  123TIP3    H2  313   6.542   7.771   2.918
  124TIP3   OH2  314   2.675   6.497   2.564
  124TIP3    H1  315   2.668   6.556   2.640
  124TIP3    H2  316   2.724   6.422   2.596
  125TIP3   OH2  317   7.142   5.654   4.518
  125TIP3    H1  318   7.159   5.582   4.458
  125TIP3    H2  319   7.058   5.632   4.559
  126TIP3   OH2  320   0.657   6.525   6.334
  126TIP3    H1  321   0.709   6.602   6.359
  126TIP3    H2  322   0.720   6.453   6.335
  127TIP3   OH2  323   6.920   1.451   4.868
  127TIP3    H1  324   6.873   1.373   4.838
  127TIP3    H2  325   7.007   1.443   4.828
  128TIP3   OH2  326   7.103   0.322   1.219
  128TIP3    H1  327   7.087   0.316   1.125
  128TIP3    H2  328   7.018   0.347   1.256
  129TIP3   OH2  329   4.125   7.578   6.085
  129TIP3    H1  330   4.151   7.660   6.127
  129TIP3    H2  331   4.166   7.581   5.998
  130TIP3   OH2  332   2.108   3.993   6.623
  130TIP3    H1  333   2.028   4.042   6.603
  130TIP3    H2  334   2.082   3.901   6.620
  131TIP3   OH2  335   0.111   2.260   1.218
  131TIP3    H1  336   0.165   2.311   1.278
  131TIP3    H2  337   0.068   2.325   1.162
  132TIP3   OH2  338   1.087   5.054   5.325
  132TIP3    H1  339   1.162   5.080   5.379
  132TIP3    H2  340   1.098   5.102   5.243
  133TIP3   OH2  341   6.216   3.417   6.756
  133TIP3    H1  342   6.225   3.509   6.731
  133TIP3    H2  343   6.306   3.387   6.767
  134TIP3   OH2  344   5.210   2.464   5.546
  134TIP3    H1  345   5.237   2.553   5.525
  134TIP3    H2  346   5.232   2.453   5.638
  135TIP3   OH2  347   0.082   0.912   5.731
  135TIP3    H1  348  -0.014   0.916   5.730
  135TIP3    H2  349   0.102   0.818   5.731
  136TIP3   OH2  350   6.112   4.253   3.694
  136TIP3    H1  351   6.163   4.320   3.739
  136TIP3    H2  352   6.042   4.301   3.650
  137TIP3   OH2  353   2.641   2.454   3.627
  137TIP3    H1  354   2.715   2.405   3.591
  137TIP3    H2  355   2.623   2.411   3.711
  138TIP3   OH2  356   3.744   7.483   5.056
  138TIP3    H1  357   3.712   7.416   5.116
  138TIP3    H2  358   3.798   7.434   4.993
  139TIP3   OH2  359   4.577   3.813   5.602
  139TIP3    H1  360   4.600   3.835   5.692
  139TIP3    H2  361   4.503   3.753   5.610
  140TIP3   OH2  362   1.512   6.159   4.654
  140TIP3    H1  363   1.492   6.123   4.740
  140TIP3    H2  364   1.448   6.230   4.643
  141TIP3   OH2  365   3.948   6.319   1.482
  141TIP3    H1  366   4.034   6.350   1.453
  141TIP3    H2  367   3.951   6.328   1.578
  142TIP3   OH2  368   0.545   2.923   4.027
  142TIP3    H1  369   0.603   2.941   4.101
  142TIP3    H2  370   0.465   2.888   4.067
  143TIP3   OH2  371   4.160   2.397   3.420
  143TIP3    H1  372   4.099   2.382   3.348
  143TIP3    H2  373   4.114   2.365   3.498
  144TIP3   OH2  374   6.942   5.678   4.220
  144TIP3    H1  375   6.958   5.757   4.272
  144TIP3    H2  376   7.030   5.647   4.196
  145TIP3   OH2  377   0.139   1.187   6.575
  145TIP3    H1  378   0.104   1.230   6.653
  145TIP3    H2  379   0.098   1.100   6.576
  146TIP3   OH2  380   4.560   1.312   1.491
  146TIP3    H1  381   4.608   1.358   1.422
  146TIP3    H2  382   4.505   1.379   1.532
  147TIP3   OH2  383   4.184   0.066   3.662
  147TIP3    H1  384   4.238   0.131   3.617
  147TIP3    H2  385   4.214   0.068   3.753
  148TIP3   OH2  386   6.214   3.883   0.155
  148TIP3    H1  387   6.190   3.866   0.247
  148TIP3    H2  388   6.131   3.873   0.108
  149TIP3   OH2  389   0.149   0.625   5.481
  149TIP3    H1  390   0.231   0.670   5.501
  149TIP3    H2  391   0.082   0.674   5.530
  150TIP3   OH2  392   7.484   2.204   6.729
  150TIP3    H1  393   7.559   2.223   6.784
  150TIP3    H2  394   7.491   2.265   6.656
  151TIP3   OH2  395   5.395   6.666   3.763
  151TIP3    H1  396   5.302   6.656   3.785
  151TIP3    H2  397   5.401   6.639   3.671
  152TIP3   OH2  398   4.273   2.868   5.846
  152TIP3    H1  399   4.221   2.940   5.883
  152TIP3    H2  400   4.352   2.910   5.814
  153TIP3   OH2  401   7.404   2.774   1.146
  153TIP3    H1  402   7.453   2.847   1.186
  153TIP3    H2  403   7.313   2.790   1.172
  154TIP3   OH2  404   2.625   0.652   1.641
  154TIP3    H1  405   2.679   0.605   1.705
  154TIP3    H2  406   2.539   0.611   1.647
  155TIP3   OH2  407   1.745   6.395   2.821
  155TIP3    H1  408   1.705   6.440   2.896
  155TIP3    H2  409   1.760   6.305   2.853
  156TIP3   OH2  410   7.499   6.933   6.061
  156TIP3    H1  411   7.490   6.975   5.976
  156TIP3    H2  412   7.584   6.889   6.057
  157TIP3   OH2  413   6.639   4.406   0.667
  157TIP3    H1  414   6.551   4.436   0.690
  157TIP3    H2  415   6.654   4.443   0.580
  158TIP3   OH2  416   3.209   6.324   4.605
  158TIP3    H1  417   3.286   6.280   4.567
  158TIP3    H2  418   3.156   6.253   4.642
  159TIP3   OH2  419   0.623   3.762   5.802
  159TIP3    H1  420   0.587   3.721   5.880
  159TIP3    H2  421   0.711   3.790   5.827
  160TIP3   OH2  422   1.141   1.215   2.523
  160TIP3    H1  423   1.229   1.176   2.520
  160TIP3    H2  424   1.143   1.281   2.453
  161TIP3   OH2  425   6.803   7.519   5.981
  161TIP3    H1  426   6.847   7.516   6.065
  161TIP3    H2  427   6.839   7.596   5.937
  162TIP3   OH2  428   0.281   4.817   3.858
  162TIP3    H1  429   0.279   4.880   3.929
  162TIP3    H2  430   0.196   4.774   3.861
  163TIP3   OH2  431   2.140   1.919   1.823
  163TIP3    H1  432   2.194   1.933   1.900
  163TIP3    H2  433   2.130   1.823   1.819
  164TIP3   OH2  434   8.275   1.693   6.331
  164TIP3    H1  435   8.208   1.625   6.325
  164TIP3    H2  436   8.275   1.720   6.422
  165TIP3   OH2  437   4.318   1.491   2.118
  165TIP3    H1  438   4.393   1.441   2.150
  165TIP3    H2  439   4.248   1.472   2.181
  166TIP3   OH2  440   6.998   3.735   6.575
  166TIP3    H1  441   7.076   3.707   6.528
  166TIP3    H2  442   7.010   3.701   6.664
  167TIP3   OH2  443   0.141   0.464   0.980
  167TIP3    H1  444   0.142   0.457   0.884
  167TIP3    H2  445   0.060   0.420   1.006
  168TIP3   OH2  446   4.587   1.269   3.682
  168TIP3    H1  447   4.544   1.214   3.616
  168TIP3    H2  448   4.666   1.302   3.639
  169TIP3   OH2  449   4.326   6.208   5.976
  169TIP3    H1  450   4.421   6.198   5.967
  169TIP3    H2  451   4.298   6.134   6.030
  170TIP3   OH2  452   5.143   0.208   0.223
  170TIP3    H1  453   5.066   0.259   0.197
  170TIP3    H2  454   5.191   0.265   0.283
  171TIP3   OH2  455   6.827   3.640   1.824
  171TIP3    H1  456   6.788   3.718   1.786
  171TIP3    H2  457   6.860   3.668   1.909
  172TIP3   OH2  458   0.011   0.045   5.957
  172TIP3    H1  459   0.106   0.055   5.956
  172TIP3    H2  460  -0.004  -0.039   6.000
  173TIP3   OH2  461   2.413   0.881   1.524
  173TIP3    H1  462   2.508   0.891   1.532
  173TIP3    H2  463   2.396   0.792   1.554
  174TIP3   OH2  464   4.976   2.434   6.423
  174TIP3    H1  465   4.888   2.444   6.387
  174TIP3    H2  466   5.011   2.523   6.429
  175TIP3   OH2  467   5.133   1.206   4.866
  175TIP3    H1  468   5.224   1.177   4.857
  175TIP3    H2  469   5.088   1.133   4.908
  176TIP3   OH2  470   4.003   1.211   5.209
  176TIP3    H1  471   4.096   1.234   5.201
  176TIP3    H2  472   3.964   1.243   5.127
  177TIP3   OH2  473   5.153   0.391   2.905
  177TIP3    H1  474   5.232   0.338   2.906
  177TIP3    H2  475   5.184   0.481   2.915
  178TIP3   OH2  476   8.108   4.508   5.089
  178TIP3    H1  477   8.187   4.540   5.045
  178TIP3    H2  478   8.132   4.506   5.182
  179TIP3   OH2  479   3.653   5.300   2.721
  179TIP3    H1  480   3.744   5.324   2.703
  179TIP3    H2  481   3.603   5.340   2.650
  180TIP3   OH2  482   4.417   3.341   3.957
  180TIP3    H1  483   4.357   3.401   3.911
  180TIP3    H2  484   4.486   3.323   3.893
  181TIP3   OH2  485   3.769   5.491   4.118
  181TIP3    H1  486   3.772   5.443   4.201
  181TIP3    H2  487   3.856   5.531   4.111
  182TIP3   OH2  488   7.260   3.225   4.470
  182TIP3    H1  489   7.232   3.143   4.509
  182TIP3    H2  490   7.221   3.293   4.526
  183TIP3   OH2  491   7.211   2.443   2.863
  183TIP3    H1  492   7.211   2.459   2.958
  183TIP3    H2  493   7.142   2.500   2.829
  184TIP3   OH2  494   5.237   0.646   2.949
  184TIP3    H1  495   5.216   0.723   3.002
  184TIP3    H2  496   5.313   0.671   2.898
  185TIP3   OH2  497   2.686   4.725   5.795
  185TIP3    H1  498   2.707   4.802   5.847
  185TIP3    H2  499   2.766   4.705   5.747
  186TIP3   OH2  500   2.827   2.644   3.184
  186TIP3    H1  501   2.858   2.704   3.251
  186TIP3    H2  502   2.807   2.700   3.109
  187TIP3   OH2  503   0.887   4.914   2.992
  187TIP3    H1  504   0.919   4.849   2.929
  187TIP3    H2  505   0.815   4.958   2.947
  188TIP3   OH2  506   7.499   5.713  -0.001
  188TIP3    H1  507   7.429   5.713  -0.067
  188TIP3    H2  508   7.473   5.782   0.060
  189TIP3   OH2  509   3.435   1.100   1.657
  189TIP3    H1  510   3.454   1.012   1.625
  189TIP3    H2  511   3.397   1.145   1.581
  190TIP3   OH2  512   1.670   5.713   2.823
  190TIP3    H1  513   1.753   5.738   2.782
  190TIP3    H2  514   1.694   5.651   2.891
  191TIP3   OH2  515   0.570   2.633   5.454
  191TIP3    H1  516   0.566   2.699   5.386
  191TIP3    H2  517   0.527   2.673   5.530
  192TIP3   OH2  518   1.042   6.651   6.581
  192TIP3    H1  519   0.978   6.582   6.593
  192TIP3    H2  520   1.036   6.704   6.660
  193TIP3   OH2  521   1.037   6.659   5.910
  193TIP3    H1  522   1.064   6.609   5.833
  193TIP3    H2  523   0.968   6.717   5.877
  194TIP3   OH2  524   5.706   7.545   2.071
  194TIP3    H1  525   5.781   7.587   2.027
  194TIP3    H2  526   5.674   7.481   2.008
  195TIP3   OH2  527   1.614   0.536   3.064
  195TIP3    H1  528   1.679   0.521   3.132
  195TIP3    H2  529   1.656   0.597   3.003
  196TIP3   OH2  530   0.048   5.545   3.309
  196TIP3    H1  531   0.112   5.513   3.373
  196TIP3    H2  532   0.013   5.465   3.269
  197TIP3   OH2  533   6.721   5.782   1.841
  197TIP3    H1  534   6.777   5.858   1.826
  197TIP3    H2  535   6.754   5.743   1.922
  198TIP3   OH2  536   4.977   5.447   3.484
  198TIP3    H1  537   4.927   5.525   3.506
  198TIP3    H2  538   5.021   5.423   3.565
  199TIP3   OH2  539   1.070   5.154   4.760
  199TIP3    H1  540   1.005   5.084   4.760
  199TIP3    H2  541   1.138   5.124   4.821
  200TIP3   OH2  542   1.658   7.688   5.170
  200TIP3    H1  543   1.678   7.778   5.197
  200TIP3    H2  544   1.742   7.650   5.147
  201TIP3   OH2  545   1.533   6.947   3.113
  201TIP3    H1  546   1.588   6.957   3.035
  201TIP3    H2  547   1.542   6.855   3.136
  202TIP3   OH2  548   8.226   3.167   5.238
  202TIP3    H1  549   8.155   3.129   5.186
  202TIP3    H2  550   8.260   3.095   5.290
  203TIP3   OH2  551   0.704   1.277   4.180
  203TIP3    H1  552   0.651   1.297   4.103
  203TIP3    H2  553   0.648   1.300   4.254
  204TIP3   OH2  554   4.539   0.436   1.871
  204TIP3    H1  555   4.461   0.381   1.881
  204TIP3    H2  556   4.567   0.455   1.961
  205TIP3   OH2  557   3.358   2.133   3.578
  205TIP3    H1  558   3.337   2.140   3.484
  205TIP3    H2  559   3.451   2.155   3.583
  206TIP3   OH2  560   6.585   1.386   6.463
  206TIP3    H1  561   6.630   1.462   6.424
  206TIP3    H2  562   6.647   1.314   6.453
  207TIP3   OH2  563   5.192   1.204   5.209
  207TIP3    H1  564   5.169   1.147   5.136
  207TIP3    H2  565   5.216   1.143   5.279
  208TIP3   OH2  566   3.727   0.683   3.509
  208TIP3    H1  567   3.694   0.638   3.432
  208TIP3    H2  568   3.671   0.654   3.581
  209TIP3   OH2  569   3.388   5.234   2.962
  209TIP3    H1  570   3.365   5.141   2.952
  209TIP3    H2  571   3.351   5.276   2.884
  210TIP3   OH2  572   4.352   0.490   6.099
  210TIP3    H1  573   4.335   0.583   6.115
  210TIP3    H2  574   4.282   0.444   6.146
  211TIP3   OH2  575   3.029   1.427   3.980
  211TIP3    H1  576   3.105   1.485   3.993
  211TIP3    H2  577   3.068   1.342   3.957
  212TIP3   OH2  578   2.853   4.126   0.745
  212TIP3    H1  579   2.846   4.141   0.840
  212TIP3    H2  580   2.765   4.104   0.718
  213TIP3   OH2  581   6.666   2.387   1.586
  213TIP3    H1  582   6.637   2.475   1.608
  213TIP3    H2  583   6.714   2.357   1.663
  214TIP3   OH2  584   2.897   0.093   5.322
  214TIP3    H1  585   2.987   0.061   5.333
  214TIP3    H2  586   2.899   0.144   5.241
  215TIP3   OH2  587   5.185   7.206   5.287
  215TIP3    H1  588   5.139   7.141   5.234
  215TIP3    H2  589   5.269   7.218   5.244
  216TIP3   OH2  590   1.598   0.216   4.328
  216TIP3    H1  591   1.519   0.204   4.276
  216TIP3    H2  592   1.669   0.184   4.273
  217TIP3   OH2  593   7.697   5.481   4.219
  217TIP3    H1  594   7.674   5.509   4.130
  217TIP3    H2  595   7.613   5.481   4.266
  218TIP3   OH2  596   6.396   1.632   1.718
  218TIP3    H1  597   6.478   1.626   1.768
  218TIP3    H2  598   6.417   1.593   1.633
  219TIP3   OH2  599   1.207   5.861   4.064
  219TIP3    H1  600   1.226   5.827   4.152
  219TIP3    H2  601   1.133   5.921   4.077
  220TIP3   OH2  602   3.540   1.916   3.023
  220TIP3    H1  603   3.492   1.906   3.105
  220TIP3    H2  604   3.500   1.993   2.981
  221TIP3   OH2  605   6.625   4.194   4.727
  221TIP3    H1  606   6.662   4.176   4.640
  221TIP3    H2  607   6.609   4.108   4.765
  222TIP3   OH2  608   4.058   2.013   3.976
  222TIP3    H1  609   4.130   2.047   4.029
  222TIP3    H2  610   4.096   1.999   3.890
  223TIP3   OH2  611   0.932   0.617   2.569
  223TIP3    H1  612   0.911   0.697   2.521
  223TIP3    H2  613   1.022   0.596   2.543
  224TIP3   OH2  614   1.681   2.542   3.025
  224TIP3    H1  615   1.750   2.578   3.081
  224TIP3    H2  616   1.725   2.474   2.973
  225TIP3   OH2  617   4.285   7.685   1.036
  225TIP3    H1  618   4.214   7.621   1.026
  225TIP3    H2  619   4.256   7.762   0.988
  226TIP3   OH2  620   6.475   2.917   4.830
  226TIP3    H1  621   6.435   2.864   4.899
  226TIP3    H2  622   6.428   2.893   4.751
  227TIP3   OH2  623   7.862   7.400   0.681
  227TIP3    H1  624   7.907   7.318   0.660
  227TIP3    H2  625   7.832   7.389   0.771
  228TIP3   OH2  626   6.748   1.860   4.523
  228TIP3    H1  627   6.722   1.952   4.526
  228TIP3    H2  628   6.828   1.856   4.576
  229TIP3   OH2  629   4.625   7.585   4.471
  229TIP3    H1  630   4.620   7.636   4.552
  229TIP3    H2  631   4.652   7.498   4.499
  230TIP3   OH2  632   3.300   4.408   5.351
  230TIP3    H1  633   3.222   4.358   5.374
  230TIP3    H2  634   3.370   4.343   5.347
  231TIP3   OH2  635   1.731   7.356   3.279
  231TIP3    H1  636   1.795   7.352   3.208
  231TIP3    H2  637   1.701   7.266   3.289
  232TIP3   OH2  638   1.072   7.466   5.607
  232TIP3    H1  639   1.094   7.541   5.662
  232TIP3    H2  640   1.154   7.439   5.568
  233TIP3   OH2  641   0.203   4.170   2.983
  233TIP3    H1  642   0.123   4.140   3.025
  233TIP3    H2  643   0.181   4.178   2.891
  234TIP3   OH2  644   4.458   3.122   5.553
  234TIP3    H1  645   4.431   3.167   5.473
  234TIP3    H2  646   4.554   3.117   5.546
  235TIP3   OH2  647   6.316   5.894   1.451
  235TIP3    H1  648   6.377   5.916   1.521
  235TIP3    H2  649   6.312   5.973   1.397
  236TIP3   OH2  650   8.303   2.967   1.595
  236TIP3    H1  651   8.309   3.047   1.648
  236TIP3    H2  652   8.227   2.981   1.539
  237TIP3   OH2  653   2.073   3.366   4.553
  237TIP3    H1  654   2.102   3.298   4.492
  237TIP3    H2  655   2.147   3.378   4.613
  238TIP3   OH2  656   6.874   1.316   0.634
  238TIP3    H1  657   6.869   1.405   0.670
  238TIP3    H2  658   6.821   1.320   0.554
  239TIP3   OH2  659   4.259   6.593   0.823
  239TIP3    H1  660   4.350   6.569   0.839
  239TIP3    H2  661   4.253   6.685   0.848
  240TIP3   OH2  662   6.939   7.539   0.182
  240TIP3    H1  663   6.985   7.606   0.132
  240TIP3    H2  664   6.914   7.584   0.263
  241TIP3   OH2  665   7.615   2.777   0.455
  241TIP3    H1  666   7.540   2.835   0.440
  241TIP3    H2  667   7.605   2.748   0.546
  242TIP3   OH2  668   7.246   3.033   1.171
  242TIP3    H1  669   7.186   2.972   1.127
  242TIP3    H2  670   7.255   3.106   1.109
  243TIP3   OH2  671   0.704   0.385   2.261
  243TIP3    H1  672   0.691   0.432   2.344
  243TIP3    H2  673   0.645   0.430   2.200
  244TIP3   OH2  674   3.424   4.714   6.574
  244TIP3    H1  675   3.347   4.758   6.611
  244TIP3    H2  676   3.427   4.744   6.484
  245TIP3   OH2  677   8.028   5.728   3.412
  245TIP3    H1  678   8.050   5.640   3.443
  245TIP3    H2  679   8.010   5.778   3.491
  246TIP3   OH2  680   2.095   2.621   3.469
  246TIP3    H1  681   2.027   2.599   3.533
  246TIP3    H2  682   2.073   2.569   3.392
  247TIP3   OH2  683   7.882   7.729   5.557
  247TIP3    H1  684   7.940   7.743   5.482
  247TIP3    H2  685   7.941   7.724   5.633
  248TIP3   OH2  686   2.146   3.725   2.519
  248TIP3    H1  687   2.166   3.635   2.492
  248TIP3    H2  688   2.138   3.774   2.437
  249TIP3   OH2  689   2.665   7.769   0.128
  249TIP3    H1  690   2.669   7.775   0.032
  249TIP3    H2  691   2.700   7.682   0.148
  250TIP3   OH2  692   1.433   5.684   3.020
  250TIP3    H1  693   1.451   5.665   2.928
  250TIP3    H2  694   1.505   5.741   3.047
  251TIP3   OH2  695   2.837   1.657   0.314
  251TIP3    H1  696   2.930   1.660   0.339
  251TIP3    H2  697   2.804   1.745   0.336
  252TIP3   OH2  698   3.879   0.543   1.653
  252TIP3    H1  699   3.930   0.515   1.577
  252TIP3    H2  700   3.821   0.469   1.672
  253TIP3   OH2  701   5.773   2.650   3.278
  253TIP3    H1  702   5.845   2.711   3.296
  253TIP3    H2  703   5.806   2.565   3.307
  254TIP3   OH2  704   7.371   5.640   2.577
  254TIP3    H1  705   7.444   5.684   2.534
  254TIP3    H2  706   7.404   5.619   2.664
  255TIP3   OH2  707   1.254   4.893   2.802
  255TIP3    H1  708   1.276   4.808   2.839
  255TIP3    H2  709   1.229   4.947   2.877
  256TIP3   OH2  710   6.903   0.919   3.714
  256TIP3    H1  711   6.908   0.995   3.772
  256TIP3    H2  712   6.840   0.861   3.756
  257TIP3   OH2  713   7.323   5.110   0.386
  257TIP3    H1  714   7.235   5.081   0.413
  257TIP3    H2  715   7.380   5.038   0.413
  258TIP3   OH2  716   3.679   4.625   2.729
  258TIP3    H1  717   3.622   4.658   2.659
  258TIP3    H2  718   3.663   4.684   2.802
  259TIP3   OH2  719   5.005   5.430   0.741
  259TIP3    H1  720   5.092   5.406   0.711
  259TIP3    H2  721   4.978   5.500   0.683
  260TIP3   OH2  722   1.871   1.776   1.595
  260TIP3    H1  723   1.779   1.750   1.587
  260TIP3    H2  724   1.870   1.871   1.590
  261TIP3   OH2  725   7.543   0.095   0.579
  261TIP3    H1  726   7.504   0.029   0.523
  261TIP3    H2  727   7.585   0.045   0.649
  262TIP3   OH2  728   3.994   7.064   0.228
  262TIP3    H1  729   3.932   7.039   0.296
  262TIP3    H2  730   3.995   7.159   0.229
  263TIP3   OH2  731   4.124   4.592   4.605
  263TIP3    H1  732   4.047   4.643   4.582
  263TIP3    H2  733   4.197   4.637   4.561
  264TIP3   OH2  734   5.231   3.122   5.771
  264TIP3    H1  735   5.230   3.059   5.699
  264TIP3    H2  736   5.248   3.069   5.849
  265TIP3   OH2  737   2.715   2.735   3.528
  265TIP3    H1  738   2.671   2.652   3.548
  265TIP3    H2  739   2.807   2.710   3.515
  266TIP3   OH2  740   6.569   1.407   2.216
  266TIP3    H1  741   6.501   1.466   2.250
  266TIP3    H2  742   6.558   1.326   2.266
  267TIP3   OH2  743   2.020   4.749   4.538
  267TIP3    H1  744   2.085   4.696   4.583
  267TIP3    H2  745   1.937   4.725   4.579
  268TIP3   OH2  746   0.170   6.332   3.248
  268TIP3    H1  747   0.251   6.382   3.259
  268TIP3    H2  748   0.166   6.311   3.154
  269TIP3   OH2  749   5.419   3.796   1.519
  269TIP3    H1  750   5.424   3.701   1.531
  269TIP3    H2  751   5.492   3.817   1.462
  270TIP3   OH2  752   5.656   1.895   0.631
  270TIP3    H1  753   5.576   1.871   0.583
  270TIP3    H2  754   5.701   1.812   0.644
  271TIP3   OH2  755   5.470   3.962   4.090
  271TIP3    H1  756   5.469   3.871   4.120
  271TIP3    H2  757   5.531   3.964   4.017
  272TIP3   OH2  758   1.767   7.572   5.470
  272TIP3    H1  759   1.767   7.659   5.429
  272TIP3    H2  760   1.675   7.548   5.474
  273TIP3   OH2  761   0.513   7.345   1.546
  273TIP3    H1  762   0.485   7.306   1.463
  273TIP3    H2  763   0.433   7.348   1.599
  274TIP3   OH2  764   6.826   1.973   6.055
  274TIP3    H1  765   6.873   1.889   6.054
  274TIP3    H2  766   6.813   1.993   5.962
  275TIP3   OH2  767   3.189   2.068   5.012
  275TIP3    H1  768   3.197   2.160   4.988
  275TIP3    H2  769   3.095   2.055   5.025
  276TIP3   OH2  770   0.907   7.324   0.920
  276TIP3    H1  771   0.853   7.311   0.998
  276TIP3    H2  772   0.942   7.412   0.930
  277TIP3   OH2  773   1.968   0.976   4.041
  277TIP3    H1  774   2.008   0.896   4.077
  277TIP3    H2  775   1.939   0.951   3.954
  278TIP3   OH2  776   7.019   2.555   0.443
  278TIP3    H1  777   7.089   2.561   0.508
  278TIP3    H2  778   7.061   2.517   0.366
  279TIP3   OH2  779   2.985   2.265   2.647
  279TIP3    H1  780   3.043   2.247   2.721
  279TIP3    H2  781   2.973   2.360   2.648
  280TIP3   OH2  782   2.469   0.907   5.336
  280TIP3    H1  783   2.381   0.902   5.299
  280TIP3    H2  784   2.504   0.990   5.303
  281TIP3   OH2  785   0.806   1.184   6.742
  281TIP3    H1  786   0.876   1.138   6.696
  281TIP3    H2  787   0.851   1.248   6.797
  282TIP3   OH2  788   4.282   0.598   2.973
  282TIP3    H1  789   4.193   0.623   2.949
  282TIP3    H2  790   4.328   0.590   2.889
  283TIP3   OH2  791   0.717   5.300   6.494
  283TIP3    H1  792   0.699   5.231   6.557
  283TIP3    H2  793   0.740   5.254   6.414
  284TIP3   OH2  794   7.616   6.127   1.656
  284TIP3    H1  795   7.578   6.053   1.702
  284TIP3    H2  796   7.544   6.189   1.646
  285TIP3   OH2  797   4.253   7.388   6.697
  285TIP3    H1  798   4.319   7.342   6.749
  285TIP3    H2  799   4.269   7.481   6.715
  286TIP3   OH2  800   6.093   7.395   2.252
  286TIP3    H1  801   6.095   7.366   2.161
  286TIP3    H2  802   6.153   7.336   2.297
  287TIP3   OH2  803   6.126   2.113   6.067
  287TIP3    H1  804   6.154   2.119   5.976
  287TIP3    H2  805   6.208   2.106   6.117
  288TIP3   OH2  806   6.726   5.557   4.334
  288TIP3    H1  807   6.781   5.630   4.307
  288TIP3    H2  808   6.785   5.481   4.333
  289TIP3   OH2  809   5.568   5.967   1.507
  289TIP3    H1  810   5.601   6.031   1.444
  289TIP3    H2  811   5.590   6.005   1.592
  290TIP3   OH2  812   0.192   5.333   4.391
  290TIP3    H1  813   0.241   5.298   4.465
  290TIP3    H2  814   0.257   5.339   4.321
  291TIP3   OH2  815   2.940   1.104   6.646
  291TIP3    H1  816   2.933   1.105   6.742
  291TIP3    H2  817   3.005   1.172   6.626
  292TIP3   OH2  818   2.996   7.079   3.858
  292TIP3    H1  819   3.053   7.155   3.869
  292TIP3    H2  820   2.929   7.090   3.926
  293TIP3   OH2  821   0.258   7.264   1.643
  293TIP3    H1  822   0.259   7.216   1.561
  293TIP3    H2  823   0.276   7.198   1.710
  294TIP3   OH2  824   7.633   4.506  -0.008
  294TIP3    H1  825   7.584   4.486   0.072
  294TIP3    H2  826   7.671   4.592   0.008
  295TIP3   OH2  827   8.128   7.267   4.521
  295TIP3    H1  828   8.181   7.210   4.466
  295TIP3    H2  829   8.189   7.302   4.586
  296TIP3   OH2  830   2.352   7.432   3.635
  296TIP3    H1  831   2.296   7.508   3.618
  296TIP3    H2  832   2.292   7.363   3.661
  297TIP3   OH2  833   7.843   7.095   1.069
  297TIP3    H1  834   7.783   7.082   1.142
  297TIP3    H2  835   7.928   7.108   1.110
  298TIP3   OH2  836   7.323   0.067   5.725
  298TIP3    H1  837   7.392   0.121   5.765
  298TIP3    H2  838   7.267   0.042   5.798
  299TIP3   OH2  839   3.470   4.373   1.257
  299TIP3    H1  840   3.546   4.330   1.296
  299TIP3    H2  841   3.440   4.312   1.189
  300TIP3   OH2  842   2.415   5.315   2.856
  300TIP3    H1  843   2.376   5.365   2.928
  300TIP3    H2  844   2.472   5.251   2.900
  301TIP3   OH2  845   5.869   3.876   2.740
  301TIP3    H1  846   5.944   3.858   2.683
  301TIP3    H2  847   5.848   3.968   2.722
  302TIP3   OH2  848   2.827   6.880   3.020
  302TIP3    H1  849   2.882   6.801   3.024
  302TIP3    H2  850   2.738   6.847   3.010
  303TIP3   OH2  851   6.833   5.141   4.462
  303TIP3    H1  852   6.871   5.163   4.547
  303TIP3    H2  853   6.897   5.081   4.423
  304TIP3   OH2  854   4.311   3.609   0.484
  304TIP3    H1  855   4.375   3.674   0.455
  304TIP3    H2  856   4.317   3.612   0.580
  305TIP3   OH2  857   7.307   4.120   2.549
  305TIP3    H1  858   7.402   4.118   2.538
  305TIP3    H2  859   7.293   4.082   2.636
  306TIP3   OH2  860   1.759   6.507   6.276
  306TIP3    H1  861   1.672   6.472   6.291
  306TIP3    H2  862   1.814   6.430   6.263
  307TIP3   OH2  863   5.833   2.264   4.963
  307TIP3    H1  864   5.897   2.213   5.012
  307TIP3    H2  865   5.851   2.244   4.871
  308TIP3   OH2  866   7.634   4.070   5.553
  308TIP3    H1  867   7.571   4.020   5.606
  308TIP3    H2  868   7.597   4.158   5.550
  309TIP3   OH2  869   5.691   0.034   3.828
  309TIP3    H1  870   5.778   0.058   3.859
  309TIP3    H2  871   5.701   0.024   3.734
  310TIP3   OH2  872   6.876   6.423   1.606
  310TIP3    H1  873   6.931   6.356   1.566
  310TIP3    H2  874   6.788   6.405   1.573
  311TIP3   OH2  875   1.376   4.102   6.605
  311TIP3    H1  876   1.328   4.019   6.605
  311TIP3    H2  877   1.433   4.096   6.528
  312TIP3   OH2  878   0.019   0.351   0.144
  312TIP3    H1  879   0.080   0.424   0.149
  312TIP3    H2  880   0.063   0.286   0.089
  313TIP3   OH2  881   3.331   2.852   0.510
  313TIP3    H1  882   3.278   2.860   0.589
  313TIP3    H2  883   3.325   2.937   0.467
  314TIP3   OH2  884   0.551   5.930   1.086
  314TIP3    H1  885   0.467   5.977   1.091
  314TIP3    H2  886   0.531   5.851   1.035
  315TIP3   OH2  887   0.497   0.043   5.583
  315TIP3    H1  888   0.578   0.088   5.558
  315TIP3    H2  889   0.467   0.090   5.660
  316TIP3   OH2  890   3.009   7.693   2.055
  316TIP3    H1  891   3.072   7.763   2.065
  316TIP3    H2  892   2.924   7.733   2.075
  317TIP3   OH2  893   7.087   7.573   0.615
  317TIP3    H1  894   7.060   7.640   0.678
  317TIP3    H2  895   7.075   7.491   0.662
  318TIP3   OH2  896   0.123   2.043   5.328
  318TIP3    H1  897   0.050   2.101   5.305
  318TIP3    H2  898   0.156   2.013   5.244
  319TIP3   OH2  899   8.135   4.363   6.471
  319TIP3    H1  900   8.106   4.298   6.407
  319TIP3    H2  901   8.152   4.442   6.419
  320TIP3   OH2  902   3.419   1.980   2.044
  320TIP3    H1  903   3.440   1.891   2.070
  320TIP3    H2  904   3.468   1.994   1.963
  321TIP3   OH2  905   8.119   4.107   2.414
  321TIP3    H1  906   8.178   4.042   2.451
  321TIP3    H2  907   8.174   4.185   2.403
  322TIP3   OH2  908   5.214   0.113   5.084
  322TIP3    H1  909   5.277   0.153   5.143
  322TIP3    H2  910   5.207   0.174   5.010
  323TIP3   OH2  911   4.844   6.022   1.870
  323TIP3    H1  912   4.776   5.956   1.863
  323TIP3    H2  913   4.925   5.973   1.882
  324TIP3   OH2  914   0.403   2.103   0.035
  324TIP3    H1  915   0.331   2.163   0.052
  324TIP3    H2  916   0.386   2.070  -0.053
  325TIP3   OH2  917   0.147   4.549   4.676
  325TIP3    H1  918   0.233   4.592   4.678
  325TIP3    H2  919   0.092   4.605   4.730
  326TIP3   OH2  920   6.962   0.479   1.753
  326TIP3    H1  921   7.015   0.546   1.709
  326TIP3    H2  922   6.943   0.415   1.685
  327TIP3   OH2  923   8.107   0.543   2.779
  327TIP3    H1  924   8.043   0.530   2.710
  327TIP3    H2  925   8.190   0.558   2.733
  328TIP3   OH2  926   8.037   1.639   2.002
  328TIP3    H1  927   7.991   1.721   1.983
  328TIP3    H2  928   7.970   1.582   2.041
  329TIP3   OH2  929   7.635   5.044   5.819
  329TIP3    H1  930   7.634   5.096   5.900
  329TIP3    H2  931   7.588   5.098   5.755
  330TIP3   OH2  932   5.139   2.807   3.110
  330TIP3    H1  933   5.186   2.724   3.100
  330TIP3    H2  934   5.199   2.862   3.160
  331TIP3   OH2  935   1.729   5.698   6.032
  331TIP3    H1  936   1.661   5.665   5.973
  331TIP3    H2  937   1.780   5.621   6.056
  332TIP3   OH2  938   7.004   4.748   1.472
  332TIP3    H1  939   6.945   4.795   1.530
  332TIP3    H2  940   6.975   4.772   1.384
  333TIP3   OH2  941   6.245   6.125   1.994
  333TIP3    H1  942   6.252   6.131   2.090
  333TIP3    H2  943   6.281   6.039   1.973
  334TIP3   OH2  944   5.587   0.707   3.657
  334TIP3    H1  945   5.550   0.620   3.671
  334TIP3    H2  946   5.667   0.708   3.710
  335TIP3   OH2  947   0.638   5.763   3.423
  335TIP3    H1  948   0.585   5.841   3.404
  335TIP3    H2  949   0.722   5.798   3.453
  336TIP3   OH2  950   7.856   1.376   6.633
  336TIP3    H1  951   7.850   1.287   6.597
  336TIP3    H2  952   7.855   1.433   6.556
  337TIP3   OH2  953   1.480   3.036   0.005
  337TIP3    H1  954   1.456   2.967  -0.055
  337TIP3    H2  955   1.527   3.100  -0.049
  338TIP3   OH2  956   7.673   5.345   1.862
  338TIP3    H1  957   7.641   5.436   1.864
  338TIP3    H2  958   7.769   5.354   1.865
  339TIP3   OH2  959   5.052   5.851   1.897
  339TIP3    H1  960   5.134   5.890   1.868
  339TIP3    H2  961   5.045   5.769   1.849
  340TIP3   OH2  962   5.923   3.120   4.633
  340TIP3    H1  963   5.946   3.200   4.679
  340TIP3    H2  964   5.952   3.135   4.543
  341TIP3   OH2  965   3.759   0.624   2.611
  341TIP3    H1  966   3.743   0.719   2.617
  341TIP3    H2  967   3.728   0.590   2.695
  342TIP3   OH2  968   3.064   1.564   1.713
  342TIP3    H1  969   3.063   1.474   1.743
  342TIP3    H2  970   3.083   1.558   1.619
  343TIP3   OH2  971   7.912   3.951   0.360
  343TIP3    H1  972   7.862   3.871   0.373
  343TIP3    H2  973   7.992   3.938   0.412
  344TIP3   OH2  974   3.620   3.050   3.618
  344TIP3    H1  975   3.665   3.060   3.534
  344TIP3    H2  976   3.684   3.008   3.675
  345TIP3   OH2  977   0.071   1.420   4.538
  345TIP3    H1  978   0.003   1.468   4.585
  345TIP3    H2  979   0.023   1.362   4.479
  346TIP3   OH2  980   1.429   0.207   6.584
  346TIP3    H1  981   1.503   0.233   6.528
  346TIP3    H2  982   1.424   0.277   6.649
  347TIP3   OH2  983   4.790   2.284   2.997
  347TIP3    H1  984   4.749   2.212   2.950
  347TIP3    H2  985   4.799   2.251   3.087
  348TIP3   OH2  986   7.388   1.247   4.853
  348TIP3    H1  987   7.463   1.305   4.841
  348TIP3    H2  988   7.378   1.240   4.948
  349TIP3   OH2  989   7.365   5.426   3.074
  349TIP3    H1  990   7.313   5.500   3.041
  349TIP3    H2  991   7.400   5.458   3.158
  350TIP3   OH2  992   2.117   1.807   5.855
  350TIP3    H1  993   2.210   1.822   5.868
  350TIP3    H2  994   2.089   1.878   5.797
  351TIP3   OH2  995   8.109   6.653   4.392
  351TIP3    H1  996   8.051   6.588   4.432
  351TIP3    H2  997   8.052   6.726   4.371
  352TIP3   OH2  998   0.461   1.385   0.467
  352TIP3    H1  999   0.550   1.358   0.490
  352TIP3    H2 1000   0.468   1.414   0.376
  353TIP3   OH2 1001   0.231   0.195   1.537
  353TIP3    H1 1002   0.202   0.213   1.447
  353TIP3    H2 1003   0.215   0.101   1.549
  354TIP3   OH2 1004   8.156   2.410   4.748
  354TIP3    H1 1005   8.209   2.370   4.679
  354TIP3    H2 1006   8.210   2.481   4.782
  355TIP3   OH2 1007   0.109   0.490   0.705
  355TIP3    H1 1008   0.032   0.533   0.667
  355TIP3    H2 1009   0.182   0.549   0.685
  356TIP3   OH2 1010   3.869   3.427   3.197
  356TIP3    H1 1011   3.854   3.492   3.128
  356TIP3    H2 1012   3.963   3.409   3.192
  357TIP3   OH2 1013   3.004   1.784   2.981
  357TIP3    H1 1014   3.013   1.873   3.015
  357TIP3    H2 1015   2.912   1.779   2.955
  358TIP3   OH2 1016   1.902   6.069   1.553
  358TIP3    H1 1017   1.906   6.137   1.620
  358TIP3    H2 1018   1.811   6.071   1.523
  359TIP3   OH2 1019   1.826   1.868   4.759
  359TIP3    H1 1020   1.813   1.955   4.720
  359TIP3    H2 1021   1.881   1.883   4.835
  360TIP3   OH2 1022   3.957   2.757   3.339
  360TIP3    H1 1023   3.925   2.694   3.404
  360TIP3    H2 1024   3.905   2.836   3.355
  361TIP3   OH2 1025   3.621   2.936   0.719
  361TIP3    H1 1026   3.684   2.879   0.674
  361TIP3    H2 1027   3.604   2.891   0.801
  362TIP3   OH2 1028   4.624   2.731   4.605
  362TIP3    H1 1029   4.696   2.721   4.544
  362TIP3    H2 1030   4.623   2.824   4.628
  363TIP3   OH2 1031   4.846   4.406   5.663
  363TIP3    H1 1032   4.906   4.364   5.601
  363TIP3    H2 1033   4.769   4.348   5.664
  364TIP3   OH2 1034   2.086   1.306   1.319
  364TIP3    H1 1035   2.142   1.230   1.301
  364TIP3    H2 1036   2.144   1.381   1.305
  365TIP3   OH2 1037   3.549   6.511   2.284
  365TIP3    H1 1038   3.562   6.457   2.362
  365TIP3    H2 1039   3.574   6.455   2.211
  366TIP3   OH2 1040   2.030   1.655   4.698
  366TIP3    H1 1041   1.990   1.725   4.647
  366TIP3    H2 1042   2.103   1.696   4.744
  367TIP3   OH2 1043   1.750   6.043   5.650
  367TIP3    H1 1044   1.783   6.129   5.625
  367TIP3    H2 1045   1.783   5.983   5.582
  368TIP3   OH2 1046   0.519   4.403   5.237
  368TIP3    H1 1047   0.600   4.389   5.187
  368TIP3    H2 1048   0.481   4.315   5.245
  369TIP3   OH2 1049   3.447   4.577   3.135
  369TIP3    H1 1050   3.527   4.631   3.136
  369TIP3    H2 1051   3.419   4.578   3.044
  370TIP3   OH2 1052   7.801   2.630   1.584
  370TIP3    H1 1053   7.766   2.706   1.539
  370TIP3    H2 1054   7.821   2.567   1.514
  371TIP3   OH2 1055   5.427   2.614   2.864
  371TIP3    H1 1056   5.499   2.629   2.925
  371TIP3    H2 1057   5.362   2.567   2.916
  372TIP3   OH2 1058   1.524   2.213   2.152
  372TIP3    H1 1059   1.545   2.120   2.156
  372TIP3    H2 1060   1.455   2.220   2.087
  373TIP3   OH2 1061   2.675   0.488   5.108
  373TIP3    H1 1062   2.619   0.486   5.186
  373TIP3    H2 1063   2.628   0.544   5.047
  374TIP3   OH2 1064   4.351   0.766   4.349
  374TIP3    H1 1065   4.414   0.712   4.302
  374TIP3    H2 1066   4.273   0.766   4.293
  375TIP3   OH2 1067   1.003   1.910   1.683
  375TIP3    H1 1068   1.056   1.978   1.642
  375TIP3    H2 1069   1.002   1.933   1.776
  376TIP3   OH2 1070   2.631   0.459   0.926
  376TIP3    H1 1071   2.577   0.399   0.978
  376TIP3    H2 1072   2.617   0.432   0.836
  377TIP3   OH2 1073   7.034   1.162   3.127
  377TIP3    H1 1074   7.062   1.080   3.085
  377TIP3    H2 1075   6.938   1.156   3.127
  378TIP3   OH2 1076   3.521   0.166   5.304
  378TIP3    H1 1077   3.509   0.200   5.393
  378TIP3    H2 1078   3.432   0.161   5.268
  379TIP3   OH2 1079   3.240   2.438   3.957
  379TIP3    H1 1080   3.169   2.502   3.948
  379TIP3    H2 1081   3.281   2.434   3.871
  380TIP3   OH2 1082   4.931   4.564   2.684
  380TIP3    H1 1083   4.881   4.642   2.706
  380TIP3    H2 1084   5.010   4.598   2.641
  381TIP3   OH2 1085   5.206   3.415   5.296
  381TIP3    H1 1086   5.168   3.335   5.330
  381TIP3    H2 1087   5.201   3.477   5.368
  382TIP3   OH2 1088   0.775   6.230   5.028
  382TIP3    H1 1089   0.801   6.138   5.037
  382TIP3    H2 1090   0.710   6.230   4.957
  383TIP3   OH2 1091   3.026   0.234   5.652
  383TIP3    H1 1092   2.949   0.223   5.597
  383TIP3    H2 1093   2.992   0.253   5.739
  384TIP3   OH2 1094   2.901   1.056   5.290
  384TIP3    H1 1095   2.926   1.021   5.376
  384TIP3    H2 1096   2.943   0.998   5.227
  385TIP3   OH2 1097   5.502   7.336   5.424
  385TIP3    H1 1098   5.466   7.283   5.353
  385TIP3    H2 1099   5.460   7.421   5.414
  386TIP3   OH2 1100   2.869   4.688   0.556
  386TIP3    H1 1101   2.873   4.776   0.594
  386TIP3    H2 1102   2.940   4.640   0.600
  387TIP3   OH2 1103   3.105   1.519   1.426
  387TIP3    H1 1104   3.025   1.467   1.422
  387TIP3    H2 1105   3.096   1.584   1.357
  388TIP3   OH2 1106   1.616   2.720   3.442
  388TIP3    H1 1107   1.545   2.733   3.378
  388TIP3    H2 1108   1.696   2.723   3.390
  389TIP3   OH2 1109   7.199   3.443   3.059
  389TIP3    H1 1110   7.155   3.358   3.055
  389TIP3    H2 1111   7.279   3.426   3.110
  390TIP3   OH2 1112   4.418   2.527   5.718
  390TIP3    H1 1113   4.374   2.478   5.648
  390TIP3    H2 1114   4.503   2.550   5.682
  391TIP3   OH2 1115   7.104   7.212   3.646
  391TIP3    H1 1116   7.108   7.164   3.563
  391TIP3    H2 1117   7.011   7.217   3.667
  392TIP3   OH2 1118   1.666   5.268   6.341
  392TIP3    H1 1119   1.624   5.284   6.426
  392TIP3    H2 1120   1.743   5.215   6.362
  393TIP3   OH2 1121   2.119   6.509   4.849
  393TIP3    H1 1122   2.137   6.568   4.922
  393TIP3    H2 1123   2.025   6.493   4.854
  394TIP3   OH2 1124   8.096   0.270   0.471
  394TIP3    H1 1125   8.002   0.269   0.455
  394TIP3    H2 1126   8.121   0.362   0.464
  395TIP3   OH2 1127   7.246   2.630   6.436
  395TIP3    H1 1128   7.233   2.548   6.482
  395TIP3    H2 1129   7.252   2.606   6.343
  396TIP3   OH2 1130   6.182   5.526   5.821
  396TIP3    H1 1131   6.221   5.541   5.907
  396TIP3    H2 1132   6.126   5.602   5.806
  397TIP3   OH2 1133   5.552   7.138   5.933
  397TIP3    H1 1134   5.458   7.156   5.924
  397TIP3    H2 1135   5.559   7.088   6.015
  398TIP3   OH2 1136   7.212   0.193   1.561
  398TIP3    H1 1137   7.227   0.171   1.653
  398TIP3    H2 1138   7.271   0.267   1.545
  399TIP3   OH2 1139   5.881   3.367   2.813
  399TIP3    H1 1140   5.834   3.332   2.888
  399TIP3    H2 1141   5.848   3.457   2.803
  400TIP3   OH2 1142   6.741   1.014   1.546
  400TIP3    H1 1143   6.650   1.017   1.575
  400TIP3    H2 1144   6.736   0.983   1.456
  401TIP3   OH2 1145   1.870   6.154   3.246
  401TIP3    H1 1146   1.928   6.191   3.313
  401TIP3    H2 1147   1.903   6.065   3.234
  402TIP3   OH2 1148   0.466   3.072   6.432
  402TIP3    H1 1149   0.550   3.033   6.456
  402TIP3    H2 1150   0.401   3.022   6.481
  403TIP3   OH2 1151   7.815   1.302   2.429
  403TIP3    H1 1152   7.778   1.241   2.365
  403TIP3    H2 1153   7.909   1.301   2.411
  404TIP3   OH2 1154   5.072   7.285   2.583
  404TIP3    H1 1155   4.992   7.235   2.568
  404TIP3    H2 1156   5.095   7.321   2.497
  405TIP3   OH2 1157   5.089   7.816   5.264
  405TIP3    H1 1158   5.039   7.768   5.198
  405TIP3    H2 1159   5.097   7.755   5.337
  406TIP3   OH2 1160   1.695   6.653   1.480
  406TIP3    H1 1161   1.772   6.709   1.486
  406TIP3    H2 1162   1.673   6.654   1.386
  407TIP3   OH2 1163   1.629   3.841   2.491
  407TIP3    H1 1164   1.636   3.757   2.536
  407TIP3    H2 1165   1.720   3.872   2.483
  408TIP3   OH2 1166   7.096   6.887   2.163
  408TIP3    H1 1167   7.092   6.945   2.238
  408TIP3    H2 1168   7.163   6.925   2.106
  409TIP3   OH2 1169   8.118   4.661   0.960
  409TIP3    H1 1170   8.119   4.675   0.865
  409TIP3    H2 1171   8.204   4.624   0.980
  410TIP3   OH2 1172   4.882   4.342   6.620
  410TIP3    H1 1173   4.868   4.321   6.712
  410TIP3    H2 1174   4.823   4.415   6.602
  411TIP3   OH2 1175   7.634   7.252   3.071
  411TIP3    H1 1176   7.636   7.238   3.166
  411TIP3    H2 1177   7.706   7.199   3.037
  412TIP3   OH2 1178   8.312   5.139   4.538
  412TIP3    H1 1179   8.397   5.133   4.495
  412TIP3    H2 1180   8.271   5.217   4.501
  413TIP3   OH2 1181   3.904   0.478   4.990
  413TIP3    H1 1182   3.982   0.528   5.016
  413TIP3    H2 1183   3.930   0.433   4.911
  414TIP3   OH2 1184   2.103   0.508   0.211
  414TIP3    H1 1185   2.073   0.585   0.260
  414TIP3    H2 1186   2.022   0.467   0.179
  415TIP3   OH2 1187   7.378   7.280   2.107
  415TIP3    H1 1188   7.392   7.313   2.018
  415TIP3    H2 1189   7.308   7.335   2.142
  416TIP3   OH2 1190   1.831   6.398   0.947
  416TIP3    H1 1191   1.767   6.436   0.887
  416TIP3    H2 1192   1.874   6.330   0.896
  417TIP3   OH2 1193   2.342   3.712   0.377
  417TIP3    H1 1194   2.267   3.757   0.338
  417TIP3    H2 1195   2.333   3.726   0.471
  418TIP3   OH2 1196   7.790   3.881   2.672
  418TIP3    H1 1197   7.698   3.856   2.677
  418TIP3    H2 1198   7.801   3.916   2.583
  419TIP3   OH2 1199   7.785   3.138   6.516
  419TIP3    H1 1200   7.799   3.082   6.593
  419TIP3    H2 1201   7.694   3.168   6.525
  420TIP3   OH2 1202   2.578   6.250   0.647
  420TIP3    H1 1203   2.546   6.167   0.683
  420TIP3    H2 1204   2.620   6.293   0.721
  421TIP3   OH2 1205   3.439   3.793   5.642
  421TIP3    H1 1206   3.363   3.764   5.693
  421TIP3    H2 1207   3.506   3.726   5.657
  422TIP3   OH2 1208   0.841   5.962   4.968
  422TIP3    H1 1209   0.885   6.004   4.894
  422TIP3    H2 1210   0.876   5.873   4.970
  423TIP3   OH2 1211   3.738   0.044   2.764
  423TIP3    H1 1212   3.738  -0.033   2.707
  423TIP3    H2 1213   3.714   0.010   2.850
  424TIP3   OH2 1214   4.181   1.510   6.769
  424TIP3    H1 1215   4.249   1.577   6.779
  424TIP3    H2 1216   4.103   1.549   6.811
  425TIP3   OH2 1217  -0.025   0.815   1.714
  425TIP3    H1 1218  -0.038   0.905   1.684
  425TIP3    H2 1219   0.064   0.814   1.748
  426TIP3   OH2 1220   6.236   0.226   2.535
  426TIP3    H1 1221   6.297   0.161   2.500
  426TIP3    H2 1222   6.152   0.205   2.494
  427TIP3   OH2 1223   4.567   2.577   3.312
  427TIP3    H1 1224   4.546   2.542   3.226
  427TIP3    H2 1225   4.482   2.586   3.355
  428TIP3   OH2 1226   8.255   2.988   0.574
  428TIP3    H1 1227   8.292   2.901   0.561
  428TIP3    H2 1228   8.299   3.043   0.509
  429TIP3   OH2 1229   6.990   4.391   6.479
  429TIP3    H1 1230   6.990   4.420   6.388
  429TIP3    H2 1231   7.014   4.469   6.529
  430TIP3   OH2 1232   5.983   5.242   2.504
  430TIP3    H1 1233   5.925   5.277   2.572
  430TIP3    H2 1234   5.937   5.165   2.470
  431TIP3   OH2 1235   5.175   5.321   2.569
  431TIP3    H1 1236   5.155   5.382   2.498
  431TIP3    H2 1237   5.270   5.321   2.575
  432TIP3   OH2 1238   2.614   4.268   2.684
  432TIP3    H1 1239   2.704   4.254   2.716
  432TIP3    H2 1240   2.619   4.248   2.591
  433TIP3   OH2 1241   5.391   6.962   4.542
  433TIP3    H1 1242   5.485   6.973   4.528
  433TIP3    H2 1243   5.368   7.029   4.606
  434TIP3   OH2 1244   2.670   4.465   1.407
  434TIP3    H1 1245   2.649   4.492   1.318
  434TIP3    H2 1246   2.586   4.439   1.445
  435TIP3   OH2 1247   6.378   1.818   4.568
  435TIP3    H1 1248   6.444   1.782   4.628
  435TIP3    H2 1249   6.370   1.910   4.593
  436TIP3   OH2 1250   6.115   6.535   4.753
  436TIP3    H1 1251   6.196   6.582   4.775
  436TIP3    H2 1252   6.124   6.514   4.660
  437TIP3   OH2 1253   5.210   0.867   3.076
  437TIP3    H1 1254   5.117   0.871   3.056
  437TIP3    H2 1255   5.223   0.934   3.144
  438TIP3   OH2 1256   0.828   3.187   1.383
  438TIP3    H1 1257   0.739   3.205   1.353
  438TIP3    H2 1258   0.878   3.265   1.359
  439TIP3   OH2 1259   8.080   0.415   5.669
  439TIP3    H1 1260   8.017   0.454   5.609
  439TIP3    H2 1261   8.159   0.402   5.615
  440TIP3   OH2 1262   7.427   4.721   1.826
  440TIP3    H1 1263   7.510   4.711   1.780
  440TIP3    H2 1264   7.361   4.703   1.759
  441TIP3   OH2 1265   0.954   6.799   6.263
  441TIP3    H1 1266   1.000   6.841   6.335
  441TIP3    H2 1267   1.021   6.747   6.219
  442TIP3   OH2 1268   7.117   0.814   1.152
  442TIP3    H1 1269   7.173   0.782   1.223
  442TIP3    H2 1270   7.176   0.863   1.095
  443TIP3   OH2 1271   3.038   2.890   3.286
  443TIP3    H1 1272   3.027   2.900   3.191
  443TIP3    H2 1273   3.005   2.972   3.323
  444TIP3   OH2 1274   0.958   0.514   2.204
  444TIP3    H1 1275   0.879   0.463   2.186
  444TIP3    H2 1276   0.930   0.580   2.268
  445TIP3   OH2 1277   3.760   6.696   1.825
  445TIP3    H1 1278   3.736   6.777   1.781
  445TIP3    H2 1279   3.685   6.674   1.879
  446TIP3   OH2 1280   6.657   5.255   0.375
  446TIP3    H1 1281   6.643   5.174   0.326
  446TIP3    H2 1282   6.737   5.239   0.425
  447TIP3   OH2 1283   1.441   0.242   3.975
  447TIP3    H1 1284   1.487   0.324   3.959
  447TIP3    H2 1285   1.509   0.174   3.963
  448TIP3   OH2 1286   2.457   1.503   3.449
  448TIP3    H1 1287   2.415   1.532   3.529
  448TIP3    H2 1288   2.482   1.583   3.404
  449TIP3   OH2 1289   5.214   6.867   4.969
  449TIP3    H1 1290   5.154   6.903   5.034
  449TIP3    H2 1291   5.295   6.916   4.980
  450TIP3   OH2 1292   7.375   0.102   0.919
  450TIP3    H1 1293   7.450   0.160   0.903
  450TIP3    H2 1294   7.372   0.091   1.014
  451TIP3   OH2 1295   0.709   3.004   6.560
  451TIP3    H1 1296   0.780   3.059   6.528
  451TIP3    H2 1297   0.688   3.039   6.647
  452TIP3   OH2 1298   5.930   2.439   3.396
  452TIP3    H1 1299   5.907   2.364   3.451
  452TIP3    H2 1300   6.026   2.438   3.392
  453TIP3   OH2 1301   2.539   3.110   2.582
  453TIP3    H1 1302   2.452   3.100   2.620
  453TIP3    H2 1303   2.527   3.171   2.510
  454TIP3   OH2 1304   4.707  -0.006   4.867
  454TIP3    H1 1305   4.729  -0.071   4.933
  454TIP3    H2 1306   4.783  -0.002   4.810
  455TIP3   OH2 1307   2.382   6.491   4.033
  455TIP3    H1 1308   2.419   6.546   3.965
  455TIP3    H2 1309   2.439   6.415   4.037
  456TIP3   OH2 1310   6.104   6.924   5.982
  456TIP3    H1 1311   6.111   6.830   5.967
  456TIP3    H2 1312   6.188   6.949   6.019
  457TIP3   OH2 1313   5.894   7.552   2.596
  457TIP3    H1 1314   5.948   7.583   2.523
  457TIP3    H2 1315   5.805   7.579   2.573
  458TIP3   OH2 1316   0.072   6.055   0.292
  458TIP3    H1 1317   0.161   6.020   0.287
  458TIP3    H2 1318   0.081   6.134   0.346
  459TIP3   OH2 1319   7.249   4.769   1.229
  459TIP3    H1 1320   7.319   4.744   1.289
  459TIP3    H2 1321   7.200   4.688   1.214
  460TIP3   OH2 1322   5.753   6.478   0.143
  460TIP3    H1 1323   5.725   6.486   0.234
  460TIP3    H2 1324   5.749   6.383   0.126
  461TIP3   OH2 1325   0.860   1.884   4.169
  461TIP3    H1 1326   0.834   1.792   4.174
  461TIP3    H2 1327   0.949   1.882   4.133
  462TIP3   OH2 1328   6.759   2.112   3.427
  462TIP3    H1 1329   6.803   2.028   3.417
  462TIP3    H2 1330   6.828   2.177   3.412
  463TIP3   OH2 1331   2.895   2.061   5.001
  463TIP3    H1 1332   2.803   2.050   4.977
  463TIP3    H2 1333   2.901   2.151   5.031
  464TIP3   OH2 1334   8.128   5.678   0.085
  464TIP3    H1 1335   8.077   5.613   0.132
  464TIP3    H2 1336   8.068   5.751   0.072
  465TIP3   OH2 1337   3.100   2.112   3.660
  465TIP3    H1 1338   3.080   2.066   3.578
  465TIP3    H2 1339   3.188   2.147   3.647
  466TIP3   OH2 1340   1.415   5.874   5.714
  466TIP3    H1 1341   1.440   5.787   5.746
  466TIP3    H2 1342   1.481   5.933   5.750
  467TIP3   OH2 1343   0.239   4.164   0.071
  467TIP3    H1 1344   0.189   4.083   0.080
  467TIP3    H2 1345   0.327   4.135   0.047
  468TIP3   OH2 1346   3.696   0.440   4.631
  468TIP3    H1 1347   3.688   0.524   4.676
  468TIP3    H2 1348   3.778   0.403   4.664
  469TIP3   OH2 1349   2.790   3.620   5.303
  469TIP3    H1 1350   2.755   3.675   5.373
  469TIP3    H2 1351   2.821   3.542   5.347
  470TIP3   OH2 1352   3.626   3.027   3.020
  470TIP3    H1 1353   3.667   3.059   2.940
  470TIP3    H2 1354   3.644   3.094   3.086
  471TIP3   OH2 1355   0.527   5.423   0.300
  471TIP3    H1 1356   0.614   5.464   0.300
  471TIP3    H2 1357   0.492   5.443   0.214
  472TIP3   OH2 1358   4.660   5.772   6.598
  472TIP3    H1 1359   4.705   5.851   6.627
  472TIP3    H2 1360   4.717   5.700   6.626
  473TIP3   OH2 1361   2.525   1.654   2.101
  473TIP3    H1 1362   2.510   1.561   2.083
  473TIP3    H2 1363   2.610   1.657   2.145
  474TIP3   OH2 1364   4.725   6.818   2.589
  474TIP3    H1 1365   4.774   6.750   2.544
  474TIP3    H2 1366   4.673   6.859   2.521
  475TIP3   OH2 1367   2.390   4.875   1.146
  475TIP3    H1 1368   2.305   4.850   1.182
  475TIP3    H2 1369   2.368   4.922   1.065
  476TIP3   OH2 1370   2.211   6.541   0.231
  476TIP3    H1 1371   2.230   6.501   0.145
  476TIP3    H2 1372   2.152   6.613   0.210
  477TIP3   OH2 1373   4.973   6.312   6.273
  477TIP3    H1 1374   4.982   6.360   6.355
  477TIP3    H2 1375   5.063   6.301   6.242
  478TIP3   OH2 1376   6.053   5.581   2.010
  478TIP3    H1 1377   6.138   5.551   1.978
  478TIP3    H2 1378   6.074   5.633   2.088
  479TIP3   OH2 1379   6.189   7.625   2.489
  479TIP3    H1 1380   6.274   7.595   2.520
  479TIP3    H2 1381   6.184   7.595   2.399
  480TIP3   OH2 1382   3.939   0.285   4.275
  480TIP3    H1 1383   3.884   0.358   4.305
  480TIP3    H2 1384   3.878   0.221   4.241
  481TIP3   OH2 1385   6.712   3.158   4.101
  481TIP3    H1 1386   6.799   3.184   4.072
  481TIP3    H2 1387   6.716   3.062   4.106
  482TIP3   OH2 1388   5.494   4.311   5.123
  482TIP3    H1 1389   5.482   4.246   5.054
  482TIP3    H2 1390   5.576   4.286   5.166
  483TIP3   OH2 1391   6.250   4.806   0.062
  483TIP3    H1 1392   6.342   4.833   0.064
  483TIP3    H2 1393   6.202   4.887   0.043
  484TIP3   OH2 1394   3.645   2.734   1.801
  484TIP3    H1 1395   3.670   2.645   1.825
  484TIP3    H2 1396   3.728   2.777   1.779
  485TIP3   OH2 1397   5.623   4.581   2.863
  485TIP3    H1 1398   5.697   4.562   2.920
  485TIP3    H2 1399   5.547   4.583   2.921
  486TIP3   OH2 1400   3.014   7.601   5.282
  486TIP3    H1 1401   3.008   7.692   5.253
  486TIP3    H2 1402   3.017   7.550   5.200
  487TIP3   OH2 1403   4.343   3.058   4.014
  487TIP3    H1 1404   4.325   3.151   4.004
  487TIP3    H2 1405   4.432   3.054   4.050
  488TIP3   OH2 1406   3.461   0.951   5.418
  488TIP3    H1 1407   3.376   0.915   5.442
  488TIP3    H2 1408   3.501   0.886   5.361
  489TIP3   OH2 1409   7.422   3.788   3.020
  489TIP3    H1 1410   7.483   3.716   3.036
  489TIP3    H2 1411   7.440   3.850   3.091
  490TIP3   OH2 1412   0.248   3.501   3.511
  490TIP3    H1 1413   0.199   3.422   3.535
  490TIP3    H2 1414   0.340   3.474   3.513
  491TIP3   OH2 1415   4.981   1.005   1.231
  491TIP3    H1 1416   4.902   1.059   1.224
  491TIP3    H2 1417   4.992   0.967   1.144
  492TIP3   OH2 1418   5.257   2.965   0.822
  492TIP3    H1 1419   5.250   2.876   0.786
  492TIP3    H2 1420   5.323   2.957   0.891
  493TIP3   OH2 1421   3.030   5.947   4.210
  493TIP3    H1 1422   2.958   5.898   4.249
  493TIP3    H2 1423   3.047   6.018   4.273
  494TIP3   OH2 1424   4.427   1.805   2.724
  494TIP3    H1 1425   4.371   1.862   2.778
  494TIP3    H2 1426   4.369   1.734   2.697
  495TIP3   OH2 1427   0.385   0.924   2.004
  495TIP3    H1 1428   0.371   0.869   1.926
  495TIP3    H2 1429   0.336   1.004   1.985
  496TIP3   OH2 1430   4.774   0.511   5.393
  496TIP3    H1 1431   4.689   0.475   5.420
  496TIP3    H2 1432   4.830   0.435   5.379
  497TIP3   OH2 1433   3.471   3.017   2.216
  497TIP3    H1 1434   3.444   2.961   2.144
  497TIP3    H2 1435   3.529   2.963   2.269
  498TIP3   OH2 1436   8.213   6.511   0.130
  498TIP3    H1 1437   8.215   6.417   0.149
  498TIP3    H2 1438   8.165   6.518   0.048
  499TIP3   OH2 1439   3.810   5.344   0.562
  499TIP3    H1 1440   3.766   5.267   0.526
  499TIP3    H2 1441   3.848   5.313   0.644
  500TIP3   OH2 1442   0.581   0.803   1.503
  500TIP3    H1 1443   0.667   0.844   1.507
  500TIP3    H2 1444   0.587   0.729   1.564
  501TIP3   OH2 1445   4.868   0.376   4.132
  501TIP3    H1 1446   4.890   0.402   4.221
  501TIP3    H2 1447   4.947   0.396   4.081
  502TIP3   OH2 1448   0.954   4.576   2.918
  502TIP3    H1 1449   0.882   4.527   2.956
  502TIP3    H2 1450   1.021   4.579   2.986
  503TIP3   OH2 1451   0.523   0.830   0.376
  503TIP3    H1 1452   0.432   0.854   0.364
  503TIP3    H2 1453   0.545   0.780   0.298
  504TIP3   OH2 1454   3.953   0.633   3.919
  504TIP3    H1 1455   4.005   0.611   3.996
  504TIP3    H2 1456   4.008   0.609   3.844
  505TIP3   OH2 1457   2.578   4.890   5.603
  505TIP3    H1 1458   2.584   4.810   5.656
  505TIP3    H2 1459   2.636   4.874   5.529
  506TIP3   OH2 1460   6.466   0.523   4.034
  506TIP3    H1 1461   6.437   0.495   3.947
  506TIP3    H2 1462   6.417   0.468   4.094
  507TIP3   OH2 1463   4.293   2.835   5.303
  507TIP3    H1 1464   4.351   2.762   5.283
  507TIP3    H2 1465   4.230   2.800   5.366
  508TIP3   OH2 1466   2.353   7.756   0.154
  508TIP3    H1 1467   2.376   7.846   0.174
  508TIP3    H2 1468   2.401   7.704   0.219
  509TIP3   OH2 1469   1.187   7.467   4.864
  509TIP3    H1 1470   1.122   7.501   4.802
  509TIP3    H2 1471   1.198   7.538   4.928
  510TIP3   OH2 1472   4.186   3.252   1.271
  510TIP3    H1 1473   4.262   3.236   1.215
  510TIP3    H2 1474   4.223   3.265   1.358
  511TIP3   OH2 1475   5.327   3.697   6.151
  511TIP3    H1 1476   5.303   3.669   6.239
  511TIP3    H2 1477   5.349   3.616   6.105
  512TIP3   OH2 1478   7.766   4.610   4.053
  512TIP3    H1 1479   7.741   4.517   4.055
  512TIP3    H2 1480   7.737   4.640   3.967
  513TIP3   OH2 1481   7.944   4.236   0.979
  513TIP3    H1 1482   7.924   4.257   1.070
  513TIP3    H2 1483   7.892   4.299   0.928
  514TIP3   OH2 1484   5.849   5.116   2.140
  514TIP3    H1 1485   5.879   5.028   2.118
  514TIP3    H2 1486   5.913   5.174   2.100
  515TIP3   OH2 1487   5.356   5.196   5.808
  515TIP3    H1 1488   5.270   5.228   5.834
  515TIP3    H2 1489   5.393   5.157   5.887
  516TIP3   OH2 1490   5.647   0.952   5.773
  516TIP3    H1 1491   5.642   0.856   5.783
  516TIP3    H2 1492   5.605   0.969   5.689
  517TIP3   OH2 1493   0.596   2.972   2.716
  517TIP3    H1 1494   0.514   3.023   2.717
  517TIP3    H2 1495   0.642   3.004   2.638
  518TIP3   OH2 1496   0.252   7.151   2.681
  518TIP3    H1 1497   0.291   7.138   2.594
  518TIP3    H2 1498   0.321   7.125   2.742
  519TIP3   OH2 1499   2.201   5.322   0.157
  519TIP3    H1 1500   2.233   5.370   0.080
  519TIP3    H2 1501   2.280   5.280   0.192
  520TIP3   OH2 1502   3.685   0.486   6.074
  520TIP3    H1 1503   3.609   0.516   6.025
  520TIP3    H2 1504   3.744   0.562   6.077
  521TIP3   OH2 1505   2.382   4.372   0.717
  521TIP3    H1 1506   2.338   4.344   0.798
  521TIP3    H2 1507   2.428   4.452   0.742
  522TIP3   OH2 1508   2.402   3.572   2.655
  522TIP3    H1 1509   2.346   3.537   2.586
  522TIP3    H2 1510   2.378   3.664   2.661
  523TIP3   OH2 1511   3.544   1.667   2.787
  523TIP3    H1 1512   3.613   1.621   2.835
  523TIP3    H2 1513   3.486   1.700   2.856
  524TIP3   OH2 1514   3.354   5.119   1.322
  524TIP3    H1 1515   3.261   5.096   1.329
  524TIP3    H2 1516   3.378   5.095   1.232
  525TIP3   OH2 1517   7.207   2.067   3.005
  525TIP3    H1 1518   7.228   1.994   3.062
  525TIP3    H2 1519   7.117   2.090   3.027
  526TIP3   OH2 1520   2.774   6.595   3.681
  526TIP3    H1 1521   2.722   6.582   3.602
  526TIP3    H2 1522   2.809   6.684   3.673
  527TIP3   OH2 1523   3.415   6.361   4.869
  527TIP3    H1 1524   3.497   6.387   4.827
  527TIP3    H2 1525   3.347   6.399   4.814
  528TIP3   OH2 1526   8.204   0.719   5.574
  528TIP3    H1 1527   8.129   0.690   5.625
  528TIP3    H2 1528   8.196   0.672   5.491
  529TIP3   OH2 1529   7.180   0.617   4.536
  529TIP3    H1 1530   7.270   0.621   4.502
  529TIP3    H2 1531   7.143   0.702   4.515
  530TIP3   OH2 1532   5.257   7.005   6.083
  530TIP3    H1 1533   5.238   6.917   6.113
  530TIP3    H2 1534   5.244   7.002   5.988
  531TIP3   OH2 1535   2.427   0.015   0.113
  531TIP3    H1 1536   2.393   0.103   0.095
  531TIP3    H2 1537   2.351  -0.043   0.101
  532TIP3   OH2 1538   1.848   6.586   4.469
  532TIP3    H1 1539   1.900   6.656   4.508
  532TIP3    H2 1540   1.863   6.594   4.375
  533TIP3   OH2 1541   7.850   5.071   3.656
  533TIP3    H1 1542   7.768   5.104   3.693
  533TIP3    H2 1543   7.823   5.004   3.593
  534TIP3   OH2 1544   2.513   0.795   3.433
  534TIP3    H1 1545   2.603   0.795   3.464
  534TIP3    H2 1546   2.465   0.846   3.498
  535TIP3   OH2 1547   3.275   2.502   3.673
  535TIP3    H1 1548   3.188   2.508   3.633
  535TIP3    H2 1549   3.315   2.425   3.634
  536TIP3   OH2 1550   3.850   0.819   4.160
  536TIP3    H1 1551   3.790   0.824   4.085
  536TIP3    H2 1552   3.831   0.734   4.200
  537TIP3   OH2 1553   4.338   2.788   2.139
  537TIP3    H1 1554   4.370   2.722   2.200
  537TIP3    H2 1555   4.414   2.845   2.123
  538TIP3   OH2 1556   0.803   7.236   1.660
  538TIP3    H1 1557   0.723   7.191   1.685
  538TIP3    H2 1558   0.862   7.225   1.734
  539TIP3   OH2 1559   5.799   6.858   4.074
  539TIP3    H1 1560   5.885   6.829   4.042
  539TIP3    H2 1561   5.755   6.892   3.996
  540TIP3   OH2 1562   5.324   5.265   3.897
  540TIP3    H1 1563   5.368   5.349   3.909
  540TIP3    H2 1564   5.340   5.217   3.979
  541TIP3   OH2 1565   1.144   7.823   5.265
  541TIP3    H1 1566   1.133   7.868   5.348
  541TIP3    H2 1567   1.234   7.844   5.239
  542TIP3   OH2 1568   2.179   5.886   5.968
  542TIP3    H1 1569   2.200   5.852   5.880
  542TIP3    H2 1570   2.200   5.980   5.963
  543TIP3   OH2 1571   8.272   0.628   6.317
  543TIP3    H1 1572   8.193   0.599   6.362
  543TIP3    H2 1573   8.244   0.644   6.227
  544TIP3   OH2 1574   5.450   0.479   3.755
  544TIP3    H1 1575   5.498   0.413   3.705
  544TIP3    H2 1576   5.435   0.438   3.840
  545TIP3   OH2 1577   3.757   7.563   2.386
  545TIP3    H1 1578   3.744   7.567   2.291
  545TIP3    H2 1579   3.833   7.506   2.397
  546TIP3   OH2 1580   7.228   1.898   4.697
  546TIP3    H1 1581   7.188   1.956   4.762
  546TIP3    H2 1582   7.322   1.908   4.711
  547TIP3   OH2 1583   7.216   4.686   4.898
  547TIP3    H1 1584   7.199   4.668   4.805
  547TIP3    H2 1585   7.129   4.696   4.936
  548TIP3   OH2 1586   7.657   0.803   1.069
  548TIP3    H1 1587   7.730   0.850   1.029
  548TIP3    H2 1588   7.653   0.836   1.159
  549TIP3   OH2 1589   5.672   3.166   4.801
  549TIP3    H1 1590   5.621   3.101   4.752
  549TIP3    H2 1591   5.718   3.216   4.733
  550TIP3   OH2 1592   0.516   3.861   2.694
  550TIP3    H1 1593   0.473   3.832   2.775
  550TIP3    H2 1594   0.590   3.913   2.724
  551TIP3   OH2 1595   8.035   3.430   4.901
  551TIP3    H1 1596   7.945   3.454   4.880
  551TIP3    H2 1597   8.061   3.492   4.969
  552TIP3   OH2 1598   1.588   2.658   4.967
  552TIP3    H1 1599   1.650   2.689   5.033
  552TIP3    H2 1600   1.527   2.730   4.955
  553TIP3   OH2 1601   2.347   2.718   2.045
  553TIP3    H1 1602   2.363   2.799   1.997
  553TIP3    H2 1603   2.366   2.740   2.137
  554TIP3   OH2 1604   5.670   3.584   5.729
  554TIP3    H1 1605   5.600   3.620   5.783
  554TIP3    H2 1606   5.750   3.600   5.779
  555TIP3   OH2 1607   7.845   7.408   2.926
  555TIP3    H1 1608   7.799   7.438   3.005
  555TIP3    H2 1609   7.843   7.313   2.932
  556TIP3   OH2 1610   2.277   4.170   4.450
  556TIP3    H1 1611   2.325   4.192   4.370
  556TIP3    H2 1612   2.322   4.093   4.484
  557TIP3   OH2 1613   5.411   3.984   5.841
  557TIP3    H1 1614   5.351   4.026   5.780
  557TIP3    H2 1615   5.492   4.036   5.836
  558TIP3   OH2 1616   7.773   6.296   6.274
  558TIP3    H1 1617   7.818   6.213   6.293
  558TIP3    H2 1618   7.761   6.336   6.360
  559TIP3   OH2 1619   2.188   5.058   1.256
  559TIP3    H1 1620   2.159   4.989   1.196
  559TIP3    H2 1621   2.276   5.081   1.225
  560TIP3   OH2 1622   5.316   7.715   0.877
  560TIP3    H1 1623   5.309   7.772   0.800
  560TIP3    H2 1624   5.366   7.640   0.847
  561TIP3   OH2 1625   4.410   3.248   1.112
  561TIP3    H1 1626   4.410   3.343   1.102
  561TIP3    H2 1627   4.439   3.215   1.026
  562TIP3   OH2 1628   1.142   7.070   2.887
  562TIP3    H1 1629   1.178   6.996   2.936
  562TIP3    H2 1630   1.210   7.137   2.892
  563TIP3   OH2 1631   4.756   7.670   1.137
  563TIP3    H1 1632   4.827   7.713   1.185
  563TIP3    H2 1633   4.680   7.676   1.195
  564TIP3   OH2 1634   3.858   5.074   3.858
  564TIP3    H1 1635   3.792   5.140   3.876
  564TIP3    H2 1636   3.898   5.055   3.943
  565TIP3   OH2 1637   5.544   0.869   1.414
  565TIP3    H1 1638   5.456   0.888   1.380
  565TIP3    H2 1639   5.600   0.934   1.371
  566TIP3   OH2 1640   5.955   3.403   2.371
  566TIP3    H1 1641   5.971   3.497   2.380
  566TIP3    H2 1642   6.004   3.363   2.443
  567TIP3   OH2 1643   2.222   1.082   1.262
  567TIP3    H1 1644   2.298   1.076   1.203
  567TIP3    H2 1645   2.165   1.009   1.235
  568TIP3   OH2 1646   6.195   3.346   3.109
  568TIP3    H1 1647   6.123   3.404   3.085
  568TIP3    H2 1648   6.152   3.273   3.154
  569TIP3   OH2 1649   3.442   3.401   5.194
  569TIP3    H1 1650   3.376   3.440   5.137
  569TIP3    H2 1651   3.526   3.429   5.156
  570TIP3   OH2 1652   4.315   5.158   0.231
  570TIP3    H1 1653   4.267   5.184   0.310
  570TIP3    H2 1654   4.397   5.207   0.237
  571TIP3   OH2 1655   6.361   4.343   5.817
  571TIP3    H1 1656   6.427   4.366   5.751
  571TIP3    H2 1657   6.394   4.383   5.898
  572TIP3   OH2 1658   7.609   4.428   6.249
  572TIP3    H1 1659   7.574   4.339   6.256
  572TIP3    H2 1660   7.562   4.466   6.174
  573TIP3   OH2 1661   3.358   2.044   4.035
  573TIP3    H1 1662   3.411   1.964   4.046
  573TIP3    H2 1663   3.286   2.017   3.978
  574TIP3   OH2 1664   5.612   2.711   4.269
  574TIP3    H1 1665   5.553   2.642   4.301
  574TIP3    H2 1666   5.598   2.713   4.174
  575TIP3   OH2 1667   0.966   1.516   1.356
  575TIP3    H1 1668   1.036   1.492   1.296
  575TIP3    H2 1669   1.008   1.574   1.420
  576TIP3   OH2 1670   5.633   0.602   1.390
  576TIP3    H1 1671   5.581   0.683   1.396
  576TIP3    H2 1672   5.613   0.555   1.471
  577TIP3   OH2 1673   3.766   2.959   3.343
  577TIP3    H1 1674   3.688   2.909   3.367
  577TIP3    H2 1675   3.734   3.045   3.317
  578TIP3   OH2 1676   7.113   1.904   2.796
  578TIP3    H1 1677   7.136   1.811   2.795
  578TIP3    H2 1678   7.158   1.939   2.873
  579TIP3   OH2 1679   4.794   4.918   2.451
  579TIP3    H1 1680   4.812   5.010   2.472
  579TIP3    H2 1681   4.880   4.877   2.445
  580TIP3   OH2 1682   4.429   1.555   1.563
  580TIP3    H1 1683   4.398   1.546   1.654
  580TIP3    H2 1684   4.388   1.636   1.532
  581TIP3   OH2 1685   6.380   2.154   1.548
  581TIP3    H1 1686   6.394   2.230   1.491
  581TIP3    H2 1687   6.390   2.189   1.637
  582TIP3   OH2 1688   6.571   3.526   2.408
  582TIP3    H1 1689   6.641   3.569   2.359
  582TIP3    H2 1690   6.506   3.595   2.422
  583TIP3   OH2 1691   7.008   4.524   0.035
  583TIP3    H1 1692   6.950   4.452   0.011
  583TIP3    H2 1693   7.004   4.584  -0.039
  584TIP3   OH2 1694   3.920   6.956   5.260
  584TIP3    H1 1695   3.975   7.000   5.196
  584TIP3    H2 1696   3.945   6.995   5.344
  585TIP3   OH2 1697   7.353   6.049   6.448
  585TIP3    H1 1698   7.390   5.963   6.428
  585TIP3    H2 1699   7.403   6.080   6.523
  586TIP3   OH2 1700   1.181   1.580   1.196
  586TIP3    H1 1701   1.158   1.654   1.251
  586TIP3    H2 1702   1.204   1.620   1.111
  587TIP3   OH2 1703   1.393   6.534   0.451
  587TIP3    H1 1704   1.389   6.439   0.442
  587TIP3    H2 1705   1.461   6.561   0.390
  588TIP3   OH2 1706   2.701   0.017   5.122
  588TIP3    H1 1707   2.680   0.099   5.078
  588TIP3    H2 1708   2.795   0.004   5.105
  589TIP3   OH2 1709   5.491   2.716   0.833
  589TIP3    H1 1710   5.559   2.650   0.823
  589TIP3    H2 1711   5.417   2.682   0.784
  590TIP3   OH2 1712   7.439   4.476   0.205
  590TIP3    H1 1713   7.443   4.465   0.300
  590TIP3    H2 1714   7.379   4.549   0.191
  591TIP3   OH2 1715   5.485   6.524   4.217
  591TIP3    H1 1716   5.492   6.438   4.174
  591TIP3    H2 1717   5.569   6.536   4.260
  592TIP3   OH2 1718   4.888   3.521   6.187
  592TIP3    H1 1719   4.830   3.511   6.112
  592TIP3    H2 1720   4.977   3.514   6.151
  593TIP3   OH2 1721   4.387   4.523   2.144
  593TIP3    H1 1722   4.302   4.518   2.187
  593TIP3    H2 1723   4.377   4.591   2.077
  594TIP3   OH2 1724   7.210   4.613   6.322
  594TIP3    H1 1725   7.239   4.535   6.274
  594TIP3    H2 1726   7.270   4.682   6.294
  595TIP3   OH2 1727   5.137   1.149   6.432
  595TIP3    H1 1728   5.099   1.199   6.505
  595TIP3    H2 1729   5.125   1.057   6.457
  596TIP3   OH2 1730   2.716   5.617   5.107
  596TIP3    H1 1731   2.631   5.657   5.125
  596TIP3    H2 1732   2.754   5.600   5.193
  597TIP3   OH2 1733   8.015   0.570   1.953
  597TIP3    H1 1734   8.067   0.621   2.014
  597TIP3    H2 1735   7.924   0.597   1.969
  598TIP3   OH2 1736   2.400   1.403   5.523
  598TIP3    H1 1737   2.323   1.456   5.543
  598TIP3    H2 1738   2.463   1.426   5.591
  599TIP3   OH2 1739   7.175   4.379   2.466
  599TIP3    H1 1740   7.210   4.310   2.521
  599TIP3    H2 1741   7.093   4.404   2.508
  600TIP3   OH2 1742   3.786   7.455   3.711
  600TIP3    H1 1743   3.810   7.532   3.660
  600TIP3    H2 1744   3.865   7.402   3.714
  601TIP3   OH2 1745   1.339   0.697   5.326
  601TIP3    H1 1746   1.272   0.665   5.387
  601TIP3    H2 1747   1.375   0.619   5.285
  602TIP3   OH2 1748   2.447   3.835   1.448
  602TIP3    H1 1749   2.403   3.919   1.432
  602TIP3    H2 1750   2.502   3.851   1.524
  603TIP3   OH2 1751   2.415   7.197   2.897
  603TIP3    H1 1752   2.420   7.233   2.809
  603TIP3    H2 1753   2.328   7.157   2.902
  604TIP3   OH2 1754   6.794   3.910   0.161
  604TIP3    H1 1755   6.715   3.954   0.130
  604TIP3    H2 1756   6.798   3.930   0.254
  605TIP3   OH2 1757   6.738   3.268   5.007
  605TIP3    H1 1758   6.810   3.316   5.049
  605TIP3    H2 1759   6.660   3.320   5.025
  606TIP3   OH2 1760   7.848   6.835   5.673
  606TIP3    H1 1761   7.887   6.769   5.617
  606TIP3    H2 1762   7.755   6.814   5.675
  607TIP3   OH2 1763   3.416   0.899   3.038
  607TIP3    H1 1764   3.375   0.814   3.019
  607TIP3    H2 1765   3.423   0.902   3.133
  608TIP3   OH2 1766   6.532   2.617   1.673
  608TIP3    H1 1767   6.479   2.617   1.593
  608TIP3    H2 1768   6.603   2.678   1.655
  609TIP3   OH2 1769   0.919   3.802   0.224
  609TIP3    H1 1770   0.932   3.856   0.302
  609TIP3    H2 1771   0.886   3.719   0.258
  610TIP3   OH2 1772   4.876   2.621   1.446
  610TIP3    H1 1773   4.793   2.668   1.453
  610TIP3    H2 1774   4.854   2.530   1.466
  611TIP3   OH2 1775   1.680   1.016   5.228
  611TIP3    H1 1776   1.711   1.104   5.208
  611TIP3    H2 1777   1.585   1.024   5.231
  612TIP3   OH2 1778   3.039   2.231   3.189
  612TIP3    H1 1779   2.953   2.272   3.185
  612TIP3    H2 1780   3.098   2.295   3.149
  613TIP3   OH2 1781   2.936   0.436   1.692
  613TIP3    H1 1782   2.905   0.351   1.661
  613TIP3    H2 1783   2.869   0.464   1.754
  614TIP3   OH2 1784   5.649   0.161   4.464
  614TIP3    H1 1785   5.618   0.224   4.529
  614TIP3    H2 1786   5.677   0.085   4.515
  615TIP3   OH2 1787   2.181   2.073   3.108
  615TIP3    H1 1788   2.135   2.011   3.164
  615TIP3    H2 1789   2.246   2.114   3.166
  616TIP3   OH2 1790   7.418   6.833   4.711
  616TIP3    H1 1791   7.397   6.756   4.657
  616TIP3    H2 1792   7.511   6.848   4.696
  617TIP3   OH2 1793   1.155   7.320   1.239
  617TIP3    H1 1794   1.104   7.239   1.233
  617TIP3    H2 1795   1.162   7.336   1.333
  618TIP3   OH2 1796   2.018   2.373   5.772
  618TIP3    H1 1797   2.023   2.383   5.867
  618TIP3    H2 1798   1.964   2.446   5.743
  619TIP3   OH2 1799   0.893   2.790   6.506
  619TIP3    H1 1800   0.832   2.833   6.565
  619TIP3    H2 1801   0.931   2.861   6.454
  620TIP3   OH2 1802   7.926   0.790   5.981
  620TIP3    H1 1803   7.832   0.810   5.981
  620TIP3    H2 1804   7.953   0.807   6.071
  621TIP3   OH2 1805   1.607   2.679   6.350
  621TIP3    H1 1806   1.701   2.694   6.361
  621TIP3    H2 1807   1.601   2.619   6.276
  622TIP3   OH2 1808   8.043   7.206   1.542
  622TIP3    H1 1809   7.999   7.277   1.588
  622TIP3    H2 1810   8.074   7.148   1.611
  623TIP3   OH2 1811   0.821   0.246   0.870
  623TIP3    H1 1812   0.891   0.292   0.824
  623TIP3    H2 1813   0.769   0.206   0.800
  624TIP3   OH2 1814   2.892   3.952   1.279
  624TIP3    H1 1815   2.835   3.968   1.355
  624TIP3    H2 1816   2.976   3.926   1.318
  625TIP3   OH2 1817   3.511   6.995   0.970
  625TIP3    H1 1818   3.503   7.084   0.937
  625TIP3    H2 1819   3.482   6.939   0.897
  626TIP3   OH2 1820   2.043   0.220   5.230
  626TIP3    H1 1821   2.102   0.257   5.164
  626TIP3    H2 1822   2.089   0.142   5.262
  627TIP3   OH2 1823   0.726   7.690   1.296
  627TIP3    H1 1824   0.785   7.618   1.272
  627TIP3    H2 1825   0.640   7.662   1.265
  628TIP3   OH2 1826   1.560   6.438   1.668
  628TIP3    H1 1827   1.606   6.486   1.599
  628TIP3    H2 1828   1.628   6.419   1.732
  629TIP3   OH2 1829   5.741   1.049   3.459
  629TIP3    H1 1830   5.718   1.071   3.369
  629TIP3    H2 1831   5.721   0.956   3.467
  630TIP3   OH2 1832   5.423   1.319   3.950
  630TIP3    H1 1833   5.413   1.399   4.000
  630TIP3    H2 1834   5.446   1.348   3.862
  631TIP3   OH2 1835   4.463   3.524   5.684
  631TIP3    H1 1836   4.557   3.535   5.699
  631TIP3    H2 1837   4.423   3.542   5.769
  632TIP3   OH2 1838   1.063   0.422   6.117
  632TIP3    H1 1839   1.118   0.500   6.125
  632TIP3    H2 1840   1.041   0.399   6.207
  633TIP3   OH2 1841   0.837   1.046   6.137
  633TIP3    H1 1842   0.756   1.003   6.166
  633TIP3    H2 1843   0.873   1.085   6.216
  634TIP3   OH2 1844   3.130   5.392   5.594
  634TIP3    H1 1845   3.094   5.361   5.511
  634TIP3    H2 1846   3.184   5.319   5.625
  635TIP3   OH2 1847   3.304   7.090   3.405
  635TIP3    H1 1848   3.266   7.071   3.319
  635TIP3    H2 1849   3.236   7.140   3.450
  636TIP3   OH2 1850   3.055   2.289   4.090
  636TIP3    H1 1851   3.034   2.309   4.181
  636TIP3    H2 1852   3.114   2.359   4.062
  637TIP3   OH2 1853   0.478   1.428   5.041
  637TIP3    H1 1854   0.490   1.523   5.030
  637TIP3    H2 1855   0.387   1.412   5.015
  638TIP3   OH2 1856   4.579   7.132   2.986
  638TIP3    H1 1857   4.553   7.068   3.053
  638TIP3    H2 1858   4.576   7.082   2.904
  639TIP3   OH2 1859   6.012   7.475   3.031
  639TIP3    H1 1860   5.930   7.438   3.063
  639TIP3    H2 1861   6.079   7.412   3.058
  640TIP3   OH2 1862   3.572   4.127   3.778
  640TIP3    H1 1863   3.626   4.085   3.712
  640TIP3    H2 1864   3.607   4.094   3.862
  641TIP3   OH2 1865   7.165   0.728   0.609
  641TIP3    H1 1866   7.089   0.672   0.593
  641TIP3    H2 1867   7.133   0.796   0.667
  642TIP3   OH2 1868   3.722   5.884   0.537
  642TIP3    H1 1869   3.784   5.813   0.546
  642TIP3    H2 1870   3.642   5.843   0.504
  643TIP3   OH2 1871   2.724   7.773   2.758
  643TIP3    H1 1872   2.652   7.747   2.816
  643TIP3    H2 1873   2.682   7.791   2.674
  644TIP3   OH2 1874   5.665   5.645   5.335
  644TIP3    H1 1875   5.629   5.564   5.299
  644TIP3    H2 1876   5.673   5.628   5.429
  645TIP3   OH2 1877   1.316   7.753   4.966
  645TIP3    H1 1878   1.332   7.725   5.056
  645TIP3    H2 1879   1.252   7.823   4.974
  646TIP3   OH2 1880   2.664   3.911   6.561
  646TIP3    H1 1881   2.577   3.944   6.582
  646TIP3    H2 1882   2.696   3.970   6.493
  647TIP3   OH2 1883   8.205   1.941   6.254
  647TIP3    H1 1884   8.255   1.864   6.279
  647TIP3    H2 1885   8.180   1.926   6.163
  648TIP3   OH2 1886   1.302   3.394   1.264
  648TIP3    H1 1887   1.262   3.345   1.335
  648TIP3    H2 1888   1.236   3.459   1.239
  649TIP3   OH2 1889   5.850   3.831   2.352
  649TIP3    H1 1890   5.860   3.926   2.357
  649TIP3    H2 1891   5.761   3.815   2.383
  650TIP3   OH2 1892   2.126   1.917   0.134
  650TIP3    H1 1893   2.201   1.883   0.086
  650TIP3    H2 1894   2.083   1.978   0.073
  651TIP3   OH2 1895   6.111   4.070   4.100
  651TIP3    H1 1896   6.096   4.014   4.024
  651TIP3    H2 1897   6.090   4.014   4.175
  652TIP3   OH2 1898   4.744   3.137   1.003
  652TIP3    H1 1899   4.663   3.123   1.052
  652TIP3    H2 1900   4.751   3.232   0.994
  653TIP3   OH2 1901   5.300   1.805   5.602
  653TIP3    H1 1902   5.330   1.772   5.518
  653TIP3    H2 1903   5.210   1.775   5.609
  654TIP3   OH2 1904   2.101   1.474   2.101
  654TIP3    H1 1905   2.064   1.430   2.025
  654TIP3    H2 1906   2.091   1.411   2.173
  655TIP3   OH2 1907   0.903   5.020   0.573
  655TIP3    H1 1908   0.970   4.951   0.572
  655TIP3    H2 1909   0.898   5.047   0.665
  656TIP3   OH2 1910   1.956   3.431   2.715
  656TIP3    H1 1911   2.049   3.430   2.735
  656TIP3    H2 1912   1.933   3.523   2.710
  657TIP3   OH2 1913   5.432   3.708   4.190
  657TIP3    H1 1914   5.449   3.667   4.106
  657TIP3    H2 1915   5.359   3.659   4.227
  658TIP3   OH2 1916   6.259   7.565   4.461
  658TIP3    H1 1917   6.208   7.633   4.417
  658TIP3    H2 1918   6.224   7.562   4.550
  659TIP3   OH2 1919   7.824   5.314   1.374
  659TIP3    H1 1920   7.881   5.238   1.373
  659TIP3    H2 1921   7.739   5.281   1.402
  660TIP3   OH2 1922   0.270   3.388   2.252
  660TIP3    H1 1923   0.316   3.328   2.194
  660TIP3    H2 1924   0.277   3.348   2.339
  661TIP3   OH2 1925   5.434   2.868   2.046
  661TIP3    H1 1926   5.517   2.864   2.094
  661TIP3    H2 1927   5.375   2.811   2.095
  662TIP3   OH2 1928   2.729   6.022   6.690
  662TIP3    H1 1929   2.652   6.075   6.709
  662TIP3    H2 1930   2.697   5.932   6.690
  663TIP3   OH2 1931   0.997   7.373   0.609
  663TIP3    H1 1932   1.001   7.397   0.516
  663TIP3    H2 1933   1.042   7.445   0.653
  664TIP3   OH2 1934   5.568   1.038   6.318
  664TIP3    H1 1935   5.478   1.065   6.301
  664TIP3    H2 1936   5.612   1.118   6.348
  665TIP3   OH2 1937   5.680   0.529   2.279
  665TIP3    H1 1938   5.724   0.475   2.214
  665TIP3    H2 1939   5.741   0.599   2.299
  666TIP3   OH2 1940   0.269   4.816   1.512
  666TIP3    H1 1941   0.241   4.725   1.515
  666TIP3    H2 1942   0.238   4.849   1.428
  667TIP3   OH2 1943   1.733   3.370   6.133
  667TIP3    H1 1944   1.790   3.424   6.078
  667TIP3    H2 1945   1.645   3.404   6.117
  668TIP3   OH2 1946   5.966   0.197   5.502
  668TIP3    H1 1947   6.006   0.112   5.520
  668TIP3    H2 1948   5.877   0.175   5.473
  669TIP3   OH2 1949   7.304   6.759   1.175
  669TIP3    H1 1950   7.365   6.827   1.145
  669TIP3    H2 1951   7.316   6.756   1.269
  670TIP3   OH2 1952   0.912   1.931   0.914
  670TIP3    H1 1953   0.893   1.968   1.001
  670TIP3    H2 1954   0.908   2.006   0.855
  671TIP3   OH2 1955   7.451   0.719   4.760
  671TIP3    H1 1956   7.489   0.784   4.819
  671TIP3    H2 1957   7.363   0.703   4.795
  672TIP3   OH2 1958   3.338   1.342   2.204
  672TIP3    H1 1959   3.327   1.250   2.230
  672TIP3    H2 1960   3.397   1.338   2.129
  673TIP3   OH2 1961   5.885   4.729   5.008
  673TIP3    H1 1962   5.825   4.699   5.076
  673TIP3    H2 1963   5.909   4.818   5.035
  674TIP3   OH2 1964   0.837   1.491   5.235
  674TIP3    H1 1965   0.931   1.506   5.244
  674TIP3    H2 1966   0.810   1.550   5.164
  675TIP3   OH2 1967   5.065   3.161   0.892
  675TIP3    H1 1968   5.110   3.177   0.974
  675TIP3    H2 1969   5.103   3.079   0.859
  676TIP3   OH2 1970   5.996   1.884   6.365
  676TIP3    H1 1971   6.081   1.840   6.357
  676TIP3    H2 1972   6.011   1.952   6.430
  677TIP3   OH2 1973   4.598   4.641   5.076
  677TIP3    H1 1974   4.684   4.600   5.069
  677TIP3    H2 1975   4.576   4.633   5.169
  678TIP3   OH2 1976   2.014   6.700   0.128
  678TIP3    H1 1977   1.963   6.761   0.181
  678TIP3    H2 1978   1.981   6.713   0.039
  679TIP3   OH2 1979   3.106   2.594   0.874
  679TIP3    H1 1980   3.171   2.564   0.938
  679TIP3    H2 1981   3.110   2.529   0.803
  680TIP3   OH2 1982   7.905   2.914   3.008
  680TIP3    H1 1983   7.981   2.950   2.962
  680TIP3    H2 1984   7.910   2.819   2.992
  681TIP3   OH2 1985   4.240   3.379   4.634
  681TIP3    H1 1986   4.218   3.300   4.682
  681TIP3    H2 1987   4.164   3.395   4.578
  682TIP3   OH2 1988   8.162   2.193   1.902
  682TIP3    H1 1989   8.109   2.232   1.972
  682TIP3    H2 1990   8.103   2.131   1.859
  683TIP3   OH2 1991   4.837   0.779   5.424
  683TIP3    H1 1992   4.804   0.807   5.339
  683TIP3    H2 1993   4.838   0.683   5.420
  684TIP3   OH2 1994   6.378   0.085   5.488
  684TIP3    H1 1995   6.418   0.080   5.574
  684TIP3    H2 1996   6.438   0.039   5.430
  685TIP3   OH2 1997   5.641   2.677   5.744
  685TIP3    H1 1998   5.724   2.675   5.697
  685TIP3    H2 1999   5.661   2.644   5.831
  686TIP3   OH2 2000   2.587   2.767   5.384
  686TIP3    H1 2001   2.533   2.735   5.457
  686TIP3    H2 2002   2.538   2.745   5.306
  687TIP3   OH2 2003   5.280   7.435   6.475
  687TIP3    H1 2004   5.249   7.349   6.500
  687TIP3    H2 2005   5.256   7.445   6.383
  688TIP3   OH2 2006   3.154   6.571   4.402
  688TIP3    H1 2007   3.213   6.637   4.439
  688TIP3    H2 2008   3.206   6.527   4.335
  689TIP3   OH2 2009   5.803   4.061   1.076
  689TIP3    H1 2010   5.893   4.073   1.105
  689TIP3    H2 2011   5.777   4.146   1.041
  690TIP3   OH2 2012   1.393   5.486   6.348
  690TIP3    H1 2013   1.461   5.538   6.391
  690TIP3    H2 2014   1.419   5.395   6.363
  691TIP3   OH2 2015   1.349   6.593   4.457
  691TIP3    H1 2016   1.318   6.657   4.521
  691TIP3    H2 2017   1.429   6.557   4.496
  692TIP3   OH2 2018   0.375   3.122   4.361
  692TIP3    H1 2019   0.315   3.190   4.330
  692TIP3    H2 2020   0.377   3.057   4.290
  693TIP3   OH2 2021   3.601   7.800   2.477
  693TIP3    H1 2022   3.629   7.781   2.566
  693TIP3    H2 2023   3.657   7.746   2.422
  694TIP3   OH2 2024   5.284   4.693   1.064
  694TIP3    H1 2025   5.318   4.695   0.975
  694TIP3    H2 2026   5.192   4.718   1.056
  695TIP3   OH2 2027   5.853   7.271   4.661
  695TIP3    H1 2028   5.948   7.283   4.664
  695TIP3    H2 2029   5.841   7.176   4.662
  696TIP3   OH2 2030   5.017   5.663   4.599
  696TIP3    H1 2031   4.964   5.612   4.538
  696TIP3    H2 2032   5.005   5.619   4.683
  697TIP3   OH2 2033   6.563   6.987   5.484
  697TIP3    H1 2034   6.641   7.018   5.439
  697TIP3    H2 2035   6.584   6.994   5.577
  698TIP3   OH2 2036   1.883   3.361   4.149
  698TIP3    H1 2037   1.798   3.339   4.109
  698TIP3    H2 2038   1.860   3.415   4.224
  699TIP3   OH2 2039   2.735   7.124   0.525
  699TIP3    H1 2040   2.751   7.048   0.581
  699TIP3    H2 2041   2.811   7.181   0.539
  700TIP3   OH2 2042   7.501   6.044   5.000
  700TIP3    H1 2043   7.523   6.063   4.909
  700TIP3    H2 2044   7.521   5.951   5.011
  701TIP3   OH2 2045   2.534   3.350   3.804
  701TIP3    H1 2046   2.513   3.261   3.774
  701TIP3    H2 2047   2.469   3.406   3.762
  702TIP3   OH2 2048   3.428   4.939   1.879
  702TIP3    H1 2049   3.397   4.913   1.792
  702TIP3    H2 2050   3.348   4.958   1.928
  703TIP3   OH2 2051   1.676   6.666   6.513
  703TIP3    H1 2052   1.742   6.632   6.452
  703TIP3    H2 2053   1.661   6.756   6.483
  704TIP3   OH2 2054   7.705   2.110   2.844
  704TIP3    H1 2055   7.664   2.032   2.806
  704TIP3    H2 2056   7.778   2.130   2.787
  705TIP3   OH2 2057   1.380   0.204   3.591
  705TIP3    H1 2058   1.402   0.115   3.618
  705TIP3    H2 2059   1.464   0.242   3.564
  706TIP3   OH2 2060   5.868   4.961   0.628
  706TIP3    H1 2061   5.836   4.884   0.675
  706TIP3    H2 2062   5.922   5.008   0.692
  707TIP3   OH2 2063   3.883   1.614   3.199
  707TIP3    H1 2064   3.812   1.589   3.258
  707TIP3    H2 2065   3.894   1.538   3.142
  708TIP3   OH2 2066   1.714   6.680   2.732
  708TIP3    H1 2067   1.711   6.680   2.636
  708TIP3    H2 2068   1.713   6.587   2.756
  709TIP3   OH2 2069   2.818   0.200   3.560
  709TIP3    H1 2070   2.842   0.263   3.492
  709TIP3    H2 2071   2.893   0.142   3.567
  710TIP3   OH2 2072   7.819   0.776   6.634
  710TIP3    H1 2073   7.825   0.858   6.584
  710TIP3    H2 2074   7.880   0.788   6.707
  711TIP3   OH2 2075   5.050   3.783   3.465
  711TIP3    H1 2076   4.954   3.787   3.466
  711TIP3    H2 2077   5.074   3.756   3.554
  712TIP3   OH2 2078   7.866   2.012   1.517
  712TIP3    H1 2079   7.815   2.086   1.485
  712TIP3    H2 2080   7.832   1.937   1.469
  713TIP3   OH2 2081   5.898   6.737   3.655
  713TIP3    H1 2082   5.938   6.792   3.587
  713TIP3    H2 2083   5.946   6.758   3.735
  714TIP3   OH2 2084   2.516   3.666   6.226
  714TIP3    H1 2085   2.510   3.570   6.226
  714TIP3    H2 2086   2.603   3.684   6.262
  715TIP3   OH2 2087   5.650   6.518   2.186
  715TIP3    H1 2088   5.666   6.546   2.276
  715TIP3    H2 2089   5.638   6.599   2.138
  716TIP3   OH2 2090   2.664   0.343   2.120
  716TIP3    H1 2091   2.693   0.252   2.125
  716TIP3    H2 2092   2.727   0.391   2.173
  717TIP3   OH2 2093   1.216   3.072   3.090
  717TIP3    H1 2094   1.144   3.130   3.115
  717TIP3    H2 2095   1.229   3.016   3.167
  718TIP3   OH2 2096   7.036   6.295   1.411
  718TIP3    H1 2097   7.046   6.245   1.330
  718TIP3    H2 2098   7.123   6.294   1.451
  719TIP3   OH2 2099   2.436   0.905   0.586
  719TIP3    H1 2100   2.501   0.948   0.642
  719TIP3    H2 2101   2.417   0.822   0.631
  720TIP3   OH2 2102   1.967   1.685   4.376
  720TIP3    H1 2103   1.887   1.665   4.424
  720TIP3    H2 2104   1.986   1.606   4.326
  721TIP3   OH2 2105   6.132   6.117   3.227
  721TIP3    H1 2106   6.068   6.142   3.293
  721TIP3    H2 2107   6.128   6.021   3.224
  722TIP3   OH2 2108   6.990   4.660   5.751
  722TIP3    H1 2109   6.969   4.586   5.694
  722TIP3    H2 2110   6.974   4.628   5.839
  723TIP3   OH2 2111   8.209   5.623   2.016
  723TIP3    H1 2112   8.183   5.539   2.052
  723TIP3    H2 2113   8.287   5.604   1.964
  724TIP3   OH2 2114   0.426   6.119   6.398
  724TIP3    H1 2115   0.453   6.198   6.351
  724TIP3    H2 2116   0.507   6.074   6.419
  725TIP3   OH2 2117   7.142   4.802   6.023
  725TIP3    H1 2118   7.182   4.788   6.109
  725TIP3    H2 2119   7.214   4.793   5.961
  726TIP3   OH2 2120   1.214   0.602   2.551
  726TIP3    H1 2121   1.283   0.575   2.491
  726TIP3    H2 2122   1.238   0.562   2.635
  727TIP3   OH2 2123   0.497   6.783   5.095
  727TIP3    H1 2124   0.496   6.688   5.108
  727TIP3    H2 2125   0.444   6.817   5.167
  728TIP3   OH2 2126   7.536   6.889   1.053
  728TIP3    H1 2127   7.516   6.815   0.997
  728TIP3    H2 2128   7.549   6.962   0.993
  729TIP3   OH2 2129   2.392   1.944   4.535
  729TIP3    H1 2130   2.320   2.006   4.546
  729TIP3    H2 2131   2.382   1.884   4.610
  730TIP3   OH2 2132   0.010   0.335   2.526
  730TIP3    H1 2133   0.024   0.278   2.450
  730TIP3    H2 2134   0.024   0.423   2.492
  731TIP3   OH2 2135   2.113   7.010   5.179
  731TIP3    H1 2136   2.208   7.023   5.178
  731TIP3    H2 2137   2.080   7.075   5.240
  732TIP3   OH2 2138   3.956   4.258   0.853
  732TIP3    H1 2139   3.908   4.179   0.829
  732TIP3    H2 2140   3.940   4.318   0.780
  733TIP3   OH2 2141   6.216   2.483   3.122
  733TIP3    H1 2142   6.236   2.540   3.048
  733TIP3    H2 2143   6.270   2.516   3.194
  734TIP3   OH2 2144   6.467   5.164   0.770
  734TIP3    H1 2145   6.495   5.253   0.789
  734TIP3    H2 2146   6.509   5.143   0.687
  735TIP3   OH2 2147   0.607   1.703   0.177
  735TIP3    H1 2148   0.691   1.660   0.165
  735TIP3    H2 2149   0.603   1.769   0.108
  736TIP3   OH2 2150   1.653   0.051   3.909
  736TIP3    H1 2151   1.623   0.037   3.999
  736TIP3    H2 2152   1.747   0.062   3.917
  737TIP3   OH2 2153   3.936   0.960   5.610
  737TIP3    H1 2154   4.026   0.927   5.613
  737TIP3    H2 2155   3.918   0.971   5.516
  738TIP3   OH2 2156   4.297   5.577   6.174
  738TIP3    H1 2157   4.385   5.544   6.189
  738TIP3    H2 2158   4.244   5.538   6.244
  739TIP3   OH2 2159   4.201   5.208   5.658
  739TIP3    H1 2160   4.140   5.235   5.727
  739TIP3    H2 2161   4.249   5.288   5.636
  740TIP3   OH2 2162   6.112   0.029   5.263
  740TIP3    H1 2163   6.127   0.029   5.358
  740TIP3    H2 2164   6.093   0.121   5.242
  741TIP3   OH2 2165   6.159   2.576   0.339
  741TIP3    H1 2166   6.170   2.621   0.423
  741TIP3    H2 2167   6.221   2.503   0.343
  742TIP3   OH2 2168   3.334   4.097   0.070
  742TIP3    H1 2169   3.308   4.099  -0.023
  742TIP3    H2 2170   3.426   4.072   0.068
  743TIP3   OH2 2171   2.815   1.900   3.667
  743TIP3    H1 2172   2.837   1.868   3.579
  743TIP3    H2 2173   2.847   1.832   3.726
  744TIP3   OH2 2174   2.898   6.379   1.524
  744TIP3    H1 2175   2.981   6.426   1.537
  744TIP3    H2 2176   2.856   6.424   1.451
  745TIP3   OH2 2177   1.614   0.669   4.893
  745TIP3    H1 2178   1.677   0.646   4.825
  745TIP3    H2 2179   1.632   0.761   4.912
  746TIP3   OH2 2180   5.733   3.335   5.360
  746TIP3    H1 2181   5.686   3.392   5.299
  746TIP3    H2 2182   5.778   3.272   5.304
  747TIP3   OH2 2183   5.771   1.920   0.094
  747TIP3    H1 2184   5.695   1.967   0.060
  747TIP3    H2 2185   5.753   1.912   0.188
  748TIP3   OH2 2186   2.263   4.749   0.529
  748TIP3    H1 2187   2.350   4.717   0.552
  748TIP3    H2 2188   2.245   4.711   0.443
  749TIP3   OH2 2189   4.459   5.976   2.774
  749TIP3    H1 2190   4.408   5.909   2.730
  749TIP3    H2 2191   4.532   5.929   2.813
  750TIP3   OH2 2192   6.041   6.458   5.952
  750TIP3    H1 2193   6.060   6.445   6.045
  750TIP3    H2 2194   6.114   6.416   5.906
  751TIP3   OH2 2195   5.662   2.934   3.721
  751TIP3    H1 2196   5.600   2.865   3.744
  751TIP3    H2 2197   5.721   2.939   3.796
  752TIP3   OH2 2198   2.405   7.222   1.786
  752TIP3    H1 2199   2.375   7.175   1.864
  752TIP3    H2 2200   2.369   7.172   1.713
  753TIP3   OH2 2201   4.306   3.357   2.856
  753TIP3    H1 2202   4.330   3.334   2.766
  753TIP3    H2 2203   4.374   3.317   2.910
  754TIP3   OH2 2204   1.240   0.662   2.998
  754TIP3    H1 2205   1.163   0.678   2.944
  754TIP3    H2 2206   1.291   0.597   2.949
  755TIP3   OH2 2207   5.622   6.121   6.621
  755TIP3    H1 2208   5.610   6.211   6.589
  755TIP3    H2 2209   5.658   6.132   6.709
  756TIP3   OH2 2210   4.841   4.909   0.532
  756TIP3    H1 2211   4.775   4.887   0.466
  756TIP3    H2 2212   4.867   4.824   0.568
  757TIP3   OH2 2213   5.124   7.345   0.345
  757TIP3    H1 2214   5.065   7.396   0.290
  757TIP3    H2 2215   5.208   7.348   0.299
  758TIP3   OH2 2216   6.557   0.771   4.083
  758TIP3    H1 2217   6.546   0.676   4.087
  758TIP3    H2 2218   6.599   0.794   4.166
  759TIP3   OH2 2219   3.769   3.474   5.458
  759TIP3    H1 2220   3.772   3.569   5.467
  759TIP3    H2 2221   3.803   3.458   5.370
  760TIP3   OH2 2222   8.269   3.610   1.278
  760TIP3    H1 2223   8.352   3.625   1.323
  760TIP3    H2 2224   8.203   3.612   1.348
  761TIP3   OH2 2225   4.835   0.628   1.284
  761TIP3    H1 2226   4.904   0.628   1.351
  761TIP3    H2 2227   4.880   0.600   1.204
  762TIP3   OH2 2228   6.258   1.749   0.675
  762TIP3    H1 2229   6.297   1.818   0.729
  762TIP3    H2 2230   6.168   1.743   0.706
  763TIP3   OH2 2231   3.133   1.671   3.335
  763TIP3    H1 2232   3.183   1.665   3.417
  763TIP3    H2 2233   3.165   1.751   3.293
  764TIP3   OH2 2234   4.695   0.864   4.450
  764TIP3    H1 2235   4.628   0.823   4.396
  764TIP3    H2 2236   4.775   0.815   4.430
  765TIP3   OH2 2237   0.643   5.075   6.675
  765TIP3    H1 2238   0.559   5.030   6.671
  765TIP3    H2 2239   0.708   5.007   6.656
  766TIP3   OH2 2240   1.602   5.047   0.093
  766TIP3    H1 2241   1.661   5.109   0.137
  766TIP3    H2 2242   1.652   5.015   0.018
  767TIP3   OH2 2243   7.058   4.285   6.191
  767TIP3    H1 2244   7.051   4.208   6.135
  767TIP3    H2 2245   7.144   4.322   6.169
  768TIP3   OH2 2246   5.615   0.144   6.487
  768TIP3    H1 2247   5.567   0.070   6.524
  768TIP3    H2 2248   5.582   0.152   6.398
  769TIP3   OH2 2249   7.379   4.014   2.106
  769TIP3    H1 2250   7.449   3.993   2.168
  769TIP3    H2 2251   7.334   4.088   2.145
  770TIP3   OH2 2252   6.479   0.802   5.173
  770TIP3    H1 2253   6.415   0.867   5.204
  770TIP3    H2 2254   6.447   0.776   5.087
  771TIP3   OH2 2255   4.812   5.708   2.430
  771TIP3    H1 2256   4.806   5.687   2.337
  771TIP3    H2 2257   4.803   5.803   2.435
  772TIP3   OH2 2258   3.732   2.845   5.044
  772TIP3    H1 2259   3.715   2.754   5.019
  772TIP3    H2 2260   3.828   2.851   5.049
  773TIP3   OH2 2261   4.154   1.860   0.773
  773TIP3    H1 2262   4.233   1.833   0.727
  773TIP3    H2 2263   4.088   1.867   0.704
  774TIP3   OH2 2264   0.383   6.049   2.564
  774TIP3    H1 2265   0.433   5.968   2.555
  774TIP3    H2 2266   0.300   6.022   2.603
  775TIP3   OH2 2267   4.722   4.392   0.539
  775TIP3    H1 2268   4.810   4.401   0.577
  775TIP3    H2 2269   4.676   4.472   0.565
  776TIP3   OH2 2270   2.039   3.631   5.194
  776TIP3    H1 2271   2.007   3.651   5.106
  776TIP3    H2 2272   2.036   3.535   5.200
  777TIP3   OH2 2273   5.458   6.981   5.105
  777TIP3    H1 2274   5.540   6.937   5.081
  777TIP3    H2 2275   5.448   6.965   5.199
  778TIP3   OH2 2276   4.905   5.473   3.955
  778TIP3    H1 2277   4.934   5.564   3.964
  778TIP3    H2 2278   4.980   5.428   3.916
  779TIP3   OH2 2279   2.810   6.500   6.229
  779TIP3    H1 2280   2.779   6.422   6.275
  779TIP3    H2 2281   2.751   6.509   6.155
  780TIP3   OH2 2282   6.415   4.750   4.393
  780TIP3    H1 2283   6.377   4.677   4.443
  780TIP3    H2 2284   6.339   4.802   4.366
  781TIP3   OH2 2285   7.060   7.363   0.810
  781TIP3    H1 2286   7.012   7.401   0.884
  781TIP3    H2 2287   7.058   7.269   0.826
  782TIP3   OH2 2288   7.138   2.178   5.613
  782TIP3    H1 2289   7.126   2.114   5.543
  782TIP3    H2 2290   7.213   2.230   5.585
  783TIP3   OH2 2291   0.767   0.830   3.761
  783TIP3    H1 2292   0.719   0.779   3.696
  783TIP3    H2 2293   0.816   0.895   3.710
  784TIP3   OH2 2294   5.597   7.313   2.458
  784TIP3    H1 2295   5.614   7.348   2.546
  784TIP3    H2 2296   5.674   7.337   2.407
  785TIP3   OH2 2297   0.065   4.696   1.889
  785TIP3    H1 2298   0.012   4.695   1.810
  785TIP3    H2 2299   0.026   4.630   1.946
  786TIP3   OH2 2300   1.854   5.144   5.746
  786TIP3    H1 2301   1.810   5.097   5.817
  786TIP3    H2 2302   1.880   5.076   5.685
  787TIP3   OH2 2303   2.631   5.816   0.062
  787TIP3    H1 2304   2.696   5.765   0.013
  787TIP3    H2 2305   2.678   5.846   0.140
  788TIP3   OH2 2306   4.224   5.864   6.740
  788TIP3    H1 2307   4.234   5.833   6.650
  788TIP3    H2 2308   4.129   5.869   6.753
  789TIP3   OH2 2309   7.223   3.951   1.253
  789TIP3    H1 2310   7.133   3.925   1.230
  789TIP3    H2 2311   7.212   4.033   1.302
  790TIP3   OH2 2312   4.130   0.401   5.214
  790TIP3    H1 2313   4.064   0.436   5.273
  790TIP3    H2 2314   4.129   0.461   5.139
  791TIP3   OH2 2315   5.312   5.058   0.194
  791TIP3    H1 2316   5.382   4.994   0.204
  791TIP3    H2 2317   5.249   5.016   0.136
  792TIP3   OH2 2318   1.845   3.758   3.394
  792TIP3    H1 2319   1.931   3.788   3.364
  792TIP3    H2 2320   1.782   3.807   3.341
  793TIP3   OH2 2321   6.289   1.487   6.058
  793TIP3    H1 2322   6.217   1.473   5.996
  793TIP3    H2 2323   6.293   1.582   6.069
  794TIP3   OH2 2324   6.081   3.342   5.368
  794TIP3    H1 2325   6.038   3.394   5.435
  794TIP3    H2 2326   6.053   3.381   5.285
  795TIP3   OH2 2327   2.224   1.629   4.169
  795TIP3    H1 2328   2.156   1.574   4.130
  795TIP3    H2 2329   2.186   1.660   4.251
  796TIP3   OH2 2330   1.537   3.673   5.812
  796TIP3    H1 2331   1.602   3.699   5.747
  796TIP3    H2 2332   1.571   3.709   5.895
  797TIP3   OH2 2333   7.702   7.387   5.329
  797TIP3    H1 2334   7.640   7.315   5.318
  797TIP3    H2 2335   7.674   7.430   5.410
  798TIP3   OH2 2336   4.533   6.351   1.702
  798TIP3    H1 2337   4.450   6.326   1.741
  798TIP3    H2 2338   4.578   6.401   1.770
  799TIP3   OH2 2339   7.045   0.545   5.456
  799TIP3    H1 2340   6.959   0.515   5.429
  799TIP3    H2 2341   7.100   0.532   5.378
  800TIP3   OH2 2342   5.107   6.850   0.001
  800TIP3    H1 2343   5.019   6.883   0.024
  800TIP3    H2 2344   5.117   6.770   0.052
  801TIP3   OH2 2345   1.976   0.465   4.065
  801TIP3    H1 2346   2.021   0.384   4.040
  801TIP3    H2 2347   1.904   0.435   4.121
  802TIP3   OH2 2348   6.465   6.424   5.395
  802TIP3    H1 2349   6.444   6.330   5.391
  802TIP3    H2 2350   6.542   6.429   5.451
  803TIP3   OH2 2351   2.591   5.169   1.190
  803TIP3    H1 2352   2.578   5.115   1.267
  803TIP3    H2 2353   2.533   5.244   1.202
  804TIP3   OH2 2354   2.947   4.266   0.107
  804TIP3    H1 2355   2.968   4.203   0.175
  804TIP3    H2 2356   3.027   4.319   0.098
  805TIP3   OH2 2357   4.259   0.147   3.925
  805TIP3    H1 2358   4.301   0.224   3.887
  805TIP3    H2 2359   4.252   0.167   4.018
  806TIP3   OH2 2360   0.800   4.822   6.664
  806TIP3    H1 2361   0.882   4.825   6.615
  806TIP3    H2 2362   0.737   4.784   6.602
  807TIP3   OH2 2363   1.750   1.305   4.301
  807TIP3    H1 2364   1.661   1.286   4.273
  807TIP3    H2 2365   1.740   1.368   4.372
  808TIP3   OH2 2366   4.906   2.699   0.761
  808TIP3    H1 2367   4.859   2.623   0.796
  808TIP3    H2 2368   4.866   2.774   0.804
  809TIP3   OH2 2369   7.249   4.220   2.221
  809TIP3    H1 2370   7.210   4.220   2.308
  809TIP3    H2 2371   7.217   4.301   2.180
  810TIP3   OH2 2372   4.040   0.838   4.552
  810TIP3    H1 2373   3.979   0.786   4.605
  810TIP3    H2 2374   3.994   0.921   4.538
  811TIP3   OH2 2375   6.452   1.254   1.446
  811TIP3    H1 2376   6.472   1.170   1.486
  811TIP3    H2 2377   6.443   1.235   1.353
  812TIP3   OH2 2378   5.265   1.898   2.992
  812TIP3    H1 2379   5.260   1.803   2.987
  812TIP3    H2 2380   5.291   1.916   3.083
  813TIP3   OH2 2381   1.752   2.196   5.600
  813TIP3    H1 2382   1.698   2.264   5.641
  813TIP3    H2 2383   1.747   2.122   5.661
  814TIP3   OH2 2384   0.529   7.533   4.660
  814TIP3    H1 2385   0.615   7.520   4.699
  814TIP3    H2 2386   0.510   7.626   4.674
  815TIP3   OH2 2387   4.715   5.962   3.886
  815TIP3    H1 2388   4.645   5.938   3.947
  815TIP3    H2 2389   4.679   6.036   3.836
  816TIP3   OH2 2390   6.595   2.255   2.372
  816TIP3    H1 2391   6.610   2.330   2.429
  816TIP3    H2 2392   6.507   2.269   2.337
  817TIP3   OH2 2393   3.517   2.861   5.526
  817TIP3    H1 2394   3.544   2.847   5.617
  817TIP3    H2 2395   3.421   2.865   5.530
  818TIP3   OH2 2396   5.583   3.150   2.624
  818TIP3    H1 2397   5.637   3.123   2.699
  818TIP3    H2 2398   5.642   3.201   2.569
  819TIP3   OH2 2399   3.765   5.839   3.835
  819TIP3    H1 2400   3.739   5.747   3.847
  819TIP3    H2 2401   3.741   5.881   3.917
  820TIP3   OH2 2402   7.341   4.959   3.014
  820TIP3    H1 2403   7.435   4.973   3.021
  820TIP3    H2 2404   7.318   4.906   3.090
  821TIP3   OH2 2405   6.268   4.381   3.382
  821TIP3    H1 2406   6.246   4.474   3.386
  821TIP3    H2 2407   6.184   4.338   3.366
  822TIP3   OH2 2408   1.574   4.826   5.910
  822TIP3    H1 2409   1.609   4.915   5.909
  822TIP3    H2 2410   1.630   4.779   5.972
  823TIP3   OH2 2411   6.738   1.510   2.693
  823TIP3    H1 2412   6.701   1.441   2.748
  823TIP3    H2 2413   6.745   1.470   2.606
  824TIP3   OH2 2414   1.710   5.944   4.886
  824TIP3    H1 2415   1.739   5.912   4.801
  824TIP3    H2 2416   1.615   5.946   4.880
  825TIP3   OH2 2417   3.884   1.283   0.818
  825TIP3    H1 2418   3.937   1.322   0.889
  825TIP3    H2 2419   3.886   1.189   0.836
  826TIP3   OH2 2420   6.303   4.601   6.103
  826TIP3    H1 2421   6.318   4.683   6.151
  826TIP3    H2 2422   6.208   4.598   6.090
  827TIP3   OH2 2423   7.608   2.444   5.562
  827TIP3    H1 2424   7.638   2.530   5.534
  827TIP3    H2 2425   7.554   2.460   5.639
  828TIP3   OH2 2426   2.164   0.547   2.335
  828TIP3    H1 2427   2.109   0.497   2.395
  828TIP3    H2 2428   2.217   0.603   2.392
  829TIP3   OH2 2429   1.237   3.308   0.764
  829TIP3    H1 2430   1.165   3.278   0.819
  829TIP3    H2 2431   1.310   3.324   0.824
  830TIP3   OH2 2432   6.251   1.536   4.807
  830TIP3    H1 2433   6.214   1.613   4.764
  830TIP3    H2 2434   6.251   1.468   4.740
  831TIP3   OH2 2435   6.558   6.491   0.140
  831TIP3    H1 2436   6.529   6.446   0.219
  831TIP3    H2 2437   6.613   6.427   0.095
  832TIP3   OH2 2438   7.028   3.179   3.627
  832TIP3    H1 2439   7.079   3.172   3.547
  832TIP3    H2 2440   7.047   3.267   3.660
  833TIP3   OH2 2441   5.846   1.830   1.927
  833TIP3    H1 2442   5.833   1.819   2.021
  833TIP3    H2 2443   5.757   1.828   1.890
  834TIP3   OH2 2444   0.102   3.880   4.814
  834TIP3    H1 2445   0.077   3.968   4.841
  834TIP3    H2 2446   0.056   3.822   4.874
  835TIP3   OH2 2447   6.974   4.482   1.576
  835TIP3    H1 2448   7.006   4.567   1.546
  835TIP3    H2 2449   6.880   4.495   1.590
  836TIP3   OH2 2450   7.764   2.045   1.980
  836TIP3    H1 2451   7.731   2.011   1.897
  836TIP3    H2 2452   7.848   2.001   1.992
  837TIP3   OH2 2453   8.092   4.721   4.488
  837TIP3    H1 2454   8.059   4.672   4.564
  837TIP3    H2 2455   8.186   4.731   4.506
  838TIP3   OH2 2456   4.460   4.446   5.610
  838TIP3    H1 2457   4.454   4.531   5.654
  838TIP3    H2 2458   4.369   4.423   5.589
  839TIP3   OH2 2459   7.993   0.208   1.745
  839TIP3    H1 2460   7.925   0.141   1.739
  839TIP3    H2 2461   8.010   0.234   1.655
  840TIP3   OH2 2462   7.535   1.915   0.813
  840TIP3    H1 2463   7.595   1.902   0.886
  840TIP3    H2 2464   7.587   1.963   0.748
  841TIP3   OH2 2465   6.928   7.592   4.375
  841TIP3    H1 2466   6.864   7.525   4.350
  841TIP3    H2 2467   6.894   7.673   4.337
  842TIP3   OH2 2468   1.849   6.010   6.191
  842TIP3    H1 2469   1.942   6.016   6.167
  842TIP3    H2 2470   1.802   6.013   6.108
  843TIP3   OH2 2471   7.081   3.393   4.999
  843TIP3    H1 2472   7.054   3.303   4.982
  843TIP3    H2 2473   7.019   3.424   5.065
  844TIP3   OH2 2474   7.568   4.709   0.463
  844TIP3    H1 2475   7.611   4.647   0.522
  844TIP3    H2 2476   7.632   4.724   0.393
  845TIP3   OH2 2477   3.880   4.493   4.379
  845TIP3    H1 2478   3.825   4.481   4.302
  845TIP3    H2 2479   3.825   4.542   4.440
  846TIP3   OH2 2480   6.947   0.072   2.555
  846TIP3    H1 2481   7.018   0.069   2.620
  846TIP3    H2 2482   6.887   0.138   2.588
  847TIP3   OH2 2483   6.025   1.352   2.652
  847TIP3    H1 2484   5.936   1.317   2.645
  847TIP3    H2 2485   6.020   1.418   2.722
  848TIP3   OH2 2486   5.549   0.131   5.893
  848TIP3    H1 2487   5.626   0.080   5.867
  848TIP3    H2 2488   5.476   0.087   5.851
  849TIP3   OH2 2489   7.280   7.420   1.428
  849TIP3    H1 2490   7.322   7.494   1.471
  849TIP3    H2 2491   7.196   7.410   1.473
  850TIP3   OH2 2492   4.357   2.759   2.626
  850TIP3    H1 2493   4.402   2.719   2.701
  850TIP3    H2 2494   4.273   2.787   2.662
  851TIP3   OH2 2495   6.568   3.043   4.389
  851TIP3    H1 2496   6.607   2.968   4.344
  851TIP3    H2 2497   6.477   3.044   4.358
  852TIP3   OH2 2498   2.461   2.255   6.346
  852TIP3    H1 2499   2.373   2.292   6.350
  852TIP3    H2 2500   2.517   2.322   6.386
  853TIP3   OH2 2501   3.562   5.674   1.654
  853TIP3    H1 2502   3.636   5.621   1.622
  853TIP3    H2 2503   3.506   5.686   1.578
  854TIP3   OH2 2504   3.914   1.370   1.956
  854TIP3    H1 2505   3.818   1.371   1.959
  854TIP3    H2 2506   3.940   1.314   2.029
  855TIP3   OH2 2507   6.306   0.215   6.514
  855TIP3    H1 2508   6.328   0.141   6.458
  855TIP3    H2 2509   6.227   0.253   6.475
  856TIP3   OH2 2510   2.547   7.463   5.731
  856TIP3    H1 2511   2.467   7.514   5.722
  856TIP3    H2 2512   2.585   7.461   5.644
  857TIP3   OH2 2513   6.647   1.986   4.027
  857TIP3    H1 2514   6.581   1.917   4.020
  857TIP3    H2 2515   6.597   2.068   4.028
  858TIP3   OH2 2516   7.530   2.006   3.513
  858TIP3    H1 2517   7.445   2.007   3.468
  858TIP3    H2 2518   7.552   2.099   3.524
  859TIP3   OH2 2519   6.389   6.755   4.175
  859TIP3    H1 2520   6.357   6.758   4.265
  859TIP3    H2 2521   6.355   6.835   4.135
  860TIP3   OH2 2522   6.163   1.246   2.458
  860TIP3    H1 2523   6.100   1.276   2.523
  860TIP3    H2 2524   6.204   1.169   2.498
  861TIP3   OH2 2525   6.902   7.742   6.614
  861TIP3    H1 2526   6.882   7.669   6.557
  861TIP3    H2 2527   6.998   7.747   6.614
  862TIP3   OH2 2528   6.568   3.028   6.767
  862TIP3    H1 2529   6.518   3.065   6.839
  862TIP3    H2 2530   6.572   3.097   6.701
  863TIP3   OH2 2531   4.268   7.115   0.063
  863TIP3    H1 2532   4.264   7.048  -0.005
  863TIP3    H2 2533   4.181   7.113   0.103
  864TIP3   OH2 2534   2.472   3.587   1.736
  864TIP3    H1 2535   2.556   3.628   1.717
  864TIP3    H2 2536   2.494   3.510   1.789
  865TIP3   OH2 2537   6.102   0.976   1.838
  865TIP3    H1 2538   6.021   0.999   1.882
  865TIP3    H2 2539   6.152   0.927   1.904
  866TIP3   OH2 2540   1.397   1.780   5.926
  866TIP3    H1 2541   1.328   1.715   5.911
  866TIP3    H2 2542   1.472   1.747   5.876
  867TIP3   OH2 2543   0.352   3.530   2.884
  867TIP3    H1 2544   0.345   3.625   2.868
  867TIP3    H2 2545   0.343   3.491   2.797
  868TIP3   OH2 2546   4.948   0.558   1.050
  868TIP3    H1 2547   4.953   0.468   1.081
  868TIP3    H2 2548   5.011   0.561   0.978
  869TIP3   OH2 2549   4.234   0.619   2.455
  869TIP3    H1 2550   4.285   0.622   2.374
  869TIP3    H2 2551   4.280   0.556   2.510
  870TIP3   OH2 2552   5.331   2.039   1.396
  870TIP3    H1 2553   5.275   2.109   1.361
  870TIP3    H2 2554   5.354   1.987   1.319
  871TIP3   OH2 2555   2.960   5.952   5.088
  871TIP3    H1 2556   3.017   5.891   5.134
  871TIP3    H2 2557   2.873   5.933   5.121
  872TIP3   OH2 2558   0.973   7.590   2.712
  872TIP3    H1 2559   0.899   7.542   2.750
  872TIP3    H2 2560   0.956   7.589   2.618
  873TIP3   OH2 2561   4.146   5.913   1.880
  873TIP3    H1 2562   4.108   5.963   1.952
  873TIP3    H2 2563   4.074   5.857   1.849
  874TIP3   OH2 2564   1.664   4.808   0.789
  874TIP3    H1 2565   1.747   4.846   0.818
  874TIP3    H2 2566   1.685   4.716   0.772
  875TIP3   OH2 2567   2.128   6.194   0.355
  875TIP3    H1 2568   2.170   6.196   0.270
  875TIP3    H2 2569   2.193   6.229   0.416
  876TIP3   OH2 2570   0.760   6.953   6.104
  876TIP3    H1 2571   0.825   6.891   6.137
  876TIP3    H2 2572   0.768   6.949   6.009
  877TIP3   OH2 2573   6.852   3.007   5.140
  877TIP3    H1 2574   6.836   3.069   5.211
  877TIP3    H2 2575   6.775   2.949   5.140
  878TIP3   OH2 2576   8.203   6.874   3.091
  878TIP3    H1 2577   8.133   6.938   3.099
  878TIP3    H2 2578   8.167   6.805   3.035
  879TIP3   OH2 2579   1.869   2.817   1.575
  879TIP3    H1 2580   1.833   2.891   1.623
  879TIP3    H2 2581   1.958   2.845   1.552
  880TIP3   OH2 2582   0.750   5.481   4.834
  880TIP3    H1 2583   0.748   5.572   4.802
  880TIP3    H2 2584   0.658   5.455   4.836
  881TIP3   OH2 2585   3.639   0.926   2.391
  881TIP3    H1 2586   3.567   0.989   2.391
  881TIP3    H2 2587   3.686   0.944   2.472
  882TIP3   OH2 2588   0.491   1.730   4.913
  882TIP3    H1 2589   0.547   1.806   4.924
  882TIP3    H2 2590   0.486   1.717   4.819
  883TIP3   OH2 2591   3.173   7.060   1.533
  883TIP3    H1 2592   3.232   7.135   1.528
  883TIP3    H2 2593   3.086   7.098   1.523
  884TIP3   OH2 2594   2.062   2.567   6.447
  884TIP3    H1 2595   2.124   2.628   6.407
  884TIP3    H2 2596   2.082   2.571   6.541
  885TIP3   OH2 2597   7.442   6.880   3.586
  885TIP3    H1 2598   7.394   6.810   3.542
  885TIP3    H2 2599   7.398   6.960   3.560
  886TIP3   OH2 2600   0.027   7.073   1.340
  886TIP3    H1 2601   0.060   7.048   1.254
  886TIP3    H2 2602  -0.011   6.993   1.376
  887TIP3   OH2 2603   1.510   2.576   2.649
  887TIP3    H1 2604   1.503   2.653   2.593
  887TIP3    H2 2605   1.601   2.547   2.640
  888TIP3   OH2 2606   5.748   5.534   1.609
  888TIP3    H1 2607   5.775   5.602   1.671
  888TIP3    H2 2608   5.736   5.456   1.663
  889TIP3   OH2 2609   2.631   6.461   1.707
  889TIP3    H1 2610   2.707   6.441   1.762
  889TIP3    H2 2611   2.654   6.542   1.663
  890TIP3   OH2 2612   6.689   3.402   2.667
  890TIP3    H1 2613   6.668   3.420   2.575
  890TIP3    H2 2614   6.678   3.308   2.676
  891TIP3   OH2 2615   1.931   1.468   5.204
  891TIP3    H1 2616   1.898   1.484   5.115
  891TIP3    H2 2617   2.026   1.479   5.196
  892TIP3   OH2 2618   3.912   3.392   4.751
  892TIP3    H1 2619   3.950   3.406   4.665
  892TIP3    H2 2620   3.963   3.322   4.790
  893TIP3   OH2 2621   8.035   2.646   5.873
  893TIP3    H1 2622   7.978   2.722   5.886
  893TIP3    H2 2623   8.107   2.660   5.934
  894TIP3   OH2 2624   4.557   1.328   2.187
  894TIP3    H1 2625   4.579   1.254   2.130
  894TIP3    H2 2626   4.636   1.344   2.238
  895TIP3   OH2 2627   6.039   5.102   0.777
  895TIP3    H1 2628   5.992   5.134   0.854
  895TIP3    H2 2629   6.107   5.044   0.813
  896TIP3   OH2 2630   2.377   5.232   5.407
  896TIP3    H1 2631   2.462   5.251   5.448
  896TIP3    H2 2632   2.313   5.276   5.463
  897TIP3   OH2 2633   7.559   2.916   3.205
  897TIP3    H1 2634   7.574   2.904   3.111
  897TIP3    H2 2635   7.647   2.920   3.242
  898TIP3   OH2 2636   3.482   6.321   5.561
  898TIP3    H1 2637   3.503   6.388   5.496
  898TIP3    H2 2638   3.559   6.317   5.618
  899TIP3   OH2 2639   5.124   3.463   1.339
  899TIP3    H1 2640   5.091   3.395   1.397
  899TIP3    H2 2641   5.133   3.420   1.254
  900TIP3   OH2 2642   4.747   3.584   0.294
  900TIP3    H1 2643   4.728   3.598   0.201
  900TIP3    H2 2644   4.686   3.514   0.320
  901TIP3   OH2 2645   3.670   6.157   4.943
  901TIP3    H1 2646   3.609   6.186   4.875
  901TIP3    H2 2647   3.618   6.156   5.023
  902TIP3   OH2 2648   5.271   3.986   5.128
  902TIP3    H1 2649   5.237   3.929   5.058
  902TIP3    H2 2650   5.364   3.992   5.110
  903TIP3   OH2 2651   1.628   5.870   0.350
  903TIP3    H1 2652   1.533   5.879   0.354
  903TIP3    H2 2653   1.643   5.797   0.290
  904TIP3   OH2 2654   2.751   1.346   2.427
  904TIP3    H1 2655   2.811   1.417   2.402
  904TIP3    H2 2656   2.685   1.389   2.482
  905TIP3   OH2 2657   5.035   4.695   2.425
  905TIP3    H1 2658   5.100   4.689   2.354
  905TIP3    H2 2659   4.974   4.624   2.409
  906TIP3   OH2 2660   3.125   4.844   3.348
  906TIP3    H1 2661   3.191   4.902   3.385
  906TIP3    H2 2662   3.042   4.879   3.378
  907TIP3   OH2 2663   5.196   5.122   4.122
  907TIP3    H1 2664   5.257   5.067   4.072
  907TIP3    H2 2665   5.249   5.157   4.194
  908TIP3   OH2 2666   3.864   3.920   5.532
  908TIP3    H1 2667   3.899   3.994   5.484
  908TIP3    H2 2668   3.806   3.875   5.470
  909TIP3   OH2 2669   7.059   6.924   6.293
  909TIP3    H1 2670   7.132   6.879   6.250
  909TIP3    H2 2671   7.009   6.962   6.220
  910TIP3   OH2 2672   5.534   6.643   5.495
  910TIP3    H1 2673   5.622   6.677   5.475
  910TIP3    H2 2674   5.533   6.555   5.459
  911TIP3   OH2 2675   6.535   3.037   5.145
  911TIP3    H1 2676   6.440   3.032   5.156
  911TIP3    H2 2677   6.562   3.109   5.201
  912TIP3   OH2 2678   5.659   0.188   2.594
  912TIP3    H1 2679   5.704   0.153   2.671
  912TIP3    H2 2680   5.567   0.167   2.610
  913TIP3   OH2 2681   6.033   3.633   2.490
  913TIP3    H1 2682   6.037   3.726   2.469
  913TIP3    H2 2683   6.065   3.628   2.580
  914TIP3   OH2 2684   4.855   6.677   0.802
  914TIP3    H1 2685   4.768   6.642   0.784
  914TIP3    H2 2686   4.862   6.756   0.748
  915TIP3   OH2 2687   2.759   7.287   4.850
  915TIP3    H1 2688   2.749   7.246   4.936
  915TIP3    H2 2689   2.853   7.299   4.839
  916TIP3   OH2 2690   5.431   7.345   3.486
  916TIP3    H1 2691   5.358   7.340   3.424
  916TIP3    H2 2692   5.396   7.397   3.559
  917TIP3   OH2 2693   5.217   1.694   1.295
  917TIP3    H1 2694   5.203   1.622   1.233
  917TIP3    H2 2695   5.147   1.682   1.360
  918TIP3   OH2 2696   1.259   3.265   2.779
  918TIP3    H1 2697   1.325   3.283   2.845
  918TIP3    H2 2698   1.226   3.351   2.753
  919TIP3   OH2 2699   0.421   4.302   1.148
  919TIP3    H1 2700   0.465   4.387   1.145
  919TIP3    H2 2701   0.374   4.302   1.231
  920TIP3   OH2 2702   4.623   6.623   6.540
  920TIP3    H1 2703   4.570   6.605   6.463
  920TIP3    H2 2704   4.695   6.678   6.508
  921TIP3   OH2 2705   1.892   3.175   2.809
  921TIP3    H1 2706   1.894   3.253   2.753
  921TIP3    H2 2707   1.888   3.102   2.748
  922TIP3   OH2 2708   6.513   2.460   3.676
  922TIP3    H1 2709   6.551   2.373   3.684
  922TIP3    H2 2710   6.471   2.460   3.589
  923TIP3   OH2 2711   6.201   2.906   5.771
  923TIP3    H1 2712   6.232   2.933   5.685
  923TIP3    H2 2713   6.134   2.840   5.752
  924TIP3   OH2 2714   5.325   1.960   4.758
  924TIP3    H1 2715   5.360   1.890   4.813
  924TIP3    H2 2716   5.400   2.017   4.741
  925TIP3   OH2 2717   7.596   1.580   5.712
  925TIP3    H1 2718   7.643   1.644   5.658
  925TIP3    H2 2719   7.521   1.628   5.746
  926TIP3   OH2 2720   1.765   1.282   0.249
  926TIP3    H1 2721   1.705   1.259   0.321
  926TIP3    H2 2722   1.852   1.283   0.289
  927TIP3   OH2 2723   0.006   3.706   4.989
  927TIP3    H1 2724  -0.070   3.685   5.043
  927TIP3    H2 2725   0.064   3.630   5.001
  928TIP3   OH2 2726   4.819   6.126   5.835
  928TIP3    H1 2727   4.900   6.087   5.868
  928TIP3    H2 2728   4.845   6.214   5.807
  929TIP3   OH2 2729   4.093   5.546   2.897
  929TIP3    H1 2730   4.170   5.545   2.840
  929TIP3    H2 2731   4.021   5.518   2.841
  930TIP3   OH2 2732   6.706   7.304   1.391
  930TIP3    H1 2733   6.640   7.368   1.366
  930TIP3    H2 2734   6.717   7.249   1.314
  931TIP3   OH2 2735   4.104   4.322   0.025
  931TIP3    H1 2736   4.055   4.382   0.082
  931TIP3    H2 2737   4.193   4.324   0.059
  932TIP3   OH2 2738   6.976   7.234   6.623
  932TIP3    H1 2739   7.015   7.151   6.651
  932TIP3    H2 2740   6.919   7.210   6.549
  933TIP3   OH2 2741   3.023   6.338   6.184
  933TIP3    H1 2742   3.042   6.333   6.090
  933TIP3    H2 2743   2.952   6.402   6.191
  934TIP3   OH2 2744   2.627   2.305   0.113
  934TIP3    H1 2745   2.657   2.215   0.097
  934TIP3    H2 2746   2.595   2.335   0.027
  935TIP3   OH2 2747   0.895   5.796   6.484
  935TIP3    H1 2748   0.838   5.747   6.543
  935TIP3    H2 2749   0.879   5.759   6.397
  936TIP3   OH2 2750   4.725   5.558   0.802
  936TIP3    H1 2751   4.677   5.525   0.726
  936TIP3    H2 2752   4.760   5.479   0.843
  937TIP3   OH2 2753   5.867   0.141   2.077
  937TIP3    H1 2754   5.909   0.225   2.096
  937TIP3    H2 2755   5.829   0.152   1.990
  938TIP3   OH2 2756   6.303   1.485   3.811
  938TIP3    H1 2757   6.259   1.536   3.879
  938TIP3    H2 2758   6.291   1.537   3.731
  939TIP3   OH2 2759   0.925   4.150   3.589
  939TIP3    H1 2760   0.851   4.096   3.561
  939TIP3    H2 2761   0.924   4.143   3.685
  940TIP3   OH2 2762   7.817   5.839   3.239
  940TIP3    H1 2763   7.870   5.857   3.161
  940TIP3    H2 2764   7.879   5.812   3.306
  941TIP3   OH2 2765   1.810   5.220   5.073
  941TIP3    H1 2766   1.803   5.275   4.995
  941TIP3    H2 2767   1.881   5.158   5.053
  942TIP3   OH2 2768   4.177   1.447   3.729
  942TIP3    H1 2769   4.186   1.483   3.641
  942TIP3    H2 2770   4.186   1.522   3.787
  943TIP3   OH2 2771   4.784   1.221   4.945
  943TIP3    H1 2772   4.795   1.154   5.012
  943TIP3    H2 2773   4.819   1.182   4.866
  944TIP3   OH2 2774   7.180   2.679   5.175
  944TIP3    H1 2775   7.094   2.688   5.215
  944TIP3    H2 2776   7.213   2.595   5.207
  945TIP3   OH2 2777   7.106   4.929   5.196
  945TIP3    H1 2778   7.155   4.941   5.114
  945TIP3    H2 2779   7.053   5.008   5.204
  946TIP3   OH2 2780   2.066   3.729   1.948
  946TIP3    H1 2781   2.086   3.801   1.889
  946TIP3    H2 2782   1.972   3.733   1.961
  947TIP3   OH2 2783   0.513   5.381   4.618
  947TIP3    H1 2784   0.437   5.323   4.622
  947TIP3    H2 2785   0.476   5.469   4.622
  948TIP3   OH2 2786   8.210   5.730   1.356
  948TIP3    H1 2787   8.145   5.761   1.293
  948TIP3    H2 2788   8.209   5.795   1.426
  949TIP3   OH2 2789   6.341   1.126   4.135
  949TIP3    H1 2790   6.352   1.196   4.199
  949TIP3    H2 2791   6.274   1.157   4.075
  950TIP3   OH2 2792   1.112   4.872   3.325
  950TIP3    H1 2793   1.033   4.924   3.310
  950TIP3    H2 2794   1.174   4.934   3.365
  951TIP3   OH2 2795   5.729   6.584   1.828
  951TIP3    H1 2796   5.708   6.673   1.800
  951TIP3    H2 2797   5.825   6.579   1.822
  952TIP3   OH2 2798   5.628   1.439   3.705
  952TIP3    H1 2799   5.567   1.502   3.667
  952TIP3    H2 2800   5.658   1.481   3.786
  953TIP3   OH2 2801   1.850   1.375   0.885
  953TIP3    H1 2802   1.780   1.371   0.821
  953TIP3    H2 2803   1.922   1.418   0.840
  954TIP3   OH2 2804   2.598   1.783   5.589
  954TIP3    H1 2805   2.521   1.822   5.630
  954TIP3    H2 2806   2.586   1.688   5.602
  955TIP3   OH2 2807   5.793   1.301   3.547
  955TIP3    H1 2808   5.775   1.213   3.515
  955TIP3    H2 2809   5.710   1.330   3.586
  956TIP3   OH2 2810   2.809   4.226   1.691
  956TIP3    H1 2811   2.854   4.297   1.645
  956TIP3    H2 2812   2.747   4.271   1.748
  957TIP3   OH2 2813   7.628   4.387   5.242
  957TIP3    H1 2814   7.706   4.403   5.190
  957TIP3    H2 2815   7.595   4.302   5.212
  958TIP3   OH2 2816   0.508   1.770   1.190
  958TIP3    H1 2817   0.498   1.779   1.284
  958TIP3    H2 2818   0.593   1.727   1.178
  959TIP3   OH2 2819   8.232   0.005   2.047
  959TIP3    H1 2820   8.274  -0.031   1.970
  959TIP3    H2 2821   8.172   0.071   2.014
  960TIP3   OH2 2822   2.251   6.294   0.849
  960TIP3    H1 2823   2.309   6.265   0.779
  960TIP3    H2 2824   2.292   6.263   0.929
  961TIP3   OH2 2825   3.472   0.016   0.807
  961TIP3    H1 2826   3.423   0.083   0.760
  961TIP3    H2 2827   3.448  -0.066   0.765
  962TIP3   OH2 2828   1.493   4.599   1.623
  962TIP3    H1 2829   1.540   4.572   1.701
  962TIP3    H2 2830   1.451   4.682   1.647
  963TIP3   OH2 2831   3.397   0.916   4.235
  963TIP3    H1 2832   3.331   0.889   4.300
  963TIP3    H2 2833   3.473   0.860   4.254
  964TIP3   OH2 2834   7.143   2.430   5.928
  964TIP3    H1 2835   7.121   2.344   5.965
  964TIP3    H2 2836   7.138   2.417   5.833
  965TIP3   OH2 2837   8.072   0.781   0.464
  965TIP3    H1 2838   8.047   0.871   0.442
  965TIP3    H2 2839   8.094   0.785   0.557
  966TIP3   OH2 2840   7.959   0.190   3.865
  966TIP3    H1 2841   8.045   0.223   3.892
  966TIP3    H2 2842   7.908   0.185   3.945
  967TIP3   OH2 2843   2.765   5.685   4.642
  967TIP3    H1 2844   2.741   5.776   4.660
  967TIP3    H2 2845   2.861   5.686   4.639
  968TIP3   OH2 2846   0.432   7.536   0.046
  968TIP3    H1 2847   0.469   7.498  -0.033
  968TIP3    H2 2848   0.452   7.630   0.039
  969TIP3   OH2 2849   1.079   4.141   5.079
  969TIP3    H1 2850   1.062   4.231   5.052
  969TIP3    H2 2851   1.061   4.089   5.001
  970TIP3   OH2 2852   0.163   3.004   5.035
  970TIP3    H1 2853   0.163   2.938   5.104
  970TIP3    H2 2854   0.215   2.965   4.965
  971TIP3   OH2 2855   2.760   1.106   5.828
  971TIP3    H1 2856   2.764   1.155   5.910
  971TIP3    H2 2857   2.667   1.085   5.817
  972TIP3   OH2 2858   5.088   2.354   3.146
  972TIP3    H1 2859   5.054   2.358   3.057
  972TIP3    H2 2860   5.013   2.373   3.202
  973TIP3   OH2 2861   8.064   3.637   1.686
  973TIP3    H1 2862   8.113   3.701   1.738
  973TIP3    H2 2863   8.050   3.563   1.746
  974TIP3   OH2 2864   5.617   2.296   6.390
  974TIP3    H1 2865   5.628   2.332   6.302
  974TIP3    H2 2866   5.585   2.207   6.376
  975TIP3   OH2 2867   2.103   1.470   0.718
  975TIP3    H1 2868   2.147   1.516   0.646
  975TIP3    H2 2869   2.170   1.466   0.788
  976TIP3   OH2 2870   7.667   4.174   1.413
  976TIP3    H1 2871   7.631   4.207   1.496
  976TIP3    H2 2872   7.593   4.175   1.353
  977TIP3   OH2 2873   5.387   1.895   1.183
  977TIP3    H1 2874   5.380   1.818   1.241
  977TIP3    H2 2875   5.320   1.881   1.116
  978TIP3   OH2 2876   4.368   0.800   3.175
  978TIP3    H1 2877   4.353   0.894   3.170
  978TIP3    H2 2878   4.360   0.770   3.085
  979TIP3   OH2 2879   4.268   0.937   5.161
  979TIP3    H1 2880   4.336   0.884   5.119
  979TIP3    H2 2881   4.208   0.960   5.090
  980TIP3   OH2 2882   2.041   0.712   1.407
  980TIP3    H1 2883   2.114   0.652   1.396
  980TIP3    H2 2884   2.057   0.781   1.342
  981TIP3   OH2 2885   5.468   5.050   5.054
  981TIP3    H1 2886   5.475   5.113   5.126
  981TIP3    H2 2887   5.431   5.101   4.982
  982TIP3   OH2 2888   5.066   5.777   2.157
  982TIP3    H1 2889   5.112   5.696   2.139
  982TIP3    H2 2890   5.069   5.826   2.075
  983TIP3   OH2 2891   1.692   7.424   6.148
  983TIP3    H1 2892   1.766   7.367   6.170
  983TIP3    H2 2893   1.619   7.364   6.132
  984TIP3   OH2 2894   5.159   0.072   0.516
  984TIP3    H1 2895   5.207   0.093   0.596
  984TIP3    H2 2896   5.224   0.076   0.446
  985TIP3   OH2 2897   5.795   3.689   6.161
  985TIP3    H1 2898   5.852   3.670   6.236
  985TIP3    H2 2899   5.712   3.718   6.200
  986TIP3   OH2 2900   4.097   0.818   6.314
  986TIP3    H1 2901   4.030   0.884   6.295
  986TIP3    H2 2902   4.050   0.752   6.365
  987TIP3   OH2 2903   5.196   3.939   6.054
  987TIP3    H1 2904   5.258   3.881   6.098
  987TIP3    H2 2905   5.249   3.985   5.989
  988TIP3   OH2 2906   1.484   6.484   0.794
  988TIP3    H1 2907   1.403   6.459   0.748
  988TIP3    H2 2908   1.554   6.448   0.741
  989TIP3   OH2 2909   2.293   5.000   2.862
  989TIP3    H1 2910   2.316   4.908   2.845
  989TIP3    H2 2911   2.313   5.045   2.780
  990TIP3   OH2 2912   0.532   3.502   3.949
  990TIP3    H1 2913   0.607   3.514   4.007
  990TIP3    H2 2914   0.540   3.411   3.919
  991TIP3   OH2 2915   2.245   2.518   0.918
  991TIP3    H1 2916   2.247   2.573   0.996
  991TIP3    H2 2917   2.154   2.525   0.886
  992TIP3   OH2 2918   1.820   1.315   4.920
  992TIP3    H1 2919   1.734   1.310   4.963
  992TIP3    H2 2920   1.833   1.408   4.903
  993TIP3   OH2 2921   7.171   5.210   5.469
  993TIP3    H1 2922   7.114   5.269   5.517
  993TIP3    H2 2923   7.122   5.188   5.389
  994TIP3   OH2 2924   8.207   0.775   3.743
  994TIP3    H1 2925   8.177   0.855   3.787
  994TIP3    H2 2926   8.236   0.805   3.657
  995TIP3   OH2 2927   3.387   6.973   4.921
  995TIP3    H1 2928   3.378   6.877   4.925
  995TIP3    H2 2929   3.394   6.992   4.828
  996TIP3   OH2 2930   4.468   0.926   0.105
  996TIP3    H1 2931   4.459   0.844   0.057
  996TIP3    H2 2932   4.539   0.972   0.060
  997TIP3   OH2 2933   7.383   1.701   5.889
  997TIP3    H1 2934   7.449   1.703   5.958
  997TIP3    H2 2935   7.348   1.790   5.886
  998TIP3   OH2 2936   0.215   3.144   2.913
  998TIP3    H1 2937   0.152   3.212   2.938
  998TIP3    H2 2938   0.272   3.135   2.988
  999TIP3   OH2 2939   6.015   0.804   3.333
  999TIP3    H1 2940   6.089   0.757   3.294
  999TIP3    H2 2941   6.018   0.782   3.426
 1000TIP3   OH2 2942   3.609   7.208   1.986
 1000TIP3    H1 2943   3.641   7.163   2.064
 1000TIP3    H2 2944   3.514   7.209   1.996
 1001TIP3   OH2 2945   6.712   1.100   1.855
 1001TIP3    H1 2946   6.747   1.018   1.889
 1001TIP3    H2 2947   6.789   1.149   1.828
 1002TIP3   OH2 2948   5.390   1.333   5.891
 1002TIP3    H1 2949   5.330   1.354   5.963
 1002TIP3    H2 2950   5.393   1.237   5.890
 1003TIP3   OH2 2951   4.587   4.106   0.173
 1003TIP3    H1 2952   4.654   4.153   0.223
 1003TIP3    H2 2953   4.632   4.031   0.136
 1004TIP3   OH2 2954   6.844   5.312   4.251
 1004TIP3    H1 2955   6.857   5.244   4.317
 1004TIP3    H2 2956   6.779   5.275   4.191
 1005TIP3   OH2 2957   0.125   1.861   5.531
 1005TIP3    H1 2958   0.111   1.931   5.468
 1005TIP3    H2 2959   0.174   1.902   5.602
 1006TIP3   OH2 2960   4.020   3.883   3.934
 1006TIP3    H1 2961   4.106   3.845   3.917
 1006TIP3    H2 2962   3.959   3.824   3.890
 1007TIP3   OH2 2963   2.560   5.171   1.805
 1007TIP3    H1 2964   2.652   5.180   1.781
 1007TIP3    H2 2965   2.561   5.160   1.900
 1008TIP3   OH2 2966   0.149   4.811   0.790
 1008TIP3    H1 2967   0.185   4.858   0.716
 1008TIP3    H2 2968   0.163   4.869   0.865
 1009TIP3   OH2 2969   3.234   0.829   5.201
 1009TIP3    H1 2970   3.225   0.848   5.295
 1009TIP3    H2 2971   3.326   0.806   5.190
 1010TIP3   OH2 2972   6.892   5.105   1.076
 1010TIP3    H1 2973   6.899   5.186   1.125
 1010TIP3    H2 2974   6.798   5.087   1.071
 1011TIP3   OH2 2975   5.604   0.644   5.826
 1011TIP3    H1 2976   5.603   0.566   5.881
 1011TIP3    H2 2977   5.605   0.610   5.736
 1012TIP3   OH2 2978   6.992   4.286   5.914
 1012TIP3    H1 2979   7.011   4.361   5.969
 1012TIP3    H2 2980   7.078   4.257   5.884
 1013TIP3   OH2 2981   5.170   2.001   4.347
 1013TIP3    H1 2982   5.117   2.057   4.404
 1013TIP3    H2 2983   5.203   1.931   4.404
 1014TIP3   OH2 2984   2.898   3.989   6.426
 1014TIP3    H1 2985   2.969   3.982   6.362
 1014TIP3    H2 2986   2.911   4.075   6.466
 1015TIP3   OH2 2987   6.217   6.729   1.529
 1015TIP3    H1 2988   6.292   6.788   1.518
 1015TIP3    H2 2989   6.157   6.778   1.585
 1016TIP3   OH2 2990   4.658   0.701   5.641
 1016TIP3    H1 2991   4.723   0.736   5.579
 1016TIP3    H2 2992   4.594   0.657   5.586
 1017TIP3   OH2 2993   5.414   0.231   5.246
 1017TIP3    H1 2994   5.491   0.200   5.294
 1017TIP3    H2 2995   5.419   0.327   5.250
 1018TIP3   OH2 2996   0.642   0.519   0.763
 1018TIP3    H1 2997   0.640   0.449   0.699
 1018TIP3    H2 2998   0.643   0.599   0.711
 1019TIP3   OH2 2999   1.937   0.812   1.994
 1019TIP3    H1 3000   1.996   0.870   1.945
 1019TIP3    H2 3001   1.923   0.857   2.077
 1020TIP3   OH2 3002   1.081   6.465   1.323
 1020TIP3    H1 3003   1.052   6.554   1.342
 1020TIP3    H2 3004   1.160   6.477   1.270
 1021TIP3   OH2 3005   2.099   7.498   1.433
 1021TIP3    H1 3006   2.136   7.426   1.484
 1021TIP3    H2 3007   2.138   7.489   1.346
 1022TIP3   OH2 3008   4.152   3.758   5.210
 1022TIP3    H1 3009   4.147   3.662   5.205
 1022TIP3    H2 3010   4.168   3.785   5.120
 1023TIP3   OH2 3011   1.980   6.837   4.489
 1023TIP3    H1 3012   2.015   6.893   4.559
 1023TIP3    H2 3013   1.986   6.891   4.410
 1024TIP3   OH2 3014   6.042   4.629   4.473
 1024TIP3    H1 3015   6.016   4.721   4.471
 1024TIP3    H2 3016   5.998   4.589   4.398
 1025TIP3   OH2 3017   1.340   2.857   2.631
 1025TIP3    H1 3018   1.423   2.852   2.583
 1025TIP3    H2 3019   1.364   2.892   2.717
 1026TIP3   OH2 3020   5.248   1.564   3.951
 1026TIP3    H1 3021   5.216   1.654   3.961
 1026TIP3    H2 3022   5.208   1.532   3.870
 1027TIP3   OH2 3023   0.962   0.130   0.210
 1027TIP3    H1 3024   1.027   0.101   0.274
 1027TIP3    H2 3025   1.002   0.113   0.125
 1028TIP3   OH2 3026   6.571   2.893   3.077
 1028TIP3    H1 3027   6.520   2.974   3.080
 1028TIP3    H2 3028   6.583   2.869   3.169
 1029TIP3   OH2 3029   1.100   3.554   0.991
 1029TIP3    H1 3030   1.036   3.615   0.952
 1029TIP3    H2 3031   1.057   3.469   0.987
 1030TIP3   OH2 3032   0.988   2.541   3.473
 1030TIP3    H1 3033   0.922   2.534   3.542
 1030TIP3    H2 3034   0.961   2.476   3.408
 1031TIP3   OH2 3035   1.882   0.578   4.729
 1031TIP3    H1 3036   1.956   0.604   4.674
 1031TIP3    H2 3037   1.920   0.514   4.790
 1032TIP3   OH2 3038   0.172   0.837   4.830
 1032TIP3    H1 3039   0.147   0.853   4.739
 1032TIP3    H2 3040   0.267   0.832   4.829
 1033TIP3   OH2 3041   5.320   1.972   6.049
 1033TIP3    H1 3042   5.301   2.054   6.003
 1033TIP3    H2 3043   5.395   1.935   6.003
 1034TIP3   OH2 3044   6.675   0.767   5.740
 1034TIP3    H1 3045   6.702   0.775   5.649
 1034TIP3    H2 3046   6.620   0.688   5.742
 1035TIP3   OH2 3047   1.156   6.346   0.333
 1035TIP3    H1 3048   1.231   6.368   0.279
 1035TIP3    H2 3049   1.159   6.251   0.343
 1036TIP3   OH2 3050   2.740   5.918   5.211
 1036TIP3    H1 3051   2.710   5.873   5.290
 1036TIP3    H2 3052   2.689   5.999   5.209
 1037TIP3   OH2 3053   5.155   4.587   4.988
 1037TIP3    H1 3054   5.176   4.546   4.904
 1037TIP3    H2 3055   5.213   4.663   4.992
 1038TIP3   OH2 3056   1.084   3.005   0.308
 1038TIP3    H1 3057   1.051   2.923   0.271
 1038TIP3    H2 3058   1.152   2.977   0.370
 1039TIP3   OH2 3059   6.857   7.219   2.777
 1039TIP3    H1 3060   6.904   7.233   2.860
 1039TIP3    H2 3061   6.926   7.211   2.712
 1040TIP3   OH2 3062   7.837   3.128   4.816
 1040TIP3    H1 3063   7.860   3.124   4.724
 1040TIP3    H2 3064   7.785   3.208   4.824
 1041TIP3   OH2 3065   4.996   1.757   1.101
 1041TIP3    H1 3066   5.035   1.673   1.074
 1041TIP3    H2 3067   5.033   1.773   1.187
 1042TIP3   OH2 3068   2.721   3.258   0.750
 1042TIP3    H1 3069   2.717   3.316   0.826
 1042TIP3    H2 3070   2.813   3.259   0.723
 1043TIP3   OH2 3071   3.608   4.349   6.303
 1043TIP3    H1 3072   3.532   4.383   6.351
 1043TIP3    H2 3073   3.681   4.361   6.363
 1044TIP3   OH2 3074   5.788   6.277   4.168
 1044TIP3    H1 3075   5.874   6.240   4.191
 1044TIP3    H2 3076   5.768   6.238   4.082
 1045TIP3   OH2 3077   6.136   4.456   0.751
 1045TIP3    H1 3078   6.089   4.534   0.779
 1045TIP3    H2 3079   6.102   4.386   0.808
 1046TIP3   OH2 3080   5.148   4.338   1.573
 1046TIP3    H1 3081   5.134   4.287   1.653
 1046TIP3    H2 3082   5.170   4.425   1.604
 1047TIP3   OH2 3083   0.337   6.598   6.617
 1047TIP3    H1 3084   0.356   6.504   6.620
 1047TIP3    H2 3085   0.389   6.635   6.689
 1048TIP3   OH2 3086   7.923   0.003   0.316
 1048TIP3    H1 3087   7.900   0.095   0.331
 1048TIP3    H2 3088   7.981   0.006   0.239
 1049TIP3   OH2 3089   3.559   1.726   3.365
 1049TIP3    H1 3090   3.498   1.767   3.304
 1049TIP3    H2 3091   3.513   1.650   3.398
 1050TIP3   OH2 3092   6.128   1.546   4.017
 1050TIP3    H1 3093   6.174   1.568   4.098
 1050TIP3    H2 3094   6.036   1.561   4.037
 1051TIP3   OH2 3095   3.450   1.720   4.581
 1051TIP3    H1 3096   3.471   1.787   4.647
 1051TIP3    H2 3097   3.355   1.726   4.571
 1052TIP3   OH2 3098   8.184   7.526   3.162
 1052TIP3    H1 3099   8.173   7.431   3.156
 1052TIP3    H2 3100   8.117   7.562   3.104
 1053TIP3   OH2 3101   7.729   2.093   0.203
 1053TIP3    H1 3102   7.662   2.077   0.136
 1053TIP3    H2 3103   7.742   2.008   0.245
 1054TIP3   OH2 3104   2.183   5.912   0.945
 1054TIP3    H1 3105   2.188   5.895   0.851
 1054TIP3    H2 3106   2.090   5.912   0.964
 1055TIP3   OH2 3107   7.176   2.002   5.398
 1055TIP3    H1 3108   7.270   2.018   5.395
 1055TIP3    H2 3109   7.168   1.907   5.394
 1056TIP3   OH2 3110   1.518   4.526   4.399
 1056TIP3    H1 3111   1.486   4.554   4.313
 1056TIP3    H2 3112   1.596   4.474   4.380
 1057TIP3   OH2 3113   2.512   6.902   2.069
 1057TIP3    H1 3114   2.544   6.816   2.040
 1057TIP3    H2 3115   2.573   6.965   2.031
 1058TIP3   OH2 3116   7.073   1.182   1.027
 1058TIP3    H1 3117   7.090   1.275   1.044
 1058TIP3    H2 3118   6.977   1.175   1.027
 1059TIP3   OH2 3119   4.776   4.035   5.311
 1059TIP3    H1 3120   4.791   3.950   5.353
 1059TIP3    H2 3121   4.713   4.079   5.367
 1060TIP3   OH2 3122   7.768   4.427   3.121
 1060TIP3    H1 3123   7.762   4.332   3.118
 1060TIP3    H2 3124   7.834   4.450   3.056
 1061TIP3   OH2 3125   5.965   6.335   2.017
 1061TIP3    H1 3126   6.022   6.411   2.001
 1061TIP3    H2 3127   5.969   6.321   2.111
 1062TIP3   OH2 3128   3.648   5.346   6.025
 1062TIP3    H1 3129   3.640   5.267   5.972
 1062TIP3    H2 3130   3.607   5.415   5.972
 1063TIP3   OH2 3131   6.096   3.935   2.589
 1063TIP3    H1 3132   6.117   4.009   2.532
 1063TIP3    H2 3133   6.167   3.934   2.654
 1064TIP3   OH2 3134   1.369   0.617   3.298
 1064TIP3    H1 3135   1.432   0.668   3.247
 1064TIP3    H2 3136   1.336   0.551   3.236
 1065TIP3   OH2 3137   3.257   0.529   0.840
 1065TIP3    H1 3138   3.195   0.509   0.770
 1065TIP3    H2 3139   3.229   0.615   0.873
 1066TIP3   OH2 3140   7.868   1.819   1.341
 1066TIP3    H1 3141   7.810   1.744   1.356
 1066TIP3    H2 3142   7.938   1.808   1.406
 1067TIP3   OH2 3143   7.140   4.055   3.829
 1067TIP3    H1 3144   7.211   4.007   3.872
 1067TIP3    H2 3145   7.117   4.002   3.753
 1068TIP3   OH2 3146   5.071   1.364   0.282
 1068TIP3    H1 3147   5.083   1.278   0.320
 1068TIP3    H2 3148   5.136   1.369   0.211
 1069TIP3   OH2 3149   3.072   5.056   5.159
 1069TIP3    H1 3150   3.046   4.969   5.128
 1069TIP3    H2 3151   3.078   5.047   5.254
 1070TIP3   OH2 3152   5.415   6.878   5.784
 1070TIP3    H1 3153   5.354   6.821   5.738
 1070TIP3    H2 3154   5.456   6.822   5.850
 1071TIP3   OH2 3155   0.440   2.315   3.911
 1071TIP3    H1 3156   0.365   2.264   3.881
 1071TIP3    H2 3157   0.421   2.404   3.881
 1072TIP3   OH2 3158   3.732   3.339   1.046
 1072TIP3    H1 3159   3.758   3.289   0.969
 1072TIP3    H2 3160   3.657   3.391   1.016
 1073TIP3   OH2 3161   6.942   2.155   4.290
 1073TIP3    H1 3162   7.015   2.212   4.316
 1073TIP3    H2 3163   6.974   2.066   4.304
 1074TIP3   OH2 3164   7.012   2.059   6.483
 1074TIP3    H1 3165   7.012   2.047   6.577
 1074TIP3    H2 3166   6.922   2.084   6.461
 1075TIP3   OH2 3167   3.975   0.141   2.099
 1075TIP3    H1 3168   3.927   0.183   2.171
 1075TIP3    H2 3169   3.910   0.135   2.028
 1076TIP3   OH2 3170   0.615   7.557   0.336
 1076TIP3    H1 3171   0.602   7.636   0.284
 1076TIP3    H2 3172   0.564   7.490   0.290
 1077TIP3   OH2 3173   7.381   4.482   5.216
 1077TIP3    H1 3174   7.476   4.473   5.228
 1077TIP3    H2 3175   7.371   4.503   5.123
 1078TIP3   OH2 3176   4.324   4.445   1.737
 1078TIP3    H1 3177   4.288   4.357   1.753
 1078TIP3    H2 3178   4.419   4.433   1.747
 1079TIP3   OH2 3179   2.978   7.207   2.448
 1079TIP3    H1 3180   2.951   7.144   2.381
 1079TIP3    H2 3181   2.896   7.249   2.476
 1080TIP3   OH2 3182   2.100   3.825   0.111
 1080TIP3    H1 3183   2.012   3.827   0.074
 1080TIP3    H2 3184   2.104   3.903   0.167
 1081TIP3   OH2 3185   5.894   2.708   3.588
 1081TIP3    H1 3186   5.852   2.630   3.552
 1081TIP3    H2 3187   5.885   2.699   3.683
 1082TIP3   OH2 3188   7.485   6.815   5.565
 1082TIP3    H1 3189   7.523   6.754   5.628
 1082TIP3    H2 3190   7.414   6.858   5.612
 1083TIP3   OH2 3191   3.994   2.958   5.223
 1083TIP3    H1 3192   4.039   2.954   5.308
 1083TIP3    H2 3193   3.922   3.019   5.237
 1084TIP3   OH2 3194   4.219   0.114   2.293
 1084TIP3    H1 3195   4.265   0.086   2.213
 1084TIP3    H2 3196   4.127   0.095   2.275
 1085TIP3   OH2 3197   5.804   4.047   3.179
 1085TIP3    H1 3198   5.711   4.068   3.191
 1085TIP3    H2 3199   5.804   3.966   3.128
 1086TIP3   OH2 3200   6.843   5.504   3.729
 1086TIP3    H1 3201   6.859   5.509   3.824
 1086TIP3    H2 3202   6.925   5.535   3.690
 1087TIP3   OH2 3203   5.146   4.992   0.808
 1087TIP3    H1 3204   5.147   5.065   0.869
 1087TIP3    H2 3205   5.227   5.000   0.758
 1088TIP3   OH2 3206   0.279   5.171   6.569
 1088TIP3    H1 3207   0.201   5.189   6.515
 1088TIP3    H2 3208   0.342   5.135   6.507
 1089TIP3   OH2 3209   3.800   5.193   3.458
 1089TIP3    H1 3210   3.867   5.150   3.404
 1089TIP3    H2 3211   3.849   5.234   3.529
 1090TIP3   OH2 3212   0.029   5.581   1.163
 1090TIP3    H1 3213   0.002   5.629   1.241
 1090TIP3    H2 3214   0.104   5.529   1.192
 1091TIP3   OH2 3215   4.081   3.430   0.888
 1091TIP3    H1 3216   4.073   3.343   0.848
 1091TIP3    H2 3217   4.056   3.490   0.818
 1092TIP3   OH2 3218   7.542   5.676   2.173
 1092TIP3    H1 3219   7.467   5.691   2.115
 1092TIP3    H2 3220   7.548   5.581   2.180
 1093TIP3   OH2 3221   2.010   0.529   1.828
 1093TIP3    H1 3222   1.978   0.605   1.780
 1093TIP3    H2 3223   2.061   0.566   1.900
 1094TIP3   OH2 3224   8.267   4.646   5.428
 1094TIP3    H1 3225   8.323   4.685   5.362
 1094TIP3    H2 3226   8.239   4.563   5.389
 1095TIP3   OH2 3227   6.935   3.339   2.523
 1095TIP3    H1 3228   6.897   3.350   2.435
 1095TIP3    H2 3229   6.867   3.296   2.574
 1096TIP3   OH2 3230   7.168   6.239   5.715
 1096TIP3    H1 3231   7.213   6.197   5.642
 1096TIP3    H2 3232   7.079   6.252   5.684
 1097TIP3   OH2 3233   6.610   5.424   2.236
 1097TIP3    H1 3234   6.540   5.479   2.271
 1097TIP3    H2 3235   6.572   5.382   2.159
 1098TIP3   OH2 3236   7.446   4.914   5.528
 1098TIP3    H1 3237   7.361   4.879   5.554
 1098TIP3    H2 3238   7.449   4.904   5.433
 1099TIP3   OH2 3239   6.229   3.440   2.817
 1099TIP3    H1 3240   6.239   3.442   2.912
 1099TIP3    H2 3241   6.179   3.519   2.796
 1100TIP3   OH2 3242   4.545   7.225   5.290
 1100TIP3    H1 3243   4.506   7.217   5.203
 1100TIP3    H2 3244   4.531   7.139   5.331
 1101TIP3   OH2 3245   6.535   0.394   0.894
 1101TIP3    H1 3246   6.602   0.447   0.937
 1101TIP3    H2 3247   6.555   0.402   0.801
 1102TIP3   OH2 3248   0.904   0.592   1.396
 1102TIP3    H1 3249   0.879   0.550   1.313
 1102TIP3    H2 3250   0.995   0.568   1.409
 1103TIP3   OH2 3251   7.916   0.942   0.987
 1103TIP3    H1 3252   7.945   0.990   0.910
 1103TIP3    H2 3253   7.982   0.874   1.000
 1104TIP3   OH2 3254   1.103   6.530   3.743
 1104TIP3    H1 3255   1.188   6.569   3.722
 1104TIP3    H2 3256   1.118   6.436   3.734
 1105TIP3   OH2 3257   2.873   2.307   0.419
 1105TIP3    H1 3258   2.904   2.262   0.498
 1105TIP3    H2 3259   2.846   2.236   0.361
 1106TIP3   OH2 3260   5.273   4.283   5.824
 1106TIP3    H1 3261   5.204   4.226   5.857
 1106TIP3    H2 3262   5.273   4.358   5.883
 1107TIP3   OH2 3263   6.404   4.182   5.038
 1107TIP3    H1 3264   6.495   4.182   5.065
 1107TIP3    H2 3265   6.366   4.258   5.081
 1108TIP3   OH2 3266   6.789   6.718   3.432
 1108TIP3    H1 3267   6.770   6.792   3.374
 1108TIP3    H2 3268   6.874   6.739   3.471
 1109TIP3   OH2 3269   0.235   2.927   5.853
 1109TIP3    H1 3270   0.179   2.849   5.852
 1109TIP3    H2 3271   0.236   2.954   5.944
 1110TIP3   OH2 3272   5.732   1.257   2.797
 1110TIP3    H1 3273   5.703   1.198   2.867
 1110TIP3    H2 3274   5.699   1.343   2.824
 1111TIP3   OH2 3275   6.209   2.539   0.946
 1111TIP3    H1 3276   6.193   2.631   0.926
 1111TIP3    H2 3277   6.303   2.527   0.936
 1112TIP3   OH2 3278   7.301   0.774   5.129
 1112TIP3    H1 3279   7.226   0.832   5.142
 1112TIP3    H2 3280   7.282   0.728   5.048
 1113TIP3   OH2 3281   5.092   0.433   3.935
 1113TIP3    H1 3282   5.110   0.339   3.944
 1113TIP3    H2 3283   5.107   0.451   3.842
 1114TIP3   OH2 3284   2.455   4.646   4.529
 1114TIP3    H1 3285   2.438   4.724   4.476
 1114TIP3    H2 3286   2.513   4.676   4.598
 1115TIP3   OH2 3287   4.985   3.287   3.570
 1115TIP3    H1 3288   4.954   3.223   3.506
 1115TIP3    H2 3289   5.059   3.330   3.526
 1116TIP3   OH2 3290   5.976   3.946   5.844
 1116TIP3    H1 3291   6.039   4.015   5.864
 1116TIP3    H2 3292   6.024   3.884   5.789
 1117TIP3   OH2 3293   0.283   6.775   6.408
 1117TIP3    H1 3294   0.364   6.804   6.368
 1117TIP3    H2 3295   0.310   6.709   6.473
 1118TIP3   OH2 3296   0.733   0.038   4.697
 1118TIP3    H1 3297   0.679   0.087   4.636
 1118TIP3    H2 3298   0.820   0.079   4.691
 1119TIP3   OH2 3299   2.316   2.434   6.648
 1119TIP3    H1 3300   2.257   2.359   6.656
 1119TIP3    H2 3301   2.261   2.510   6.667
 1120TIP3   OH2 3302   3.337   0.227   0.669
 1120TIP3    H1 3303   3.358   0.306   0.618
 1120TIP3    H2 3304   3.245   0.210   0.652
 1121TIP3   OH2 3305   6.103   5.074   2.840
 1121TIP3    H1 3306   6.118   5.151   2.894
 1121TIP3    H2 3307   6.035   5.024   2.886
 1122TIP3   OH2 3308   1.268   3.707   5.655
 1122TIP3    H1 3309   1.355   3.699   5.693
 1122TIP3    H2 3310   1.210   3.666   5.719
 1123TIP3   OH2 3311   0.425   5.354   6.030
 1123TIP3    H1 3312   0.458   5.383   5.944
 1123TIP3    H2 3313   0.472   5.409   6.093
 1124TIP3   OH2 3314   7.813   7.045   3.558
 1124TIP3    H1 3315   7.764   7.099   3.619
 1124TIP3    H2 3316   7.866   6.987   3.613
 1125TIP3   OH2 3317   6.145   1.566   1.633
 1125TIP3    H1 3318   6.237   1.591   1.639
 1125TIP3    H2 3319   6.127   1.521   1.715
 1126TIP3   OH2 3320   3.849   3.141   4.594
 1126TIP3    H1 3321   3.846   3.067   4.654
 1126TIP3    H2 3322   3.801   3.211   4.639
 1127TIP3   OH2 3323   2.633   2.373   5.458
 1127TIP3    H1 3324   2.621   2.285   5.422
 1127TIP3    H2 3325   2.681   2.360   5.540
 1128TIP3   OH2 3326   8.034   3.085   6.148
 1128TIP3    H1 3327   8.078   3.003   6.173
 1128TIP3    H2 3328   8.031   3.136   6.229
 1129TIP3   OH2 3329   5.938   1.323   6.620
 1129TIP3    H1 3330   5.968   1.332   6.710
 1129TIP3    H2 3331   5.845   1.302   6.627
 1130TIP3   OH2 3332   2.954   5.606   2.376
 1130TIP3    H1 3333   3.035   5.641   2.413
 1130TIP3    H2 3334   2.937   5.658   2.298
 1131TIP3   OH2 3335   3.724   0.217   6.165
 1131TIP3    H1 3336   3.685   0.284   6.109
 1131TIP3    H2 3337   3.816   0.214   6.139
 1132TIP3   OH2 3338   5.426   6.544   6.684
 1132TIP3    H1 3339   5.339   6.510   6.664
 1132TIP3    H2 3340   5.410   6.623   6.736
 1133TIP3   OH2 3341   2.446   4.175   3.655
 1133TIP3    H1 3342   2.477   4.265   3.649
 1133TIP3    H2 3343   2.521   4.126   3.689
 1134TIP3   OH2 3344   0.046   0.548   4.859
 1134TIP3    H1 3345  -0.035   0.551   4.808
 1134TIP3    H2 3346   0.093   0.627   4.833
 1135TIP3   OH2 3347   7.884   1.488   6.038
 1135TIP3    H1 3348   7.905   1.581   6.029
 1135TIP3    H2 3349   7.954   1.453   6.094
 1136TIP3   OH2 3350   0.794   4.598   3.502
 1136TIP3    H1 3351   0.721   4.540   3.485
 1136TIP3    H2 3352   0.822   4.627   3.415
 1137TIP3   OH2 3353   4.273   3.254   1.540
 1137TIP3    H1 3354   4.332   3.181   1.523
 1137TIP3    H2 3355   4.210   3.220   1.604
 1138TIP3   OH2 3356   7.813   1.725   2.525
 1138TIP3    H1 3357   7.782   1.660   2.588
 1138TIP3    H2 3358   7.902   1.697   2.503
 1139TIP3   OH2 3359   2.795   3.814   5.965
 1139TIP3    H1 3360   2.720   3.827   5.907
 1139TIP3    H2 3361   2.791   3.886   6.027
 1140TIP3   OH2 3362   6.926   2.630   1.818
 1140TIP3    H1 3363   6.858   2.691   1.790
 1140TIP3    H2 3364   6.978   2.679   1.881
 1141TIP3   OH2 3365   2.224   3.950   5.990
 1141TIP3    H1 3366   2.216   3.856   5.973
 1141TIP3    H2 3367   2.212   3.990   5.905
 1142TIP3   OH2 3368   3.284   0.957   0.246
 1142TIP3    H1 3369   3.308   1.032   0.191
 1142TIP3    H2 3370   3.204   0.923   0.205
 1143TIP3   OH2 3371   0.184   0.234   4.381
 1143TIP3    H1 3372   0.268   0.271   4.408
 1143TIP3    H2 3373   0.207   0.163   4.321
 1144TIP3   OH2 3374   7.664   0.770   4.010
 1144TIP3    H1 3375   7.620   0.849   3.978
 1144TIP3    H2 3376   7.734   0.802   4.066
 1145TIP3   OH2 3377   8.162   3.217   2.248
 1145TIP3    H1 3378   8.143   3.221   2.154
 1145TIP3    H2 3379   8.187   3.126   2.264
 1146TIP3   OH2 3380   1.558   6.731   0.614
 1146TIP3    H1 3381   1.515   6.805   0.572
 1146TIP3    H2 3382   1.518   6.654   0.572
 1147TIP3   OH2 3383   7.388   1.575   0.502
 1147TIP3    H1 3384   7.340   1.524   0.568
 1147TIP3    H2 3385   7.339   1.658   0.496
 1148TIP3   OH2 3386   2.938   4.602   3.311
 1148TIP3    H1 3387   2.937   4.698   3.312
 1148TIP3    H2 3388   2.985   4.579   3.231
 1149TIP3   OH2 3389   0.282   6.118   3.766
 1149TIP3    H1 3390   0.284   6.198   3.820
 1149TIP3    H2 3391   0.371   6.108   3.734
 1150TIP3   OH2 3392   4.124   4.842   2.042
 1150TIP3    H1 3393   4.198   4.862   1.986
 1150TIP3    H2 3394   4.105   4.749   2.025
 1151TIP3   OH2 3395   3.747   7.679   0.188
 1151TIP3    H1 3396   3.717   7.716   0.105
 1151TIP3    H2 3397   3.819   7.620   0.163
 1152TIP3   OH2 3398   7.424   4.232   0.040
 1152TIP3    H1 3399   7.349   4.255  -0.015
 1152TIP3    H2 3400   7.425   4.299   0.108
 1153TIP3   OH2 3401   4.602   1.808   6.249
 1153TIP3    H1 3402   4.640   1.850   6.173
 1153TIP3    H2 3403   4.517   1.850   6.260
 1154TIP3   OH2 3404   3.121   1.185   3.805
 1154TIP3    H1 3405   3.123   1.154   3.715
 1154TIP3    H2 3406   3.184   1.256   3.808
 1155TIP3   OH2 3407   7.434   3.076   1.553
 1155TIP3    H1 3408   7.507   3.109   1.606
 1155TIP3    H2 3409   7.415   2.990   1.590
 1156TIP3   OH2 3410   5.545   5.297   0.013
 1156TIP3    H1 3411   5.518   5.365   0.076
 1156TIP3    H2 3412   5.467   5.282  -0.040
 1157TIP3   OH2 3413   0.299   6.156   5.919
 1157TIP3    H1 3414   0.309   6.098   5.994
 1157TIP3    H2 3415   0.286   6.243   5.956
 1158TIP3   OH2 3416   4.483   1.616   0.064
 1158TIP3    H1 3417   4.422   1.546   0.091
 1158TIP3    H2 3418   4.451   1.694   0.110
 1159TIP3   OH2 3419   3.266   0.130   5.206
 1159TIP3    H1 3420   3.200   0.183   5.160
 1159TIP3    H2 3421   3.218   0.053   5.237
 1160TIP3   OH2 3422   5.108   0.565   1.746
 1160TIP3    H1 3423   5.155   0.564   1.829
 1160TIP3    H2 3424   5.163   0.618   1.688
 1161TIP3   OH2 3425   0.569   0.915   4.548
 1161TIP3    H1 3426   0.549   0.987   4.608
 1161TIP3    H2 3427   0.492   0.909   4.491
 1162TIP3   OH2 3428   1.510   0.284   4.587
 1162TIP3    H1 3429   1.548   0.280   4.499
 1162TIP3    H2 3430   1.585   0.285   4.646
 1163TIP3   OH2 3431   2.242   0.046   2.295
 1163TIP3    H1 3432   2.284  -0.029   2.252
 1163TIP3    H2 3433   2.297   0.121   2.272
 1164TIP3   OH2 3434   3.939   6.924   1.622
 1164TIP3    H1 3435   3.852   6.903   1.655
 1164TIP3    H2 3436   3.993   6.935   1.700
 1165TIP3   OH2 3437   3.163   0.515   4.828
 1165TIP3    H1 3438   3.203   0.602   4.837
 1165TIP3    H2 3439   3.075   0.525   4.866
 1166TIP3   OH2 3440   4.668   5.386   1.109
 1166TIP3    H1 3441   4.727   5.396   1.034
 1166TIP3    H2 3442   4.688   5.461   1.166
 1167TIP3   OH2 3443   4.687   0.867   4.905
 1167TIP3    H1 3444   4.601   0.906   4.891
 1167TIP3    H2 3445   4.685   0.787   4.852
 1168TIP3   OH2 3446   2.891   2.765   6.494
 1168TIP3    H1 3447   2.821   2.700   6.488
 1168TIP3    H2 3448   2.942   2.753   6.413
 1169TIP3   OH2 3449   5.412   1.089   5.790
 1169TIP3    H1 3450   5.489   1.031   5.785
 1169TIP3    H2 3451   5.344   1.042   5.741
 1170TIP3   OH2 3452   7.146   2.722   6.012
 1170TIP3    H1 3453   7.126   2.652   5.950
 1170TIP3    H2 3454   7.150   2.801   5.957
 1171TIP3   OH2 3455   5.854   0.860   3.120
 1171TIP3    H1 3456   5.828   0.768   3.121
 1171TIP3    H2 3457   5.906   0.871   3.200
 1172TIP3   OH2 3458   6.517   4.940   0.541
 1172TIP3    H1 3459   6.489   4.861   0.495
 1172TIP3    H2 3460   6.546   4.999   0.472
 1173TIP3   OH2 3461   6.620   5.473   1.340
 1173TIP3    H1 3462   6.564   5.518   1.277
 1173TIP3    H2 3463   6.650   5.543   1.399
 1174TIP3   OH2 3464   6.245   0.935   2.086
 1174TIP3    H1 3465   6.217   0.966   2.172
 1174TIP3    H2 3466   6.199   0.852   2.074
 1175TIP3   OH2 3467   6.630   4.987   3.768
 1175TIP3    H1 3468   6.537   4.964   3.776
 1175TIP3    H2 3469   6.629   5.080   3.744
 1176TIP3   OH2 3470   2.137   3.109   5.906
 1176TIP3    H1 3471   2.197   3.177   5.935
 1176TIP3    H2 3472   2.193   3.044   5.863
 1177TIP3   OH2 3473   3.362   7.792   5.541
 1177TIP3    H1 3474   3.452   7.824   5.542
 1177TIP3    H2 3475   3.350   7.751   5.627
 1178TIP3   OH2 3476   8.045   6.594   3.755
 1178TIP3    H1 3477   7.955   6.596   3.724
 1178TIP3    H2 3478   8.066   6.501   3.763
 1179TIP3   OH2 3479   5.104   3.573   4.522
 1179TIP3    H1 3480   5.017   3.593   4.487
 1179TIP3    H2 3481   5.100   3.601   4.613
 1180TIP3   OH2 3482   1.245   2.969   5.385
 1180TIP3    H1 3483   1.190   2.967   5.307
 1180TIP3    H2 3484   1.329   2.935   5.355
 1181TIP3   OH2 3485   7.870   4.801   1.996
 1181TIP3    H1 3486   7.808   4.873   1.992
 1181TIP3    H2 3487   7.956   4.842   1.995
 1182TIP3   OH2 3488   0.719   3.160   2.539
 1182TIP3    H1 3489   0.778   3.212   2.594
 1182TIP3    H2 3490   0.774   3.125   2.470
 1183TIP3   OH2 3491   7.967   1.176   6.152
 1183TIP3    H1 3492   8.012   1.155   6.234
 1183TIP3    H2 3493   7.877   1.148   6.166
 1184TIP3   OH2 3494   1.203   5.319   6.002
 1184TIP3    H1 3495   1.152   5.242   6.026
 1184TIP3    H2 3496   1.154   5.392   6.040
 1185TIP3   OH2 3497   7.224   1.244   5.371
 1185TIP3    H1 3498   7.264   1.163   5.403
 1185TIP3    H2 3499   7.297   1.304   5.360
 1186TIP3   OH2 3500   2.745   0.416   0.471
 1186TIP3    H1 3501   2.654   0.389   0.461
 1186TIP3    H2 3502   2.787   0.344   0.518
 1187TIP3   OH2 3503   6.622   2.562   1.294
 1187TIP3    H1 3504   6.674   2.606   1.362
 1187TIP3    H2 3505   6.657   2.595   1.212
 1188TIP3   OH2 3506   2.517   3.602   2.947
 1188TIP3    H1 3507   2.567   3.683   2.949
 1188TIP3    H2 3508   2.429   3.629   2.918
 1189TIP3   OH2 3509   6.419   2.737   0.841
 1189TIP3    H1 3510   6.400   2.748   0.935
 1189TIP3    H2 3511   6.419   2.827   0.806
 1190TIP3   OH2 3512   1.254   1.536   0.791
 1190TIP3    H1 3513   1.198   1.598   0.839
 1190TIP3    H2 3514   1.341   1.547   0.830
 1191TIP3   OH2 3515   3.896   0.234   2.845
 1191TIP3    H1 3516   3.872   0.312   2.795
 1191TIP3    H2 3517   3.850   0.162   2.802
 1192TIP3   OH2 3518   4.192   1.724   6.039
 1192TIP3    H1 3519   4.199   1.630   6.021
 1192TIP3    H2 3520   4.158   1.729   6.128
 1193TIP3   OH2 3521   2.377   4.253   3.087
 1193TIP3    H1 3522   2.373   4.194   3.162
 1193TIP3    H2 3523   2.408   4.198   3.015
 1194TIP3   OH2 3524   8.062   2.630   4.926
 1194TIP3    H1 3525   8.013   2.712   4.918
 1194TIP3    H2 3526   8.006   2.564   4.886
 1195TIP3   OH2 3527   2.078   4.335   4.224
 1195TIP3    H1 3528   2.095   4.429   4.218
 1195TIP3    H2 3529   2.057   4.321   4.317
 1196TIP3   OH2 3530   2.479   0.830   3.131
 1196TIP3    H1 3531   2.532   0.761   3.093
 1196TIP3    H2 3532   2.492   0.821   3.226
 1197TIP3   OH2 3533   5.007   0.838   6.235
 1197TIP3    H1 3534   5.080   0.835   6.296
 1197TIP3    H2 3535   4.992   0.746   6.210
 1198TIP3   OH2 3536   3.837   1.165   1.083
 1198TIP3    H1 3537   3.801   1.155   0.995
 1198TIP3    H2 3538   3.761   1.163   1.141
 1199TIP3   OH2 3539   5.072   1.298   2.203
 1199TIP3    H1 3540   5.160   1.278   2.235
 1199TIP3    H2 3541   5.079   1.386   2.167
 1200TIP3   OH2 3542   2.736   1.312   0.327
 1200TIP3    H1 3543   2.698   1.272   0.405
 1200TIP3    H2 3544   2.804   1.370   0.359
 1201TIP3   OH2 3545   4.515   2.361   4.624
 1201TIP3    H1 3546   4.493   2.348   4.531
 1201TIP3    H2 3547   4.432   2.352   4.670
 1202TIP3   OH2 3548   3.342   3.962   5.463
 1202TIP3    H1 3549   3.379   3.905   5.530
 1202TIP3    H2 3550   3.248   3.941   5.463
 1203TIP3   OH2 3551   3.982   1.783   0.581
 1203TIP3    H1 3552   3.956   1.710   0.637
 1203TIP3    H2 3553   3.902   1.836   0.572
 1204TIP3   OH2 3554   4.853   5.005   5.481
 1204TIP3    H1 3555   4.869   4.929   5.426
 1204TIP3    H2 3556   4.935   5.053   5.482
 1205TIP3   OH2 3557   1.434   7.649   4.742
 1205TIP3    H1 3558   1.413   7.660   4.834
 1205TIP3    H2 3559   1.449   7.555   4.731
 1206TIP3   OH2 3560   4.733   0.844   5.181
 1206TIP3    H1 3561   4.641   0.818   5.178
 1206TIP3    H2 3562   4.746   0.895   5.101
 1207TIP3   OH2 3563   7.993   3.773   5.919
 1207TIP3    H1 3564   7.954   3.816   5.843
 1207TIP3    H2 3565   7.921   3.767   5.982
 1208TIP3   OH2 3566   8.192   4.296   1.998
 1208TIP3    H1 3567   8.103   4.262   1.987
 1208TIP3    H2 3568   8.180   4.391   2.002
 1209TIP3   OH2 3569   3.532   5.726   2.529
 1209TIP3    H1 3570   3.490   5.779   2.462
 1209TIP3    H2 3571   3.621   5.762   2.537
 1210TIP3   OH2 3572   4.968   6.787   3.525
 1210TIP3    H1 3573   4.900   6.772   3.591
 1210TIP3    H2 3574   5.040   6.829   3.572
 1211TIP3   OH2 3575   2.910   3.038   5.814
 1211TIP3    H1 3576   2.916   3.129   5.842
 1211TIP3    H2 3577   2.912   3.042   5.718
 1212TIP3   OH2 3578   2.101   4.753   2.208
 1212TIP3    H1 3579   2.062   4.679   2.161
 1212TIP3    H2 3580   2.142   4.806   2.140
 1213TIP3   OH2 3581   4.008   7.238   1.828
 1213TIP3    H1 3582   3.912   7.233   1.834
 1213TIP3    H2 3583   4.027   7.331   1.832
 1214TIP3   OH2 3584   0.168   7.386   3.858
 1214TIP3    H1 3585   0.185   7.462   3.803
 1214TIP3    H2 3586   0.155   7.314   3.796
 1215TIP3   OH2 3587   1.126   0.080   6.608
 1215TIP3    H1 3588   1.054   0.136   6.636
 1215TIP3    H2 3589   1.123   0.083   6.513
 1216TIP3   OH2 3590   2.387   4.763   2.694
 1216TIP3    H1 3591   2.436   4.782   2.614
 1216TIP3    H2 3592   2.435   4.691   2.735
 1217TIP3   OH2 3593   0.685   4.070   2.762
 1217TIP3    H1 3594   0.638   4.129   2.704
 1217TIP3    H2 3595   0.776   4.102   2.761
 1218TIP3   OH2 3596   5.549   2.292   2.213
 1218TIP3    H1 3597   5.586   2.220   2.264
 1218TIP3    H2 3598   5.619   2.317   2.154
 1219TIP3   OH2 3599   2.377   4.665   6.280
 1219TIP3    H1 3600   2.326   4.616   6.216
 1219TIP3    H2 3601   2.363   4.756   6.257
 1220TIP3   OH2 3602   6.116   5.155   1.960
 1220TIP3    H1 3603   6.076   5.207   1.891
 1220TIP3    H2 3604   6.153   5.219   2.020
 1221TIP3   OH2 3605   5.683   6.383   6.055
 1221TIP3    H1 3606   5.724   6.338   6.129
 1221TIP3    H2 3607   5.606   6.425   6.092
 1222TIP3   OH2 3608   1.243   6.173   6.244
 1222TIP3    H1 3609   1.161   6.179   6.196
 1222TIP3    H2 3610   1.248   6.256   6.292
 1223TIP3   OH2 3611   0.500   4.090   4.378
 1223TIP3    H1 3612   0.404   4.095   4.371
 1223TIP3    H2 3613   0.519   3.996   4.379
 1224TIP3   OH2 3614   6.497   7.333   4.838
 1224TIP3    H1 3615   6.423   7.315   4.780
 1224TIP3    H2 3616   6.473   7.291   4.921
 1225TIP3   OH2 3617   2.950   2.105   1.237
 1225TIP3    H1 3618   2.930   2.065   1.152
 1225TIP3    H2 3619   2.948   2.032   1.298
 1226TIP3   OH2 3620   3.236   5.978   3.387
 1226TIP3    H1 3621   3.268   5.904   3.336
 1226TIP3    H2 3622   3.276   6.055   3.345
 1227TIP3   OH2 3623   7.678   7.350   1.713
 1227TIP3    H1 3624   7.748   7.406   1.678
 1227TIP3    H2 3625   7.678   7.273   1.656
 1228TIP3   OH2 3626   7.196   1.960   1.851
 1228TIP3    H1 3627   7.101   1.969   1.854
 1228TIP3    H2 3628   7.228   2.044   1.820
 1229TIP3   OH2 3629   6.344   3.239   5.378
 1229TIP3    H1 3630   6.410   3.309   5.377
 1229TIP3    H2 3631   6.277   3.268   5.316
 1230TIP3   OH2 3632   7.309   6.304   1.377
 1230TIP3    H1 3633   7.328   6.350   1.295
 1230TIP3    H2 3634   7.375   6.235   1.382
 1231TIP3   OH2 3635   7.231   2.646   1.771
 1231TIP3    H1 3636   7.228   2.552   1.787
 1231TIP3    H2 3637   7.170   2.661   1.699
 1232TIP3   OH2 3638   1.944   5.266   0.047
 1232TIP3    H1 3639   2.034   5.269   0.082
 1232TIP3    H2 3640   1.943   5.333  -0.021
 1233TIP3   OH2 3641   7.923   3.023   2.672
 1233TIP3    H1 3642   7.926   3.102   2.617
 1233TIP3    H2 3643   7.975   2.959   2.625
 1234TIP3   OH2 3644   4.031   4.554   1.899
 1234TIP3    H1 3645   4.065   4.489   1.961
 1234TIP3    H2 3646   4.057   4.520   1.813
 1235TIP3   OH2 3647   5.840   4.362   0.346
 1235TIP3    H1 3648   5.915   4.380   0.402
 1235TIP3    H2 3649   5.765   4.400   0.393
 1236TIP3   OH2 3650   0.667   6.451   0.666
 1236TIP3    H1 3651   0.614   6.373   0.650
 1236TIP3    H2 3652   0.744   6.439   0.609
 1237TIP3   OH2 3653   8.033   1.764   6.599
 1237TIP3    H1 3654   8.026   1.858   6.578
 1237TIP3    H2 3655   8.123   1.754   6.630
 1238TIP3   OH2 3656   1.798   6.080   1.087
 1238TIP3    H1 3657   1.817   6.044   1.000
 1238TIP3    H2 3658   1.884   6.103   1.122
 1239TIP3   OH2 3659   0.266   3.303   4.050
 1239TIP3    H1 3660   0.336   3.339   4.105
 1239TIP3    H2 3661   0.195   3.366   4.057
 1240TIP3   OH2 3662   3.495   7.510   0.156
 1240TIP3    H1 3663   3.573   7.554   0.189
 1240TIP3    H2 3664   3.482   7.546   0.068
 1241TIP3   OH2 3665   0.842   6.252   0.872
 1241TIP3    H1 3666   0.899   6.326   0.850
 1241TIP3    H2 3667   0.762   6.292   0.904
 1242TIP3   OH2 3668   0.438   0.217   0.649
 1242TIP3    H1 3669   0.498   0.145   0.630
 1242TIP3    H2 3670   0.466   0.288   0.591
 1243TIP3   OH2 3671   2.214   2.525   0.489
 1243TIP3    H1 3672   2.165   2.562   0.415
 1243TIP3    H2 3673   2.259   2.449   0.453
 1244TIP3   OH2 3674   3.408   2.818   3.022
 1244TIP3    H1 3675   3.446   2.731   3.013
 1244TIP3    H2 3676   3.480   2.873   3.053
 1245TIP3   OH2 3677   3.881   5.467   5.076
 1245TIP3    H1 3678   3.942   5.539   5.095
 1245TIP3    H2 3679   3.867   5.472   4.982
 1246TIP3   OH2 3680   1.645   6.731   4.289
 1246TIP3    H1 3681   1.619   6.714   4.379
 1246TIP3    H2 3682   1.633   6.826   4.277
 1247TIP3   OH2 3683   3.499   6.005   6.554
 1247TIP3    H1 3684   3.489   5.931   6.614
 1247TIP3    H2 3685   3.520   5.965   6.470
 1248TIP3   OH2 3686   0.126   5.446   2.737
 1248TIP3    H1 3687   0.173   5.412   2.661
 1248TIP3    H2 3688   0.061   5.506   2.700
 1249TIP3   OH2 3689   3.306  -0.026   0.163
 1249TIP3    H1 3690   3.385   0.025   0.177
 1249TIP3    H2 3691   3.243   0.036   0.124
 1250TIP3   OH2 3692   4.757   7.619   3.985
 1250TIP3    H1 3693   4.793   7.672   4.056
 1250TIP3    H2 3694   4.673   7.589   4.018
 1251TIP3   OH2 3695   7.155   3.009   0.833
 1251TIP3    H1 3696   7.151   2.914   0.836
 1251TIP3    H2 3697   7.145   3.030   0.740
 1252TIP3   OH2 3698   1.988   2.916   2.635
 1252TIP3    H1 3699   1.966   2.907   2.727
 1252TIP3    H2 3700   1.904   2.906   2.589
 1253TIP3   OH2 3701   6.490   5.766   6.495
 1253TIP3    H1 3702   6.396   5.781   6.485
 1253TIP3    H2 3703   6.502   5.744   6.587
 1254TIP3   OH2 3704   7.222   2.575   0.615
 1254TIP3    H1 3705   7.209   2.613   0.702
 1254TIP3    H2 3706   7.286   2.505   0.629
 1255TIP3   OH2 3707   4.128   4.958   5.288
 1255TIP3    H1 3708   4.121   4.864   5.270
 1255TIP3    H2 3709   4.051   4.978   5.341
 1256TIP3   OH2 3710   3.389   0.703   4.041
 1256TIP3    H1 3711   3.381   0.654   4.123
 1256TIP3    H2 3712   3.302   0.697   4.001
 1257TIP3   OH2 3713   5.149   3.513   3.400
 1257TIP3    H1 3714   5.132   3.571   3.474
 1257TIP3    H2 3715   5.064   3.500   3.359
 1258TIP3   OH2 3716   7.634   3.577   3.017
 1258TIP3    H1 3717   7.728   3.587   3.003
 1258TIP3    H2 3718   7.609   3.503   2.962
 1259TIP3   OH2 3719   3.223   4.347   6.627
 1259TIP3    H1 3720   3.159   4.412   6.657
 1259TIP3    H2 3721   3.301   4.362   6.681
 1260TIP3   OH2 3722   3.757   0.281   5.197
 1260TIP3    H1 3723   3.676   0.234   5.218
 1260TIP3    H2 3724   3.799   0.296   5.282
 1261TIP3   OH2 3725   5.505   0.647   0.965
 1261TIP3    H1 3726   5.565   0.657   0.890
 1261TIP3    H2 3727   5.438   0.713   0.950
 1262TIP3   OH2 3728   3.640   0.587   4.897
 1262TIP3    H1 3729   3.718   0.558   4.942
 1262TIP3    H2 3730   3.567   0.551   4.948
 1263TIP3   OH2 3731   5.591   0.474   1.622
 1263TIP3    H1 3732   5.595   0.468   1.717
 1263TIP3    H2 3733   5.499   0.460   1.601
 1264TIP3   OH2 3734   4.066   6.240   3.701
 1264TIP3    H1 3735   4.022   6.304   3.758
 1264TIP3    H2 3736   4.031   6.155   3.729
 1265TIP3   OH2 3737   6.944   1.066   2.126
 1265TIP3    H1 3738   6.848   1.067   2.124
 1265TIP3    H2 3739   6.969   1.149   2.087
 1266TIP3   OH2 3740   8.091   0.015   0.094
 1266TIP3    H1 3741   8.120   0.101   0.065
 1266TIP3    H2 3742   8.021  -0.009   0.033
 1267TIP3   OH2 3743   0.174   7.462   0.099
 1267TIP3    H1 3744   0.252   7.517   0.098
 1267TIP3    H2 3745   0.180   7.410   0.019
 1268TIP3   OH2 3746   0.110   0.710   3.040
 1268TIP3    H1 3747   0.081   0.623   3.069
 1268TIP3    H2 3748   0.040   0.741   2.982
 1269TIP3   OH2 3749   0.763   4.377   5.087
 1269TIP3    H1 3750   0.828   4.326   5.038
 1269TIP3    H2 3751   0.808   4.402   5.168
 1270TIP3   OH2 3752   3.442   4.004   1.085
 1270TIP3    H1 3753   3.380   4.039   1.149
 1270TIP3    H2 3754   3.387   3.955   1.024
 1271TIP3   OH2 3755   0.584   7.476   4.383
 1271TIP3    H1 3756   0.550   7.476   4.473
 1271TIP3    H2 3757   0.581   7.567   4.355
 1272TIP3   OH2 3758   4.315   0.708   1.022
 1272TIP3    H1 3759   4.256   0.761   0.968
 1272TIP3    H2 3760   4.310   0.620   0.983
 1273TIP3   OH2 3761   0.109   4.239   5.577
 1273TIP3    H1 3762   0.144   4.202   5.496
 1273TIP3    H2 3763   0.158   4.195   5.647
 1274TIP3   OH2 3764   7.369   1.205   2.652
 1274TIP3    H1 3765   7.425   1.278   2.627
 1274TIP3    H2 3766   7.390   1.136   2.589
 1275TIP3   OH2 3767   8.021   0.468   4.792
 1275TIP3    H1 3768   8.071   0.432   4.719
 1275TIP3    H2 3769   7.935   0.488   4.754
 1276TIP3   OH2 3770   4.024   2.229   4.882
 1276TIP3    H1 3771   4.004   2.276   4.801
 1276TIP3    H2 3772   4.088   2.162   4.857
 1277TIP3   OH2 3773   0.052   3.771   5.479
 1277TIP3    H1 3774   0.066   3.722   5.398
 1277TIP3    H2 3775   0.136   3.767   5.525
 1278TIP3   OH2 3776   2.110   1.708   6.242
 1278TIP3    H1 3777   2.161   1.639   6.285
 1278TIP3    H2 3778   2.111   1.684   6.149
 1279TIP3   OH2 3779   0.423   2.240   4.461
 1279TIP3    H1 3780   0.480   2.292   4.517
 1279TIP3    H2 3781   0.445   2.269   4.372
 1280TIP3   OH2 3782   4.005   6.708   1.928
 1280TIP3    H1 3783   3.915   6.694   1.897
 1280TIP3    H2 3784   4.012   6.803   1.938
 1281TIP3   OH2 3785   1.551   6.159   3.736
 1281TIP3    H1 3786   1.461   6.158   3.767
 1281TIP3    H2 3787   1.573   6.252   3.727
 1282TIP3   OH2 3788   7.296   4.793   0.684
 1282TIP3    H1 3789   7.305   4.784   0.779
 1282TIP3    H2 3790   7.300   4.704   0.651
 1283TIP3   OH2 3791   0.963   4.805   2.720
 1283TIP3    H1 3792   1.052   4.840   2.718
 1283TIP3    H2 3793   0.974   4.710   2.726
 1284TIP3   OH2 3794   2.215   1.805   5.504
 1284TIP3    H1 3795   2.284   1.831   5.566
 1284TIP3    H2 3796   2.153   1.877   5.506
 1285TIP3   OH2 3797   5.655   2.624   5.151
 1285TIP3    H1 3798   5.730   2.650   5.097
 1285TIP3    H2 3799   5.579   2.637   5.094
 1286TIP3   OH2 3800   3.835   2.780   0.590
 1286TIP3    H1 3801   3.865   2.869   0.608
 1286TIP3    H2 3802   3.904   2.723   0.625
 1287TIP3   OH2 3803   2.613   3.410   6.467
 1287TIP3    H1 3804   2.589   3.398   6.559
 1287TIP3    H2 3805   2.530   3.404   6.420
 1288TIP3   OH2 3806   2.923   6.193   4.053
 1288TIP3    H1 3807   3.014   6.221   4.046
 1288TIP3    H2 3808   2.926   6.113   4.106
 1289TIP3   OH2 3809   6.785   6.810   6.720
 1289TIP3    H1 3810   6.830   6.832   6.639
 1289TIP3    H2 3811   6.713   6.753   6.694
 1290TIP3   OH2 3812   3.087   7.055   0.647
 1290TIP3    H1 3813   3.076   7.149   0.664
 1290TIP3    H2 3814   3.179   7.047   0.622
 1291TIP3   OH2 3815   7.018   4.219   6.679
 1291TIP3    H1 3816   7.010   4.251   6.590
 1291TIP3    H2 3817   6.953   4.268   6.729
 1292TIP3   OH2 3818   6.859   1.669   0.057
 1292TIP3    H1 3819   6.826   1.750   0.096
 1292TIP3    H2 3820   6.908   1.626   0.128
 1293TIP3   OH2 3821   0.882   0.985   0.873
 1293TIP3    H1 3822   0.918   0.934   0.800
 1293TIP3    H2 3823   0.928   1.069   0.868
 1294TIP3   OH2 3824   7.578   2.729   4.399
 1294TIP3    H1 3825   7.517   2.799   4.422
 1294TIP3    H2 3826   7.657   2.775   4.369
 1295TIP3   OH2 3827   2.409   5.478   0.886
 1295TIP3    H1 3828   2.372   5.495   0.799
 1295TIP3    H2 3829   2.337   5.495   0.947
 1296TIP3   OH2 3830   2.655   7.028   2.316
 1296TIP3    H1 3831   2.643   7.109   2.267
 1296TIP3    H2 3832   2.707   6.972   2.258
 1297TIP3   OH2 3833   3.438   5.437   3.907
 1297TIP3    H1 3834   3.415   5.392   3.988
 1297TIP3    H2 3835   3.356   5.473   3.875
 1298TIP3   OH2 3836   1.268   2.343   4.850
 1298TIP3    H1 3837   1.193   2.401   4.846
 1298TIP3    H2 3838   1.310   2.363   4.933
 1299TIP3   OH2 3839   3.960   1.921   4.569
 1299TIP3    H1 3840   3.921   1.971   4.498
 1299TIP3    H2 3841   4.049   1.901   4.539
 1300TIP3   OH2 3842   7.580   5.219   1.439
 1300TIP3    H1 3843   7.526   5.206   1.517
 1300TIP3    H2 3844   7.536   5.167   1.371
 1301TIP3   OH2 3845   7.700   0.913   3.516
 1301TIP3    H1 3846   7.790   0.900   3.545
 1301TIP3    H2 3847   7.647   0.868   3.582
 1302TIP3   OH2 3848   0.742   6.012   1.281
 1302TIP3    H1 3849   0.671   5.995   1.219
 1302TIP3    H2 3850   0.746   6.107   1.286
 1303TIP3   OH2 3851   0.629   1.284   5.744
 1303TIP3    H1 3852   0.553   1.249   5.790
 1303TIP3    H2 3853   0.703   1.266   5.802
 1304TIP3   OH2 3854   5.977   7.675   2.821
 1304TIP3    H1 3855   5.959   7.617   2.895
 1304TIP3    H2 3856   5.927   7.638   2.749
 1305TIP3   OH2 3857   0.043   7.382   4.087
 1305TIP3    H1 3858   0.088   7.375   4.002
 1305TIP3    H2 3859   0.111   7.413   4.147
 1306TIP3   OH2 3860   3.151   4.962   4.228
 1306TIP3    H1 3861   3.179   4.874   4.253
 1306TIP3    H2 3862   3.224   4.997   4.178
 1307TIP3   OH2 3863   5.550   7.018   6.189
 1307TIP3    H1 3864   5.505   7.001   6.271
 1307TIP3    H2 3865   5.635   6.976   6.199
 1308TIP3   OH2 3866   2.821   7.605   4.278
 1308TIP3    H1 3867   2.917   7.603   4.278
 1308TIP3    H2 3868   2.799   7.695   4.252
 1309TIP3   OH2 3869   5.495   6.264   6.389
 1309TIP3    H1 3870   5.420   6.230   6.437
 1309TIP3    H2 3871   5.483   6.359   6.389
 1310TIP3   OH2 3872   0.919   1.898   4.974
 1310TIP3    H1 3873   0.945   1.865   4.888
 1310TIP3    H2 3874   0.832   1.935   4.961
 1311TIP3   OH2 3875   2.439   2.001   2.511
 1311TIP3    H1 3876   2.528   2.028   2.492
 1311TIP3    H2 3877   2.409   1.959   2.430
 1312TIP3   OH2 3878   3.663   4.733   5.123
 1312TIP3    H1 3879   3.620   4.808   5.164
 1312TIP3    H2 3880   3.591   4.672   5.103
 1313TIP3   OH2 3881   7.901   5.980   3.840
 1313TIP3    H1 3882   7.929   5.957   3.929
 1313TIP3    H2 3883   7.823   6.034   3.854
 1314TIP3   OH2 3884   6.250   4.205   6.689
 1314TIP3    H1 3885   6.301   4.255   6.625
 1314TIP3    H2 3886   6.297   4.122   6.699
 1315TIP3   OH2 3887   2.994   2.194   6.111
 1315TIP3    H1 3888   2.988   2.272   6.166
 1315TIP3    H2 3889   3.068   2.211   6.054
 1316TIP3   OH2 3890   7.907   5.414   5.617
 1316TIP3    H1 3891   7.834   5.352   5.611
 1316TIP3    H2 3892   7.972   5.369   5.672
 1317TIP3   OH2 3893   0.900   0.794   3.019
 1317TIP3    H1 3894   0.952   0.760   2.946
 1317TIP3    H2 3895   0.951   0.772   3.097
 1318TIP3   OH2 3896   6.765   6.244   3.655
 1318TIP3    H1 3897   6.858   6.260   3.637
 1318TIP3    H2 3898   6.762   6.229   3.750
 1319TIP3   OH2 3899   4.916   0.383   4.409
 1319TIP3    H1 3900   4.832   0.421   4.433
 1319TIP3    H2 3901   4.979   0.454   4.420
 1320TIP3   OH2 3902   6.389   1.594   5.678
 1320TIP3    H1 3903   6.388   1.690   5.676
 1320TIP3    H2 3904   6.300   1.570   5.704
 1321TIP3   OH2 3905   2.993   2.537   2.600
 1321TIP3    H1 3906   2.953   2.617   2.567
 1321TIP3    H2 3907   3.059   2.514   2.535
 1322TIP3   OH2 3908   7.650   4.246   1.710
 1322TIP3    H1 3909   7.630   4.314   1.774
 1322TIP3    H2 3910   7.593   4.173   1.734
 1323TIP3   OH2 3911   1.789   6.654   1.945
 1323TIP3    H1 3912   1.728   6.722   1.916
 1323TIP3    H2 3913   1.758   6.574   1.902
 1324TIP3   OH2 3914   5.267   3.137   1.075
 1324TIP3    H1 3915   5.252   3.110   1.166
 1324TIP3    H2 3916   5.361   3.121   1.061
 1325TIP3   OH2 3917   4.066   6.900   3.738
 1325TIP3    H1 3918   4.123   6.858   3.674
 1325TIP3    H2 3919   4.103   6.878   3.823
 1326TIP3   OH2 3920   2.622   5.730   2.942
 1326TIP3    H1 3921   2.609   5.692   2.855
 1326TIP3    H2 3922   2.664   5.660   2.993
 1327TIP3   OH2 3923   3.275   4.007   2.302
 1327TIP3    H1 3924   3.363   4.010   2.265
 1327TIP3    H2 3925   3.220   4.049   2.236
 1328TIP3   OH2 3926   4.147   3.891   6.776
 1328TIP3    H1 3927   4.137   3.825   6.708
 1328TIP3    H2 3928   4.064   3.939   6.776
 1329TIP3   OH2 3929   6.702   4.999   0.331
 1329TIP3    H1 3930   6.734   4.982   0.243
 1329TIP3    H2 3931   6.773   4.970   0.388
 1330TIP3   OH2 3932   4.688   3.268   1.502
 1330TIP3    H1 3933   4.652   3.347   1.462
 1330TIP3    H2 3934   4.759   3.298   1.558
 1331TIP3   OH2 3935   2.924   4.431   1.519
 1331TIP3    H1 3936   2.972   4.511   1.496
 1331TIP3    H2 3937   2.834   4.450   1.492
 1332TIP3   OH2 3938   3.098   7.276   5.743
 1332TIP3    H1 3939   3.078   7.182   5.751
 1332TIP3    H2 3940   3.193   7.280   5.740
 1333TIP3   OH2 3941   5.323   1.590   1.783
 1333TIP3    H1 3942   5.375   1.554   1.711
 1333TIP3    H2 3943   5.372   1.666   1.813
 1334TIP3   OH2 3944   2.522   3.852   6.001
 1334TIP3    H1 3945   2.535   3.776   6.057
 1334TIP3    H2 3946   2.428   3.852   5.983
 1335TIP3   OH2 3947   1.343   1.543   2.095
 1335TIP3    H1 3948   1.257   1.527   2.057
 1335TIP3    H2 3949   1.349   1.639   2.102
 1336TIP3   OH2 3950   7.270   3.922   2.793
 1336TIP3    H1 3951   7.349   3.886   2.833
 1336TIP3    H2 3952   7.258   4.007   2.834
 1337TIP3   OH2 3953   1.599   6.563   4.813
 1337TIP3    H1 3954   1.590   6.641   4.867
 1337TIP3    H2 3955   1.574   6.591   4.725
 1338TIP3   OH2 3956   2.271   0.400   5.224
 1338TIP3    H1 3957   2.226   0.433   5.302
 1338TIP3    H2 3958   2.361   0.431   5.234
 1339TIP3   OH2 3959   5.648   5.787   4.511
 1339TIP3    H1 3960   5.684   5.785   4.600
 1339TIP3    H2 3961   5.554   5.774   4.523
 1340TIP3   OH2 3962   4.297   6.358   5.105
 1340TIP3    H1 3963   4.356   6.327   5.037
 1340TIP3    H2 3964   4.258   6.438   5.068
 1341TIP3   OH2 3965   5.696   6.353   3.340
 1341TIP3    H1 3966   5.711   6.413   3.413
 1341TIP3    H2 3967   5.601   6.350   3.330
 1342TIP3   OH2 3968   6.313   4.819   6.306
 1342TIP3    H1 3969   6.294   4.894   6.248
 1342TIP3    H2 3970   6.234   4.808   6.358
 1343TIP3   OH2 3971   0.591   7.441   6.332
 1343TIP3    H1 3972   0.618   7.520   6.285
 1343TIP3    H2 3973   0.543   7.389   6.267
 1344TIP3   OH2 3974   3.401   7.464   2.777
 1344TIP3    H1 3975   3.477   7.425   2.821
 1344TIP3    H2 3976   3.399   7.422   2.691
 1345TIP3   OH2 3977   4.656   1.378   5.752
 1345TIP3    H1 3978   4.709   1.316   5.804
 1345TIP3    H2 3979   4.631   1.329   5.674
 1346TIP3   OH2 3980   3.584   2.164   2.241
 1346TIP3    H1 3981   3.544   2.141   2.157
 1346TIP3    H2 3982   3.669   2.120   2.239
 1347TIP3   OH2 3983   5.921   2.104   2.177
 1347TIP3    H1 3984   5.867   2.155   2.116
 1347TIP3    H2 3985   5.999   2.081   2.126
 1348TIP3   OH2 3986   1.180   5.397   2.361
 1348TIP3    H1 3987   1.167   5.360   2.449
 1348TIP3    H2 3988   1.250   5.460   2.372
 1349TIP3   OH2 3989   3.692   0.365   3.854
 1349TIP3    H1 3990   3.742   0.356   3.935
 1349TIP3    H2 3991   3.725   0.296   3.797
 1350TIP3   OH2 3992   3.424   4.600   5.967
 1350TIP3    H1 3993   3.499   4.578   6.022
 1350TIP3    H2 3994   3.450   4.679   5.921
 1351TIP3   OH2 3995   4.203   7.573   5.019
 1351TIP3    H1 3996   4.270   7.612   5.074
 1351TIP3    H2 3997   4.177   7.493   5.064
 1352TIP3   OH2 3998   4.041   6.559   5.213
 1352TIP3    H1 3999   4.110   6.595   5.157
 1352TIP3    H2 4000   4.014   6.479   5.168
 1353TIP3   OH2 4001   6.427   6.501   0.809
 1353TIP3    H1 4002   6.456   6.588   0.840
 1353TIP3    H2 4003   6.345   6.486   0.855
 1354TIP3   OH2 4004   1.919   4.788   2.436
 1354TIP3    H1 4005   1.974   4.790   2.514
 1354TIP3    H2 4006   1.980   4.765   2.365
 1355TIP3   OH2 4007   5.699   4.522   6.405
 1355TIP3    H1 4008   5.634   4.570   6.457
 1355TIP3    H2 4009   5.659   4.512   6.319
 1356TIP3   OH2 4010   7.349   6.345   0.634
 1356TIP3    H1 4011   7.335   6.254   0.606
 1356TIP3    H2 4012   7.350   6.395   0.553
 1357TIP3   OH2 4013   0.349   6.826   1.747
 1357TIP3    H1 4014   0.426   6.817   1.804
 1357TIP3    H2 4015   0.385   6.827   1.658
 1358TIP3   OH2 4016   0.906   6.922   2.140
 1358TIP3    H1 4017   0.978   6.971   2.179
 1358TIP3    H2 4018   0.914   6.834   2.177
 1359TIP3   OH2 4019   0.866   6.437   5.685
 1359TIP3    H1 4020   0.842   6.504   5.621
 1359TIP3    H2 4021   0.884   6.359   5.632
 1360TIP3   OH2 4022   1.061   2.608   2.074
 1360TIP3    H1 4023   1.016   2.578   1.995
 1360TIP3    H2 4024   1.003   2.675   2.111
 1361TIP3   OH2 4025   4.671   5.480   0.434
 1361TIP3    H1 4026   4.630   5.408   0.386
 1361TIP3    H2 4027   4.600   5.519   0.485
 1362TIP3   OH2 4028   0.091   5.930   5.469
 1362TIP3    H1 4029   0.096   6.011   5.519
 1362TIP3    H2 4030   0.028   5.876   5.517
 1363TIP3   OH2 4031   3.584   4.019   5.637
 1363TIP3    H1 4032   3.677   3.997   5.648
 1363TIP3    H2 4033   3.540   3.935   5.627
 1364TIP3   OH2 4034   7.784   4.749   3.554
 1364TIP3    H1 4035   7.862   4.801   3.533
 1364TIP3    H2 4036   7.818   4.667   3.587
 1365TIP3   OH2 4037   0.453   2.269   4.186
 1365TIP3    H1 4038   0.468   2.313   4.103
 1365TIP3    H2 4039   0.528   2.211   4.197
 1366TIP3   OH2 4040   4.887   6.670   5.313
 1366TIP3    H1 4041   4.859   6.759   5.331
 1366TIP3    H2 4042   4.840   6.645   5.234
 1367TIP3   OH2 4043   4.638   0.656   6.622
 1367TIP3    H1 4044   4.596   0.576   6.654
 1367TIP3    H2 4045   4.731   0.642   6.638
 1368TIP3   OH2 4046   1.758   5.441   6.130
 1368TIP3    H1 4047   1.741   5.414   6.221
 1368TIP3    H2 4048   1.677   5.422   6.084
 1369TIP3   OH2 4049   7.690   0.986   5.900
 1369TIP3    H1 4050   7.604   1.029   5.905
 1369TIP3    H2 4051   7.726   0.994   5.988
 1370TIP3   OH2 4052   3.591   3.459   3.721
 1370TIP3    H1 4053   3.670   3.430   3.675
 1370TIP3    H2 4054   3.598   3.555   3.722
 1371TIP3   OH2 4055   3.211   4.319   0.370
 1371TIP3    H1 4056   3.280   4.367   0.416
 1371TIP3    H2 4057   3.136   4.321   0.430
 1372TIP3   OH2 4058   5.365   4.740   0.803
 1372TIP3    H1 4059   5.353   4.829   0.770
 1372TIP3    H2 4060   5.378   4.687   0.725
 1373TIP3   OH2 4061   2.260   6.179   0.114
 1373TIP3    H1 4062   2.284   6.255   0.062
 1373TIP3    H2 4063   2.252   6.107   0.051
 1374TIP3   OH2 4064   5.324   5.757   0.463
 1374TIP3    H1 4065   5.309   5.852   0.460
 1374TIP3    H2 4066   5.377   5.744   0.542
 1375TIP3   OH2 4067   8.069   1.476   3.168
 1375TIP3    H1 4068   8.131   1.548   3.158
 1375TIP3    H2 4069   7.990   1.506   3.122
 1376TIP3   OH2 4070   4.317   5.039   3.831
 1376TIP3    H1 4071   4.356   5.122   3.805
 1376TIP3    H2 4072   4.379   5.002   3.894
 1377TIP3   OH2 4073   5.944   5.889   5.258
 1377TIP3    H1 4074   5.854   5.858   5.247
 1377TIP3    H2 4075   5.951   5.965   5.200
 1378TIP3   OH2 4076   6.727   6.277   3.923
 1378TIP3    H1 4077   6.735   6.242   4.012
 1378TIP3    H2 4078   6.773   6.361   3.927
 1379TIP3   OH2 4079   1.613   1.666   1.592
 1379TIP3    H1 4080   1.554   1.721   1.644
 1379TIP3    H2 4081   1.565   1.651   1.511
 1380TIP3   OH2 4082   3.927   4.460   0.186
 1380TIP3    H1 4083   3.928   4.550   0.218
 1380TIP3    H2 4084   3.886   4.410   0.257
 1381TIP3   OH2 4085   5.498   0.203   3.324
 1381TIP3    H1 4086   5.484   0.141   3.253
 1381TIP3    H2 4087   5.415   0.251   3.332
 1382TIP3   OH2 4088   0.995   5.544  -0.075
 1382TIP3    H1 4089   1.027   5.480  -0.012
 1382TIP3    H2 4090   1.037   5.627  -0.050
 1383TIP3   OH2 4091   5.473   1.181   0.063
 1383TIP3    H1 4092   5.568   1.185   0.048
 1383TIP3    H2 4093   5.457   1.090   0.088
 1384TIP3   OH2 4094   2.884   0.786   5.842
 1384TIP3    H1 4095   2.844   0.873   5.848
 1384TIP3    H2 4096   2.932   0.776   5.924
 1385TIP3   OH2 4097   3.654   5.305   2.284
 1385TIP3    H1 4098   3.716   5.328   2.214
 1385TIP3    H2 4099   3.705   5.312   2.364
 1386TIP3   OH2 4100   7.783   0.535   1.079
 1386TIP3    H1 4101   7.794   0.617   1.127
 1386TIP3    H2 4102   7.720   0.556   1.010
 1387TIP3   OH2 4103   1.403   5.332   1.097
 1387TIP3    H1 4104   1.330   5.364   1.044
 1387TIP3    H2 4105   1.387   5.370   1.184
 1388TIP3   OH2 4106   0.665   0.729   0.583
 1388TIP3    H1 4107   0.743   0.770   0.546
 1388TIP3    H2 4108   0.594   0.755   0.525
 1389TIP3   OH2 4109   4.571   7.385   3.087
 1389TIP3    H1 4110   4.576   7.363   3.180
 1389TIP3    H2 4111   4.575   7.301   3.042
 1390TIP3   OH2 4112   0.132   4.694   4.185
 1390TIP3    H1 4113   0.189   4.658   4.117
 1390TIP3    H2 4114   0.045   4.662   4.162
 1391TIP3   OH2 4115   7.828   1.126   3.297
 1391TIP3    H1 4116   7.849   1.209   3.254
 1391TIP3    H2 4117   7.733   1.118   3.289
 1392TIP3   OH2 4118   2.781   1.295   3.898
 1392TIP3    H1 4119   2.705   1.343   3.865
 1392TIP3    H2 4120   2.854   1.356   3.890
 1393TIP3   OH2 4121   1.542   5.489   3.601
 1393TIP3    H1 4122   1.586   5.413   3.639
 1393TIP3    H2 4123   1.583   5.564   3.643
 1394TIP3   OH2 4124   6.342   5.312   5.645
 1394TIP3    H1 4125   6.348   5.336   5.738
 1394TIP3    H2 4126   6.392   5.379   5.600
 1395TIP3   OH2 4127   2.073   6.907   4.852
 1395TIP3    H1 4128   2.107   6.893   4.941
 1395TIP3    H2 4129   1.988   6.864   4.852
 1396TIP3   OH2 4130   2.400   4.037   2.498
 1396TIP3    H1 4131   2.377   4.113   2.552
 1396TIP3    H2 4132   2.416   3.967   2.562
 1397TIP3   OH2 4133   7.206   7.073   6.617
 1397TIP3    H1 4134   7.238   6.983   6.609
 1397TIP3    H2 4135   7.229   7.114   6.533
 1398TIP3   OH2 4136   3.149   2.959   1.595
 1398TIP3    H1 4137   3.094   2.884   1.619
 1398TIP3    H2 4138   3.219   2.922   1.543
 1399TIP3   OH2 4139   1.868   5.452   2.628
 1399TIP3    H1 4140   1.891   5.472   2.719
 1399TIP3    H2 4141   1.909   5.367   2.611
 1400TIP3   OH2 4142   1.323   3.302   6.167
 1400TIP3    H1 4143   1.397   3.313   6.226
 1400TIP3    H2 4144   1.319   3.208   6.151
 1401TIP3   OH2 4145   2.236   4.458   0.517
 1401TIP3    H1 4146   2.152   4.458   0.563
 1401TIP3    H2 4147   2.298   4.423   0.580
 1402TIP3   OH2 4148   3.851   2.826   1.637
 1402TIP3    H1 4149   3.856   2.891   1.567
 1402TIP3    H2 4150   3.941   2.794   1.646
 1403TIP3   OH2 4151   5.651   0.631   0.726
 1403TIP3    H1 4152   5.740   0.666   0.724
 1403TIP3    H2 4153   5.659   0.543   0.687
 1404TIP3   OH2 4154   4.798   1.904   0.987
 1404TIP3    H1 4155   4.832   1.987   1.020
 1404TIP3    H2 4156   4.857   1.838   1.023
 1405TIP3   OH2 4157   3.462   3.715   3.128
 1405TIP3    H1 4158   3.488   3.646   3.067
 1405TIP3    H2 4159   3.390   3.760   3.084
 1406TIP3   OH2 4160   2.910   3.325   0.035
 1406TIP3    H1 4161   2.965   3.401   0.017
 1406TIP3    H2 4162   2.821   3.353   0.011
 1407TIP3   OH2 4163   8.092   5.463   1.527
 1407TIP3    H1 4164   8.018   5.510   1.488
 1407TIP3    H2 4165   8.064   5.445   1.617
 1408TIP3   OH2 4166   6.075   0.320   2.270
 1408TIP3    H1 4167   6.157   0.363   2.296
 1408TIP3    H2 4168   6.099   0.228   2.258
 1409TIP3   OH2 4169   4.224   7.556   5.826
 1409TIP3    H1 4170   4.148   7.509   5.794
 1409TIP3    H2 4171   4.289   7.548   5.756
 1410TIP3   OH2 4172   5.778   3.851   5.574
 1410TIP3    H1 4173   5.695   3.818   5.539
 1410TIP3    H2 4174   5.765   3.945   5.584
 1411TIP3   OH2 4175   4.811   3.225   2.257
 1411TIP3    H1 4176   4.904   3.237   2.277
 1411TIP3    H2 4177   4.786   3.146   2.305
 1412TIP3   OH2 4178   0.024   1.359   0.901
 1412TIP3    H1 4179   0.047   1.362   0.994
 1412TIP3    H2 4180   0.097   1.315   0.859
 1413TIP3   OH2 4181   2.687   0.510   6.707
 1413TIP3    H1 4182   2.721   0.581   6.652
 1413TIP3    H2 4183   2.749   0.438   6.694
 1414TIP3   OH2 4184   0.711   1.589   5.028
 1414TIP3    H1 4185   0.749   1.526   4.966
 1414TIP3    H2 4186   0.657   1.646   4.974
 1415TIP3   OH2 4187   1.881   3.156   5.111
 1415TIP3    H1 4188   1.860   3.209   5.034
 1415TIP3    H2 4189   1.803   3.162   5.166
 1416TIP3   OH2 4190   2.148   2.201   6.728
 1416TIP3    H1 4191   2.160   2.125   6.671
 1416TIP3    H2 4192   2.146   2.164   6.817
 1417TIP3   OH2 4193   5.436   2.426   0.070
 1417TIP3    H1 4194   5.455   2.375   0.149
 1417TIP3    H2 4195   5.517   2.422   0.019
 1418TIP3   OH2 4196   3.988   4.280   2.191
 1418TIP3    H1 4197   4.067   4.282   2.137
 1418TIP3    H2 4198   4.007   4.218   2.260
 1419TIP3   OH2 4199   5.608   2.964   2.374
 1419TIP3    H1 4200   5.655   3.032   2.423
 1419TIP3    H2 4201   5.583   2.900   2.441
 1420TIP3   OH2 4202   6.172   3.869   1.479
 1420TIP3    H1 4203   6.208   3.824   1.402
 1420TIP3    H2 4204   6.095   3.817   1.503
 1421TIP3   OH2 4205   6.472   7.166   5.048
 1421TIP3    H1 4206   6.472   7.233   5.116
 1421TIP3    H2 4207   6.564   7.153   5.027
 1422TIP3   OH2 4208   4.035   6.717   0.191
 1422TIP3    H1 4209   3.974   6.786   0.169
 1422TIP3    H2 4210   4.038   6.717   0.287
 1423TIP3   OH2 4211   3.623   3.307   1.297
 1423TIP3    H1 4212   3.661   3.301   1.209
 1423TIP3    H2 4213   3.697   3.331   1.353
 1424TIP3   OH2 4214   8.072   6.934   3.980
 1424TIP3    H1 4215   8.163   6.933   4.008
 1424TIP3    H2 4216   8.065   7.012   3.924
 1425TIP3   OH2 4217   6.083   6.421   1.418
 1425TIP3    H1 4218   6.171   6.423   1.456
 1425TIP3    H2 4219   6.032   6.481   1.472
 1426TIP3   OH2 4220   7.966   5.834   2.185
 1426TIP3    H1 4221   7.892   5.876   2.142
 1426TIP3    H2 4222   7.995   5.766   2.123
 1427TIP3   OH2 4223   7.445   0.111   2.189
 1427TIP3    H1 4224   7.477   0.052   2.258
 1427TIP3    H2 4225   7.372   0.063   2.149
 1428TIP3   OH2 4226   5.374   7.240   6.185
 1428TIP3    H1 4227   5.444   7.229   6.249
 1428TIP3    H2 4228   5.356   7.151   6.153
 1429TIP3   OH2 4229   8.170   6.760   6.426
 1429TIP3    H1 4230   8.153   6.843   6.380
 1429TIP3    H2 4231   8.203   6.787   6.512
 1430TIP3   OH2 4232   2.080   2.575   1.985
 1430TIP3    H1 4233   2.066   2.659   1.941
 1430TIP3    H2 4234   2.128   2.597   2.065
 1431TIP3   OH2 4235   2.330   1.049   2.526
 1431TIP3    H1 4236   2.310   1.137   2.492
 1431TIP3    H2 4237   2.422   1.036   2.506
 1432TIP3   OH2 4238   0.466   0.748   3.081
 1432TIP3    H1 4239   0.458   0.695   3.002
 1432TIP3    H2 4240   0.376   0.760   3.111
 1433TIP3   OH2 4241   7.404   7.782   3.341
 1433TIP3    H1 4242   7.439   7.719   3.278
 1433TIP3    H2 4243   7.377   7.857   3.288
 1434TIP3   OH2 4244   4.148   6.457   3.278
 1434TIP3    H1 4245   4.201   6.385   3.244
 1434TIP3    H2 4246   4.104   6.420   3.354
 1435TIP3   OH2 4247   0.166   0.207   3.127
 1435TIP3    H1 4248   0.102   0.137   3.144
 1435TIP3    H2 4249   0.232   0.165   3.071
 1436TIP3   OH2 4250   6.568   5.619   3.674
 1436TIP3    H1 4251   6.634   5.577   3.730
 1436TIP3    H2 4252   6.528   5.685   3.730
 1437TIP3   OH2 4253   5.901   4.100   3.857
 1437TIP3    H1 4254   5.939   4.018   3.890
 1437TIP3    H2 4255   5.966   4.134   3.796
 1438TIP3   OH2 4256   5.853   1.155   4.078
 1438TIP3    H1 4257   5.845   1.221   4.009
 1438TIP3    H2 4258   5.763   1.128   4.096
 1439TIP3   OH2 4259   6.071   2.175   5.044
 1439TIP3    H1 4260   6.117   2.121   4.979
 1439TIP3    H2 4261   6.134   2.185   5.116
 1440TIP3   OH2 4262   5.447   1.803   0.481
 1440TIP3    H1 4263   5.427   1.719   0.523
 1440TIP3    H2 4264   5.377   1.861   0.510
 1441TIP3   OH2 4265   4.670   1.110   2.051
 1441TIP3    H1 4266   4.717   1.062   1.984
 1441TIP3    H2 4267   4.610   1.046   2.089
 1442TIP3   OH2 4268   6.032   4.289   5.002
 1442TIP3    H1 4269   5.950   4.333   4.979
 1442TIP3    H2 4270   6.084   4.292   4.921
 1443TIP3   OH2 4271   3.674   6.043   1.003
 1443TIP3    H1 4272   3.638   6.072   0.919
 1443TIP3    H2 4273   3.725   5.965   0.981
 1444TIP3   OH2 4274   1.884   3.218   0.572
 1444TIP3    H1 4275   1.975   3.199   0.593
 1444TIP3    H2 4276   1.856   3.278   0.642
 1445TIP3   OH2 4277   0.935   2.595   1.504
 1445TIP3    H1 4278   0.953   2.684   1.535
 1445TIP3    H2 4279   0.841   2.584   1.514
 1446TIP3   OH2 4280   3.651   7.383   3.939
 1446TIP3    H1 4281   3.714   7.421   4.000
 1446TIP3    H2 4282   3.662   7.433   3.858
 1447TIP3   OH2 4283   5.294   6.106   0.827
 1447TIP3    H1 4284   5.319   6.157   0.750
 1447TIP3    H2 4285   5.244   6.167   0.881
 1448TIP3   OH2 4286   6.796   7.349   5.038
 1448TIP3    H1 4287   6.720   7.291   5.040
 1448TIP3    H2 4288   6.830   7.341   4.950
 1449TIP3   OH2 4289   1.757   3.537   0.919
 1449TIP3    H1 4290   1.788   3.469   0.979
 1449TIP3    H2 4291   1.742   3.492   0.836
 1450TIP3   OH2 4292   5.215   2.054   6.739
 1450TIP3    H1 4293   5.132   2.023   6.773
 1450TIP3    H2 4294   5.192   2.130   6.686
 1451TIP3   OH2 4295   2.131   7.080   4.669
 1451TIP3    H1 4296   2.174   7.164   4.687
 1451TIP3    H2 4297   2.125   7.038   4.755
 1452TIP3   OH2 4298   2.508   2.304   4.314
 1452TIP3    H1 4299   2.545   2.391   4.301
 1452TIP3    H2 4300   2.572   2.258   4.369
 1453TIP3   OH2 4301   1.505   7.184   3.534
 1453TIP3    H1 4302   1.532   7.132   3.458
 1453TIP3    H2 4303   1.429   7.234   3.502
 1454TIP3   OH2 4304   3.306   0.867   0.862
 1454TIP3    H1 4305   3.284   0.843   0.952
 1454TIP3    H2 4306   3.395   0.835   0.850
 1455TIP3   OH2 4307   6.164   0.487   4.343
 1455TIP3    H1 4308   6.098   0.443   4.398
 1455TIP3    H2 4309   6.236   0.425   4.338
 1456TIP3   OH2 4310   0.730   2.018   4.500
 1456TIP3    H1 4311   0.703   1.955   4.433
 1456TIP3    H2 4312   0.704   1.977   4.583
 1457TIP3   OH2 4313   0.223   0.817   3.296
 1457TIP3    H1 4314   0.171   0.788   3.220
 1457TIP3    H2 4315   0.160   0.862   3.352
 1458TIP3   OH2 4316   2.917   5.509   0.574
 1458TIP3    H1 4317   2.939   5.421   0.543
 1458TIP3    H2 4318   2.847   5.494   0.638
 1459TIP3   OH2 4319   0.149   2.423   2.961
 1459TIP3    H1 4320   0.237   2.385   2.960
 1459TIP3    H2 4321   0.155   2.500   2.905
 1460TIP3   OH2 4322   6.233   0.202   3.865
 1460TIP3    H1 4323   6.177   0.266   3.821
 1460TIP3    H2 4324   6.293   0.172   3.797
 1461TIP3   OH2 4325   1.733   7.107   5.948
 1461TIP3    H1 4326   1.738   7.068   6.035
 1461TIP3    H2 4327   1.714   7.033   5.890
 1462TIP3   OH2 4328   0.348   0.701   1.831
 1462TIP3    H1 4329   0.278   0.664   1.776
 1462TIP3    H2 4330   0.390   0.625   1.871
 1463TIP3   OH2 4331   8.164   7.672   0.090
 1463TIP3    H1 4332   8.209   7.724   0.023
 1463TIP3    H2 4333   8.091   7.728   0.118
 1464TIP3   OH2 4334   5.659   7.684   3.505
 1464TIP3    H1 4335   5.709   7.702   3.585
 1464TIP3    H2 4336   5.569   7.709   3.528
 1465TIP3   OH2 4337   3.244   7.131   2.265
 1465TIP3    H1 4338   3.337   7.133   2.284
 1465TIP3    H2 4339   3.238   7.139   2.170
 1466TIP3   OH2 4340   1.592   3.154   2.347
 1466TIP3    H1 4341   1.667   3.097   2.361
 1466TIP3    H2 4342   1.574   3.192   2.433
 1467TIP3   OH2 4343   4.729   2.244   5.031
 1467TIP3    H1 4344   4.644   2.272   4.998
 1467TIP3    H2 4345   4.741   2.156   4.995
 1468TIP3   OH2 4346   7.019   0.671   3.484
 1468TIP3    H1 4347   6.931   0.646   3.510
 1468TIP3    H2 4348   7.041   0.612   3.411
 1469TIP3   OH2 4349   4.043   2.961   6.346
 1469TIP3    H1 4350   4.090   2.889   6.388
 1469TIP3    H2 4351   3.951   2.942   6.363
 1470TIP3   OH2 4352   4.974   6.267   1.400
 1470TIP3    H1 4353   4.942   6.231   1.318
 1470TIP3    H2 4354   4.955   6.361   1.394
 1471TIP3   OH2 4355   0.628   5.840   1.466
 1471TIP3    H1 4356   0.672   5.894   1.401
 1471TIP3    H2 4357   0.560   5.793   1.417
 1472TIP3   OH2 4358   6.943   5.600   2.285
 1472TIP3    H1 4359   6.969   5.521   2.333
 1472TIP3    H2 4360   7.017   5.660   2.296
 1473TIP3   OH2 4361   0.388   2.540   3.193
 1473TIP3    H1 4362   0.374   2.480   3.120
 1473TIP3    H2 4363   0.302   2.581   3.207
 1474TIP3   OH2 4364   4.683   1.802   3.550
 1474TIP3    H1 4365   4.632   1.745   3.607
 1474TIP3    H2 4366   4.622   1.871   3.524
 1475TIP3   OH2 4367   1.863   0.810   3.408
 1475TIP3    H1 4368   1.918   0.864   3.465
 1475TIP3    H2 4369   1.861   0.724   3.451
 1476TIP3   OH2 4370   6.948   5.578   5.342
 1476TIP3    H1 4371   6.947   5.667   5.306
 1476TIP3    H2 4372   6.971   5.523   5.267
 1477TIP3   OH2 4373   3.937   2.801   6.728
 1477TIP3    H1 4374   3.930   2.887   6.687
 1477TIP3    H2 4375   3.858   2.793   6.781
 1478TIP3   OH2 4376   2.872   5.592   5.587
 1478TIP3    H1 4377   2.911   5.668   5.544
 1478TIP3    H2 4378   2.802   5.629   5.642
 1479TIP3   OH2 4379   1.056   2.156   0.117
 1479TIP3    H1 4380   1.005   2.081   0.148
 1479TIP3    H2 4381   0.991   2.223   0.097
 1480TIP3   OH2 4382   2.439   4.869   4.366
 1480TIP3    H1 4383   2.416   4.934   4.432
 1480TIP3    H2 4384   2.379   4.885   4.293
 1481TIP3   OH2 4385   5.650   4.209   1.243
 1481TIP3    H1 4386   5.663   4.282   1.183
 1481TIP3    H2 4387   5.702   4.138   1.206
 1482TIP3   OH2 4388   3.152   5.972   5.357
 1482TIP3    H1 4389   3.195   5.919   5.424
 1482TIP3    H2 4390   3.165   6.062   5.385
 1483TIP3   OH2 4391   0.845   6.117   0.602
 1483TIP3    H1 4392   0.861   6.140   0.694
 1483TIP3    H2 4393   0.752   6.134   0.589
 1484TIP3   OH2 4394   4.329   1.147   2.967
 1484TIP3    H1 4395   4.381   1.225   2.988
 1484TIP3    H2 4396   4.331   1.142   2.871
 1485TIP3   OH2 4397   4.493   1.568   5.847
 1485TIP3    H1 4398   4.548   1.496   5.816
 1485TIP3    H2 4399   4.527   1.589   5.934
 1486TIP3   OH2 4400   1.267   3.598   1.929
 1486TIP3    H1 4401   1.258   3.678   1.979
 1486TIP3    H2 4402   1.178   3.575   1.904
 1487TIP3   OH2 4403   4.201   1.617   2.685
 1487TIP3    H1 4404   4.205   1.537   2.737
 1487TIP3    H2 4405   4.109   1.645   2.691
 1488TIP3   OH2 4406   6.869   0.791   6.583
 1488TIP3    H1 4407   6.801   0.857   6.573
 1488TIP3    H2 4408   6.935   0.833   6.638
 1489TIP3   OH2 4409   2.682   3.162   6.307
 1489TIP3    H1 4410   2.597   3.204   6.292
 1489TIP3    H2 4411   2.738   3.232   6.338
 1490TIP3   OH2 4412   4.441   5.161   5.838
 1490TIP3    H1 4413   4.384   5.101   5.885
 1490TIP3    H2 4414   4.381   5.219   5.791
 1491TIP3   OH2 4415   3.569   0.529   1.523
 1491TIP3    H1 4416   3.576   0.490   1.611
 1491TIP3    H2 4417   3.559   0.453   1.465
 1492TIP3   OH2 4418   5.189   3.222   4.575
 1492TIP3    H1 4419   5.123   3.246   4.509
 1492TIP3    H2 4420   5.138   3.182   4.646
 1493TIP3   OH2 4421   0.962   7.556   4.721
 1493TIP3    H1 4422   0.881   7.525   4.761
 1493TIP3    H2 4423   0.987   7.632   4.773
 1494TIP3   OH2 4424   5.030   2.331   2.587
 1494TIP3    H1 4425   5.085   2.253   2.572
 1494TIP3    H2 4426   5.036   2.347   2.681
 1495TIP3   OH2 4427   0.070   3.821   2.877
 1495TIP3    H1 4428   0.051   3.729   2.860
 1495TIP3    H2 4429   0.068   3.862   2.791
 1496TIP3   OH2 4430   5.649   3.565   1.817
 1496TIP3    H1 4431   5.559   3.557   1.787
 1496TIP3    H2 4432   5.701   3.524   1.748
 1497TIP3   OH2 4433   5.030   5.928   3.225
 1497TIP3    H1 4434   4.959   5.992   3.216
 1497TIP3    H2 4435   5.058   5.936   3.316
 1498TIP3   OH2 4436   5.595   4.490   0.491
 1498TIP3    H1 4437   5.602   4.442   0.574
 1498TIP3    H2 4438   5.510   4.533   0.495
 1499TIP3   OH2 4439   3.796   4.507   4.754
 1499TIP3    H1 4440   3.796   4.565   4.830
 1499TIP3    H2 4441   3.710   4.464   4.757
 1500TIP3   OH2 4442   5.450   2.196   0.305
 1500TIP3    H1 4443   5.484   2.124   0.252
 1500TIP3    H2 4444   5.372   2.160   0.347
 1501TIP3   OH2 4445   7.557   6.656   5.065
 1501TIP3    H1 4446   7.580   6.567   5.038
 1501TIP3    H2 4447   7.483   6.680   5.010
 1502TIP3   OH2 4448   4.498   5.106   2.419
 1502TIP3    H1 4449   4.588   5.093   2.390
 1502TIP3    H2 4450   4.445   5.090   2.341
 1503TIP3   OH2 4451   1.986   7.229   2.040
 1503TIP3    H1 4452   2.021   7.175   2.111
 1503TIP3    H2 4453   2.059   7.288   2.017
 1504TIP3   OH2 4454   4.170   0.709   0.524
 1504TIP3    H1 4455   4.129   0.728   0.440
 1504TIP3    H2 4456   4.254   0.755   0.521
 1505TIP3   OH2 4457   4.958   4.685   6.459
 1505TIP3    H1 4458   5.046   4.669   6.494
 1505TIP3    H2 4459   4.968   4.762   6.403
 1506TIP3   OH2 4460   4.057   1.577   5.598
 1506TIP3    H1 4461   4.031   1.654   5.649
 1506TIP3    H2 4462   4.126   1.536   5.650
 1507TIP3   OH2 4463   8.244   4.373   0.335
 1507TIP3    H1 4464   8.262   4.432   0.408
 1507TIP3    H2 4465   8.295   4.408   0.262
 1508TIP3   OH2 4466   0.487  -0.010   0.216
 1508TIP3    H1 4467   0.401  -0.020   0.258
 1508TIP3    H2 4468   0.466   0.009   0.125
 1509TIP3   OH2 4469   0.911   6.355   0.460
 1509TIP3    H1 4470   0.997   6.385   0.430
 1509TIP3    H2 4471   0.924   6.263   0.482
 1510TIP3   OH2 4472   8.227   3.603   2.745
 1510TIP3    H1 4473   8.265   3.604   2.657
 1510TIP3    H2 4474   8.140   3.641   2.734
 1511TIP3   OH2 4475   6.047   7.252   6.111
 1511TIP3    H1 4476   6.002   7.252   6.026
 1511TIP3    H2 4477   6.019   7.171   6.153
 1512TIP3   OH2 4478   7.868   4.284   1.249
 1512TIP3    H1 4479   7.801   4.274   1.317
 1512TIP3    H2 4480   7.949   4.297   1.298
 1513TIP3   OH2 4481   7.850   5.141   2.509
 1513TIP3    H1 4482   7.777   5.194   2.477
 1513TIP3    H2 4483   7.862   5.170   2.599
 1514TIP3   OH2 4484   0.853   6.707   3.451
 1514TIP3    H1 4485   0.766   6.667   3.455
 1514TIP3    H2 4486   0.872   6.731   3.542
 1515TIP3   OH2 4487   3.513   2.309   5.192
 1515TIP3    H1 4488   3.473   2.294   5.278
 1515TIP3    H2 4489   3.510   2.404   5.181
 1516TIP3   OH2 4490   4.564   0.032   5.376
 1516TIP3    H1 4491   4.660   0.021   5.375
 1516TIP3    H2 4492   4.546   0.090   5.303
 1517TIP3   OH2 4493   6.288   4.720   4.051
 1517TIP3    H1 4494   6.263   4.667   3.975
 1517TIP3    H2 4495   6.376   4.690   4.073
 1518TIP3   OH2 4496   8.046   7.108   4.199
 1518TIP3    H1 4497   8.077   7.073   4.282
 1518TIP3    H2 4498   8.121   7.097   4.140
 1519TIP3   OH2 4499   0.409   3.801   6.292
 1519TIP3    H1 4500   0.430   3.709   6.311
 1519TIP3    H2 4501   0.492   3.838   6.261
 1520TIP3   OH2 4502   2.519   4.252   4.308
 1520TIP3    H1 4503   2.604   4.246   4.264
 1520TIP3    H2 4504   2.540   4.241   4.401
 1521TIP3   OH2 4505   3.364   2.007   5.203
 1521TIP3    H1 4506   3.302   2.047   5.142
 1521TIP3    H2 4507   3.361   2.063   5.281
 1522TIP3   OH2 4508   4.423   2.448   0.677
 1522TIP3    H1 4509   4.425   2.536   0.713
 1522TIP3    H2 4510   4.332   2.434   0.650
 1523TIP3   OH2 4511   4.146   4.836   3.847
 1523TIP3    H1 4512   4.105   4.806   3.928
 1523TIP3    H2 4513   4.202   4.910   3.873
 1524TIP3   OH2 4514   5.376   0.587   6.467
 1524TIP3    H1 4515   5.433   0.518   6.501
 1524TIP3    H2 4516   5.299   0.584   6.523
 1525TIP3   OH2 4517   1.858   7.463   1.199
 1525TIP3    H1 4518   1.776   7.429   1.163
 1525TIP3    H2 4519   1.895   7.389   1.248
 1526TIP3   OH2 4520   4.680   5.441   0.064
 1526TIP3    H1 4521   4.690   5.451  -0.031
 1526TIP3    H2 4522   4.768   5.426   0.097
 1527TIP3   OH2 4523   7.576   2.039   6.059
 1527TIP3    H1 4524   7.575   2.089   5.977
 1527TIP3    H2 4525   7.632   2.090   6.118
 1528TIP3   OH2 4526   7.435   2.705   6.115
 1528TIP3    H1 4527   7.351   2.685   6.073
 1528TIP3    H2 4528   7.501   2.677   6.052
 1529TIP3   OH2 4529   4.159   7.621   1.301
 1529TIP3    H1 4530   4.104   7.691   1.267
 1529TIP3    H2 4531   4.233   7.666   1.341
 1530TIP3   OH2 4532   0.007   2.027   0.321
 1530TIP3    H1 4533   0.002   2.119   0.297
 1530TIP3    H2 4534  -0.057   1.984   0.265
 1531TIP3   OH2 4535   6.031   6.316   6.243
 1531TIP3    H1 4536   5.937   6.304   6.230
 1531TIP3    H2 4537   6.063   6.230   6.268
 1532TIP3   OH2 4538   4.646   2.968   4.745
 1532TIP3    H1 4539   4.584   3.037   4.723
 1532TIP3    H2 4540   4.674   2.989   4.834
 1533TIP3   OH2 4541   3.156   0.811   4.683
 1533TIP3    H1 4542   3.190   0.818   4.773
 1533TIP3    H2 4543   3.074   0.763   4.692
 1534TIP3   OH2 4544   0.681   6.099   6.118
 1534TIP3    H1 4545   0.659   6.141   6.034
 1534TIP3    H2 4546   0.632   6.150   6.183
 1535TIP3   OH2 4547   1.896   2.713   1.140
 1535TIP3    H1 4548   1.858   2.737   1.225
 1535TIP3    H2 4549   1.866   2.623   1.126
 1536TIP3   OH2 4550   5.223   5.348   6.204
 1536TIP3    H1 4551   5.194   5.439   6.205
 1536TIP3    H2 4552   5.311   5.351   6.168
 1537TIP3   OH2 4553   4.914   3.886   6.019
 1537TIP3    H1 4554   4.906   3.821   6.088
 1537TIP3    H2 4555   5.004   3.920   6.029
 1538TIP3   OH2 4556   4.467   5.457   4.758
 1538TIP3    H1 4557   4.507   5.423   4.678
 1538TIP3    H2 4558   4.385   5.496   4.729
 1539TIP3   OH2 4559   3.482   5.448   4.363
 1539TIP3    H1 4560   3.464   5.374   4.420
 1539TIP3    H2 4561   3.572   5.474   4.385
 1540TIP3   OH2 4562   1.349   5.519   4.575
 1540TIP3    H1 4563   1.340   5.445   4.636
 1540TIP3    H2 4564   1.428   5.564   4.604
 1541TIP3   OH2 4565   5.527   3.723   2.013
 1541TIP3    H1 4566   5.444   3.710   1.968
 1541TIP3    H2 4567   5.503   3.759   2.099
 1542TIP3   OH2 4568   2.469   3.539   2.250
 1542TIP3    H1 4569   2.411   3.570   2.181
 1542TIP3    H2 4570   2.520   3.616   2.274
 1543TIP3   OH2 4571   7.994   5.648   0.820
 1543TIP3    H1 4572   8.028   5.732   0.788
 1543TIP3    H2 4573   8.072   5.600   0.850
 1544TIP3   OH2 4574   0.521   5.748   0.903
 1544TIP3    H1 4575   0.477   5.736   0.819
 1544TIP3    H2 4576   0.577   5.671   0.912
 1545TIP3   OH2 4577   4.160   6.303   4.599
 1545TIP3    H1 4578   4.099   6.370   4.567
 1545TIP3    H2 4579   4.225   6.295   4.529
 1546TIP3   OH2 4580   7.790   0.102   4.149
 1546TIP3    H1 4581   7.840   0.144   4.220
 1546TIP3    H2 4582   7.722   0.052   4.194
 1547TIP3   OH2 4583   0.030   6.648   2.623
 1547TIP3    H1 4584   0.044   6.569   2.570
 1547TIP3    H2 4585   0.087   6.714   2.584
 1548TIP3   OH2 4586   0.959   4.210   4.446
 1548TIP3    H1 4587   0.895   4.232   4.379
 1548TIP3    H2 4588   0.937   4.267   4.520
 1549TIP3   OH2 4589   4.809   2.644   0.513
 1549TIP3    H1 4590   4.820   2.719   0.455
 1549TIP3    H2 4591   4.860   2.666   0.591
 1550TIP3   OH2 4592   6.948   1.442   3.620
 1550TIP3    H1 4593   6.959   1.520   3.676
 1550TIP3    H2 4594   6.984   1.469   3.536
 1551TIP3   OH2 4595   2.808   1.193   4.174
 1551TIP3    H1 4596   2.810   1.243   4.092
 1551TIP3    H2 4597   2.765   1.111   4.150
 1552TIP3   OH2 4598   2.346   1.518   5.955
 1552TIP3    H1 4599   2.290   1.506   6.032
 1552TIP3    H2 4600   2.285   1.514   5.881
 1553TIP3   OH2 4601   7.333   6.611   3.086
 1553TIP3    H1 4602   7.308   6.642   3.173
 1553TIP3    H2 4603   7.296   6.523   3.080
 1554TIP3   OH2 4604   2.771   6.334   3.279
 1554TIP3    H1 4605   2.719   6.306   3.204
 1554TIP3    H2 4606   2.827   6.259   3.299
 1555TIP3   OH2 4607   0.293   2.418   6.708
 1555TIP3    H1 4608   0.231   2.385   6.644
 1555TIP3    H2 4609   0.379   2.395   6.672
 1556TIP3   OH2 4610   5.494   6.733   0.161
 1556TIP3    H1 4611   5.563   6.799   0.163
 1556TIP3    H2 4612   5.415   6.781   0.188
 1557TIP3   OH2 4613   6.493   6.498   4.450
 1557TIP3    H1 4614   6.462   6.542   4.371
 1557TIP3    H2 4615   6.445   6.541   4.521
 1558TIP3   OH2 4616   2.574   6.628   4.268
 1558TIP3    H1 4617   2.596   6.714   4.304
 1558TIP3    H2 4618   2.480   6.633   4.251
 1559TIP3   OH2 4619   8.313   0.132   0.374
 1559TIP3    H1 4620   8.387   0.191   0.389
 1559TIP3    H2 4621   8.236   0.185   0.393
 1560TIP3   OH2 4622   5.836   6.362   4.689
 1560TIP3    H1 4623   5.857   6.279   4.646
 1560TIP3    H2 4624   5.901   6.423   4.653
 1561TIP3   OH2 4625   3.722   7.159   2.619
 1561TIP3    H1 4626   3.794   7.103   2.648
 1561TIP3    H2 4627   3.702   7.215   2.693
 1562TIP3   OH2 4628   5.154   1.571   2.124
 1562TIP3    H1 4629   5.068   1.583   2.084
 1562TIP3    H2 4630   5.215   1.612   2.063
 1563TIP3   OH2 4631   4.599   4.938   5.288
 1563TIP3    H1 4632   4.538   4.864   5.278
 1563TIP3    H2 4633   4.685   4.897   5.285
 1564TIP3   OH2 4634   5.722   2.932   4.611
 1564TIP3    H1 4635   5.792   2.977   4.657
 1564TIP3    H2 4636   5.716   2.976   4.527
 1565TIP3   OH2 4637   8.087   0.476   2.304
 1565TIP3    H1 4638   8.177   0.450   2.282
 1565TIP3    H2 4639   8.094   0.567   2.331
 1566TIP3   OH2 4640   3.748   2.341   6.054
 1566TIP3    H1 4641   3.747   2.278   5.983
 1566TIP3    H2 4642   3.839   2.347   6.081
 1567TIP3   OH2 4643   1.982   3.327   5.827
 1567TIP3    H1 4644   2.014   3.241   5.853
 1567TIP3    H2 4645   2.061   3.378   5.810
 1568TIP3   OH2 4646   4.071   0.021   0.572
 1568TIP3    H1 4647   4.146  -0.016   0.620
 1568TIP3    H2 4648   4.110   0.064   0.496
 1569TIP3   OH2 4649   7.688   7.221   0.477
 1569TIP3    H1 4650   7.703   7.287   0.545
 1569TIP3    H2 4651   7.610   7.174   0.506
 1570TIP3   OH2 4652   6.540   4.967   3.466
 1570TIP3    H1 4653   6.503   5.045   3.509
 1570TIP3    H2 4654   6.510   4.894   3.520
 1571TIP3   OH2 4655   5.928   6.846   3.318
 1571TIP3    H1 4656   5.983   6.783   3.272
 1571TIP3    H2 4657   5.845   6.844   3.272
 1572TIP3   OH2 4658   5.226   2.051   1.686
 1572TIP3    H1 4659   5.241   1.977   1.745
 1572TIP3    H2 4660   5.217   2.011   1.599
 1573TIP3   OH2 4661   6.460   7.170   2.563
 1573TIP3    H1 4662   6.464   7.241   2.627
 1573TIP3    H2 4663   6.406   7.103   2.605
 1574TIP3   OH2 4664   1.339   1.012   4.871
 1574TIP3    H1 4665   1.302   0.942   4.925
 1574TIP3    H2 4666   1.394   0.967   4.807
 1575TIP3   OH2 4667   1.959   5.707   4.380
 1575TIP3    H1 4668   1.983   5.785   4.331
 1575TIP3    H2 4669   1.994   5.634   4.329
 1576TIP3   OH2 4670   5.863   0.233   1.525
 1576TIP3    H1 4671   5.770   0.252   1.515
 1576TIP3    H2 4672   5.877   0.153   1.473
 1577TIP3   OH2 4673   1.420   1.241   0.514
 1577TIP3    H1 4674   1.352   1.211   0.453
 1577TIP3    H2 4675   1.502   1.220   0.470
 1578TIP3   OH2 4676   3.926   3.840   0.999
 1578TIP3    H1 4677   3.841   3.873   0.969
 1578TIP3    H2 4678   3.972   3.917   1.031
 1579TIP3   OH2 4679   4.981   2.295   5.210
 1579TIP3    H1 4680   5.023   2.295   5.124
 1579TIP3    H2 4681   4.888   2.291   5.191
 1580TIP3   OH2 4682   0.562   6.614   2.153
 1580TIP3    H1 4683   0.654   6.593   2.139
 1580TIP3    H2 4684   0.520   6.530   2.172
 1581TIP3   OH2 4685   5.347   6.195   5.996
 1581TIP3    H1 4686   5.365   6.278   5.951
 1581TIP3    H2 4687   5.340   6.131   5.925
 1582TIP3   OH2 4688   1.006   7.226   5.385
 1582TIP3    H1 4689   1.007   7.248   5.292
 1582TIP3    H2 4690   1.052   7.298   5.427
 1583TIP3   OH2 4691   8.087   4.955   0.700
 1583TIP3    H1 4692   8.072   4.960   0.605
 1583TIP3    H2 4693   8.000   4.964   0.739
 1584TIP3   OH2 4694   1.036   2.183   6.567
 1584TIP3    H1 4695   1.012   2.112   6.628
 1584TIP3    H2 4696   1.057   2.257   6.624
 1585TIP3   OH2 4697   4.972   0.937   2.914
 1585TIP3    H1 4698   4.942   0.963   2.827
 1585TIP3    H2 4699   4.941   1.006   2.972
 1586TIP3   OH2 4700   4.956   6.559   2.713
 1586TIP3    H1 4701   4.889   6.549   2.646
 1586TIP3    H2 4702   4.917   6.521   2.792
 1587TIP3   OH2 4703   0.342   7.480   2.595
 1587TIP3    H1 4704   0.359   7.386   2.599
 1587TIP3    H2 4705   0.310   7.495   2.506
 1588TIP3   OH2 4706   4.172   3.072   2.703
 1588TIP3    H1 4707   4.239   3.108   2.644
 1588TIP3    H2 4708   4.116   3.147   2.723
 1589TIP3   OH2 4709   1.641   3.539   3.966
 1589TIP3    H1 4710   1.640   3.632   3.989
 1589TIP3    H2 4711   1.715   3.530   3.907
 1590TIP3   OH2 4712   3.401   5.602   1.930
 1590TIP3    H1 4713   3.314   5.562   1.936
 1590TIP3    H2 4714   3.452   5.540   1.877
 1591TIP3   OH2 4715   1.379   4.565   0.925
 1591TIP3    H1 4716   1.449   4.541   0.865
 1591TIP3    H2 4717   1.368   4.659   0.914
 1592TIP3   OH2 4718   0.015   3.441   4.078
 1592TIP3    H1 4719  -0.030   3.496   4.015
 1592TIP3    H2 4720   0.048   3.502   4.144
 1593TIP3   OH2 4721   1.670   7.737   3.964
 1593TIP3    H1 4722   1.736   7.731   3.894
 1593TIP3    H2 4723   1.634   7.825   3.955
 1594TIP3   OH2 4724   6.092   1.763   4.765
 1594TIP3    H1 4725   6.074   1.846   4.722
 1594TIP3    H2 4726   6.026   1.703   4.731
 1595TIP3   OH2 4727   7.895   4.180   4.548
 1595TIP3    H1 4728   7.956   4.106   4.554
 1595TIP3    H2 4729   7.826   4.150   4.490
 1596TIP3   OH2 4730   6.932   3.186   1.277
 1596TIP3    H1 4731   6.896   3.097   1.284
 1596TIP3    H2 4732   7.012   3.183   1.330
 1597TIP3   OH2 4733   7.262   5.427   2.056
 1597TIP3    H1 4734   7.174   5.465   2.051
 1597TIP3    H2 4735   7.281   5.421   2.149
 1598TIP3   OH2 4736   6.758   6.455   3.289
 1598TIP3    H1 4737   6.706   6.478   3.212
 1598TIP3    H2 4738   6.755   6.533   3.344
 1599TIP3   OH2 4739   1.070   6.970   2.455
 1599TIP3    H1 4740   1.159   6.954   2.488
 1599TIP3    H2 4741   1.077   7.052   2.405
 1600TIP3   OH2 4742   7.901   0.808   4.173
 1600TIP3    H1 4743   7.983   0.830   4.129
 1600TIP3    H2 4744   7.917   0.722   4.211
 1601TIP3   OH2 4745   2.887   3.036   6.606
 1601TIP3    H1 4746   2.844   3.090   6.540
 1601TIP3    H2 4747   2.894   2.950   6.566
 1602TIP3   OH2 4748   4.777   3.201   5.460
 1602TIP3    H1 4749   4.788   3.269   5.393
 1602TIP3    H2 4750   4.791   3.119   5.414
 1603TIP3   OH2 4751   3.633   0.011   0.534
 1603TIP3    H1 4752   3.621   0.037   0.442
 1603TIP3    H2 4753   3.675   0.087   0.574
 1604TIP3   OH2 4754   0.880   5.362   3.658
 1604TIP3    H1 4755   0.959   5.413   3.639
 1604TIP3    H2 4756   0.913   5.278   3.690
 1605TIP3   OH2 4757   2.940   3.114   3.576
 1605TIP3    H1 4758   2.866   3.109   3.515
 1605TIP3    H2 4759   2.995   3.184   3.541
 1606TIP3   OH2 4760   2.149   6.182   2.167
 1606TIP3    H1 4761   2.169   6.100   2.212
 1606TIP3    H2 4762   2.216   6.243   2.198
 1607TIP3   OH2 4763   7.882   2.141   1.019
 1607TIP3    H1 4764   7.970   2.119   1.051
 1607TIP3    H2 4765   7.858   2.066   0.964
 1608TIP3   OH2 4766   6.210   0.370   0.693
 1608TIP3    H1 4767   6.222   0.331   0.780
 1608TIP3    H2 4768   6.222   0.464   0.708
 1609TIP3   OH2 4769   4.320   5.543   2.711
 1609TIP3    H1 4770   4.342   5.629   2.675
 1609TIP3    H2 4771   4.383   5.484   2.670
 1610TIP3   OH2 4772   4.966   2.692   5.084
 1610TIP3    H1 4773   4.982   2.678   5.177
 1610TIP3    H2 4774   4.940   2.784   5.078
 1611TIP3   OH2 4775   7.937   4.420   2.907
 1611TIP3    H1 4776   8.019   4.433   2.953
 1611TIP3    H2 4777   7.959   4.431   2.814
 1612TIP3   OH2 4778   0.458   5.457   5.289
 1612TIP3    H1 4779   0.402   5.433   5.363
 1612TIP3    H2 4780   0.403   5.510   5.232
 1613TIP3   OH2 4781   1.053   7.049   1.237
 1613TIP3    H1 4782   1.081   6.974   1.186
 1613TIP3    H2 4783   0.978   7.017   1.287
 1614TIP3   OH2 4784   0.403   4.647   0.753
 1614TIP3    H1 4785   0.310   4.659   0.770
 1614TIP3    H2 4786   0.411   4.648   0.658
 1615TIP3   OH2 4787   3.474   1.321   0.728
 1615TIP3    H1 4788   3.485   1.334   0.822
 1615TIP3    H2 4789   3.441   1.231   0.721
 1616TIP3   OH2 4790   2.170   5.892   2.187
 1616TIP3    H1 4791   2.075   5.897   2.172
 1616TIP3    H2 4792   2.206   5.865   2.103
 1617TIP3   OH2 4793   6.385   2.811   1.090
 1617TIP3    H1 4794   6.299   2.846   1.113
 1617TIP3    H2 4795   6.441   2.888   1.081
 1618TIP3   OH2 4796   6.643   3.158   0.304
 1618TIP3    H1 4797   6.713   3.220   0.283
 1618TIP3    H2 4798   6.603   3.193   0.383
 1619TIP3   OH2 4799   5.273   6.315   4.848
 1619TIP3    H1 4800   5.208   6.323   4.918
 1619TIP3    H2 4801   5.356   6.336   4.890
 1620TIP3   OH2 4802   2.867   6.906   1.272
 1620TIP3    H1 4803   2.912   6.835   1.317
 1620TIP3    H2 4804   2.791   6.924   1.327
 1621TIP3   OH2 4805   7.591   3.556   5.672
 1621TIP3    H1 4806   7.627   3.535   5.758
 1621TIP3    H2 4807   7.665   3.592   5.623
 1622TIP3   OH2 4808   0.467   2.131   2.283
 1622TIP3    H1 4809   0.478   2.111   2.190
 1622TIP3    H2 4810   0.460   2.226   2.286
 1623TIP3   OH2 4811   1.259   2.517   5.637
 1623TIP3    H1 4812   1.284   2.598   5.682
 1623TIP3    H2 4813   1.257   2.451   5.706
 1624TIP3   OH2 4814   7.311   2.928   3.841
 1624TIP3    H1 4815   7.320   2.906   3.749
 1624TIP3    H2 4816   7.382   2.990   3.858
 1625TIP3   OH2 4817   7.199   6.364   1.727
 1625TIP3    H1 4818   7.190   6.329   1.816
 1625TIP3    H2 4819   7.170   6.455   1.734
 1626TIP3   OH2 4820   1.444   5.058   4.304
 1626TIP3    H1 4821   1.413   5.108   4.379
 1626TIP3    H2 4822   1.496   4.988   4.342
 1627TIP3   OH2 4823   0.384   6.283   0.203
 1627TIP3    H1 4824   0.359   6.218   0.137
 1627TIP3    H2 4825   0.355   6.367   0.167
 1628TIP3   OH2 4826   3.194   2.849   4.502
 1628TIP3    H1 4827   3.126   2.854   4.434
 1628TIP3    H2 4828   3.187   2.760   4.536
 1629TIP3   OH2 4829   8.228   2.176   3.150
 1629TIP3    H1 4830   8.170   2.211   3.083
 1629TIP3    H2 4831   8.179   2.187   3.232
 1630TIP3   OH2 4832   3.911   3.385   0.567
 1630TIP3    H1 4833   3.825   3.384   0.609
 1630TIP3    H2 4834   3.946   3.472   0.586
 1631TIP3   OH2 4835   0.752   1.823   2.250
 1631TIP3    H1 4836   0.846   1.806   2.242
 1631TIP3    H2 4837   0.717   1.745   2.292
 1632TIP3   OH2 4838   8.086   1.427   0.023
 1632TIP3    H1 4839   7.997   1.454   0.003
 1632TIP3    H2 4840   8.141   1.474  -0.040
 1633TIP3   OH2 4841   0.376   4.419   6.710
 1633TIP3    H1 4842   0.439   4.473   6.662
 1633TIP3    H2 4843   0.322   4.379   6.642
 1634TIP3   OH2 4844   0.046   6.967   2.682
 1634TIP3    H1 4845   0.106   7.022   2.632
 1634TIP3    H2 4846   0.101   6.901   2.723
 1635TIP3   OH2 4847   4.361   2.507   1.140
 1635TIP3    H1 4848   4.369   2.443   1.069
 1635TIP3    H2 4849   4.335   2.588   1.096
 1636TIP3   OH2 4850   4.708   2.783   4.196
 1636TIP3    H1 4851   4.767   2.759   4.125
 1636TIP3    H2 4852   4.623   2.747   4.170
 1637TIP3   OH2 4853   1.388   6.030   3.942
 1637TIP3    H1 4854   1.327   5.966   3.980
 1637TIP3    H2 4855   1.419   6.081   4.017
 1638TIP3   OH2 4856   2.723   2.969   2.732
 1638TIP3    H1 4857   2.778   3.031   2.780
 1638TIP3    H2 4858   2.671   3.025   2.674
 1639TIP3   OH2 4859   6.893   4.920   6.663
 1639TIP3    H1 4860   6.825   4.870   6.619
 1639TIP3    H2 4861   6.908   4.872   6.745
 1640TIP3   OH2 4862   1.829   1.758   5.622
 1640TIP3    H1 4863   1.842   1.664   5.611
 1640TIP3    H2 4864   1.911   1.789   5.660
 1641TIP3   OH2 4865   5.021   1.641   5.222
 1641TIP3    H1 4866   5.028   1.735   5.207
 1641TIP3    H2 4867   4.927   1.624   5.228
 1642TIP3   OH2 4868   6.881   0.027   4.147
 1642TIP3    H1 4869   6.949   0.023   4.080
 1642TIP3    H2 4870   6.927   0.053   4.226
 1643TIP3   OH2 4871   3.862   2.871   2.130
 1643TIP3    H1 4872   3.944   2.893   2.174
 1643TIP3    H2 4873   3.841   2.783   2.160
 1644TIP3   OH2 4874   4.891   6.099   3.492
 1644TIP3    H1 4875   4.802   6.130   3.475
 1644TIP3    H2 4876   4.895   6.090   3.587
 1645TIP3   OH2 4877   2.124   1.824   4.002
 1645TIP3    H1 4878   2.175   1.752   4.039
 1645TIP3    H2 4879   2.068   1.783   3.936
 1646TIP3   OH2 4880   6.621   2.464   4.438
 1646TIP3    H1 4881   6.550   2.467   4.374
 1646TIP3    H2 4882   6.701   2.461   4.386
 1647TIP3   OH2 4883   7.026   1.342   2.389
 1647TIP3    H1 4884   7.048   1.352   2.481
 1647TIP3    H2 4885   7.109   1.324   2.345
 1648TIP3   OH2 4886   0.049   7.073   3.391
 1648TIP3    H1 4887   0.114   7.008   3.365
 1648TIP3    H2 4888  -0.032   7.022   3.403
 1649TIP3   OH2 4889   7.661   4.996   1.933
 1649TIP3    H1 4890   7.729   4.990   1.866
 1649TIP3    H2 4891   7.591   5.048   1.892
 1650TIP3   OH2 4892   4.223   1.535   0.746
 1650TIP3    H1 4893   4.188   1.580   0.823
 1650TIP3    H2 4894   4.197   1.444   0.757
 1651TIP3   OH2 4895   8.226   0.253   3.894
 1651TIP3    H1 4896   8.305   0.307   3.897
 1651TIP3    H2 4897   8.259   0.164   3.878
 1652TIP3   OH2 4898   0.516   5.701   5.955
 1652TIP3    H1 4899   0.551   5.718   5.867
 1652TIP3    H2 4900   0.590   5.716   6.013
 1653TIP3   OH2 4901   7.060   2.869   1.054
 1653TIP3    H1 4902   7.006   2.869   1.133
 1653TIP3    H2 4903   7.012   2.922   0.992
 1654TIP3   OH2 4904   2.967   6.013   4.799
 1654TIP3    H1 4905   3.051   6.057   4.789
 1654TIP3    H2 4906   2.957   6.001   4.893
 1655TIP3   OH2 4907   7.629   6.584   4.688
 1655TIP3    H1 4908   7.661   6.585   4.597
 1655TIP3    H2 4909   7.600   6.493   4.702
 1656TIP3   OH2 4910   6.062   4.949   1.177
 1656TIP3    H1 4911   6.148   4.978   1.207
 1656TIP3    H2 4912   6.033   4.887   1.243
 1657TIP3   OH2 4913   4.401   5.157   1.794
 1657TIP3    H1 4914   4.458   5.092   1.753
 1657TIP3    H2 4915   4.355   5.198   1.721
 1658TIP3   OH2 4916   0.085   6.957   5.493
 1658TIP3    H1 4917   0.019   6.982   5.428
 1658TIP3    H2 4918   0.051   6.991   5.575
 1659TIP3   OH2 4919   7.338   5.919   6.002
 1659TIP3    H1 4920   7.257   5.910   5.952
 1659TIP3    H2 4921   7.361   5.829   6.026
 1660TIP3   OH2 4922   6.963   5.746   3.475
 1660TIP3    H1 4923   6.869   5.731   3.474
 1660TIP3    H2 4924   6.973   5.840   3.462
 1661TIP3   OH2 4925   2.206   0.805   4.974
 1661TIP3    H1 4926   2.147   0.874   4.944
 1661TIP3    H2 4927   2.289   0.850   4.991
 1662TIP3   OH2 4928   6.359   6.374   2.265
 1662TIP3    H1 4929   6.284   6.374   2.206
 1662TIP3    H2 4930   6.323   6.394   2.351
 1663TIP3   OH2 4931   4.198   5.054   5.042
 1663TIP3    H1 4932   4.114   5.094   5.023
 1663TIP3    H2 4933   4.193   5.028   5.134
 1664TIP3   OH2 4934   2.029   4.162   6.288
 1664TIP3    H1 4935   2.054   4.070   6.291
 1664TIP3    H2 4936   1.959   4.170   6.353
 1665TIP3   OH2 4937   1.058   5.285   5.135
 1665TIP3    H1 4938   0.974   5.316   5.100
 1665TIP3    H2 4939   1.105   5.252   5.058
 1666TIP3   OH2 4940   2.463   4.387   1.558
 1666TIP3    H1 4941   2.468   4.296   1.588
 1666TIP3    H2 4942   2.431   4.435   1.634
 1667TIP3   OH2 4943   4.563   2.759   6.377
 1667TIP3    H1 4944   4.585   2.841   6.421
 1667TIP3    H2 4945   4.467   2.753   6.383
 1668TIP3   OH2 4946   6.803   0.964   2.532
 1668TIP3    H1 4947   6.743   1.039   2.526
 1668TIP3    H2 4948   6.868   0.991   2.597
 1669TIP3   OH2 4949   1.758   6.262   6.015
 1669TIP3    H1 4950   1.713   6.303   5.941
 1669TIP3    H2 4951   1.690   6.211   6.060
 1670TIP3   OH2 4952   5.560   7.279   3.753
 1670TIP3    H1 4953   5.655   7.289   3.759
 1670TIP3    H2 4954   5.527   7.367   3.768
 1671TIP3   OH2 4955   3.060   7.348   4.147
 1671TIP3    H1 4956   3.041   7.436   4.115
 1671TIP3    H2 4957   3.134   7.319   4.095
 1672TIP3   OH2 4958   7.011   2.973   5.638
 1672TIP3    H1 4959   7.001   3.023   5.558
 1672TIP3    H2 4960   7.045   2.888   5.610
 1673TIP3   OH2 4961   0.244   2.247   4.886
 1673TIP3    H1 4962   0.215   2.289   4.805
 1673TIP3    H2 4963   0.166   2.243   4.940
 1674TIP3   OH2 4964   4.003   2.766   4.997
 1674TIP3    H1 4965   4.090   2.739   4.969
 1674TIP3    H2 4966   4.019   2.814   5.079
 1675TIP3   OH2 4967   1.547   7.406   4.286
 1675TIP3    H1 4968   1.471   7.379   4.336
 1675TIP3    H2 4969   1.584   7.479   4.336
 1676TIP3   OH2 4970   7.610   3.794   1.142
 1676TIP3    H1 4971   7.568   3.840   1.069
 1676TIP3    H2 4972   7.567   3.830   1.220
 1677TIP3   OH2 4973   5.952   3.061   0.024
 1677TIP3    H1 4974   6.032   3.010   0.014
 1677TIP3    H2 4975   5.882   2.996   0.026
 1678TIP3   OH2 4976   2.601   2.067   3.711
 1678TIP3    H1 4977   2.683   2.020   3.695
 1678TIP3    H2 4978   2.540   2.031   3.647
 1679TIP3   OH2 4979   2.151   6.154   5.359
 1679TIP3    H1 4980   2.081   6.095   5.329
 1679TIP3    H2 4981   2.162   6.216   5.287
 1680TIP3   OH2 4982   4.513   2.673   5.992
 1680TIP3    H1 4983   4.542   2.742   5.934
 1680TIP3    H2 4984   4.418   2.668   5.979
 1681TIP3   OH2 4985   0.668   0.072   0.692
 1681TIP3    H1 4986   0.644  -0.014   0.659
 1681TIP3    H2 4987   0.727   0.108   0.626
 1682TIP3   OH2 4988   6.974   7.575   6.195
 1682TIP3    H1 4989   7.049   7.534   6.152
 1682TIP3    H2 4990   6.983   7.552   6.287
 1683TIP3   OH2 4991   3.182   6.327   0.187
 1683TIP3    H1 4992   3.148   6.277   0.113
 1683TIP3    H2 4993   3.151   6.279   0.264
 1684TIP3   OH2 4994   1.016   1.265   0.478
 1684TIP3    H1 4995   1.021   1.245   0.571
 1684TIP3    H2 4996   1.011   1.361   0.474
 1685TIP3   OH2 4997   3.034   1.548   6.427
 1685TIP3    H1 4998   3.008   1.631   6.467
 1685TIP3    H2 4999   3.120   1.565   6.390
 1686TIP3   OH2 5000   2.771   7.292   5.137
 1686TIP3    H1 5001   2.849   7.333   5.098
 1686TIP3    H2 5002   2.801   7.205   5.164
 1687TIP3   OH2 5003   6.903   0.280   3.447
 1687TIP3    H1 5004   6.952   0.199   3.436
 1687TIP3    H2 5005   6.912   0.301   3.540
 1688TIP3   OH2 5006   6.889   4.941   0.589
 1688TIP3    H1 5007   6.890   4.904   0.677
 1688TIP3    H2 5008   6.974   4.916   0.552
 1689TIP3   OH2 5009   2.589   3.906   4.988
 1689TIP3    H1 5010   2.546   3.876   5.068
 1689TIP3    H2 5011   2.649   3.835   4.965
 1690TIP3   OH2 5012   6.521   1.860   2.349
 1690TIP3    H1 5013   6.478   1.852   2.263
 1690TIP3    H2 5014   6.594   1.919   2.333
 1691TIP3   OH2 5015   5.865   6.583   1.535
 1691TIP3    H1 5016   5.905   6.591   1.621
 1691TIP3    H2 5017   5.797   6.516   1.546
 1692TIP3   OH2 5018   1.575   1.760   5.728
 1692TIP3    H1 5019   1.646   1.784   5.668
 1692TIP3    H2 5020   1.530   1.688   5.684
 1693TIP3   OH2 5021   6.598   3.675   0.083
 1693TIP3    H1 5022   6.561   3.749   0.132
 1693TIP3    H2 5023   6.525   3.613   0.076
 1694TIP3   OH2 5024   4.175   2.677   5.495
 1694TIP3    H1 5025   4.219   2.599   5.460
 1694TIP3    H2 5026   4.115   2.644   5.561
 1695TIP3   OH2 5027   8.141   3.967   5.568
 1695TIP3    H1 5028   8.124   4.047   5.518
 1695TIP3    H2 5029   8.205   3.918   5.515
 1696TIP3   OH2 5030   5.437   5.172   3.610
 1696TIP3    H1 5031   5.422   5.216   3.526
 1696TIP3    H2 5032   5.401   5.231   3.676
 1697TIP3   OH2 5033   3.755   2.443   6.558
 1697TIP3    H1 5034   3.730   2.357   6.525
 1697TIP3    H2 5035   3.710   2.450   6.643
 1698TIP3   OH2 5036   8.057   2.378   2.059
 1698TIP3    H1 5037   8.015   2.399   2.142
 1698TIP3    H2 5038   8.078   2.462   2.020
 1699TIP3   OH2 5039   5.727   7.583   2.999
 1699TIP3    H1 5040   5.683   7.500   3.013
 1699TIP3    H2 5041   5.658   7.643   2.971
 1700TIP3   OH2 5042   7.280   5.099   3.420
 1700TIP3    H1 5043   7.207   5.053   3.378
 1700TIP3    H2 5044   7.356   5.043   3.404
 1701TIP3   OH2 5045   6.700   4.135   6.682
 1701TIP3    H1 5046   6.652   4.123   6.600
 1701TIP3    H2 5047   6.779   4.082   6.670
 1702TIP3   OH2 5048   6.903   1.992   3.942
 1702TIP3    H1 5049   6.890   2.078   3.903
 1702TIP3    H2 5050   6.825   1.979   3.996
 1703TIP3   OH2 5051   3.211   5.767   3.183
 1703TIP3    H1 5052   3.264   5.705   3.233
 1703TIP3    H2 5053   3.254   5.771   3.097
 1704TIP3   OH2 5054   7.611   5.197   6.038
 1704TIP3    H1 5055   7.564   5.239   6.109
 1704TIP3    H2 5056   7.689   5.251   6.025
 1705TIP3   OH2 5057   2.215   7.647   3.539
 1705TIP3    H1 5058   2.214   7.628   3.445
 1705TIP3    H2 5059   2.122   7.658   3.562
 1706TIP3   OH2 5060   6.520   7.046   1.231
 1706TIP3    H1 5061   6.579   7.093   1.172
 1706TIP3    H2 5062   6.559   6.959   1.241
 1707TIP3   OH2 5063   6.096   2.147   6.749
 1707TIP3    H1 5064   6.037   2.212   6.787
 1707TIP3    H2 5065   6.058   2.126   6.664
 1708TIP3   OH2 5066   5.546   2.274   3.847
 1708TIP3    H1 5067   5.601   2.234   3.914
 1708TIP3    H2 5068   5.468   2.218   3.844
 1709TIP3   OH2 5069   6.107   5.721   5.113
 1709TIP3    H1 5070   6.033   5.782   5.120
 1709TIP3    H2 5071   6.180   5.768   5.154
 1710TIP3   OH2 5072   2.800   5.537   3.924
 1710TIP3    H1 5073   2.740   5.553   3.998
 1710TIP3    H2 5074   2.868   5.481   3.961
 1711TIP3   OH2 5075   6.411   6.425   3.240
 1711TIP3    H1 5076   6.399   6.457   3.329
 1711TIP3    H2 5077   6.457   6.341   3.250
 1712TIP3   OH2 5078   1.132   5.402   0.146
 1712TIP3    H1 5079   1.157   5.410   0.238
 1712TIP3    H2 5080   1.210   5.367   0.102
 1713TIP3   OH2 5081   1.943   1.507   2.506
 1713TIP3    H1 5082   1.989   1.577   2.553
 1713TIP3    H2 5083   1.878   1.476   2.568
 1714TIP3   OH2 5084   5.686   0.397   2.875
 1714TIP3    H1 5085   5.747   0.324   2.865
 1714TIP3    H2 5086   5.665   0.423   2.786
 1715TIP3   OH2 5087   3.456   4.176   1.627
 1715TIP3    H1 5088   3.480   4.260   1.667
 1715TIP3    H2 5089   3.534   4.149   1.579
 1716TIP3   OH2 5090   3.681   7.283   6.308
 1716TIP3    H1 5091   3.748   7.264   6.374
 1716TIP3    H2 5092   3.657   7.197   6.273
 1717TIP3   OH2 5093   2.761   2.720   5.035
 1717TIP3    H1 5094   2.683   2.665   5.036
 1717TIP3    H2 5095   2.819   2.682   5.100
 1718TIP3   OH2 5096   4.849   1.331   2.818
 1718TIP3    H1 5097   4.761   1.308   2.847
 1718TIP3    H2 5098   4.864   1.419   2.852
 1719TIP3   OH2 5099   1.291   0.900   2.751
 1719TIP3    H1 5100   1.280   0.988   2.786
 1719TIP3    H2 5101   1.281   0.843   2.827
 1720TIP3   OH2 5102   0.538   6.108   3.017
 1720TIP3    H1 5103   0.622   6.152   3.002
 1720TIP3    H2 5104   0.485   6.132   2.941
 1721TIP3   OH2 5105   2.407   4.144   6.310
 1721TIP3    H1 5106   2.413   4.054   6.341
 1721TIP3    H2 5107   2.317   4.171   6.331
 1722TIP3   OH2 5108   3.264   5.496   6.307
 1722TIP3    H1 5109   3.225   5.473   6.392
 1722TIP3    H2 5110   3.345   5.446   6.304
 1723TIP3   OH2 5111   5.641   5.360   3.210
 1723TIP3    H1 5112   5.718   5.307   3.188
 1723TIP3    H2 5113   5.664   5.448   3.177
 1724TIP3   OH2 5114   2.321   3.208   2.112
 1724TIP3    H1 5115   2.226   3.224   2.116
 1724TIP3    H2 5116   2.344   3.178   2.200
 1725TIP3   OH2 5117   6.418   0.317   1.972
 1725TIP3    H1 5118   6.391   0.309   2.063
 1725TIP3    H2 5119   6.337   0.304   1.922
 1726TIP3   OH2 5120   3.573   6.932   5.594
 1726TIP3    H1 5121   3.593   6.991   5.667
 1726TIP3    H2 5122   3.543   6.851   5.635
 1727TIP3   OH2 5123   1.768   4.122   1.292
 1727TIP3    H1 5124   1.750   4.216   1.292
 1727TIP3    H2 5125   1.682   4.081   1.278
 1728TIP3   OH2 5126   6.821   1.399   6.261
 1728TIP3    H1 5127   6.876   1.345   6.318
 1728TIP3    H2 5128   6.876   1.473   6.236
 1729TIP3   OH2 5129   6.172   1.878   1.538
 1729TIP3    H1 5130   6.237   1.934   1.581
 1729TIP3    H2 5131   6.222   1.829   1.472
 1730TIP3   OH2 5132   6.139   0.580   4.675
 1730TIP3    H1 5133   6.199   0.517   4.636
 1730TIP3    H2 5134   6.178   0.665   4.657
 1731TIP3   OH2 5135   1.321   2.665   5.212
 1731TIP3    H1 5136   1.267   2.721   5.156
 1731TIP3    H2 5137   1.351   2.723   5.282
 1732TIP3   OH2 5138   8.136   4.166   4.040
 1732TIP3    H1 5139   8.127   4.144   4.132
 1732TIP3    H2 5140   8.231   4.164   4.024
 1733TIP3   OH2 5141   8.273   3.275   0.872
 1733TIP3    H1 5142   8.295   3.344   0.934
 1733TIP3    H2 5143   8.324   3.297   0.794
 1734TIP3   OH2 5144   6.481   3.936   0.153
 1734TIP3    H1 5145   6.469   3.979   0.238
 1734TIP3    H2 5146   6.395   3.901   0.132
 1735TIP3   OH2 5147   5.428   5.878   1.971
 1735TIP3    H1 5148   5.371   5.910   1.901
 1735TIP3    H2 5149   5.517   5.889   1.937
 1736TIP3   OH2 5150   2.298   0.256   3.437
 1736TIP3    H1 5151   2.321   0.184   3.496
 1736TIP3    H2 5152   2.264   0.325   3.494
 1737TIP3   OH2 5153   6.497   4.808   1.831
 1737TIP3    H1 5154   6.533   4.859   1.905
 1737TIP3    H2 5155   6.536   4.849   1.754
 1738TIP3   OH2 5156   0.598   2.076   3.775
 1738TIP3    H1 5157   0.651   1.997   3.783
 1738TIP3    H2 5158   0.589   2.108   3.865
 1739TIP3   OH2 5159   3.412   7.209   3.035
 1739TIP3    H1 5160   3.448   7.121   3.050
 1739TIP3    H2 5161   3.317   7.195   3.032
 1740TIP3   OH2 5162   6.830   5.671   1.170
 1740TIP3    H1 5163   6.759   5.733   1.183
 1740TIP3    H2 5164   6.875   5.668   1.255
 1741TIP3   OH2 5165   7.777   0.497   3.929
 1741TIP3    H1 5166   7.761   0.574   3.983
 1741TIP3    H2 5167   7.836   0.527   3.861
 1742TIP3   OH2 5168   4.237   0.965   5.601
 1742TIP3    H1 5169   4.279   0.925   5.677
 1742TIP3    H2 5170   4.250   1.059   5.614
 1743TIP3   OH2 5171   0.944   3.108   5.326
 1743TIP3    H1 5172   0.993   3.188   5.305
 1743TIP3    H2 5173   0.946   3.104   5.422
 1744TIP3   OH2 5174   2.502   6.206   0.256
 1744TIP3    H1 5175   2.567   6.165   0.199
 1744TIP3    H2 5176   2.418   6.181   0.217
 1745TIP3   OH2 5177   3.169   7.669   4.775
 1745TIP3    H1 5178   3.192   7.587   4.817
 1745TIP3    H2 5179   3.199   7.737   4.837
 1746TIP3   OH2 5180   5.379   5.740   0.144
 1746TIP3    H1 5181   5.457   5.790   0.121
 1746TIP3    H2 5182   5.323   5.802   0.191
 1747TIP3   OH2 5183   6.685   7.148   1.614
 1747TIP3    H1 5184   6.675   7.228   1.562
 1747TIP3    H2 5185   6.655   7.173   1.701
 1748TIP3   OH2 5186   5.923   1.260   2.272
 1748TIP3    H1 5187   5.969   1.227   2.349
 1748TIP3    H2 5188   5.913   1.184   2.216
 1749TIP3   OH2 5189   4.346   5.242   4.416
 1749TIP3    H1 5190   4.256   5.274   4.416
 1749TIP3    H2 5191   4.370   5.238   4.324
 1750TIP3   OH2 5192   5.551   2.345   4.507
 1750TIP3    H1 5193   5.593   2.349   4.421
 1750TIP3    H2 5194   5.544   2.436   4.535
 1751TIP3   OH2 5195   4.731   3.453   4.736
 1751TIP3    H1 5196   4.678   3.434   4.659
 1751TIP3    H2 5197   4.779   3.372   4.753
 1752TIP3   OH2 5198   4.140   1.389   2.341
 1752TIP3    H1 5199   4.171   1.302   2.363
 1752TIP3    H2 5200   4.070   1.406   2.403
 1753TIP3   OH2 5201   0.130   5.542   1.880
 1753TIP3    H1 5202   0.104   5.542   1.788
 1753TIP3    H2 5203   0.221   5.572   1.880
 1754TIP3   OH2 5204   8.039   5.180   1.636
 1754TIP3    H1 5205   8.115   5.123   1.651
 1754TIP3    H2 5206   8.006   5.154   1.550
 1755TIP3   OH2 5207   2.081   1.563   6.006
 1755TIP3    H1 5208   2.070   1.644   5.956
 1755TIP3    H2 5209   1.995   1.546   6.042
 1756TIP3   OH2 5210   5.055   7.106   3.272
 1756TIP3    H1 5211   5.104   7.170   3.323
 1756TIP3    H2 5212   5.108   7.093   3.193
 1757TIP3   OH2 5213   1.293   4.381   2.137
 1757TIP3    H1 5214   1.344   4.301   2.149
 1757TIP3    H2 5215   1.278   4.386   2.042
 1758TIP3   OH2 5216   1.457   6.181   6.068
 1758TIP3    H1 5217   1.465   6.267   6.109
 1758TIP3    H2 5218   1.397   6.133   6.125
 1759TIP3   OH2 5219   2.401   5.589   1.625
 1759TIP3    H1 5220   2.456   5.516   1.598
 1759TIP3    H2 5221   2.386   5.639   1.545
 1760TIP3   OH2 5222   3.510   0.109   6.299
 1760TIP3    H1 5223   3.519   0.121   6.394
 1760TIP3    H2 5224   3.591   0.145   6.263
 1761TIP3   OH2 5225   3.015   6.545   6.646
 1761TIP3    H1 5226   2.979   6.634   6.653
 1761TIP3    H2 5227   3.091   6.555   6.589
 1762TIP3   OH2 5228   0.148   0.299   1.903
 1762TIP3    H1 5229   0.069   0.326   1.950
 1762TIP3    H2 5230   0.120   0.290   1.812
 1763TIP3   OH2 5231   6.513   5.208   1.252
 1763TIP3    H1 5232   6.442   5.272   1.244
 1763TIP3    H2 5233   6.590   5.261   1.273
 1764TIP3   OH2 5234   4.236   1.285   4.078
 1764TIP3    H1 5235   4.176   1.258   4.008
 1764TIP3    H2 5236   4.316   1.311   4.032
 1765TIP3   OH2 5237   6.368   5.031   4.567
 1765TIP3    H1 5238   6.314   5.006   4.491
 1765TIP3    H2 5239   6.368   4.952   4.622
 1766TIP3   OH2 5240   5.634   6.218   3.612
 1766TIP3    H1 5241   5.726   6.194   3.619
 1766TIP3    H2 5242   5.604   6.176   3.531
 1767TIP3   OH2 5243   4.790   4.306   1.193
 1767TIP3    H1 5244   4.796   4.212   1.207
 1767TIP3    H2 5245   4.735   4.338   1.265
 1768TIP3   OH2 5246   4.355   6.097   1.814
 1768TIP3    H1 5247   4.291   6.041   1.858
 1768TIP3    H2 5248   4.388   6.155   1.882
 1769TIP3   OH2 5249   0.269   3.225   5.850
 1769TIP3    H1 5250   0.223   3.306   5.830
 1769TIP3    H2 5251   0.210   3.156   5.822
 1770TIP3   OH2 5252   6.329   4.287   3.122
 1770TIP3    H1 5253   6.275   4.315   3.196
 1770TIP3    H2 5254   6.405   4.245   3.162
 1771TIP3   OH2 5255   4.534   3.177   4.333
 1771TIP3    H1 5256   4.471   3.243   4.305
 1771TIP3    H2 5257   4.568   3.140   4.251
 1772TIP3   OH2 5258   5.115   3.910   2.239
 1772TIP3    H1 5259   5.169   3.845   2.194
 1772TIP3    H2 5260   5.160   3.926   2.321
 1773TIP3   OH2 5261   0.931   6.190   2.815
 1773TIP3    H1 5262   0.860   6.150   2.765
 1773TIP3    H2 5263   0.887   6.237   2.886
 1774TIP3   OH2 5264   6.831   6.388   0.078
 1774TIP3    H1 5265   6.841   6.473   0.121
 1774TIP3    H2 5266   6.818   6.409  -0.014
 1775TIP3   OH2 5267   7.681   2.713   5.568
 1775TIP3    H1 5268   7.601   2.748   5.607
 1775TIP3    H2 5269   7.720   2.786   5.521
 1776TIP3   OH2 5270   2.461   6.991   4.793
 1776TIP3    H1 5271   2.433   6.906   4.827
 1776TIP3    H2 5272   2.554   6.996   4.812
 1777TIP3   OH2 5273   7.525   7.386   6.205
 1777TIP3    H1 5274   7.515   7.362   6.113
 1777TIP3    H2 5275   7.617   7.409   6.214
 1778TIP3   OH2 5276   6.790   1.651   5.055
 1778TIP3    H1 5277   6.696   1.667   5.069
 1778TIP3    H2 5278   6.792   1.584   4.987
 1779TIP3   OH2 5279   2.036   0.641   0.790
 1779TIP3    H1 5280   1.967   0.642   0.723
 1779TIP3    H2 5281   2.059   0.734   0.801
 1780TIP3   OH2 5282   3.133   0.044   4.855
 1780TIP3    H1 5283   3.218   0.001   4.868
 1780TIP3    H2 5284   3.151   0.112   4.789
 1781TIP3   OH2 5285   7.742   1.557   4.987
 1781TIP3    H1 5286   7.805   1.569   4.916
 1781TIP3    H2 5287   7.696   1.641   4.992
 1782TIP3   OH2 5288   6.298   1.108   0.373
 1782TIP3    H1 5289   6.236   1.074   0.308
 1782TIP3    H2 5290   6.363   1.156   0.322
 1783TIP3   OH2 5291   8.182   0.662   6.037
 1783TIP3    H1 5292   8.250   0.656   5.969
 1783TIP3    H2 5293   8.105   0.696   5.991
 1784TIP3   OH2 5294   1.068   3.720   2.299
 1784TIP3    H1 5295   1.124   3.718   2.376
 1784TIP3    H2 5296   1.061   3.628   2.272
 1785TIP3   OH2 5297   6.088   0.280   5.171
 1785TIP3    H1 5298   6.141   0.353   5.204
 1785TIP3    H2 5299   6.079   0.298   5.077
 1786TIP3   OH2 5300   7.119   4.426   0.896
 1786TIP3    H1 5301   7.029   4.398   0.911
 1786TIP3    H2 5302   7.122   4.448   0.803
 1787TIP3   OH2 5303   7.780   3.585   4.577
 1787TIP3    H1 5304   7.769   3.529   4.500
 1787TIP3    H2 5305   7.785   3.524   4.651
 1788TIP3   OH2 5306   7.688   1.841   5.525
 1788TIP3    H1 5307   7.747   1.904   5.566
 1788TIP3    H2 5308   7.716   1.837   5.434
 1789TIP3   OH2 5309   7.335   1.747   0.794
 1789TIP3    H1 5310   7.292   1.750   0.709
 1789TIP3    H2 5311   7.404   1.814   0.788
 1790TIP3   OH2 5312   0.794   0.970   0.081
 1790TIP3    H1 5313   0.708   1.000   0.112
 1790TIP3    H2 5314   0.780   0.951  -0.012
 1791TIP3   OH2 5315   8.055   6.724   2.731
 1791TIP3    H1 5316   8.038   6.632   2.749
 1791TIP3    H2 5317   8.150   6.730   2.722
 1792TIP3   OH2 5318   4.873   3.277   3.092
 1792TIP3    H1 5319   4.965   3.299   3.081
 1792TIP3    H2 5320   4.868   3.184   3.071
 1793TIP3   OH2 5321   4.348   6.403   4.377
 1793TIP3    H1 5322   4.405   6.441   4.310
 1793TIP3    H2 5323   4.405   6.344   4.426
 1794TIP3   OH2 5324   8.227   1.696   3.218
 1794TIP3    H1 5325   8.279   1.776   3.209
 1794TIP3    H2 5326   8.212   1.688   3.312
 1795TIP3   OH2 5327   0.232   5.524   1.350
 1795TIP3    H1 5328   0.247   5.448   1.407
 1795TIP3    H2 5329   0.251   5.599   1.406
 1796TIP3   OH2 5330   2.900   2.129   6.655
 1796TIP3    H1 5331   2.973   2.068   6.668
 1796TIP3    H2 5332   2.829   2.075   6.622
 1797TIP3   OH2 5333   6.893   6.953   2.717
 1797TIP3    H1 5334   6.930   6.930   2.802
 1797TIP3    H2 5335   6.841   7.031   2.733
 1798TIP3   OH2 5336   0.571   5.681   2.264
 1798TIP3    H1 5337   0.552   5.660   2.172
 1798TIP3    H2 5338   0.660   5.715   2.262
 1799TIP3   OH2 5339   7.556   2.239   5.848
 1799TIP3    H1 5340   7.505   2.318   5.868
 1799TIP3    H2 5341   7.642   2.256   5.884
 1800TIP3   OH2 5342   7.349   6.617   4.098
 1800TIP3    H1 5343   7.434   6.575   4.114
 1800TIP3    H2 5344   7.363   6.668   4.018
 1801TIP3   OH2 5345   2.449   6.789   6.420
 1801TIP3    H1 5346   2.529   6.809   6.470
 1801TIP3    H2 5347   2.450   6.851   6.348
 1802TIP3   OH2 5348   2.664   5.184   0.399
 1802TIP3    H1 5349   2.756   5.193   0.374
 1802TIP3    H2 5350   2.652   5.089   0.408
 1803TIP3   OH2 5351   4.243   7.407   3.348
 1803TIP3    H1 5352   4.252   7.502   3.340
 1803TIP3    H2 5353   4.332   7.374   3.335
 1804TIP3   OH2 5354   2.766   0.955   4.622
 1804TIP3    H1 5355   2.808   0.956   4.536
 1804TIP3    H2 5356   2.707   1.030   4.621
 1805TIP3   OH2 5357   6.429   2.424   5.364
 1805TIP3    H1 5358   6.516   2.457   5.343
 1805TIP3    H2 5359   6.409   2.461   5.450
 1806TIP3   OH2 5360   5.533   1.031   0.550
 1806TIP3    H1 5361   5.509   1.106   0.496
 1806TIP3    H2 5362   5.627   1.020   0.535
 1807TIP3   OH2 5363   0.053   7.436   6.175
 1807TIP3    H1 5364   0.047   7.530   6.155
 1807TIP3    H2 5365   0.090   7.433   6.264
 1808TIP3   OH2 5366   2.551   5.413   0.482
 1808TIP3    H1 5367   2.593   5.462   0.411
 1808TIP3    H2 5368   2.581   5.323   0.469
 1809TIP3   OH2 5369   0.716   3.659   5.552
 1809TIP3    H1 5370   0.636   3.654   5.603
 1809TIP3    H2 5371   0.786   3.638   5.614
 1810TIP3   OH2 5372   6.159   1.507   5.761
 1810TIP3    H1 5373   6.114   1.485   5.679
 1810TIP3    H2 5374   6.095   1.556   5.811
 1811TIP3   OH2 5375   1.287   0.351   2.662
 1811TIP3    H1 5376   1.324   0.291   2.598
 1811TIP3    H2 5377   1.197   0.321   2.674
 1812TIP3   OH2 5378   2.761   0.617   1.894
 1812TIP3    H1 5379   2.807   0.700   1.907
 1812TIP3    H2 5380   2.707   0.607   1.973
 1813TIP3   OH2 5381   1.164   5.391   3.890
 1813TIP3    H1 5382   1.155   5.390   3.795
 1813TIP3    H2 5383   1.203   5.476   3.909
 1814TIP3   OH2 5384   5.404   5.649   3.050
 1814TIP3    H1 5385   5.387   5.709   3.123
 1814TIP3    H2 5386   5.427   5.707   2.977
 1815TIP3   OH2 5387   7.369   1.817   4.265
 1815TIP3    H1 5388   7.334   1.728   4.265
 1815TIP3    H2 5389   7.398   1.831   4.355
 1816TIP3   OH2 5390   3.309   1.377   3.823
 1816TIP3    H1 5391   3.318   1.468   3.851
 1816TIP3    H2 5392   3.395   1.339   3.840
 1817TIP3   OH2 5393   2.651   5.726   5.734
 1817TIP3    H1 5394   2.646   5.819   5.709
 1817TIP3    H2 5395   2.572   5.711   5.785
 1818TIP3   OH2 5396   6.852   7.345   3.471
 1818TIP3    H1 5397   6.783   7.350   3.406
 1818TIP3    H2 5398   6.813   7.300   3.545
 1819TIP3   OH2 5399   1.252   5.102   4.945
 1819TIP3    H1 5400   1.333   5.147   4.970
 1819TIP3    H2 5401   1.279   5.012   4.930
 1820TIP3   OH2 5402   7.480   3.247   2.033
 1820TIP3    H1 5403   7.559   3.200   2.059
 1820TIP3    H2 5404   7.416   3.227   2.100
 1821TIP3   OH2 5405   1.572   4.467   0.705
 1821TIP3    H1 5406   1.607   4.387   0.746
 1821TIP3    H2 5407   1.649   4.514   0.674
 1822TIP3   OH2 5408   7.313   7.358   5.181
 1822TIP3    H1 5409   7.220   7.335   5.180
 1822TIP3    H2 5410   7.338   7.360   5.089
 1823TIP3   OH2 5411   0.295   5.313   1.521
 1823TIP3    H1 5412   0.296   5.306   1.617
 1823TIP3    H2 5413   0.216   5.264   1.495
 1824TIP3   OH2 5414   3.144   6.347   1.949
 1824TIP3    H1 5415   3.175   6.351   2.039
 1824TIP3    H2 5416   3.161   6.434   1.913
 1825TIP3   OH2 5417   4.323   4.040   5.691
 1825TIP3    H1 5418   4.238   4.003   5.668
 1825TIP3    H2 5419   4.303   4.116   5.745
 1826TIP3   OH2 5420   2.707   6.642   4.023
 1826TIP3    H1 5421   2.638   6.684   3.971
 1826TIP3    H2 5422   2.664   6.618   4.104
 1827TIP3   OH2 5423   3.683   4.379   3.342
 1827TIP3    H1 5424   3.744   4.310   3.368
 1827TIP3    H2 5425   3.685   4.377   3.246
 1828TIP3   OH2 5426   1.027   5.618   1.609
 1828TIP3    H1 5427   0.975   5.697   1.624
 1828TIP3    H2 5428   1.080   5.610   1.688
 1829TIP3   OH2 5429   2.822   2.082   2.830
 1829TIP3    H1 5430   2.912   2.070   2.860
 1829TIP3    H2 5431   2.796   1.996   2.796
 1830TIP3   OH2 5432   1.118   5.027   4.145
 1830TIP3    H1 5433   1.197   5.070   4.112
 1830TIP3    H2 5434   1.096   5.075   4.224
 1831TIP3   OH2 5435   5.109   6.180   5.508
 1831TIP3    H1 5436   5.090   6.093   5.542
 1831TIP3    H2 5437   5.024   6.214   5.479
 1832TIP3   OH2 5438   3.003   2.695   3.478
 1832TIP3    H1 5439   3.009   2.761   3.410
 1832TIP3    H2 5440   3.054   2.730   3.551
 1833TIP3   OH2 5441   4.768   1.266   6.522
 1833TIP3    H1 5442   4.796   1.210   6.451
 1833TIP3    H2 5443   4.722   1.208   6.582
 1834TIP3   OH2 5444   4.890   1.886   2.762
 1834TIP3    H1 5445   4.921   1.869   2.673
 1834TIP3    H2 5446   4.956   1.944   2.800
 1835TIP3   OH2 5447   5.325   4.588   4.569
 1835TIP3    H1 5448   5.377   4.514   4.538
 1835TIP3    H2 5449   5.249   4.591   4.510
 1836TIP3   OH2 5450   2.709   6.355   4.039
 1836TIP3    H1 5451   2.730   6.447   4.024
 1836TIP3    H2 5452   2.791   6.309   4.021
 1837TIP3   OH2 5453   6.997   1.715   3.901
 1837TIP3    H1 5454   7.025   1.687   3.988
 1837TIP3    H2 5455   6.987   1.810   3.908
 1838TIP3   OH2 5456   1.032   6.987   5.102
 1838TIP3    H1 5457   1.018   7.076   5.070
 1838TIP3    H2 5458   1.069   6.939   5.028
 1839TIP3   OH2 5459   1.193   0.981   6.321
 1839TIP3    H1 5460   1.160   0.898   6.355
 1839TIP3    H2 5461   1.132   1.046   6.354
 1840TIP3   OH2 5462   4.261   0.241   0.807
 1840TIP3    H1 5463   4.295   0.204   0.725
 1840TIP3    H2 5464   4.167   0.221   0.805
 1841TIP3   OH2 5465   3.963   6.343   2.303
 1841TIP3    H1 5466   3.956   6.430   2.264
 1841TIP3    H2 5467   3.906   6.288   2.250
 1842TIP3   OH2 5468   0.501   5.398   4.939
 1842TIP3    H1 5469   0.460   5.374   4.856
 1842TIP3    H2 5470   0.469   5.332   5.001
 1843TIP3   OH2 5471   6.286   1.566   5.075
 1843TIP3    H1 5472   6.292   1.544   4.982
 1843TIP3    H2 5473   6.225   1.640   5.078
 1844TIP3   OH2 5474   7.843   3.888   3.028
 1844TIP3    H1 5475   7.879   3.961   2.977
 1844TIP3    H2 5476   7.767   3.924   3.073
 1845TIP3   OH2 5477   0.493   4.374   5.979
 1845TIP3    H1 5478   0.561   4.396   6.043
 1845TIP3    H2 5479   0.476   4.455   5.932
 1846TIP3   OH2 5480   6.067   1.758   5.026
 1846TIP3    H1 5481   6.063   1.853   5.016
 1846TIP3    H2 5482   6.100   1.727   4.941
 1847TIP3   OH2 5483   4.744   6.498   3.171
 1847TIP3    H1 5484   4.673   6.533   3.117
 1847TIP3    H2 5485   4.795   6.575   3.196
 1848TIP3   OH2 5486   7.161   6.816   2.895
 1848TIP3    H1 5487   7.238   6.779   2.938
 1848TIP3    H2 5488   7.091   6.753   2.912
 1849TIP3   OH2 5489   8.153   7.639   4.835
 1849TIP3    H1 5490   8.072   7.621   4.787
 1849TIP3    H2 5491   8.205   7.691   4.773
 1850TIP3   OH2 5492   6.147   7.270   4.405
 1850TIP3    H1 5493   6.180   7.352   4.443
 1850TIP3    H2 5494   6.084   7.298   4.338
 1851TIP3   OH2 5495   0.823   7.671   6.600
 1851TIP3    H1 5496   0.908   7.673   6.556
 1851TIP3    H2 5497   0.818   7.584   6.639
 1852TIP3   OH2 5498   5.200   1.666   2.383
 1852TIP3    H1 5499   5.293   1.657   2.401
 1852TIP3    H2 5500   5.189   1.632   2.294
 1853TIP3   OH2 5501   0.415   2.372   2.922
 1853TIP3    H1 5502   0.488   2.432   2.906
 1853TIP3    H2 5503   0.453   2.285   2.918
 1854TIP3   OH2 5504   4.755   6.377   3.870
 1854TIP3    H1 5505   4.723   6.305   3.816
 1854TIP3    H2 5506   4.681   6.437   3.876
 1855TIP3   OH2 5507   7.838   7.059   5.176
 1855TIP3    H1 5508   7.878   7.143   5.155
 1855TIP3    H2 5509   7.895   7.021   5.243
 1856TIP3   OH2 5510   6.411   2.291   1.777
 1856TIP3    H1 5511   6.332   2.335   1.745
 1856TIP3    H2 5512   6.481   2.354   1.761
 1857TIP3   OH2 5513   0.296   3.435   2.608
 1857TIP3    H1 5514   0.241   3.357   2.611
 1857TIP3    H2 5515   0.241   3.502   2.568
 1858TIP3   OH2 5516   0.000   5.595   0.899
 1858TIP3    H1 5517   0.094   5.578   0.889
 1858TIP3    H2 5518  -0.014   5.597   0.993
 1859TIP3   OH2 5519   3.420   3.543   3.949
 1859TIP3    H1 5520   3.510   3.563   3.976
 1859TIP3    H2 5521   3.391   3.475   4.009
 1860TIP3   OH2 5522   4.235   7.789   5.610
 1860TIP3    H1 5523   4.231   7.860   5.546
 1860TIP3    H2 5524   4.302   7.730   5.577
 1861TIP3   OH2 5525   8.052   3.845   6.501
 1861TIP3    H1 5526   8.048   3.933   6.464
 1861TIP3    H2 5527   8.058   3.787   6.425
 1862TIP3   OH2 5528   7.692   3.239   1.602
 1862TIP3    H1 5529   7.707   3.250   1.508
 1862TIP3    H2 5530   7.716   3.148   1.619
 1863TIP3   OH2 5531   1.101   4.498   2.669
 1863TIP3    H1 5532   1.053   4.498   2.751
 1863TIP3    H2 5533   1.174   4.438   2.683
 1864TIP3   OH2 5534   0.725   2.983   4.214
 1864TIP3    H1 5535   0.680   3.046   4.270
 1864TIP3    H2 5536   0.785   3.037   4.162
 1865TIP3   OH2 5537   2.406   4.250   4.027
 1865TIP3    H1 5538   2.359   4.171   4.002
 1865TIP3    H2 5539   2.419   4.243   4.121
 1866TIP3   OH2 5540   6.843   1.405   3.061
 1866TIP3    H1 5541   6.786   1.430   3.134
 1866TIP3    H2 5542   6.819   1.314   3.042
 1867TIP3   OH2 5543   4.006   5.454   6.167
 1867TIP3    H1 5544   3.959   5.537   6.158
 1867TIP3    H2 5545   4.005   5.435   6.260
 1868TIP3   OH2 5546   5.633   4.926   5.298
 1868TIP3    H1 5547   5.723   4.908   5.326
 1868TIP3    H2 5548   5.613   4.856   5.236
 1869TIP3   OH2 5549   6.566   2.902   0.333
 1869TIP3    H1 5550   6.601   2.989   0.315
 1869TIP3    H2 5551   6.471   2.911   0.320
 1870TIP3   OH2 5552   3.806   7.048   1.276
 1870TIP3    H1 5553   3.872   7.066   1.344
 1870TIP3    H2 5554   3.857   7.029   1.198
 1871TIP3   OH2 5555   8.130   1.959   1.748
 1871TIP3    H1 5556   8.141   1.994   1.659
 1871TIP3    H2 5557   8.075   1.882   1.737
 1872TIP3   OH2 5558   2.230   3.224   2.589
 1872TIP3    H1 5559   2.143   3.245   2.555
 1872TIP3    H2 5560   2.233   3.128   2.588
 1873TIP3   OH2 5561   3.004   3.378   4.207
 1873TIP3    H1 5562   3.068   3.335   4.264
 1873TIP3    H2 5563   2.952   3.307   4.171
 1874TIP3   OH2 5564   1.880   1.763   6.390
 1874TIP3    H1 5565   1.966   1.745   6.350
 1874TIP3    H2 5566   1.829   1.802   6.319
 1875TIP3   OH2 5567   0.282   5.212   5.503
 1875TIP3    H1 5568   0.241   5.144   5.557
 1875TIP3    H2 5569   0.375   5.194   5.509
 1876TIP3   OH2 5570   5.450   2.885   4.846
 1876TIP3    H1 5571   5.413   2.872   4.759
 1876TIP3    H2 5572   5.376   2.876   4.906
 1877TIP3   OH2 5573   3.855   7.507   2.716
 1877TIP3    H1 5574   3.868   7.590   2.669
 1877TIP3    H2 5575   3.943   7.477   2.736
 1878TIP3   OH2 5576   1.952   7.552   3.539
 1878TIP3    H1 5577   1.967   7.537   3.446
 1878TIP3    H2 5578   1.898   7.478   3.567
 1879TIP3   OH2 5579   6.343   2.224   6.610
 1879TIP3    H1 5580   6.365   2.205   6.519
 1879TIP3    H2 5581   6.263   2.174   6.626
 1880TIP3   OH2 5582   3.561   3.295   2.884
 1880TIP3    H1 5583   3.625   3.224   2.874
 1880TIP3    H2 5584   3.611   3.367   2.924
 1881TIP3   OH2 5585   6.150   2.739   5.454
 1881TIP3    H1 5586   6.071   2.687   5.435
 1881TIP3    H2 5587   6.170   2.783   5.371
 1882TIP3   OH2 5588   7.988   7.849   0.850
 1882TIP3    H1 5589   8.001   7.769   0.799
 1882TIP3    H2 5590   7.966   7.819   0.938
 1883TIP3   OH2 5591   7.621   2.665   2.324
 1883TIP3    H1 5592   7.582   2.582   2.349
 1883TIP3    H2 5593   7.686   2.642   2.258
 1884TIP3   OH2 5594   0.646   5.045   1.683
 1884TIP3    H1 5595   0.736   5.051   1.714
 1884TIP3    H2 5596   0.631   5.127   1.637
 1885TIP3   OH2 5597   4.024   2.405   5.823
 1885TIP3    H1 5598   4.071   2.322   5.812
 1885TIP3    H2 5599   4.090   2.466   5.857
 1886TIP3   OH2 5600   0.930   0.705   3.494
 1886TIP3    H1 5601   0.949   0.611   3.495
 1886TIP3    H2 5602   0.952   0.735   3.582
 1887TIP3   OH2 5603   2.122   1.983   1.535
 1887TIP3    H1 5604   2.142   1.940   1.618
 1887TIP3    H2 5605   2.034   2.019   1.548
 1888TIP3   OH2 5606   4.589   7.699   5.003
 1888TIP3    H1 5607   4.581   7.747   5.086
 1888TIP3    H2 5608   4.619   7.764   4.940
 1889TIP3   OH2 5609   7.985   1.081   5.538
 1889TIP3    H1 5610   7.966   1.174   5.525
 1889TIP3    H2 5611   8.019   1.076   5.628
 1890TIP3   OH2 5612   6.640   0.087   4.022
 1890TIP3    H1 5613   6.730   0.058   4.035
 1890TIP3    H2 5614   6.646   0.161   3.962
 1891TIP3   OH2 5615   3.446   7.044   1.234
 1891TIP3    H1 5616   3.497   7.023   1.156
 1891TIP3    H2 5617   3.475   6.982   1.300
 1892TIP3   OH2 5618   0.225   6.692   2.449
 1892TIP3    H1 5619   0.274   6.732   2.521
 1892TIP3    H2 5620   0.264   6.605   2.439
 1893TIP3   OH2 5621   5.576   5.915   6.418
 1893TIP3    H1 5622   5.626   5.982   6.463
 1893TIP3    H2 5623   5.573   5.944   6.327
 1894TIP3   OH2 5624   0.652   2.535   4.083
 1894TIP3    H1 5625   0.702   2.609   4.116
 1894TIP3    H2 5626   0.567   2.542   4.126
 1895TIP3   OH2 5627   3.234   1.811   5.728
 1895TIP3    H1 5628   3.295   1.737   5.732
 1895TIP3    H2 5629   3.267   1.874   5.791
 1896TIP3   OH2 5630   7.398   4.976   1.599
 1896TIP3    H1 5631   7.326   4.935   1.648
 1896TIP3    H2 5632   7.423   5.052   1.652
 1897TIP3   OH2 5633   7.716   4.577   1.428
 1897TIP3    H1 5634   7.638   4.576   1.373
 1897TIP3    H2 5635   7.785   4.543   1.373
 1898TIP3   OH2 5636   5.663   4.258   6.066
 1898TIP3    H1 5637   5.656   4.353   6.056
 1898TIP3    H2 5638   5.573   4.226   6.061
 1899TIP3   OH2 5639   4.298   1.760   0.231
 1899TIP3    H1 5640   4.247   1.838   0.250
 1899TIP3    H2 5641   4.239   1.687   0.252
 1900TIP3   OH2 5642   0.168   3.441   5.589
 1900TIP3    H1 5643   0.199   3.518   5.636
 1900TIP3    H2 5644   0.241   3.417   5.531
 1901TIP3   OH2 5645   4.414   4.534   1.004
 1901TIP3    H1 5646   4.359   4.513   0.929
 1901TIP3    H2 5647   4.459   4.615   0.979
 1902TIP3   OH2 5648   5.380   1.789   4.984
 1902TIP3    H1 5649   5.451   1.811   5.044
 1902TIP3    H2 5650   5.336   1.714   5.025
 1903TIP3   OH2 5651   7.187   7.071   2.804
 1903TIP3    H1 5652   7.176   6.978   2.825
 1903TIP3    H2 5653   7.146   7.117   2.878
 1904TIP3   OH2 5654   4.718   7.309   4.206
 1904TIP3    H1 5655   4.653   7.281   4.271
 1904TIP3    H2 5656   4.760   7.385   4.245
 1905TIP3   OH2 5657   3.353   2.731   6.264
 1905TIP3    H1 5658   3.447   2.745   6.261
 1905TIP3    H2 5659   3.336   2.698   6.353
 1906TIP3   OH2 5660   7.783   0.610   2.320
 1906TIP3    H1 5661   7.782   0.515   2.325
 1906TIP3    H2 5662   7.746   0.630   2.234
 1907TIP3   OH2 5663   7.831   6.996   1.772
 1907TIP3    H1 5664   7.796   7.057   1.708
 1907TIP3    H2 5665   7.926   7.005   1.764
 1908TIP3   OH2 5666   3.338   0.609   0.077
 1908TIP3    H1 5667   3.378   0.618  -0.010
 1908TIP3    H2 5668   3.411   0.624   0.138
 1909TIP3   OH2 5669   1.361   4.514   5.213
 1909TIP3    H1 5670   1.400   4.582   5.267
 1909TIP3    H2 5671   1.268   4.516   5.234
 1910TIP3   OH2 5672   5.468   2.573   4.703
 1910TIP3    H1 5673   5.543   2.599   4.650
 1910TIP3    H2 5674   5.507   2.531   4.780
 1911TIP3   OH2 5675   0.930   6.119   0.091
 1911TIP3    H1 5676   1.020   6.151   0.092
 1911TIP3    H2 5677   0.903   6.127  -0.001
 1912TIP3   OH2 5678   8.013   2.161   3.319
 1912TIP3    H1 5679   8.033   2.229   3.383
 1912TIP3    H2 5680   7.938   2.194   3.270
 1913TIP3   OH2 5681   3.427   6.863   1.516
 1913TIP3    H1 5682   3.493   6.831   1.455
 1913TIP3    H2 5683   3.354   6.802   1.507
 1914TIP3   OH2 5684   6.483   5.927   1.703
 1914TIP3    H1 5685   6.534   5.966   1.774
 1914TIP3    H2 5686   6.413   5.879   1.748
 1915TIP3   OH2 5687   6.599   1.173   2.618
 1915TIP3    H1 5688   6.614   1.092   2.667
 1915TIP3    H2 5689   6.572   1.237   2.684
 1916TIP3   OH2 5690   8.077   1.671   1.478
 1916TIP3    H1 5691   8.081   1.590   1.426
 1916TIP3    H2 5692   8.167   1.687   1.504
 1917TIP3   OH2 5693   2.551   2.782   0.535
 1917TIP3    H1 5694   2.473   2.833   0.557
 1917TIP3    H2 5695   2.535   2.696   0.574
 1918TIP3   OH2 5696   7.617   6.095   0.775
 1918TIP3    H1 5697   7.656   6.013   0.806
 1918TIP3    H2 5698   7.533   6.068   0.737
 1919TIP3   OH2 5699   7.823   1.700   4.007
 1919TIP3    H1 5700   7.787   1.673   3.922
 1919TIP3    H2 5701   7.845   1.618   4.051
 1920TIP3   OH2 5702   4.230   2.603   5.896
 1920TIP3    H1 5703   4.228   2.697   5.877
 1920TIP3    H2 5704   4.300   2.569   5.840
 1921TIP3   OH2 5705   6.879   5.103   6.436
 1921TIP3    H1 5706   6.889   5.014   6.468
 1921TIP3    H2 5707   6.901   5.099   6.343
 1922TIP3   OH2 5708   6.623   6.392   2.192
 1922TIP3    H1 5709   6.625   6.296   2.195
 1922TIP3    H2 5710   6.542   6.416   2.236
 1923TIP3   OH2 5711   1.174   6.596   0.588
 1923TIP3    H1 5712   1.251   6.563   0.542
 1923TIP3    H2 5713   1.191   6.689   0.601
 1924TIP3   OH2 5714   6.942   6.980   1.225
 1924TIP3    H1 5715   6.895   6.953   1.304
 1924TIP3    H2 5716   6.886   7.047   1.186
 1925TIP3   OH2 5717   8.129   3.275   3.338
 1925TIP3    H1 5718   8.213   3.238   3.365
 1925TIP3    H2 5719   8.067   3.241   3.402
 1926TIP3   OH2 5720   6.786   6.170   0.561
 1926TIP3    H1 5721   6.818   6.223   0.488
 1926TIP3    H2 5722   6.783   6.081   0.527
 1927TIP3   OH2 5723   4.398   0.734   6.572
 1927TIP3    H1 5724   4.489   0.728   6.600
 1927TIP3    H2 5725   4.387   0.663   6.509
 1928TIP3   OH2 5726   4.910   1.003   4.802
 1928TIP3    H1 5727   4.914   0.993   4.706
 1928TIP3    H2 5728   4.861   0.927   4.832
 1929TIP3   OH2 5729   4.319   0.213   0.526
 1929TIP3    H1 5730   4.349   0.304   0.525
 1929TIP3    H2 5731   4.347   0.178   0.441
 1930TIP3   OH2 5732   4.980   0.558   6.106
 1930TIP3    H1 5733   4.941   0.609   6.036
 1930TIP3    H2 5734   5.061   0.523   6.068
 1931TIP3   OH2 5735   8.201   7.633   3.695
 1931TIP3    H1 5736   8.150   7.614   3.616
 1931TIP3    H2 5737   8.292   7.629   3.665
 1932TIP3   OH2 5738   1.598   7.664   3.440
 1932TIP3    H1 5739   1.626   7.593   3.381
 1932TIP3    H2 5740   1.630   7.637   3.526
 1933TIP3   OH2 5741   0.982   4.464   5.736
 1933TIP3    H1 5742   0.920   4.529   5.702
 1933TIP3    H2 5743   1.040   4.513   5.793
 1934TIP3   OH2 5744   3.636   0.219   0.826
 1934TIP3    H1 5745   3.558   0.267   0.798
 1934TIP3    H2 5746   3.605   0.130   0.841
 1935TIP3   OH2 5747   3.666   5.700   1.907
 1935TIP3    H1 5748   3.633   5.689   1.818
 1935TIP3    H2 5749   3.587   5.709   1.961
 1936TIP3   OH2 5750   1.278   7.055   6.759
 1936TIP3    H1 5751   1.373   7.048   6.768
 1936TIP3    H2 5752   1.253   7.126   6.818
 1937TIP3   OH2 5753   5.081   1.031   1.470
 1937TIP3    H1 5754   5.056   0.993   1.387
 1937TIP3    H2 5755   5.010   1.009   1.530
 1938TIP3   OH2 5756   0.226   3.579   3.257
 1938TIP3    H1 5757   0.247   3.549   3.345
 1938TIP3    H2 5758   0.166   3.653   3.270
 1939TIP3   OH2 5759   5.122  -0.019   1.120
 1939TIP3    H1 5760   5.199   0.035   1.130
 1939TIP3    H2 5761   5.048   0.040   1.137
 1940TIP3   OH2 5762   0.433   0.487   4.983
 1940TIP3    H1 5763   0.516   0.455   5.018
 1940TIP3    H2 5764   0.452   0.508   4.892
 1941TIP3   OH2 5765   6.461   5.049   5.720
 1941TIP3    H1 5766   6.445   4.977   5.659
 1941TIP3    H2 5767   6.458   5.128   5.665
 1942TIP3   OH2 5768   5.150   6.198   2.483
 1942TIP3    H1 5769   5.106   6.113   2.491
 1942TIP3    H2 5770   5.080   6.262   2.489
 1943TIP3   OH2 5771   2.972   6.022   0.095
 1943TIP3    H1 5772   2.935   6.107   0.118
 1943TIP3    H2 5773   2.993   5.982   0.180
 1944TIP3   OH2 5774   2.885   2.842   1.642
 1944TIP3    H1 5775   2.843   2.841   1.557
 1944TIP3    H2 5776   2.860   2.759   1.683
 1945TIP3   OH2 5777   8.252   1.393   4.808
 1945TIP3    H1 5778   8.214   1.411   4.895
 1945TIP3    H2 5779   8.275   1.479   4.774
 1946TIP3   OH2 5780   3.356   7.035   4.308
 1946TIP3    H1 5781   3.319   6.986   4.235
 1946TIP3    H2 5782   3.437   7.073   4.273
 1947TIP3   OH2 5783   1.312   3.958   4.773
 1947TIP3    H1 5784   1.310   4.053   4.785
 1947TIP3    H2 5785   1.228   3.929   4.807
 1948TIP3   OH2 5786   4.043   5.071   3.353
 1948TIP3    H1 5787   4.098   5.140   3.390
 1948TIP3    H2 5788   4.055   5.079   3.259
 1949TIP3   OH2 5789   4.583   6.695   2.125
 1949TIP3    H1 5790   4.616   6.784   2.118
 1949TIP3    H2 5791   4.605   6.668   2.214
 1950TIP3   OH2 5792   0.221   1.753   2.850
 1950TIP3    H1 5793   0.282   1.688   2.886
 1950TIP3    H2 5794   0.141   1.703   2.833
 1951TIP3   OH2 5795   5.140   5.916   5.229
 1951TIP3    H1 5796   5.210   5.862   5.192
 1951TIP3    H2 5797   5.061   5.862   5.220
 1952TIP3   OH2 5798   4.570   6.985   3.670
 1952TIP3    H1 5799   4.510   6.977   3.743
 1952TIP3    H2 5800   4.518   6.961   3.593
 1953TIP3   OH2 5801   6.418   6.697   1.162
 1953TIP3    H1 5802   6.335   6.743   1.158
 1953TIP3    H2 5803   6.445   6.687   1.071
 1954TIP3   OH2 5804   8.166   3.001   2.881
 1954TIP3    H1 5805   8.193   3.065   2.947
 1954TIP3    H2 5806   8.118   3.051   2.816
 1955TIP3   OH2 5807   0.238   7.023   5.089
 1955TIP3    H1 5808   0.305   7.043   5.023
 1955TIP3    H2 5809   0.240   6.927   5.097
 1956TIP3   OH2 5810   7.988   1.521   5.391
 1956TIP3    H1 5811   7.921   1.454   5.383
 1956TIP3    H2 5812   8.003   1.529   5.486
 1957TIP3   OH2 5813   7.149   5.880   4.031
 1957TIP3    H1 5814   7.111   5.798   4.061
 1957TIP3    H2 5815   7.231   5.888   4.079
 1958TIP3   OH2 5816   7.429   6.905   5.170
 1958TIP3    H1 5817   7.458   6.938   5.255
 1958TIP3    H2 5818   7.477   6.823   5.159
 1959TIP3   OH2 5819   5.373   4.423   3.739
 1959TIP3    H1 5820   5.416   4.491   3.686
 1959TIP3    H2 5821   5.319   4.472   3.801
 1960TIP3   OH2 5822   7.336   1.178   4.158
 1960TIP3    H1 5823   7.326   1.136   4.243
 1960TIP3    H2 5824   7.266   1.142   4.104
 1961TIP3   OH2 5825   6.276   0.492   1.123
 1961TIP3    H1 5826   6.330   0.566   1.153
 1961TIP3    H2 5827   6.253   0.445   1.203
 1962TIP3   OH2 5828   6.469   3.217   4.039
 1962TIP3    H1 5829   6.561   3.209   4.063
 1962TIP3    H2 5830   6.444   3.305   4.068
 1963TIP3   OH2 5831   2.726   6.711   1.600
 1963TIP3    H1 5832   2.762   6.656   1.531
 1963TIP3    H2 5833   2.667   6.771   1.555
 1964TIP3   OH2 5834   5.371   0.890   6.563
 1964TIP3    H1 5835   5.348   0.800   6.585
 1964TIP3    H2 5836   5.350   0.898   6.470
 1965TIP3   OH2 5837   1.566   2.953   3.719
 1965TIP3    H1 5838   1.625   2.880   3.700
 1965TIP3    H2 5839   1.509   2.959   3.643
 1966TIP3   OH2 5840   1.386   6.740   0.871
 1966TIP3    H1 5841   1.351   6.781   0.792
 1966TIP3    H2 5842   1.428   6.660   0.840
 1967TIP3   OH2 5843   3.296   5.183   5.641
 1967TIP3    H1 5844   3.316   5.157   5.731
 1967TIP3    H2 5845   3.371   5.235   5.614
 1968TIP3   OH2 5846   2.808   7.053   5.334
 1968TIP3    H1 5847   2.804   6.979   5.396
 1968TIP3    H2 5848   2.835   7.014   5.252
 1969TIP3   OH2 5849   6.415   2.158   5.660
 1969TIP3    H1 5850   6.495   2.107   5.670
 1969TIP3    H2 5851   6.442   2.236   5.613
 1970TIP3   OH2 5852   0.292   1.489   2.062
 1970TIP3    H1 5853   0.214   1.533   2.094
 1970TIP3    H2 5854   0.365   1.544   2.090
 1971TIP3   OH2 5855   0.614   6.029   1.708
 1971TIP3    H1 5856   0.686   6.056   1.650
 1971TIP3    H2 5857   0.542   6.008   1.648
 1972TIP3   OH2 5858   6.367   1.927   0.837
 1972TIP3    H1 5859   6.461   1.936   0.819
 1972TIP3    H2 5860   6.325   1.980   0.769
 1973TIP3   OH2 5861   1.740   3.631   1.661
 1973TIP3    H1 5862   1.740   3.714   1.709
 1973TIP3    H2 5863   1.684   3.573   1.714
 1974TIP3   OH2 5864   0.661   2.509   1.568
 1974TIP3    H1 5865   0.605   2.585   1.577
 1974TIP3    H2 5866   0.617   2.440   1.617
 1975TIP3   OH2 5867   7.238   6.222   3.535
 1975TIP3    H1 5868   7.327   6.206   3.567
 1975TIP3    H2 5869   7.236   6.182   3.449
 1976TIP3   OH2 5870   3.678   2.292   1.835
 1976TIP3    H1 5871   3.628   2.339   1.768
 1976TIP3    H2 5872   3.637   2.205   1.838
 1977TIP3   OH2 5873   6.269   3.950   2.805
 1977TIP3    H1 5874   6.349   3.901   2.823
 1977TIP3    H2 5875   6.253   3.999   2.886
 1978TIP3   OH2 5876   0.458   6.577   2.785
 1978TIP3    H1 5877   0.414   6.508   2.736
 1978TIP3    H2 5878   0.552   6.558   2.776
 1979TIP3   OH2 5879   1.518   3.418   2.288
 1979TIP3    H1 5880   1.512   3.481   2.215
 1979TIP3    H2 5881   1.501   3.333   2.248
 1980TIP3   OH2 5882   1.143   3.059   2.259
 1980TIP3    H1 5883   1.109   3.074   2.171
 1980TIP3    H2 5884   1.079   3.003   2.302
 1981TIP3   OH2 5885   5.954   3.518   0.207
 1981TIP3    H1 5886   5.907   3.519   0.124
 1981TIP3    H2 5887   5.951   3.427   0.236
 1982TIP3   OH2 5888   0.175   1.841   2.005
 1982TIP3    H1 5889   0.147   1.931   1.990
 1982TIP3    H2 5890   0.240   1.825   1.937
 1983TIP3   OH2 5891   4.264   6.918   5.009
 1983TIP3    H1 5892   4.206   6.994   5.013
 1983TIP3    H2 5893   4.235   6.870   4.932
 1984TIP3   OH2 5894   5.758   1.719   2.982
 1984TIP3    H1 5895   5.706   1.767   2.918
 1984TIP3    H2 5896   5.812   1.786   3.024
 1985TIP3   OH2 5897   3.580   5.436   2.960
 1985TIP3    H1 5898   3.526   5.369   2.918
 1985TIP3    H2 5899   3.640   5.387   3.016
 1986TIP3   OH2 5900   7.458   4.652   0.993
 1986TIP3    H1 5901   7.402   4.730   0.994
 1986TIP3    H2 5902   7.399   4.581   0.965
 1987TIP3   OH2 5903   7.972   0.153   4.366
 1987TIP3    H1 5904   7.932   0.231   4.406
 1987TIP3    H2 5905   8.061   0.180   4.345
 1988TIP3   OH2 5906   1.839   7.442   1.842
 1988TIP3    H1 5907   1.751   7.481   1.839
 1988TIP3    H2 5908   1.898   7.517   1.836
 1989TIP3   OH2 5909   0.457   3.755   3.259
 1989TIP3    H1 5910   0.375   3.709   3.246
 1989TIP3    H2 5911   0.432   3.841   3.291
 1990TIP3   OH2 5912   3.541   0.268   2.717
 1990TIP3    H1 5913   3.453   0.246   2.747
 1990TIP3    H2 5914   3.590   0.185   2.724
 1991TIP3   OH2 5915   4.854   3.247   4.379
 1991TIP3    H1 5916   4.857   3.273   4.287
 1991TIP3    H2 5917   4.889   3.158   4.380
 1992TIP3   OH2 5918   2.848   1.883   4.277
 1992TIP3    H1 5919   2.841   1.977   4.263
 1992TIP3    H2 5920   2.893   1.850   4.200
 1993TIP3   OH2 5921   6.788   5.513   3.243
 1993TIP3    H1 5922   6.754   5.560   3.319
 1993TIP3    H2 5923   6.873   5.479   3.273
 1994TIP3   OH2 5924   4.448   6.021   5.272
 1994TIP3    H1 5925   4.437   6.112   5.243
 1994TIP3    H2 5926   4.417   6.021   5.363
 1995TIP3   OH2 5927   5.555   0.173   1.867
 1995TIP3    H1 5928   5.586   0.108   1.930
 1995TIP3    H2 5929   5.460   0.164   1.869
 1996TIP3   OH2 5930   5.176   1.463   6.302
 1996TIP3    H1 5931   5.203   1.528   6.368
 1996TIP3    H2 5932   5.135   1.393   6.353
 1997TIP3   OH2 5933   8.086   1.320   0.738
 1997TIP3    H1 5934   8.160   1.330   0.797
 1997TIP3    H2 5935   8.013   1.363   0.783
 1998TIP3   OH2 5936   4.420   6.638   5.789
 1998TIP3    H1 5937   4.515   6.633   5.774
 1998TIP3    H2 5938   4.402   6.731   5.799
 1999TIP3   OH2 5939   0.123   4.111   0.972
 1999TIP3    H1 5940   0.104   4.028   1.017
 1999TIP3    H2 5941   0.102   4.178   1.037
 2000TIP3   OH2 5942   7.085   6.146   0.870
 2000TIP3    H1 5943   7.167   6.097   0.879
 2000TIP3    H2 5944   7.063   6.173   0.959
 2001TIP3   OH2 5945   4.229   5.074   1.387
 2001TIP3    H1 5946   4.227   5.150   1.329
 2001TIP3    H2 5947   4.282   5.009   1.341
 2002TIP3   OH2 5948   2.777   0.256   0.101
 2002TIP3    H1 5949   2.856   0.284   0.055
 2002TIP3    H2 5950   2.750   0.176   0.054
 2003TIP3   OH2 5951   7.993   5.262   6.827
 2003TIP3    H1 5952   8.072   5.210   6.810
 2003TIP3    H2 5953   7.981   5.314   6.748
 2004TIP3   OH2 5954   7.469   4.075   3.394
 2004TIP3    H1 5955   7.518   3.992   3.395
 2004TIP3    H2 5956   7.517   4.131   3.455
 2005TIP3   OH2 5957   1.832   6.453   5.032
 2005TIP3    H1 5958   1.766   6.413   5.088
 2005TIP3    H2 5959   1.915   6.437   5.076
 2006TIP3   OH2 5960   7.986   6.810   1.385
 2006TIP3    H1 5961   7.899   6.794   1.348
 2006TIP3    H2 5962   7.969   6.856   1.467
 2007TIP3   OH2 5963   7.445   7.319   1.833
 2007TIP3    H1 5964   7.389   7.250   1.795
 2007TIP3    H2 5965   7.516   7.329   1.769
 2008TIP3   OH2 5966   2.405   0.939   1.075
 2008TIP3    H1 5967   2.421   0.890   1.155
 2008TIP3    H2 5968   2.434   0.880   1.005
 2009TIP3   OH2 5969   6.400   3.636   1.728
 2009TIP3    H1 5970   6.440   3.611   1.645
 2009TIP3    H2 5971   6.404   3.732   1.729
 2010TIP3   OH2 5972   1.608   6.805   4.947
 2010TIP3    H1 5973   1.618   6.875   4.882
 2010TIP3    H2 5974   1.609   6.850   5.031
 2011TIP3   OH2 5975   3.828   2.592   2.833
 2011TIP3    H1 5976   3.763   2.653   2.869
 2011TIP3    H2 5977   3.902   2.598   2.893
 2012TIP3   OH2 5978   3.706   5.591   6.154
 2012TIP3    H1 5979   3.746   5.646   6.086
 2012TIP3    H2 5980   3.692   5.507   6.111
 2013TIP3   OH2 5981   2.884   0.557   5.724
 2013TIP3    H1 5982   2.837   0.546   5.641
 2013TIP3    H2 5983   2.861   0.645   5.753
 2014TIP3   OH2 5984   5.734   7.550   3.966
 2014TIP3    H1 5985   5.739   7.484   3.897
 2014TIP3    H2 5986   5.683   7.508   4.036
 2015TIP3   OH2 5987   6.173   3.828   0.445
 2015TIP3    H1 5988   6.241   3.801   0.506
 2015TIP3    H2 5989   6.102   3.765   0.459
 2016TIP3   OH2 5990   0.264   4.943   4.787
 2016TIP3    H1 5991   0.307   4.857   4.797
 2016TIP3    H2 5992   0.180   4.923   4.747
 2017TIP3   OH2 5993   2.745   2.091   5.504
 2017TIP3    H1 5994   2.836   2.082   5.533
 2017TIP3    H2 5995   2.693   2.055   5.575
 2018TIP3   OH2 5996   0.891   5.314   2.312
 2018TIP3    H1 5997   0.881   5.218   2.309
 2018TIP3    H2 5998   0.986   5.328   2.312
 2019TIP3   OH2 5999   0.101   1.247   5.755
 2019TIP3    H1 6000   0.056   1.171   5.793
 2019TIP3    H2 6001   0.092   1.315   5.821
 2020TIP3   OH2 6002   2.213   4.355   6.377
 2020TIP3    H1 6003   2.128   4.324   6.348
 2020TIP3    H2 6004   2.233   4.430   6.321
 2021TIP3   OH2 6005   7.431   6.005   2.461
 2021TIP3    H1 6006   7.457   5.914   2.452
 2021TIP3    H2 6007   7.434   6.022   2.555
 2022TIP3   OH2 6008   3.072   4.170   1.796
 2022TIP3    H1 6009   3.043   4.103   1.735
 2022TIP3    H2 6010   2.991   4.204   1.834
 2023TIP3   OH2 6011   5.293   6.696   5.629
 2023TIP3    H1 6012   5.235   6.687   5.553
 2023TIP3    H2 6013   5.381   6.688   5.593
 2024TIP3   OH2 6014   4.482   4.438   1.236
 2024TIP3    H1 6015   4.405   4.487   1.264
 2024TIP3    H2 6016   4.482   4.444   1.141
 2025TIP3   OH2 6017   4.587   6.603   0.768
 2025TIP3    H1 6018   4.573   6.548   0.844
 2025TIP3    H2 6019   4.620   6.543   0.701
 2026TIP3   OH2 6020   1.113   4.562   5.339
 2026TIP3    H1 6021   1.128   4.619   5.415
 2026TIP3    H2 6022   1.071   4.618   5.275
 2027TIP3   OH2 6023   1.969   4.815   6.388
 2027TIP3    H1 6024   1.917   4.893   6.409
 2027TIP3    H2 6025   2.036   4.813   6.456
 2028TIP3   OH2 6026   2.681   3.434   5.094
 2028TIP3    H1 6027   2.736   3.361   5.123
 2028TIP3    H2 6028   2.719   3.511   5.136
 2029TIP3   OH2 6029   4.358   1.716   6.803
 2029TIP3    H1 6030   4.411   1.728   6.724
 2029TIP3    H2 6031   4.334   1.804   6.830
 2030TIP3   OH2 6032   5.822   0.084   0.553
 2030TIP3    H1 6033   5.786   0.129   0.478
 2030TIP3    H2 6034   5.915   0.106   0.552
 2031TIP3   OH2 6035   5.681   4.135   3.505
 2031TIP3    H1 6036   5.651   4.144   3.415
 2031TIP3    H2 6037   5.705   4.043   3.514
 2032TIP3   OH2 6038   5.155   3.749   5.863
 2032TIP3    H1 6039   5.211   3.773   5.789
 2032TIP3    H2 6040   5.123   3.832   5.897
 2033TIP3   OH2 6041   2.862   6.246   0.199
 2033TIP3    H1 6042   2.826   6.247   0.287
 2033TIP3    H2 6043   2.868   6.338   0.174
 2034TIP3   OH2 6044   2.560   2.347   5.785
 2034TIP3    H1 6045   2.645   2.371   5.821
 2034TIP3    H2 6046   2.497   2.397   5.838
 2035TIP3   OH2 6047   3.803   7.733   5.375
 2035TIP3    H1 6048   3.849   7.674   5.316
 2035TIP3    H2 6049   3.729   7.682   5.407
 2036TIP3   OH2 6050   7.844   1.410   1.467
 2036TIP3    H1 6051   7.852   1.316   1.451
 2036TIP3    H2 6052   7.864   1.420   1.560
 2037TIP3   OH2 6053   0.870   3.120   3.990
 2037TIP3    H1 6054   0.958   3.158   3.986
 2037TIP3    H2 6055   0.844   3.111   3.898
 2038TIP3   OH2 6056   3.473   4.895   5.272
 2038TIP3    H1 6057   3.439   4.878   5.360
 2038TIP3    H2 6058   3.427   4.973   5.242
 2039TIP3   OH2 6059   6.631   6.531   1.099
 2039TIP3    H1 6060   6.564   6.587   1.138
 2039TIP3    H2 6061   6.666   6.481   1.172
 2040TIP3   OH2 6062   3.665   3.889   0.961
 2040TIP3    H1 6063   3.662   3.852   0.873
 2040TIP3    H2 6064   3.577   3.926   0.974
 2041TIP3   OH2 6065   4.023   3.739   3.303
 2041TIP3    H1 6066   4.111   3.768   3.327
 2041TIP3    H2 6067   4.038   3.669   3.239
 2042TIP3   OH2 6068   8.141   1.059   1.671
 2042TIP3    H1 6069   8.075   1.090   1.610
 2042TIP3    H2 6070   8.210   1.125   1.668
 2043TIP3   OH2 6071   5.244   5.358   5.438
 2043TIP3    H1 6072   5.243   5.371   5.343
 2043TIP3    H2 6073   5.161   5.394   5.468
 2044TIP3   OH2 6074   7.223   0.289   3.289
 2044TIP3    H1 6075   7.145   0.245   3.323
 2044TIP3    H2 6076   7.286   0.218   3.275
 2045TIP3   OH2 6077   8.172   1.938   5.018
 2045TIP3    H1 6078   8.135   1.851   5.033
 2045TIP3    H2 6079   8.099   1.990   4.985
 2046TIP3   OH2 6080   3.648   2.298   4.880
 2046TIP3    H1 6081   3.585   2.227   4.891
 2046TIP3    H2 6082   3.704   2.293   4.957
 2047TIP3   OH2 6083   2.997   2.861   3.014
 2047TIP3    H1 6084   2.977   2.898   2.928
 2047TIP3    H2 6085   3.007   2.767   2.998
 2048TIP3   OH2 6086   4.277   1.693   3.096
 2048TIP3    H1 6087   4.371   1.687   3.108
 2048TIP3    H2 6088   4.256   1.626   3.032
 2049TIP3   OH2 6089   4.223   6.647   6.380
 2049TIP3    H1 6090   4.227   6.554   6.355
 2049TIP3    H2 6091   4.215   6.694   6.297
 2050TIP3   OH2 6092   1.618   7.344   0.845
 2050TIP3    H1 6093   1.577   7.267   0.805
 2050TIP3    H2 6094   1.687   7.370   0.783
 2051TIP3   OH2 6095   2.689   2.978   4.154
 2051TIP3    H1 6096   2.721   2.944   4.071
 2051TIP3    H2 6097   2.596   2.954   4.156
 2052TIP3   OH2 6098   6.654   5.410   5.792
 2052TIP3    H1 6099   6.706   5.449   5.863
 2052TIP3    H2 6100   6.582   5.366   5.837
 2053TIP3   OH2 6101   7.856  -0.025   6.238
 2053TIP3    H1 6102   7.799  -0.022   6.315
 2053TIP3    H2 6103   7.813   0.030   6.173
 2054TIP3   OH2 6104   5.458   5.697   2.219
 2054TIP3    H1 6105   5.415   5.742   2.146
 2054TIP3    H2 6106   5.548   5.682   2.190
 2055TIP3   OH2 6107   5.415   6.465   2.049
 2055TIP3    H1 6108   5.341   6.494   2.103
 2055TIP3    H2 6109   5.489   6.465   2.109
 2056TIP3   OH2 6110   7.284   3.153   6.688
 2056TIP3    H1 6111   7.209   3.126   6.635
 2056TIP3    H2 6112   7.355   3.164   6.625
 2057TIP3   OH2 6113   1.159   4.472   3.859
 2057TIP3    H1 6114   1.074   4.476   3.814
 2057TIP3    H2 6115   1.179   4.563   3.880
 2058TIP3   OH2 6116   5.224   5.368   4.704
 2058TIP3    H1 6117   5.227   5.280   4.665
 2058TIP3    H2 6118   5.228   5.427   4.629
 2059TIP3   OH2 6119   3.081   0.746   5.655
 2059TIP3    H1 6120   3.009   0.791   5.700
 2059TIP3    H2 6121   3.054   0.654   5.655
 2060TIP3   OH2 6122   4.924   4.557   1.469
 2060TIP3    H1 6123   4.961   4.471   1.491
 2060TIP3    H2 6124   4.841   4.561   1.516
 2061TIP3   OH2 6125   3.037   4.392   4.740
 2061TIP3    H1 6126   3.126   4.364   4.719
 2061TIP3    H2 6127   3.000   4.319   4.789
 2062TIP3   OH2 6128   2.991   1.216   4.775
 2062TIP3    H1 6129   2.975   1.280   4.845
 2062TIP3    H2 6130   2.989   1.269   4.695
 2063TIP3   OH2 6131   7.312   5.092   1.000
 2063TIP3    H1 6132   7.384   5.134   0.954
 2063TIP3    H2 6133   7.241   5.156   0.998
 2064TIP3   OH2 6134   4.063   3.332   0.108
 2064TIP3    H1 6135   4.127   3.363   0.173
 2064TIP3    H2 6136   4.112   3.332   0.025
 2065TIP3   OH2 6137   2.572   3.036   3.042
 2065TIP3    H1 6138   2.613   2.949   3.043
 2065TIP3    H2 6139   2.644   3.096   3.027
 2066TIP3   OH2 6140   1.341   4.857   4.652
 2066TIP3    H1 6141   1.360   4.947   4.627
 2066TIP3    H2 6142   1.341   4.858   4.748
 2067TIP3   OH2 6143   0.279   7.657   6.577
 2067TIP3    H1 6144   0.282   7.711   6.498
 2067TIP3    H2 6145   0.358   7.681   6.626
 2068TIP3   OH2 6146   5.762   2.762   0.415
 2068TIP3    H1 6147   5.805   2.806   0.341
 2068TIP3    H2 6148   5.832   2.714   0.458
 2069TIP3   OH2 6149   5.956   5.492   3.947
 2069TIP3    H1 6150   5.900   5.432   3.997
 2069TIP3    H2 6151   5.928   5.481   3.856
 2070TIP3   OH2 6152   7.883   4.613   6.452
 2070TIP3    H1 6153   7.915   4.607   6.362
 2070TIP3    H2 6154   7.851   4.525   6.473
 2071TIP3   OH2 6155   5.440   1.489   2.229
 2071TIP3    H1 6156   5.472   1.544   2.300
 2071TIP3    H2 6157   5.384   1.424   2.271
 2072TIP3   OH2 6158   1.482   3.277   3.019
 2072TIP3    H1 6159   1.419   3.205   3.015
 2072TIP3    H2 6160   1.490   3.296   3.113
 2073TIP3   OH2 6161   2.810   5.553   1.263
 2073TIP3    H1 6162   2.887   5.551   1.320
 2073TIP3    H2 6163   2.841   5.517   1.179
 2074TIP3   OH2 6164   1.816   1.797   2.818
 2074TIP3    H1 6165   1.726   1.831   2.816
 2074TIP3    H2 6166   1.870   1.875   2.824
 2075TIP3   OH2 6167   2.742   7.651   4.867
 2075TIP3    H1 6168   2.683   7.586   4.828
 2075TIP3    H2 6169   2.787   7.603   4.936
 2076TIP3   OH2 6170   1.287   1.233   0.063
 2076TIP3    H1 6171   1.321   1.322   0.062
 2076TIP3    H2 6172   1.307   1.201   0.151
 2077TIP3   OH2 6173   6.131   3.694   5.030
 2077TIP3    H1 6174   6.201   3.701   5.094
 2077TIP3    H2 6175   6.175   3.697   4.945
 2078TIP3   OH2 6176   5.758   3.833   6.614
 2078TIP3    H1 6177   5.714   3.748   6.610
 2078TIP3    H2 6178   5.797   3.844   6.527
 2079TIP3   OH2 6179   6.450   5.814   3.107
 2079TIP3    H1 6180   6.422   5.905   3.097
 2079TIP3    H2 6181   6.514   5.801   3.036
 2080TIP3   OH2 6182   5.274   2.204   3.905
 2080TIP3    H1 6183   5.250   2.125   3.954
 2080TIP3    H2 6184   5.197   2.222   3.851
 2081TIP3   OH2 6185   4.881   6.464   2.946
 2081TIP3    H1 6186   4.870   6.503   3.033
 2081TIP3    H2 6187   4.944   6.393   2.959
 2082TIP3   OH2 6188   7.546   6.320   0.177
 2082TIP3    H1 6189   7.635   6.288   0.166
 2082TIP3    H2 6190   7.515   6.336   0.088
 2083TIP3   OH2 6191   7.580   2.200   0.931
 2083TIP3    H1 6192   7.554   2.241   1.013
 2083TIP3    H2 6193   7.659   2.149   0.953
 2084TIP3   OH2 6194   7.249   6.644   1.779
 2084TIP3    H1 6195   7.182   6.667   1.716
 2084TIP3    H2 6196   7.308   6.719   1.780
 2085TIP3   OH2 6197   0.379   5.364   4.173
 2085TIP3    H1 6198   0.413   5.401   4.092
 2085TIP3    H2 6199   0.433   5.286   4.188
 2086TIP3   OH2 6200   2.881   2.422   6.675
 2086TIP3    H1 6201   2.944   2.430   6.747
 2086TIP3    H2 6202   2.898   2.336   6.638
 2087TIP3   OH2 6203   0.844   4.678   5.608
 2087TIP3    H1 6204   0.863   4.719   5.692
 2087TIP3    H2 6205   0.906   4.718   5.547
 2088TIP3   OH2 6206   1.982   5.211   1.041
 2088TIP3    H1 6207   1.942   5.147   1.100
 2088TIP3    H2 6208   2.075   5.210   1.064
 2089TIP3   OH2 6209   3.436   6.747   3.900
 2089TIP3    H1 6210   3.501   6.790   3.955
 2089TIP3    H2 6211   3.351   6.778   3.934
 2090TIP3   OH2 6212   2.513   1.288   6.656
 2090TIP3    H1 6213   2.430   1.282   6.608
 2090TIP3    H2 6214   2.487   1.299   6.747
 2091TIP3   OH2 6215   3.609   7.266   4.815
 2091TIP3    H1 6216   3.605   7.182   4.769
 2091TIP3    H2 6217   3.518   7.293   4.823
 2092TIP3   OH2 6218   6.174   2.838   0.004
 2092TIP3    H1 6219   6.187   2.822  -0.089
 2092TIP3    H2 6220   6.260   2.822   0.043
 2093TIP3   OH2 6221   2.128   6.839   1.775
 2093TIP3    H1 6222   2.057   6.780   1.747
 2093TIP3    H2 6223   2.158   6.802   1.858
 2094TIP3   OH2 6224   3.512   1.865   0.868
 2094TIP3    H1 6225   3.549   1.888   0.953
 2094TIP3    H2 6226   3.430   1.820   0.888
 2095TIP3   OH2 6227   4.163   4.868   5.722
 2095TIP3    H1 6228   4.178   4.957   5.693
 2095TIP3    H2 6229   4.174   4.871   5.817
 2096TIP3   OH2 6230   3.971   1.164   6.540
 2096TIP3    H1 6231   4.039   1.228   6.521
 2096TIP3    H2 6232   3.892   1.200   6.499
 2097TIP3   OH2 6233   6.398   0.619   6.719
 2097TIP3    H1 6234   6.422   0.558   6.789
 2097TIP3    H2 6235   6.480   0.643   6.678
 2098TIP3   OH2 6236   1.663   5.821   3.080
 2098TIP3    H1 6237   1.648   5.915   3.090
 2098TIP3    H2 6238   1.701   5.812   2.993
 2099TIP3   OH2 6239   6.403   6.259   6.166
 2099TIP3    H1 6240   6.398   6.313   6.087
 2099TIP3    H2 6241   6.465   6.190   6.144
 2100TIP3   OH2 6242   0.530   5.606   1.990
 2100TIP3    H1 6243   0.503   5.522   1.952
 2100TIP3    H2 6244   0.609   5.631   1.942
 2101TIP3   OH2 6245   0.738   0.704   5.045
 2101TIP3    H1 6246   0.783   0.662   4.971
 2101TIP3    H2 6247   0.803   0.705   5.115
 2102TIP3   OH2 6248   8.257   5.132   5.061
 2102TIP3    H1 6249   8.226   5.105   4.974
 2102TIP3    H2 6250   8.227   5.063   5.120
 2103TIP3   OH2 6251   2.232   3.676   2.958
 2103TIP3    H1 6252   2.246   3.625   3.038
 2103TIP3    H2 6253   2.152   3.639   2.921
 2104TIP3   OH2 6254   8.102   7.585   5.085
 2104TIP3    H1 6255   8.126   7.578   4.992
 2104TIP3    H2 6256   8.139   7.669   5.113
 2105TIP3   OH2 6257   0.834   6.955   1.805
 2105TIP3    H1 6258   0.812   6.865   1.780
 2105TIP3    H2 6259   0.751   6.994   1.830
 2106TIP3   OH2 6260   6.611   7.296   3.343
 2106TIP3    H1 6261   6.535   7.285   3.401
 2106TIP3    H2 6262   6.579   7.268   3.257
 2107TIP3   OH2 6263   7.813   7.339   6.320
 2107TIP3    H1 6264   7.904   7.368   6.331
 2107TIP3    H2 6265   7.761   7.406   6.366
 2108TIP3   OH2 6266   3.615   4.262   0.461
 2108TIP3    H1 6267   3.572   4.313   0.530
 2108TIP3    H2 6268   3.587   4.171   0.478
 2109TIP3   OH2 6269   0.259   0.911   6.372
 2109TIP3    H1 6270   0.239   0.858   6.295
 2109TIP3    H2 6271   0.332   0.865   6.414
 2110TIP3   OH2 6272   4.934   6.980   4.153
 2110TIP3    H1 6273   4.942   7.070   4.120
 2110TIP3    H2 6274   5.018   6.963   4.197
 2111TIP3   OH2 6275   6.899   1.600   1.535
 2111TIP3    H1 6276   6.893   1.686   1.575
 2111TIP3    H2 6277   6.870   1.539   1.604
 2112TIP3   OH2 6278   3.483   4.217   5.366
 2112TIP3    H1 6279   3.456   4.145   5.424
 2112TIP3    H2 6280   3.572   4.239   5.396
 2113TIP3   OH2 6281   6.963   4.502   2.632
 2113TIP3    H1 6282   6.924   4.587   2.609
 2113TIP3    H2 6283   6.983   4.509   2.725
 2114TIP3   OH2 6284   3.475   0.668   5.287
 2114TIP3    H1 6285   3.416   0.606   5.245
 2114TIP3    H2 6286   3.562   0.629   5.276
 2115TIP3   OH2 6287   0.564   4.489   0.238
 2115TIP3    H1 6288   0.605   4.412   0.280
 2115TIP3    H2 6289   0.568   4.470   0.144
 2116TIP3   OH2 6290   6.909   2.070   1.395
 2116TIP3    H1 6291   6.837   2.124   1.362
 2116TIP3    H2 6292   6.922   2.003   1.329
 2117TIP3   OH2 6293   7.920   2.474   1.387
 2117TIP3    H1 6294   7.990   2.512   1.332
 2117TIP3    H2 6295   7.961   2.398   1.428
 2118TIP3   OH2 6296   5.406   3.495   5.990
 2118TIP3    H1 6297   5.486   3.466   5.945
 2118TIP3    H2 6298   5.372   3.416   6.032
 2119TIP3   OH2 6299   6.112   7.680   3.729
 2119TIP3    H1 6300   6.177   7.720   3.671
 2119TIP3    H2 6301   6.163   7.624   3.787
 2120TIP3   OH2 6302   6.227   1.221   0.812
 2120TIP3    H1 6303   6.262   1.300   0.770
 2120TIP3    H2 6304   6.272   1.217   0.896
 2121TIP3   OH2 6305   1.871   7.362   5.876
 2121TIP3    H1 6306   1.837   7.272   5.880
 2121TIP3    H2 6307   1.816   7.411   5.937
 2122TIP3   OH2 6308   2.341   4.775   4.918
 2122TIP3    H1 6309   2.409   4.708   4.926
 2122TIP3    H2 6310   2.387   4.851   4.882
 2123TIP3   OH2 6311   2.854   3.999   0.996
 2123TIP3    H1 6312   2.882   4.020   1.085
 2123TIP3    H2 6313   2.904   3.921   0.972
 2124TIP3   OH2 6314   1.211   0.349   3.434
 2124TIP3    H1 6315   1.275   0.289   3.471
 2124TIP3    H2 6316   1.203   0.323   3.342
 2125TIP3   OH2 6317   4.526   2.862   0.596
 2125TIP3    H1 6318   4.487   2.876   0.509
 2125TIP3    H2 6319   4.620   2.855   0.578
 2126TIP3   OH2 6320   2.189   2.380   4.934
 2126TIP3    H1 6321   2.206   2.387   4.841
 2126TIP3    H2 6322   2.096   2.399   4.943
 2127TIP3   OH2 6323   6.008   7.140   0.010
 2127TIP3    H1 6324   5.988   7.063   0.064
 2127TIP3    H2 6325   6.051   7.201   0.069
 2128TIP3   OH2 6326   4.561   6.862   4.240
 2128TIP3    H1 6327   4.608   6.779   4.250
 2128TIP3    H2 6328   4.468   6.837   4.236
 2129TIP3   OH2 6329   5.114   2.943   2.038
 2129TIP3    H1 6330   5.204   2.957   2.068
 2129TIP3    H2 6331   5.123   2.888   1.960
 2130TIP3   OH2 6332   5.993   4.249   6.206
 2130TIP3    H1 6333   5.980   4.287   6.293
 2130TIP3    H2 6334   5.937   4.172   6.205
 2131TIP3   OH2 6335   0.364   7.492   5.209
 2131TIP3    H1 6336   0.315   7.410   5.203
 2131TIP3    H2 6337   0.417   7.494   5.129
 2132TIP3   OH2 6338   6.910   3.182   3.893
 2132TIP3    H1 6339   6.975   3.247   3.917
 2132TIP3    H2 6340   6.904   3.188   3.797
 2133TIP3   OH2 6341   0.890   2.866   0.739
 2133TIP3    H1 6342   0.946   2.816   0.680
 2133TIP3    H2 6343   0.849   2.932   0.684
 2134TIP3   OH2 6344   5.970   6.283   1.727
 2134TIP3    H1 6345   5.946   6.269   1.819
 2134TIP3    H2 6346   6.055   6.326   1.731
 2135TIP3   OH2 6347   5.123   5.941   2.373
 2135TIP3    H1 6348   5.091   5.896   2.295
 2135TIP3    H2 6349   5.146   5.870   2.434
 2136TIP3   OH2 6350   0.195   2.572   3.989
 2136TIP3    H1 6351   0.153   2.658   3.995
 2136TIP3    H2 6352   0.247   2.566   4.069
 2137TIP3   OH2 6353   2.574   7.393   6.286
 2137TIP3    H1 6354   2.654   7.438   6.313
 2137TIP3    H2 6355   2.522   7.388   6.366
 2138TIP3   OH2 6356   2.708   6.314   6.407
 2138TIP3    H1 6357   2.626   6.362   6.423
 2138TIP3    H2 6358   2.757   6.323   6.488
 2139TIP3   OH2 6359   1.537   4.254   0.362
 2139TIP3    H1 6360   1.513   4.231   0.452
 2139TIP3    H2 6361   1.549   4.349   0.364
 2140TIP3   OH2 6362   5.960   4.449   1.111
 2140TIP3    H1 6363   6.052   4.450   1.137
 2140TIP3    H2 6364   5.912   4.467   1.192
 2141TIP3   OH2 6365   2.865   2.943   2.294
 2141TIP3    H1 6366   2.890   3.020   2.345
 2141TIP3    H2 6367   2.937   2.930   2.233
 2142TIP3   OH2 6368   3.813   6.858   0.065
 2142TIP3    H1 6369   3.727   6.825   0.094
 2142TIP3    H2 6370   3.803   6.953   0.063
 2143TIP3   OH2 6371   3.176   4.620   4.861
 2143TIP3    H1 6372   3.104   4.575   4.817
 2143TIP3    H2 6373   3.148   4.627   4.952
 2144TIP3   OH2 6374   7.072   0.671   2.324
 2144TIP3    H1 6375   7.092   0.764   2.311
 2144TIP3    H2 6376   7.130   0.643   2.395
 2145TIP3   OH2 6377   6.734   1.328   4.048
 2145TIP3    H1 6378   6.665   1.324   3.982
 2145TIP3    H2 6379   6.761   1.419   4.049
 2146TIP3   OH2 6380   3.626   3.548   0.280
 2146TIP3    H1 6381   3.563   3.614   0.250
 2146TIP3    H2 6382   3.571   3.473   0.304
 2147TIP3   OH2 6383   7.146   4.930   1.683
 2147TIP3    H1 6384   7.163   4.858   1.744
 2147TIP3    H2 6385   7.053   4.924   1.664
 2148TIP3   OH2 6386   4.344   3.728   6.213
 2148TIP3    H1 6387   4.299   3.803   6.176
 2148TIP3    H2 6388   4.432   3.730   6.175
 2149TIP3   OH2 6389   3.729   2.480   2.020
 2149TIP3    H1 6390   3.728   2.408   1.956
 2149TIP3    H2 6391   3.796   2.540   1.986
 2150TIP3   OH2 6392   0.490   0.248   2.950
 2150TIP3    H1 6393   0.550   0.213   3.016
 2150TIP3    H2 6394   0.410   0.198   2.962
 2151TIP3   OH2 6395   3.104   4.156   4.915
 2151TIP3    H1 6396   3.113   4.066   4.883
 2151TIP3    H2 6397   3.031   4.151   4.978
 2152TIP3   OH2 6398   1.520   4.098   6.384
 2152TIP3    H1 6399   1.605   4.054   6.394
 2152TIP3    H2 6400   1.501   4.092   6.291
 2153TIP3   OH2 6401   6.929   1.452   6.627
 2153TIP3    H1 6402   6.956   1.386   6.563
 2153TIP3    H2 6403   6.885   1.519   6.574
 2154TIP3   OH2 6404   3.032   4.957   6.413
 2154TIP3    H1 6405   2.960   4.894   6.415
 2154TIP3    H2 6406   2.997   5.031   6.363
 2155TIP3   OH2 6407   7.095   2.466   4.879
 2155TIP3    H1 6408   7.114   2.421   4.961
 2155TIP3    H2 6409   7.008   2.503   4.892
 2156TIP3   OH2 6410   3.316   0.287   4.293
 2156TIP3    H1 6411   3.404   0.285   4.332
 2156TIP3    H2 6412   3.294   0.195   4.278
 2157TIP3   OH2 6413   5.956   0.504   0.517
 2157TIP3    H1 6414   6.031   0.500   0.576
 2157TIP3    H2 6415   5.887   0.455   0.563
 2158TIP3   OH2 6416   6.603   4.565   5.395
 2158TIP3    H1 6417   6.570   4.477   5.415
 2158TIP3    H2 6418   6.581   4.579   5.303
 2159TIP3   OH2 6419   5.659   2.328   0.463
 2159TIP3    H1 6420   5.600   2.292   0.397
 2159TIP3    H2 6421   5.631   2.285   0.544
 2160TIP3   OH2 6422   6.970   1.892   3.452
 2160TIP3    H1 6423   7.035   1.936   3.506
 2160TIP3    H2 6424   6.942   1.817   3.504
 2161TIP3   OH2 6425   6.433   2.387   0.893
 2161TIP3    H1 6426   6.377   2.309   0.886
 2161TIP3    H2 6427   6.517   2.360   0.857
 2162TIP3   OH2 6428   4.762   4.294   2.439
 2162TIP3    H1 6429   4.703   4.359   2.478
 2162TIP3    H2 6430   4.704   4.230   2.397
 2163TIP3   OH2 6431   2.773   3.209   2.989
 2163TIP3    H1 6432   2.755   3.278   2.924
 2163TIP3    H2 6433   2.852   3.238   3.034
 2164TIP3   OH2 6434   7.694   1.885   4.187
 2164TIP3    H1 6435   7.754   1.838   4.129
 2164TIP3    H2 6436   7.609   1.878   4.144
 2165TIP3   OH2 6437   7.203   2.436   2.546
 2165TIP3    H1 6438   7.208   2.352   2.592
 2165TIP3    H2 6439   7.216   2.413   2.454
 2166TIP3   OH2 6440   0.291   3.331   6.451
 2166TIP3    H1 6441   0.320   3.244   6.477
 2166TIP3    H2 6442   0.201   3.318   6.420
 2167TIP3   OH2 6443   6.472   7.234   6.570
 2167TIP3    H1 6444   6.546   7.181   6.542
 2167TIP3    H2 6445   6.508   7.293   6.636
 2168TIP3   OH2 6446   1.813   4.044   0.990
 2168TIP3    H1 6447   1.776   4.034   1.078
 2168TIP3    H2 6448   1.831   3.954   0.961
 2169TIP3   OH2 6449   8.208   3.798   3.352
 2169TIP3    H1 6450   8.122   3.840   3.348
 2169TIP3    H2 6451   8.209   3.753   3.436
 2170TIP3   OH2 6452   6.843   2.316   4.668
 2170TIP3    H1 6453   6.926   2.271   4.681
 2170TIP3    H2 6454   6.866   2.409   4.669
 2171TIP3   OH2 6455   2.609   6.089   2.361
 2171TIP3    H1 6456   2.531   6.036   2.380
 2171TIP3    H2 6457   2.636   6.060   2.273
 2172TIP3   OH2 6458   4.892   1.394   6.125
 2172TIP3    H1 6459   4.900   1.314   6.177
 2172TIP3    H2 6460   4.983   1.421   6.110
 2173TIP3   OH2 6461   4.123   5.410   2.575
 2173TIP3    H1 6462   4.202   5.444   2.616
 2173TIP3    H2 6463   4.144   5.320   2.552
 2174TIP3   OH2 6464   1.634   4.509   3.927
 2174TIP3    H1 6465   1.570   4.548   3.866
 2174TIP3    H2 6466   1.717   4.549   3.903
 2175TIP3   OH2 6467   0.506   0.158   3.250
 2175TIP3    H1 6468   0.485   0.065   3.235
 2175TIP3    H2 6469   0.488   0.172   3.343
 2176TIP3   OH2 6470   3.610   6.806   1.315
 2176TIP3    H1 6471   3.606   6.745   1.242
 2176TIP3    H2 6472   3.681   6.866   1.293
 2177TIP3   OH2 6473   5.435   5.244   0.770
 2177TIP3    H1 6474   5.360   5.296   0.798
 2177TIP3    H2 6475   5.479   5.219   0.852
 2178TIP3   OH2 6476   1.143   0.360   1.010
 2178TIP3    H1 6477   1.137   0.425   1.080
 2178TIP3    H2 6478   1.085   0.394   0.941
 2179TIP3   OH2 6479   1.008   0.424   0.758
 2179TIP3    H1 6480   0.956   0.495   0.720
 2179TIP3    H2 6481   1.098   0.457   0.756
 2180TIP3   OH2 6482   4.226   1.753   1.612
 2180TIP3    H1 6483   4.168   1.677   1.616
 2180TIP3    H2 6484   4.207   1.802   1.692
 2181TIP3   OH2 6485   1.346   5.817   5.218
 2181TIP3    H1 6486   1.283   5.847   5.152
 2181TIP3    H2 6487   1.349   5.722   5.207
 2182TIP3   OH2 6488   1.060   0.728   3.245
 2182TIP3    H1 6489   1.135   0.671   3.264
 2182TIP3    H2 6490   1.010   0.730   3.327
 2183TIP3   OH2 6491   2.733   7.056   2.806
 2183TIP3    H1 6492   2.732   7.098   2.720
 2183TIP3    H2 6493   2.816   7.082   2.845
 2184TIP3   OH2 6494   8.206   2.992   5.886
 2184TIP3    H1 6495   8.269   3.048   5.931
 2184TIP3    H2 6496   8.228   2.904   5.915
 2185TIP3   OH2 6497   3.619   7.458   5.748
 2185TIP3    H1 6498   3.637   7.523   5.817
 2185TIP3    H2 6499   3.532   7.481   5.716
 2186TIP3   OH2 6500   7.856   5.053   5.035
 2186TIP3    H1 6501   7.855   4.992   5.109
 2186TIP3    H2 6502   7.900   5.131   5.070
 2187TIP3   OH2 6503   7.778   2.247   5.425
 2187TIP3    H1 6504   7.757   2.168   5.475
 2187TIP3    H2 6505   7.720   2.315   5.461
 2188TIP3   OH2 6506   7.157   5.586   4.868
 2188TIP3    H1 6507   7.142   5.672   4.907
 2188TIP3    H2 6508   7.082   5.573   4.809
 2189TIP3   OH2 6509   1.049   3.642   3.677
 2189TIP3    H1 6510   1.120   3.578   3.681
 2189TIP3    H2 6511   0.984   3.603   3.620
 2190TIP3   OH2 6512   2.156   2.965   2.189
 2190TIP3    H1 6513   2.143   2.911   2.111
 2190TIP3    H2 6514   2.234   2.930   2.230
 2191TIP3   OH2 6515   5.577   6.030   0.680
 2191TIP3    H1 6516   5.548   5.963   0.742
 2191TIP3    H2 6517   5.499   6.050   0.629
 2192TIP3   OH2 6518   7.132   0.269   5.731
 2192TIP3    H1 6519   7.164   0.184   5.702
 2192TIP3    H2 6520   7.119   0.259   5.825
 2193TIP3   OH2 6521   3.251   3.492   6.455
 2193TIP3    H1 6522   3.278   3.559   6.518
 2193TIP3    H2 6523   3.208   3.425   6.509
 2194TIP3   OH2 6524   2.151   5.663   3.698
 2194TIP3    H1 6525   2.222   5.673   3.636
 2194TIP3    H2 6526   2.101   5.744   3.691
 2195TIP3   OH2 6527   4.248   1.797   3.491
 2195TIP3    H1 6528   4.162   1.760   3.471
 2195TIP3    H2 6529   4.242   1.820   3.584
 2196TIP3   OH2 6530   3.858   1.389   1.543
 2196TIP3    H1 6531   3.794   1.456   1.518
 2196TIP3    H2 6532   3.809   1.329   1.599
 2197TIP3   OH2 6533   3.805   1.123   5.820
 2197TIP3    H1 6534   3.742   1.057   5.790
 2197TIP3    H2 6535   3.877   1.119   5.757
 2198TIP3   OH2 6536   5.787   5.021   0.130
 2198TIP3    H1 6537   5.744   5.092   0.178
 2198TIP3    H2 6538   5.800   4.952   0.195
 2199TIP3   OH2 6539   5.678   1.524   6.587
 2199TIP3    H1 6540   5.698   1.585   6.516
 2199TIP3    H2 6541   5.669   1.439   6.543
 2200TIP3   OH2 6542   3.734   4.268   6.596
 2200TIP3    H1 6543   3.694   4.338   6.648
 2200TIP3    H2 6544   3.827   4.292   6.591
 2201TIP3   OH2 6545   5.391   6.555   1.303
 2201TIP3    H1 6546   5.467   6.497   1.305
 2201TIP3    H2 6547   5.355   6.551   1.392
 2202TIP3   OH2 6548   7.458   4.183   1.243
 2202TIP3    H1 6549   7.377   4.144   1.211
 2202TIP3    H2 6550   7.432   4.270   1.275
 2203TIP3   OH2 6551   5.661   5.900   5.944
 2203TIP3    H1 6552   5.616   5.916   5.861
 2203TIP3    H2 6553   5.705   5.816   5.932
 2204TIP3   OH2 6554   4.007   5.420   1.390
 2204TIP3    H1 6555   3.994   5.476   1.466
 2204TIP3    H2 6556   3.946   5.456   1.324
 2205TIP3   OH2 6557   4.882   6.010   6.307
 2205TIP3    H1 6558   4.973   6.023   6.330
 2205TIP3    H2 6559   4.844   6.098   6.304
 2206TIP3   OH2 6560   7.568   5.472   0.768
 2206TIP3    H1 6561   7.536   5.406   0.707
 2206TIP3    H2 6562   7.641   5.515   0.723
 2207TIP3   OH2 6563   1.196   4.368   6.077
 2207TIP3    H1 6564   1.168   4.432   6.012
 2207TIP3    H2 6565   1.255   4.416   6.134
 2208TIP3   OH2 6566   6.449   5.174   2.916
 2208TIP3    H1 6567   6.538   5.199   2.937
 2208TIP3    H2 6568   6.452   5.148   2.824
 2209TIP3   OH2 6569   3.682   5.469   3.442
 2209TIP3    H1 6570   3.681   5.400   3.508
 2209TIP3    H2 6571   3.771   5.467   3.406
 2210TIP3   OH2 6572   3.411   6.119   2.105
 2210TIP3    H1 6573   3.343   6.061   2.071
 2210TIP3    H2 6574   3.472   6.061   2.150
 2211TIP3   OH2 6575   6.927   6.199   6.544
 2211TIP3    H1 6576   6.836   6.227   6.536
 2211TIP3    H2 6577   6.960   6.200   6.454
 2212TIP3   OH2 6578   6.603   4.615   0.936
 2212TIP3    H1 6579   6.538   4.575   0.877
 2212TIP3    H2 6580   6.610   4.705   0.905
 2213TIP3   OH2 6581   2.377   0.275   2.233
 2213TIP3    H1 6582   2.324   0.265   2.154
 2213TIP3    H2 6583   2.463   0.301   2.201
 2214TIP3   OH2 6584   4.280   0.763   1.811
 2214TIP3    H1 6585   4.224   0.735   1.738
 2214TIP3    H2 6586   4.233   0.837   1.850
 2215TIP3   OH2 6587   6.021   0.785   1.183
 2215TIP3    H1 6588   5.964   0.826   1.249
 2215TIP3    H2 6589   6.105   0.775   1.227
 2216TIP3   OH2 6590   0.279   3.875   4.607
 2216TIP3    H1 6591   0.247   3.892   4.696
 2216TIP3    H2 6592   0.357   3.820   4.619
 2217TIP3   OH2 6593   0.314   3.555   5.948
 2217TIP3    H1 6594   0.398   3.520   5.917
 2217TIP3    H2 6595   0.332   3.585   6.037
 2218TIP3   OH2 6596   5.860   1.327   3.866
 2218TIP3    H1 6597   5.885   1.404   3.815
 2218TIP3    H2 6598   5.803   1.277   3.808
 2219TIP3   OH2 6599   4.631   7.376   2.630
 2219TIP3    H1 6600   4.541   7.388   2.660
 2219TIP3    H2 6601   4.626   7.303   2.568
 2220TIP3   OH2 6602   3.719   1.192   0.552
 2220TIP3    H1 6603   3.700   1.167   0.642
 2220TIP3    H2 6604   3.811   1.170   0.539
 2221TIP3   OH2 6605   1.511   2.858   3.979
 2221TIP3    H1 6606   1.466   2.942   3.987
 2221TIP3    H2 6607   1.540   2.854   3.888
 2222TIP3   OH2 6608   6.914   2.501   2.312
 2222TIP3    H1 6609   7.005   2.512   2.341
 2222TIP3    H2 6610   6.907   2.409   2.289
 2223TIP3   OH2 6611   7.414   5.088   1.249
 2223TIP3    H1 6612   7.409   5.090   1.153
 2223TIP3    H2 6613   7.379   5.003   1.273
 2224TIP3   OH2 6614   5.450   2.517   6.205
 2224TIP3    H1 6615   5.375   2.522   6.264
 2224TIP3    H2 6616   5.509   2.586   6.234
 2225TIP3   OH2 6617   2.205   4.855   6.549
 2225TIP3    H1 6618   2.205   4.951   6.549
 2225TIP3    H2 6619   2.292   4.831   6.580
 2226TIP3   OH2 6620   5.387   1.602   6.553
 2226TIP3    H1 6621   5.471   1.606   6.598
 2226TIP3    H2 6622   5.380   1.511   6.523
 2227TIP3   OH2 6623   5.944   1.778   3.531
 2227TIP3    H1 6624   5.992   1.860   3.519
 2227TIP3    H2 6625   5.869   1.786   3.473
 2228TIP3   OH2 6626   5.334   4.229   4.009
 2228TIP3    H1 6627   5.381   4.145   4.011
 2228TIP3    H2 6628   5.264   4.216   3.946
 2229TIP3   OH2 6629   5.572   1.117   5.492
 2229TIP3    H1 6630   5.665   1.142   5.487
 2229TIP3    H2 6631   5.572   1.022   5.478
 2230TIP3   OH2 6632   5.671   0.838   2.493
 2230TIP3    H1 6633   5.679   0.926   2.532
 2230TIP3    H2 6634   5.710   0.847   2.406
 2231TIP3   OH2 6635   7.193   5.151   4.503
 2231TIP3    H1 6636   7.270   5.099   4.479
 2231TIP3    H2 6637   7.122   5.087   4.510
 2232TIP3   OH2 6638   4.164   3.001   6.082
 2232TIP3    H1 6639   4.089   3.054   6.055
 2232TIP3    H2 6640   4.130   2.943   6.150
 2233TIP3   OH2 6641   3.938   4.922   1.793
 2233TIP3    H1 6642   3.969   5.009   1.819
 2233TIP3    H2 6643   3.843   4.932   1.787
 2234TIP3   OH2 6644   5.457   4.164   3.647
 2234TIP3    H1 6645   5.452   4.245   3.697
 2234TIP3    H2 6646   5.546   4.162   3.612
 2235TIP3   OH2 6647   0.211   0.995   0.313
 2235TIP3    H1 6648   0.153   1.034   0.247
 2235TIP3    H2 6649   0.224   1.065   0.377
 2236TIP3   OH2 6650   7.506   3.382   0.565
 2236TIP3    H1 6651   7.537   3.402   0.653
 2236TIP3    H2 6652   7.419   3.344   0.578
 2237TIP3   OH2 6653   8.209   5.941   2.736
 2237TIP3    H1 6654   8.145   6.011   2.722
 2237TIP3    H2 6655   8.158   5.872   2.779
 2238TIP3   OH2 6656   2.381   0.316   2.517
 2238TIP3    H1 6657   2.364   0.336   2.425
 2238TIP3    H2 6658   2.397   0.401   2.557
 2239TIP3   OH2 6659   0.242   7.083   2.428
 2239TIP3    H1 6660   0.326   7.039   2.428
 2239TIP3    H2 6661   0.182   7.022   2.385
 2240TIP3   OH2 6662   5.661   2.668   4.535
 2240TIP3    H1 6663   5.712   2.744   4.564
 2240TIP3    H2 6664   5.655   2.679   4.440
 2241TIP3   OH2 6665   1.780   4.118   0.390
 2241TIP3    H1 6666   1.738   4.111   0.476
 2241TIP3    H2 6667   1.710   4.147   0.331
 2242TIP3   OH2 6668   1.169   6.054   2.500
 2242TIP3    H1 6669   1.183   6.119   2.569
 2242TIP3    H2 6670   1.243   5.994   2.507
 2243TIP3   OH2 6671   5.832   1.408   1.951
 2243TIP3    H1 6672   5.852   1.457   2.031
 2243TIP3    H2 6673   5.917   1.393   1.910
 2244TIP3   OH2 6674   2.766   4.036   2.285
 2244TIP3    H1 6675   2.714   4.093   2.341
 2244TIP3    H2 6676   2.855   4.073   2.288
 2245TIP3   OH2 6677   2.132   7.533   6.134
 2245TIP3    H1 6678   2.203   7.598   6.131
 2245TIP3    H2 6679   2.147   7.486   6.216
 2246TIP3   OH2 6680   1.562   6.252   2.525
 2246TIP3    H1 6681   1.517   6.335   2.540
 2246TIP3    H2 6682   1.611   6.237   2.605
 2247TIP3   OH2 6683   5.190   5.361   0.257
 2247TIP3    H1 6684   5.233   5.278   0.240
 2247TIP3    H2 6685   5.223   5.388   0.343
 2248TIP3   OH2 6686   7.717   4.778   5.791
 2248TIP3    H1 6687   7.687   4.869   5.795
 2248TIP3    H2 6688   7.729   4.753   5.883
 2249TIP3   OH2 6689   4.699   0.164   4.136
 2249TIP3    H1 6690   4.741   0.095   4.085
 2249TIP3    H2 6691   4.762   0.236   4.136
 2250TIP3   OH2 6692   0.119   4.819   5.227
 2250TIP3    H1 6693   0.195   4.873   5.250
 2250TIP3    H2 6694   0.050   4.883   5.207
 2251TIP3   OH2 6695   3.842   5.219   5.418
 2251TIP3    H1 6696   3.858   5.255   5.331
 2251TIP3    H2 6697   3.760   5.171   5.411
 2252TIP3   OH2 6698   3.099   3.859   5.410
 2252TIP3    H1 6699   3.022   3.903   5.446
 2252TIP3    H2 6700   3.077   3.766   5.411
 2253TIP3   OH2 6701   3.924   0.891   6.036
 2253TIP3    H1 6702   3.907   0.936   5.953
 2253TIP3    H2 6703   3.916   0.959   6.103
 2254TIP3   OH2 6704   2.135   5.225   6.238
 2254TIP3    H1 6705   2.212   5.280   6.225
 2254TIP3    H2 6706   2.084   5.234   6.157
 2255TIP3   OH2 6707   4.804   2.979   5.302
 2255TIP3    H1 6708   4.857   2.913   5.347
 2255TIP3    H2 6709   4.718   2.939   5.292
 2256TIP3   OH2 6710   3.350   3.524   5.923
 2256TIP3    H1 6711   3.433   3.522   5.875
 2256TIP3    H2 6712   3.307   3.605   5.895
 2257TIP3   OH2 6713   5.425   0.700   2.767
 2257TIP3    H1 6714   5.490   0.758   2.807
 2257TIP3    H2 6715   5.398   0.744   2.687
 2258TIP3   OH2 6716   7.924   0.315   1.010
 2258TIP3    H1 6717   7.900   0.231   1.047
 2258TIP3    H2 6718   7.871   0.379   1.057
 2259TIP3   OH2 6719   0.655   3.052   5.566
 2259TIP3    H1 6720   0.591   3.099   5.513
 2259TIP3    H2 6721   0.716   3.016   5.503
 2260TIP3   OH2 6722   0.244   4.678   6.456
 2260TIP3    H1 6723   0.324   4.676   6.508
 2260TIP3    H2 6724   0.252   4.604   6.397
 2261TIP3   OH2 6725   7.301   7.588   0.159
 2261TIP3    H1 6726   7.344   7.511   0.196
 2261TIP3    H2 6727   7.265   7.634   0.234
 2262TIP3   OH2 6728   0.730   3.379   1.142
 2262TIP3    H1 6729   0.672   3.325   1.088
 2262TIP3    H2 6730   0.769   3.441   1.080
 2263TIP3   OH2 6731   5.981   0.984   6.111
 2263TIP3    H1 6732   6.012   0.971   6.021
 2263TIP3    H2 6733   5.886   0.977   6.105
 2264TIP3   OH2 6734   6.769   0.662   3.865
 2264TIP3    H1 6735   6.721   0.739   3.895
 2264TIP3    H2 6736   6.846   0.658   3.921
 2265TIP3   OH2 6737   1.681   2.386   6.610
 2265TIP3    H1 6738   1.677   2.467   6.660
 2265TIP3    H2 6739   1.610   2.392   6.547
 2266TIP3   OH2 6740   7.327   7.846   2.340
 2266TIP3    H1 6741   7.273   7.781   2.295
 2266TIP3    H2 6742   7.273   7.925   2.340
 2267TIP3   OH2 6743   2.008   1.987   5.554
 2267TIP3    H1 6744   1.981   2.064   5.503
 2267TIP3    H2 6745   2.057   2.023   5.628
 2268TIP3   OH2 6746   3.462   4.401   5.601
 2268TIP3    H1 6747   3.475   4.382   5.508
 2268TIP3    H2 6748   3.543   4.443   5.629
 2269TIP3   OH2 6749   5.869   2.251   1.727
 2269TIP3    H1 6750   5.843   2.312   1.658
 2269TIP3    H2 6751   5.891   2.170   1.681
 2270TIP3   OH2 6752   5.711   2.961   4.350
 2270TIP3    H1 6753   5.696   2.875   4.311
 2270TIP3    H2 6754   5.630   3.008   4.335
 2271TIP3   OH2 6755   7.811   2.126   3.917
 2271TIP3    H1 6756   7.865   2.070   3.972
 2271TIP3    H2 6757   7.775   2.067   3.851
 2272TIP3   OH2 6758   0.100   3.664   0.439
 2272TIP3    H1 6759   0.084   3.575   0.472
 2272TIP3    H2 6760   0.189   3.684   0.466
 2273TIP3   OH2 6761   6.634   0.845   2.197
 2273TIP3    H1 6762   6.566   0.878   2.256
 2273TIP3    H2 6763   6.673   0.772   2.245
 2274TIP3   OH2 6764   1.513   7.486   3.997
 2274TIP3    H1 6765   1.556   7.569   4.015
 2274TIP3    H2 6766   1.579   7.420   4.019
 2275TIP3   OH2 6767   1.744   4.952   3.461
 2275TIP3    H1 6768   1.695   5.019   3.414
 2275TIP3    H2 6769   1.745   4.876   3.402
 2276TIP3   OH2 6770   2.486   0.180   1.859
 2276TIP3    H1 6771   2.488   0.097   1.811
 2276TIP3    H2 6772   2.576   0.192   1.889
 2277TIP3   OH2 6773   2.151   3.656   0.840
 2277TIP3    H1 6774   2.135   3.567   0.870
 2277TIP3    H2 6775   2.080   3.673   0.778
 2278TIP3   OH2 6776   5.695   5.870   1.962
 2278TIP3    H1 6777   5.683   5.804   2.030
 2278TIP3    H2 6778   5.785   5.900   1.972
 2279TIP3   OH2 6779   5.319   3.446   2.099
 2279TIP3    H1 6780   5.313   3.370   2.040
 2279TIP3    H2 6781   5.297   3.521   2.044
 2280TIP3   OH2 6782   2.806   0.077   0.829
 2280TIP3    H1 6783   2.823   0.109   0.918
 2280TIP3    H2 6784   2.859  -0.003   0.821
 2281TIP3   OH2 6785   0.431   0.209   3.496
 2281TIP3    H1 6786   0.484   0.286   3.518
 2281TIP3    H2 6787   0.410   0.169   3.580
 2282TIP3   OH2 6788   7.136   3.712   3.700
 2282TIP3    H1 6789   7.148   3.788   3.644
 2282TIP3    H2 6790   7.148   3.637   3.642
 2283TIP3   OH2 6791   6.102   7.263   6.695
 2283TIP3    H1 6792   6.049   7.316   6.755
 2283TIP3    H2 6793   6.126   7.323   6.624
 2284TIP3   OH2 6794   4.032   1.180   6.035
 2284TIP3    H1 6795   4.006   1.263   5.996
 2284TIP3    H2 6796   4.100   1.147   5.976
 2285TIP3   OH2 6797   4.948   2.921   6.558
 2285TIP3    H1 6798   4.901   2.855   6.609
 2285TIP3    H2 6799   4.913   3.004   6.591
 2286TIP3   OH2 6800   8.222   5.039   3.351
 2286TIP3    H1 6801   8.157   5.019   3.284
 2286TIP3    H2 6802   8.172   5.083   3.420
 2287TIP3   OH2 6803   6.939   0.403   0.388
 2287TIP3    H1 6804   7.034   0.402   0.383
 2287TIP3    H2 6805   6.919   0.359   0.471
 2288TIP3   OH2 6806   1.105   2.745   6.220
 2288TIP3    H1 6807   1.034   2.685   6.196
 2288TIP3    H2 6808   1.181   2.713   6.173
 2289TIP3   OH2 6809   4.876   3.334   6.408
 2289TIP3    H1 6810   4.831   3.396   6.465
 2289TIP3    H2 6811   4.888   3.382   6.326
 2290TIP3   OH2 6812   1.795   2.595   5.977
 2290TIP3    H1 6813   1.824   2.512   6.015
 2290TIP3    H2 6814   1.872   2.632   5.936
 2291TIP3   OH2 6815   6.063   3.241   0.681
 2291TIP3    H1 6816   6.096   3.318   0.727
 2291TIP3    H2 6817   6.137   3.211   0.628
 2292TIP3   OH2 6818   3.144   4.942   2.712
 2292TIP3    H1 6819   3.091   5.016   2.740
 2292TIP3    H2 6820   3.108   4.918   2.626
 2293TIP3   OH2 6821   8.257   6.354   2.712
 2293TIP3    H1 6822   8.177   6.403   2.697
 2293TIP3    H2 6823   8.240   6.267   2.675
 2294TIP3   OH2 6824   1.756   1.533   2.739
 2294TIP3    H1 6825   1.757   1.626   2.761
 2294TIP3    H2 6826   1.745   1.488   2.823
 2295TIP3   OH2 6827   7.989   3.901   3.945
 2295TIP3    H1 6828   7.990   3.997   3.947
 2295TIP3    H2 6829   8.046   3.879   3.871
 2296TIP3   OH2 6830   3.521   0.262   5.555
 2296TIP3    H1 6831   3.600   0.315   5.565
 2296TIP3    H2 6832   3.449   0.324   5.572
 2297TIP3   OH2 6833   6.716   7.082   5.003
 2297TIP3    H1 6834   6.801   7.065   4.964
 2297TIP3    H2 6835   6.695   7.001   5.050
 2298TIP3   OH2 6836   8.031   2.335   0.793
 2298TIP3    H1 6837   8.094   2.320   0.722
 2298TIP3    H2 6838   8.031   2.252   0.842
 2299TIP3   OH2 6839   4.028   3.791   2.821
 2299TIP3    H1 6840   4.004   3.813   2.731
 2299TIP3    H2 6841   4.104   3.734   2.812
 2300TIP3   OH2 6842   5.446   1.928   3.287
 2300TIP3    H1 6843   5.455   2.017   3.323
 2300TIP3    H2 6844   5.381   1.886   3.344
 2301TIP3   OH2 6845   5.867   0.182   5.982
 2301TIP3    H1 6846   5.868   0.274   6.009
 2301TIP3    H2 6847   5.925   0.179   5.906
 2302TIP3   OH2 6848   3.278   3.534   0.720
 2302TIP3    H1 6849   3.226   3.546   0.640
 2302TIP3    H2 6850   3.228   3.472   0.772
 2303TIP3   OH2 6851   3.971   3.188   5.965
 2303TIP3    H1 6852   3.876   3.194   5.952
 2303TIP3    H2 6853   4.007   3.172   5.878
 2304TIP3   OH2 6854   2.723   1.391   1.958
 2304TIP3    H1 6855   2.650   1.421   1.904
 2304TIP3    H2 6856   2.791   1.457   1.945
 2305TIP3   OH2 6857   5.691   2.957   1.249
 2305TIP3    H1 6858   5.676   2.924   1.338
 2305TIP3    H2 6859   5.744   2.889   1.207
 2306TIP3   OH2 6860   7.545   2.612   0.660
 2306TIP3    H1 6861   7.551   2.517   0.650
 2306TIP3    H2 6862   7.531   2.625   0.754
 2307TIP3   OH2 6863   6.121   6.566   3.926
 2307TIP3    H1 6864   6.097   6.576   4.018
 2307TIP3    H2 6865   6.051   6.513   3.888
 2308TIP3   OH2 6866   7.742   6.047   5.548
 2308TIP3    H1 6867   7.779   5.989   5.614
 2308TIP3    H2 6868   7.650   6.057   5.573
 2309TIP3   OH2 6869   1.240   3.268   3.400
 2309TIP3    H1 6870   1.196   3.328   3.340
 2309TIP3    H2 6871   1.329   3.260   3.364
 2310TIP3   OH2 6872   0.665   7.289   2.114
 2310TIP3    H1 6873   0.656   7.302   2.209
 2310TIP3    H2 6874   0.575   7.287   2.082
 2311TIP3   OH2 6875   2.576   0.873   0.013
 2311TIP3    H1 6876   2.523   0.808  -0.033
 2311TIP3    H2 6877   2.616   0.824   0.085
 2312TIP3   OH2 6878   5.085   0.084   6.389
 2312TIP3    H1 6879   5.006   0.125   6.426
 2312TIP3    H2 6880   5.150   0.154   6.388
 2313TIP3   OH2 6881   0.961   0.466   6.356
 2313TIP3    H1 6882   0.881   0.509   6.389
 2313TIP3    H2 6883   1.010   0.444   6.435
 2314TIP3   OH2 6884   3.424   7.799   4.642
 2314TIP3    H1 6885   3.354   7.745   4.679
 2314TIP3    H2 6886   3.384   7.841   4.566
 2315TIP3   OH2 6887   7.364   1.611   4.617
 2315TIP3    H1 6888   7.411   1.571   4.690
 2315TIP3    H2 6889   7.321   1.687   4.656
 2316TIP3   OH2 6890   4.087   3.985   1.888
 2316TIP3    H1 6891   4.120   3.910   1.839
 2316TIP3    H2 6892   4.051   3.948   1.968
 2317TIP3   OH2 6893   7.595   2.510   4.226
 2317TIP3    H1 6894   7.581   2.565   4.303
 2317TIP3    H2 6895   7.635   2.430   4.261
 2318TIP3   OH2 6896   4.021   0.645   2.942
 2318TIP3    H1 6897   3.930   0.649   2.972
 2318TIP3    H2 6898   4.023   0.574   2.879
 2319TIP3   OH2 6899   5.273   4.469   4.112
 2319TIP3    H1 6900   5.188   4.451   4.071
 2319TIP3    H2 6901   5.333   4.409   4.069
 2320TIP3   OH2 6902   2.569   7.867   0.737
 2320TIP3    H1 6903   2.641   7.824   0.691
 2320TIP3    H2 6904   2.610   7.910   0.812
 2321TIP3   OH2 6905   5.296   3.291   6.109
 2321TIP3    H1 6906   5.285   3.202   6.076
 2321TIP3    H2 6907   5.224   3.303   6.171
 2322TIP3   OH2 6908   1.196   3.411   4.327
 2322TIP3    H1 6909   1.106   3.412   4.295
 2322TIP3    H2 6910   1.232   3.496   4.301
 2323TIP3   OH2 6911   3.915   4.722   4.135
 2323TIP3    H1 6912   3.843   4.658   4.133
 2323TIP3    H2 6913   3.872   4.806   4.148
 2324TIP3   OH2 6914   4.898   0.288   6.694
 2324TIP3    H1 6915   4.816   0.288   6.744
 2324TIP3    H2 6916   4.952   0.355   6.736
 2325TIP3   OH2 6917   3.989   4.761   0.168
 2325TIP3    H1 6918   3.970   4.738   0.259
 2325TIP3    H2 6919   4.080   4.734   0.155
 2326TIP3   OH2 6920   4.896   0.393   4.812
 2326TIP3    H1 6921   4.825   0.355   4.761
 2326TIP3    H2 6922   4.974   0.347   4.781
 2327TIP3   OH2 6923   7.473   3.638   2.596
 2327TIP3    H1 6924   7.544   3.585   2.632
 2327TIP3    H2 6925   7.398   3.620   2.654
 2328TIP3   OH2 6926   0.603   6.329   6.726
 2328TIP3    H1 6927   0.525   6.321   6.671
 2328TIP3    H2 6928   0.568   6.334   6.815
 2329TIP3   OH2 6929   0.886   1.624   0.125
 2329TIP3    H1 6930   0.918   1.611   0.036
 2329TIP3    H2 6931   0.963   1.607   0.180
 2330TIP3   OH2 6932   7.762   4.108   5.312
 2330TIP3    H1 6933   7.710   4.113   5.232
 2330TIP3    H2 6934   7.703   4.070   5.377
 2331TIP3   OH2 6935   3.911   4.729   6.752
 2331TIP3    H1 6936   3.868   4.814   6.745
 2331TIP3    H2 6937   3.918   4.697   6.662
 2332TIP3   OH2 6938   3.683   3.300   5.670
 2332TIP3    H1 6939   3.725   3.355   5.603
 2332TIP3    H2 6940   3.724   3.326   5.752
 2333TIP3   OH2 6941   3.302   4.318   2.275
 2333TIP3    H1 6942   3.281   4.292   2.365
 2333TIP3    H2 6943   3.344   4.240   2.237
 2334TIP3   OH2 6944   1.119   5.701   0.381
 2334TIP3    H1 6945   1.061   5.706   0.305
 2334TIP3    H2 6946   1.065   5.729   0.454
 2335TIP3   OH2 6947   2.578   4.456   1.152
 2335TIP3    H1 6948   2.611   4.406   1.078
 2335TIP3    H2 6949   2.587   4.548   1.125
 2336TIP3   OH2 6950   0.000   3.321   1.957
 2336TIP3    H1 6951   0.051   3.395   1.924
 2336TIP3    H2 6952   0.042   3.296   2.039
 2337TIP3   OH2 6953   7.695   7.211   4.296
 2337TIP3    H1 6954   7.762   7.234   4.361
 2337TIP3    H2 6955   7.641   7.290   4.289
 2338TIP3   OH2 6956   3.273   7.021   5.699
 2338TIP3    H1 6957   3.358   6.995   5.664
 2338TIP3    H2 6958   3.211   6.997   5.631
 2339TIP3   OH2 6959   5.699   5.623   3.071
 2339TIP3    H1 6960   5.606   5.640   3.059
 2339TIP3    H2 6961   5.735   5.623   2.982
 2340TIP3   OH2 6962   2.915   5.693   0.157
 2340TIP3    H1 6963   2.967   5.743   0.221
 2340TIP3    H2 6964   2.979   5.635   0.115
 2341TIP3   OH2 6965   6.643   7.588   5.136
 2341TIP3    H1 6966   6.598   7.535   5.202
 2341TIP3    H2 6967   6.705   7.527   5.097
 2342TIP3   OH2 6968   2.821   0.572   4.150
 2342TIP3    H1 6969   2.805   0.502   4.087
 2342TIP3    H2 6970   2.767   0.550   4.226
 2343TIP3   OH2 6971   0.099   1.698   5.212
 2343TIP3    H1 6972   0.120   1.605   5.209
 2343TIP3    H2 6973   0.179   1.740   5.242
 2344TIP3   OH2 6974   0.158   4.906   1.243
 2344TIP3    H1 6975   0.136   4.999   1.245
 2344TIP3    H2 6976   0.195   4.892   1.156
 2345TIP3   OH2 6977   0.458   7.650   1.683
 2345TIP3    H1 6978   0.484   7.741   1.667
 2345TIP3    H2 6979   0.538   7.599   1.669
 2346TIP3   OH2 6980   5.956   3.080   2.789
 2346TIP3    H1 6981   5.945   3.172   2.767
 2346TIP3    H2 6982   5.876   3.056   2.837
 2347TIP3   OH2 6983   3.546   0.517   0.713
 2347TIP3    H1 6984   3.472   0.535   0.772
 2347TIP3    H2 6985   3.505   0.497   0.629
 2348TIP3   OH2 6986   4.799   5.706   2.168
 2348TIP3    H1 6987   4.886   5.747   2.162
 2348TIP3    H2 6988   4.795   5.646   2.093
 2349TIP3   OH2 6989   7.480   5.075   2.393
 2349TIP3    H1 6990   7.448   5.122   2.470
 2349TIP3    H2 6991   7.431   4.993   2.392
 2350TIP3   OH2 6992   5.844   1.474   5.756
 2350TIP3    H1 6993   5.853   1.380   5.740
 2350TIP3    H2 6994   5.753   1.485   5.782
 2351TIP3   OH2 6995   0.665   5.626   4.018
 2351TIP3    H1 6996   0.743   5.588   3.977
 2351TIP3    H2 6997   0.661   5.716   3.984
 2352TIP3   OH2 6998   0.282   4.233   1.403
 2352TIP3    H1 6999   0.197   4.261   1.437
 2352TIP3    H2 7000   0.282   4.138   1.416
 2353TIP3   OH2 7001   5.144   2.481   3.488
 2353TIP3    H1 7002   5.165   2.395   3.452
 2353TIP3    H2 7003   5.062   2.505   3.446
 2354TIP3   OH2 7004   2.419   1.090   4.002
 2354TIP3    H1 7005   2.457   1.059   4.084
 2354TIP3    H2 7006   2.345   1.145   4.029
 2355TIP3   OH2 7007   3.190   5.341   1.746
 2355TIP3    H1 7008   3.194   5.306   1.656
 2355TIP3    H2 7009   3.178   5.435   1.734
 2356TIP3   OH2 7010   4.440   5.045   1.190
 2356TIP3    H1 7011   4.497   5.122   1.193
 2356TIP3    H2 7012   4.383   5.060   1.115
 2357TIP3   OH2 7013   0.448   4.956   4.456
 2357TIP3    H1 7014   0.524   4.910   4.494
 2357TIP3    H2 7015   0.372   4.907   4.488
 2358TIP3   OH2 7016   1.208   4.739   4.257
 2358TIP3    H1 7017   1.244   4.826   4.242
 2358TIP3    H2 7018   1.278   4.679   4.231
 2359TIP3   OH2 7019   6.073   6.224   3.906
 2359TIP3    H1 7020   5.987   6.265   3.917
 2359TIP3    H2 7021   6.055   6.130   3.906
 2360TIP3   OH2 7022   5.262   0.115   5.771
 2360TIP3    H1 7023   5.303   0.029   5.777
 2360TIP3    H2 7024   5.177   0.099   5.731
 2361TIP3   OH2 7025   1.507   3.308   0.923
 2361TIP3    H1 7026   1.559   3.234   0.891
 2361TIP3    H2 7027   1.487   3.285   1.014
 2362TIP3   OH2 7028   7.806   3.361   0.758
 2362TIP3    H1 7029   7.787   3.286   0.814
 2362TIP3    H2 7030   7.822   3.433   0.819
 2363TIP3   OH2 7031   4.226   4.202   1.766
 2363TIP3    H1 7032   4.183   4.175   1.685
 2363TIP3    H2 7033   4.217   4.127   1.824
 2364TIP3   OH2 7034   1.845   0.068   2.044
 2364TIP3    H1 7035   1.904   0.111   2.107
 2364TIP3    H2 7036   1.808   0.140   1.993
 2365TIP3   OH2 7037   5.796   0.601   3.065
 2365TIP3    H1 7038   5.753   0.539   3.007
 2365TIP3    H2 7039   5.875   0.556   3.095
 2366TIP3   OH2 7040   0.948   4.283   6.114
 2366TIP3    H1 7041   0.913   4.286   6.204
 2366TIP3    H2 7042   1.039   4.255   6.125
 2367TIP3   OH2 7043   3.875   5.125   5.687
 2367TIP3    H1 7044   3.906   5.132   5.596
 2367TIP3    H2 7045   3.841   5.212   5.708
 2368TIP3   OH2 7046   1.311   0.515   2.050
 2368TIP3    H1 7047   1.331   0.436   1.999
 2368TIP3    H2 7048   1.283   0.579   1.985
 2369TIP3   OH2 7049   1.401   5.136   4.585
 2369TIP3    H1 7050   1.484   5.153   4.629
 2369TIP3    H2 7051   1.335   5.154   4.651
 2370TIP3   OH2 7052   2.890   2.908   0.047
 2370TIP3    H1 7053   2.967   2.882   0.098
 2370TIP3    H2 7054   2.867   2.995   0.080
 2371TIP3   OH2 7055   5.998   3.119   4.944
 2371TIP3    H1 7056   6.025   3.078   4.862
 2371TIP3    H2 7057   6.077   3.119   4.998
 2372TIP3   OH2 7058   2.868   6.619   5.898
 2372TIP3    H1 7059   2.886   6.713   5.895
 2372TIP3    H2 7060   2.955   6.578   5.891
 2373TIP3   OH2 7061   7.102   3.039   4.598
 2373TIP3    H1 7062   7.025   3.094   4.590
 2373TIP3    H2 7063   7.115   3.030   4.693
 2374TIP3   OH2 7064   0.652   0.859   5.818
 2374TIP3    H1 7065   0.598   0.917   5.765
 2374TIP3    H2 7066   0.741   0.896   5.812
 2375TIP3   OH2 7067   0.400   7.288   6.142
 2375TIP3    H1 7068   0.355   7.363   6.102
 2375TIP3    H2 7069   0.437   7.240   6.069
 2376TIP3   OH2 7070   0.261   6.521   1.631
 2376TIP3    H1 7071   0.319   6.449   1.604
 2376TIP3    H2 7072   0.318   6.598   1.635
 2377TIP3   OH2 7073   2.116   6.084   6.183
 2377TIP3    H1 7074   2.173   6.122   6.116
 2377TIP3    H2 7075   2.174   6.067   6.257
 2378TIP3   OH2 7076   6.997   3.726   5.427
 2378TIP3    H1 7077   7.060   3.672   5.379
 2378TIP3    H2 7078   7.044   3.754   5.506
 2379TIP3   OH2 7079   2.444   1.862   0.059
 2379TIP3    H1 7080   2.449   1.841   0.152
 2379TIP3    H2 7081   2.449   1.776   0.015
 2380TIP3   OH2 7082   7.895   0.437   5.902
 2380TIP3    H1 7083   7.959   0.436   5.831
 2380TIP3    H2 7084   7.826   0.496   5.871
 2381TIP3   OH2 7085   6.259   7.024   1.923
 2381TIP3    H1 7086   6.308   7.044   2.003
 2381TIP3    H2 7087   6.252   7.108   1.878
 2382TIP3   OH2 7088   4.665   5.286   4.265
 2382TIP3    H1 7089   4.758   5.297   4.245
 2382TIP3    H2 7090   4.659   5.201   4.308
 2383TIP3   OH2 7091   7.976   6.672   5.459
 2383TIP3    H1 7092   8.070   6.687   5.461
 2383TIP3    H2 7093   7.965   6.595   5.404
 2384TIP3   OH2 7094   2.519   7.493   6.705
 2384TIP3    H1 7095   2.497   7.563   6.644
 2384TIP3    H2 7096   2.576   7.535   6.770
 2385TIP3   OH2 7097   6.304   5.876   1.924
 2385TIP3    H1 7098   6.333   5.791   1.959
 2385TIP3    H2 7099   6.224   5.856   1.876
 2386TIP3   OH2 7100   4.616   5.565   5.761
 2386TIP3    H1 7101   4.585   5.482   5.796
 2386TIP3    H2 7102   4.585   5.567   5.670
 2387TIP3   OH2 7103   6.002   0.439   2.697
 2387TIP3    H1 7104   6.070   0.457   2.633
 2387TIP3    H2 7105   6.038   0.467   2.781
 2388TIP3   OH2 7106   1.896   1.332   3.811
 2388TIP3    H1 7107   1.972   1.331   3.869
 2388TIP3    H2 7108   1.831   1.385   3.859
 2389TIP3   OH2 7109   3.974   3.177   1.105
 2389TIP3    H1 7110   3.929   3.247   1.058
 2389TIP3    H2 7111   4.052   3.219   1.142
 2390TIP3   OH2 7112   6.475   2.142   1.986
 2390TIP3    H1 7113   6.566   2.111   1.978
 2390TIP3    H2 7114   6.459   2.190   1.905
 2391TIP3   OH2 7115   1.475   3.538   0.786
 2391TIP3    H1 7116   1.497   3.469   0.849
 2391TIP3    H2 7117   1.540   3.531   0.717
 2392TIP3   OH2 7118   2.723   5.949   4.678
 2392TIP3    H1 7119   2.663   6.018   4.704
 2392TIP3    H2 7120   2.808   5.977   4.711
 2393TIP3   OH2 7121   5.507   7.141   5.670
 2393TIP3    H1 7122   5.537   7.124   5.760
 2393TIP3    H2 7123   5.435   7.079   5.657
 2394TIP3   OH2 7124   5.970   1.078   5.286
 2394TIP3    H1 7125   5.910   1.062   5.213
 2394TIP3    H2 7126   5.928   1.147   5.337
 2395TIP3   OH2 7127   0.654   3.928   1.663
 2395TIP3    H1 7128   0.725   3.947   1.602
 2395TIP3    H2 7129   0.665   3.991   1.734
 2396TIP3   OH2 7130   0.108   3.698   3.752
 2396TIP3    H1 7131   0.158   3.750   3.688
 2396TIP3    H2 7132   0.175   3.648   3.798
 2397TIP3   OH2 7133   4.758   5.753   0.422
 2397TIP3    H1 7134   4.743   5.783   0.512
 2397TIP3    H2 7135   4.766   5.658   0.430
 2398TIP3   OH2 7136   7.027   2.185   6.059
 2398TIP3    H1 7137   7.004   2.227   6.142
 2398TIP3    H2 7138   7.099   2.126   6.082
 2399TIP3   OH2 7139   1.892   3.767   6.188
 2399TIP3    H1 7140   1.850   3.777   6.273
 2399TIP3    H2 7141   1.879   3.675   6.165
 2400TIP3   OH2 7142   7.453   1.359   5.159
 2400TIP3    H1 7143   7.466   1.393   5.248
 2400TIP3    H2 7144   7.428   1.436   5.108
 2401TIP3   OH2 7145   6.424   7.510   3.058
 2401TIP3    H1 7146   6.456   7.524   3.147
 2401TIP3    H2 7147   6.453   7.422   3.035
 2402TIP3   OH2 7148   7.232   0.623   2.557
 2402TIP3    H1 7149   7.314   0.621   2.508
 2402TIP3    H2 7150   7.236   0.546   2.614
 2403TIP3   OH2 7151   4.226   6.890   3.961
 2403TIP3    H1 7152   4.228   6.985   3.947
 2403TIP3    H2 7153   4.304   6.857   3.916
 2404TIP3   OH2 7154   4.243   5.267   1.578
 2404TIP3    H1 7155   4.284   5.329   1.519
 2404TIP3    H2 7156   4.241   5.185   1.530
 2405TIP3   OH2 7157   5.161   1.788   6.340
 2405TIP3    H1 7158   5.188   1.878   6.357
 2405TIP3    H2 7159   5.139   1.753   6.427
 2406TIP3   OH2 7160   7.513   0.591   1.340
 2406TIP3    H1 7161   7.462   0.623   1.414
 2406TIP3    H2 7162   7.453   0.593   1.266
 2407TIP3   OH2 7163   4.587   0.422   1.080
 2407TIP3    H1 7164   4.647   0.420   1.006
 2407TIP3    H2 7165   4.565   0.515   1.091
 2408TIP3   OH2 7166   0.370   1.693   4.658
 2408TIP3    H1 7167   0.295   1.723   4.709
 2408TIP3    H2 7168   0.352   1.601   4.642
 2409TIP3   OH2 7169   6.651   0.634   6.636
 2409TIP3    H1 7170   6.728   0.690   6.643
 2409TIP3    H2 7171   6.687   0.546   6.620
 2410TIP3   OH2 7172   5.496   7.227   4.364
 2410TIP3    H1 7173   5.553   7.156   4.390
 2410TIP3    H2 7174   5.455   7.257   4.445
 2411TIP3   OH2 7175   0.832   2.245   2.762
 2411TIP3    H1 7176   0.813   2.161   2.720
 2411TIP3    H2 7177   0.896   2.224   2.830
 2412TIP3   OH2 7178   1.911   3.233   5.497
 2412TIP3    H1 7179   1.871   3.203   5.580
 2412TIP3    H2 7180   2.004   3.244   5.518
 2413TIP3   OH2 7181   0.866   3.425   2.389
 2413TIP3    H1 7182   0.855   3.401   2.481
 2413TIP3    H2 7183   0.961   3.425   2.376
 2414TIP3   OH2 7184   4.085   3.383   5.661
 2414TIP3    H1 7185   4.128   3.324   5.723
 2414TIP3    H2 7186   4.116   3.470   5.685
 2415TIP3   OH2 7187   8.089   3.986   0.105
 2415TIP3    H1 7188   8.051   4.021   0.185
 2415TIP3    H2 7189   8.016   3.983   0.043
 2416TIP3   OH2 7190   0.744   1.671   5.445
 2416TIP3    H1 7191   0.790   1.592   5.417
 2416TIP3    H2 7192   0.776   1.739   5.387
 2417TIP3   OH2 7193   4.756   1.610   0.103
 2417TIP3    H1 7194   4.661   1.607   0.097
 2417TIP3    H2 7195   4.787   1.562   0.026
 2418TIP3   OH2 7196   5.373   4.405   0.892
 2418TIP3    H1 7197   5.386   4.424   0.985
 2418TIP3    H2 7198   5.284   4.435   0.874
 2419TIP3   OH2 7199   0.209   5.002   2.761
 2419TIP3    H1 7200   0.303   5.016   2.773
 2419TIP3    H2 7201   0.170   5.087   2.780
 2420TIP3   OH2 7202   3.733   7.550   2.114
 2420TIP3    H1 7203   3.677   7.536   2.038
 2420TIP3    H2 7204   3.820   7.524   2.085
 2421TIP3   OH2 7205   2.558   6.802   1.121
 2421TIP3    H1 7206   2.583   6.802   1.029
 2421TIP3    H2 7207   2.600   6.723   1.157
 2422TIP3   OH2 7208   4.384   6.234   1.427
 2422TIP3    H1 7209   4.346   6.271   1.507
 2422TIP3    H2 7210   4.311   6.187   1.386
 2423TIP3   OH2 7211   2.541   4.159   1.395
 2423TIP3    H1 7212   2.543   4.112   1.311
 2423TIP3    H2 7213   2.448   4.163   1.418
 2424TIP3   OH2 7214   0.406   6.595   1.118
 2424TIP3    H1 7215   0.362   6.569   1.199
 2424TIP3    H2 7216   0.499   6.579   1.135
 2425TIP3   OH2 7217   7.212   6.181   2.437
 2425TIP3    H1 7218   7.197   6.213   2.349
 2425TIP3    H2 7219   7.287   6.122   2.429
 2426TIP3   OH2 7220   1.269   6.735   2.713
 2426TIP3    H1 7221   1.189   6.683   2.705
 2426TIP3    H2 7222   1.267   6.794   2.638
 2427TIP3   OH2 7223   1.026   5.692   4.608
 2427TIP3    H1 7224   0.960   5.656   4.548
 2427TIP3    H2 7225   1.013   5.644   4.690
 2428TIP3   OH2 7226   3.483   1.001   3.663
 2428TIP3    H1 7227   3.485   0.983   3.757
 2428TIP3    H2 7228   3.500   0.916   3.622
 2429TIP3   OH2 7229   1.278   3.803   1.692
 2429TIP3    H1 7230   1.207   3.762   1.741
 2429TIP3    H2 7231   1.308   3.736   1.631
 2430TIP3   OH2 7232   4.636   0.618   2.866
 2430TIP3    H1 7233   4.610   0.588   2.779
 2430TIP3    H2 7234   4.729   0.637   2.858
 2431TIP3   OH2 7235   1.945   2.630   3.032
 2431TIP3    H1 7236   1.969   2.592   2.947
 2431TIP3    H2 7237   2.026   2.625   3.083
 2432TIP3   OH2 7238   8.255   0.087   3.579
 2432TIP3    H1 7239   8.176   0.106   3.528
 2432TIP3    H2 7240   8.324   0.138   3.535
 2433TIP3   OH2 7241   4.216   6.593   4.994
 2433TIP3    H1 7242   4.300   6.618   4.956
 2433TIP3    H2 7243   4.153   6.601   4.922
 2434TIP3   OH2 7244   0.523   7.804   4.516
 2434TIP3    H1 7245   0.596   7.848   4.559
 2434TIP3    H2 7246   0.544   7.808   4.422
 2435TIP3   OH2 7247   1.081   5.050   0.084
 2435TIP3    H1 7248   1.155   5.046   0.023
 2435TIP3    H2 7249   1.020   5.111   0.043
 2436TIP3   OH2 7250   6.089   6.198   2.637
 2436TIP3    H1 7251   6.015   6.252   2.665
 2436TIP3    H2 7252   6.057   6.154   2.558
 2437TIP3   OH2 7253   8.207   3.704   4.014
 2437TIP3    H1 7254   8.162   3.752   3.945
 2437TIP3    H2 7255   8.262   3.769   4.057
 2438TIP3   OH2 7256   4.503   7.407   3.519
 2438TIP3    H1 7257   4.571   7.412   3.452
 2438TIP3    H2 7258   4.549   7.425   3.601
 2439TIP3   OH2 7259   2.406   0.342   0.537
 2439TIP3    H1 7260   2.420   0.256   0.497
 2439TIP3    H2 7261   2.457   0.338   0.619
 2440TIP3   OH2 7262   4.771   1.612   6.004
 2440TIP3    H1 7263   4.696   1.589   6.059
 2440TIP3    H2 7264   4.819   1.530   5.992
 2441TIP3   OH2 7265   4.161   2.267   2.338
 2441TIP3    H1 7266   4.236   2.267   2.397
 2441TIP3    H2 7267   4.085   2.261   2.395
 2442TIP3   OH2 7268   4.961   4.447   2.336
 2442TIP3    H1 7269   4.916   4.487   2.262
 2442TIP3    H2 7270   4.902   4.378   2.365
 2443TIP3   OH2 7271   4.692   7.319   1.267
 2443TIP3    H1 7272   4.712   7.354   1.181
 2443TIP3    H2 7273   4.750   7.243   1.276
 2444TIP3   OH2 7274   2.869   6.311   6.613
 2444TIP3    H1 7275   2.917   6.393   6.623
 2444TIP3    H2 7276   2.829   6.296   6.699
 2445TIP3   OH2 7277   7.151   0.979   3.376
 2445TIP3    H1 7278   7.063   0.942   3.366
 2445TIP3    H2 7279   7.178   1.000   3.286
 2446TIP3   OH2 7280   1.668   5.236   1.273
 2446TIP3    H1 7281   1.659   5.177   1.198
 2446TIP3    H2 7282   1.590   5.220   1.325
 2447TIP3   OH2 7283   1.036   6.886   0.406
 2447TIP3    H1 7284   1.075   6.809   0.366
 2447TIP3    H2 7285   0.947   6.860   0.427
 2448TIP3   OH2 7286   6.154   6.534   2.093
 2448TIP3    H1 7287   6.166   6.587   2.171
 2448TIP3    H2 7288   6.208   6.576   2.026
 2449TIP3   OH2 7289   1.232   6.460   1.638
 2449TIP3    H1 7290   1.165   6.529   1.640
 2449TIP3    H2 7291   1.312   6.506   1.610
 2450TIP3   OH2 7292   5.388   4.768   5.518
 2450TIP3    H1 7293   5.401   4.678   5.487
 2450TIP3    H2 7294   5.341   4.811   5.446
 2451TIP3   OH2 7295   0.868   1.057   2.228
 2451TIP3    H1 7296   0.954   1.097   2.213
 2451TIP3    H2 7297   0.813   1.094   2.159
 2452TIP3   OH2 7298   2.613   4.588   1.745
 2452TIP3    H1 7299   2.553   4.648   1.700
 2452TIP3    H2 7300   2.644   4.529   1.677
 2453TIP3   OH2 7301   3.410   0.747   3.558
 2453TIP3    H1 7302   3.449   0.691   3.625
 2453TIP3    H2 7303   3.320   0.760   3.587
 2454TIP3   OH2 7304   8.047   3.238   5.455
 2454TIP3    H1 7305   8.119   3.227   5.392
 2454TIP3    H2 7306   8.081   3.203   5.537
 2455TIP3   OH2 7307   5.345   3.032   6.021
 2455TIP3    H1 7308   5.436   3.038   5.992
 2455TIP3    H2 7309   5.332   2.939   6.039
 2456TIP3   OH2 7310   7.971   6.553   5.746
 2456TIP3    H1 7311   7.879   6.529   5.735
 2456TIP3    H2 7312   7.998   6.587   5.661
 2457TIP3   OH2 7313   7.619   0.129   5.746
 2457TIP3    H1 7314   7.647   0.043   5.778
 2457TIP3    H2 7315   7.626   0.123   5.651
 2458TIP3   OH2 7316   1.113   7.678   3.765
 2458TIP3    H1 7317   1.126   7.762   3.810
 2458TIP3    H2 7318   1.024   7.683   3.731
 2459TIP3   OH2 7319   5.971   0.650   5.339
 2459TIP3    H1 7320   6.026   0.593   5.393
 2459TIP3    H2 7321   6.032   0.707   5.293
 2460TIP3   OH2 7322   2.925   7.267   2.865
 2460TIP3    H1 7323   2.960   7.298   2.782
 2460TIP3    H2 7324   2.851   7.325   2.884
 2461TIP3   OH2 7325   4.664   0.583   4.017
 2461TIP3    H1 7326   4.641   0.657   3.961
 2461TIP3    H2 7327   4.726   0.532   3.965
 2462TIP3   OH2 7328   1.806   2.153   4.672
 2462TIP3    H1 7329   1.867   2.180   4.741
 2462TIP3    H2 7330   1.728   2.206   4.686
 2463TIP3   OH2 7331   6.295   3.733   1.275
 2463TIP3    H1 7332   6.262   3.700   1.192
 2463TIP3    H2 7333   6.389   3.716   1.271
 2464TIP3   OH2 7334   3.215   4.010   1.587
 2464TIP3    H1 7335   3.248   3.928   1.622
 2464TIP3    H2 7336   3.293   4.064   1.573
 2465TIP3   OH2 7337   1.730   4.405   0.145
 2465TIP3    H1 7338   1.768   4.491   0.165
 2465TIP3    H2 7339   1.659   4.395   0.208
 2466TIP3   OH2 7340   2.810   3.089   4.631
 2466TIP3    H1 7341   2.853   3.172   4.650
 2466TIP3    H2 7342   2.800   3.047   4.717
 2467TIP3   OH2 7343   6.758   0.494   4.440
 2467TIP3    H1 7344   6.733   0.587   4.440
 2467TIP3    H2 7345   6.832   0.489   4.380
 2468TIP3   OH2 7346   0.877   4.946   1.955
 2468TIP3    H1 7347   0.950   4.889   1.930
 2468TIP3    H2 7348   0.799   4.899   1.924
 2469TIP3   OH2 7349   1.508   3.238   3.580
 2469TIP3    H1 7350   1.574   3.200   3.638
 2469TIP3    H2 7351   1.474   3.313   3.628
 2470TIP3   OH2 7352   4.140   1.373   6.540
 2470TIP3    H1 7353   4.222   1.379   6.490
 2470TIP3    H2 7354   4.130   1.459   6.580
 2471TIP3   OH2 7355   5.662   1.212   6.645
 2471TIP3    H1 7356   5.681   1.184   6.735
 2471TIP3    H2 7357   5.568   1.197   6.635
 2472TIP3   OH2 7358   0.352   3.791   2.929
 2472TIP3    H1 7359   0.387   3.790   3.018
 2472TIP3    H2 7360   0.264   3.828   2.938
 2473TIP3   OH2 7361   5.794   4.366   3.872
 2473TIP3    H1 7362   5.815   4.275   3.850
 2473TIP3    H2 7363   5.874   4.399   3.914
 2474TIP3   OH2 7364   7.394   0.696   6.262
 2474TIP3    H1 7365   7.489   0.680   6.259
 2474TIP3    H2 7366   7.386   0.791   6.256
 2475TIP3   OH2 7367   6.244   2.460   2.337
 2475TIP3    H1 7368   6.267   2.504   2.419
 2475TIP3    H2 7369   6.167   2.407   2.359
 2476TIP3   OH2 7370   4.521   1.829   6.594
 2476TIP3    H1 7371   4.514   1.767   6.522
 2476TIP3    H2 7372   4.563   1.906   6.555
 2477TIP3   OH2 7373   2.925   7.157   1.483
 2477TIP3    H1 7374   2.904   7.214   1.408
 2477TIP3    H2 7375   2.840   7.135   1.521
 2478TIP3   OH2 7376   6.048   1.310   5.950
 2478TIP3    H1 7377   6.043   1.216   5.969
 2478TIP3    H2 7378   6.104   1.316   5.873
 2479TIP3   OH2 7379   2.750   3.387   4.689
 2479TIP3    H1 7380   2.835   3.389   4.734
 2479TIP3    H2 7381   2.769   3.418   4.601
 2480TIP3   OH2 7382   6.493   1.065   0.631
 2480TIP3    H1 7383   6.418   1.083   0.575
 2480TIP3    H2 7384   6.527   1.152   0.653
 2481TIP3   OH2 7385   8.233   1.463   5.319
 2481TIP3    H1 7386   8.265   1.507   5.398
 2481TIP3    H2 7387   8.139   1.453   5.334
 2482TIP3   OH2 7388   6.609   3.220   6.006
 2482TIP3    H1 7389   6.518   3.190   6.000
 2482TIP3    H2 7390   6.611   3.302   5.957
 2483TIP3   OH2 7391   4.562   0.499   1.355
 2483TIP3    H1 7392   4.540   0.482   1.447
 2483TIP3    H2 7393   4.547   0.415   1.312
 2484TIP3   OH2 7394   7.660   6.629   0.637
 2484TIP3    H1 7395   7.729   6.650   0.700
 2484TIP3    H2 7396   7.683   6.542   0.604
 2485TIP3   OH2 7397   0.305   2.896   1.669
 2485TIP3    H1 7398   0.216   2.883   1.637
 2485TIP3    H2 7399   0.308   2.989   1.693
 2486TIP3   OH2 7400   3.290   3.971   3.748
 2486TIP3    H1 7401   3.377   3.983   3.709
 2486TIP3    H2 7402   3.304   3.906   3.817
 2487TIP3   OH2 7403   4.432   3.401   1.702
 2487TIP3    H1 7404   4.365   3.343   1.666
 2487TIP3    H2 7405   4.398   3.428   1.787
 2488TIP3   OH2 7406   1.323   3.542   6.571
 2488TIP3    H1 7407   1.269   3.468   6.598
 2488TIP3    H2 7408   1.329   3.534   6.476
 2489TIP3   OH2 7409   5.553   0.062   4.999
 2489TIP3    H1 7410   5.528  -0.016   4.949
 2489TIP3    H2 7411   5.580   0.028   5.084
 2490TIP3   OH2 7412   1.735   0.984   0.149
 2490TIP3    H1 7413   1.769   1.063   0.107
 2490TIP3    H2 7414   1.713   0.926   0.076
 2491TIP3   OH2 7415   4.359   6.236   6.729
 2491TIP3    H1 7416   4.330   6.200   6.813
 2491TIP3    H2 7417   4.279   6.241   6.676
 2492TIP3   OH2 7418   7.484   1.979   1.666
 2492TIP3    H1 7419   7.430   1.900   1.674
 2492TIP3    H2 7420   7.568   1.955   1.705
 2493TIP3   OH2 7421   4.229   6.318   2.184
 2493TIP3    H1 7422   4.147   6.335   2.231
 2493TIP3    H2 7423   4.262   6.405   2.160
 2494TIP3   OH2 7424   6.816   6.158   5.187
 2494TIP3    H1 7425   6.867   6.198   5.117
 2494TIP3    H2 7426   6.856   6.191   5.268
 2495TIP3   OH2 7427   0.092   6.751   4.093
 2495TIP3    H1 7428   0.114   6.759   4.185
 2495TIP3    H2 7429   0.140   6.822   4.050
 2496TIP3   OH2 7430   7.530   0.488   3.656
 2496TIP3    H1 7431   7.444   0.447   3.668
 2496TIP3    H2 7432   7.591   0.428   3.699
 2497TIP3   OH2 7433   7.266   3.508   6.184
 2497TIP3    H1 7434   7.244   3.584   6.130
 2497TIP3    H2 7435   7.183   3.464   6.200
 2498TIP3   OH2 7436   0.679   1.094   1.567
 2498TIP3    H1 7437   0.640   1.080   1.481
 2498TIP3    H2 7438   0.688   1.188   1.575
 2499TIP3   OH2 7439   2.938   4.254   6.531
 2499TIP3    H1 7440   2.978   4.242   6.617
 2499TIP3    H2 7441   2.850   4.286   6.550
 2500TIP3   OH2 7442   1.686   2.856   6.108
 2500TIP3    H1 7443   1.703   2.783   6.168
 2500TIP3    H2 7444   1.772   2.889   6.085
 2501TIP3   OH2 7445   3.675   2.725   0.241
 2501TIP3    H1 7446   3.679   2.630   0.243
 2501TIP3    H2 7447   3.749   2.751   0.186
 2502TIP3   OH2 7448   6.970   6.937   3.962
 2502TIP3    H1 7449   6.927   6.954   3.878
 2502TIP3    H2 7450   6.900   6.902   4.018
 2503TIP3   OH2 7451   5.558   3.960   5.117
 2503TIP3    H1 7452   5.644   3.981   5.084
 2503TIP3    H2 7453   5.574   3.927   5.206
 2504TIP3   OH2 7454   7.230   3.763   6.113
 2504TIP3    H1 7455   7.200   3.751   6.023
 2504TIP3    H2 7456   7.236   3.858   6.124
 2505TIP3   OH2 7457   2.243   3.237   4.061
 2505TIP3    H1 7458   2.203   3.191   3.988
 2505TIP3    H2 7459   2.316   3.181   4.088
 2506TIP3   OH2 7460   2.541   3.667   4.271
 2506TIP3    H1 7461   2.496   3.672   4.356
 2506TIP3    H2 7462   2.597   3.744   4.270
 2507TIP3   OH2 7463   0.797   2.466   5.111
 2507TIP3    H1 7464   0.779   2.377   5.142
 2507TIP3    H2 7465   0.757   2.523   5.177
 2508TIP3   OH2 7466   5.631   4.156   5.757
 2508TIP3    H1 7467   5.709   4.206   5.779
 2508TIP3    H2 7468   5.661   4.092   5.692
 2509TIP3   OH2 7469   0.091   2.649   3.569
 2509TIP3    H1 7470   0.044   2.658   3.487
 2509TIP3    H2 7471   0.155   2.720   3.569
 2510TIP3   OH2 7472   0.654   0.415   1.063
 2510TIP3    H1 7473   0.690   0.393   0.977
 2510TIP3    H2 7474   0.569   0.370   1.065
 2511TIP3   OH2 7475   5.688   3.295   4.078
 2511TIP3    H1 7476   5.688   3.333   4.166
 2511TIP3    H2 7477   5.697   3.369   4.019
 2512TIP3   OH2 7478   6.332   6.068   2.658
 2512TIP3    H1 7479   6.344   6.077   2.753
 2512TIP3    H2 7480   6.245   6.105   2.641
 2513TIP3   OH2 7481   1.182   4.682   3.553
 2513TIP3    H1 7482   1.204   4.705   3.463
 2513TIP3    H2 7483   1.142   4.595   3.547
 2514TIP3   OH2 7484   6.439   3.964   4.551
 2514TIP3    H1 7485   6.412   3.966   4.643
 2514TIP3    H2 7486   6.422   3.874   4.522
 2515TIP3   OH2 7487   1.786   2.395   4.354
 2515TIP3    H1 7488   1.706   2.412   4.402
 2515TIP3    H2 7489   1.761   2.335   4.284
 2516TIP3   OH2 7490   4.778   5.513   6.643
 2516TIP3    H1 7491   4.748   5.439   6.590
 2516TIP3    H2 7492   4.776   5.481   6.733
 2517TIP3   OH2 7493   6.539   2.955   1.871
 2517TIP3    H1 7494   6.471   2.911   1.921
 2517TIP3    H2 7495   6.518   3.048   1.878
 2518TIP3   OH2 7496   6.447   6.754   0.090
 2518TIP3    H1 7497   6.357   6.773   0.066
 2518TIP3    H2 7498   6.451   6.659   0.097
 2519TIP3   OH2 7499   6.530   3.980   2.535
 2519TIP3    H1 7500   6.468   3.994   2.607
 2519TIP3    H2 7501   6.589   4.055   2.539
 2520TIP3   OH2 7502   7.150   5.122   2.536
 2520TIP3    H1 7503   7.065   5.105   2.575
 2520TIP3    H2 7504   7.192   5.036   2.533
 2521TIP3   OH2 7505   4.655   5.341   5.227
 2521TIP3    H1 7506   4.649   5.435   5.207
 2521TIP3    H2 7507   4.602   5.330   5.306
 2522TIP3   OH2 7508   2.093   6.389   6.765
 2522TIP3    H1 7509   2.017   6.347   6.805
 2522TIP3    H2 7510   2.081   6.482   6.781
 2523TIP3   OH2 7511   7.479   0.565   0.585
 2523TIP3    H1 7512   7.396   0.537   0.623
 2523TIP3    H2 7513   7.473   0.539   0.493
 2524TIP3   OH2 7514   7.997   4.407   5.910
 2524TIP3    H1 7515   8.071   4.368   5.863
 2524TIP3    H2 7516   7.923   4.397   5.850
 2525TIP3   OH2 7517   1.403   3.221   4.110
 2525TIP3    H1 7518   1.340   3.207   4.181
 2525TIP3    H2 7519   1.371   3.167   4.038
 2526TIP3   OH2 7520   3.348   3.060   3.664
 2526TIP3    H1 7521   3.444   3.058   3.663
 2526TIP3    H2 7522   3.324   3.104   3.582
 2527TIP3   OH2 7523   7.282   7.059   4.805
 2527TIP3    H1 7524   7.354   7.063   4.867
 2527TIP3    H2 7525   7.315   7.006   4.733
 2528TIP3   OH2 7526   0.219   5.222   6.142
 2528TIP3    H1 7527   0.301   5.250   6.100
 2528TIP3    H2 7528   0.246   5.158   6.208
 2529TIP3   OH2 7529   7.251   3.030   2.900
 2529TIP3    H1 7530   7.232   3.052   2.809
 2529TIP3    H2 7531   7.340   3.062   2.915
 2530TIP3   OH2 7532   5.031   0.674   3.323
 2530TIP3    H1 7533   5.033   0.609   3.252
 2530TIP3    H2 7534   5.123   0.684   3.348
 2531TIP3   OH2 7535   0.217   7.423   1.063
 2531TIP3    H1 7536   0.278   7.384   1.000
 2531TIP3    H2 7537   0.270   7.487   1.111
 2532TIP3   OH2 7538   2.045   2.948   3.188
 2532TIP3    H1 7539   2.084   2.864   3.160
 2532TIP3    H2 7540   2.068   2.956   3.280
 2533TIP3   OH2 7541   5.868   3.613   5.913
 2533TIP3    H1 7542   5.848   3.651   5.999
 2533TIP3    H2 7543   5.955   3.646   5.892
 2534TIP3   OH2 7544   4.454   2.911   0.862
 2534TIP3    H1 7545   4.443   3.003   0.886
 2534TIP3    H2 7546   4.508   2.913   0.783
 2535TIP3   OH2 7547   4.219   7.783   0.352
 2535TIP3    H1 7548   4.288   7.816   0.294
 2535TIP3    H2 7549   4.138   7.814   0.312
 2536TIP3   OH2 7550   4.684   1.116   4.587
 2536TIP3    H1 7551   4.706   1.033   4.545
 2536TIP3    H2 7552   4.768   1.150   4.619
 2537TIP3   OH2 7553   4.989   2.899   6.109
 2537TIP3    H1 7554   5.002   2.808   6.082
 2537TIP3    H2 7555   5.070   2.923   6.154
 2538TIP3   OH2 7556   3.379   4.735   6.294
 2538TIP3    H1 7557   3.469   4.715   6.271
 2538TIP3    H2 7558   3.350   4.797   6.226
 2539TIP3   OH2 7559   7.025   5.621   2.958
 2539TIP3    H1 7560   6.995   5.691   2.899
 2539TIP3    H2 7561   7.089   5.664   3.014
 2540TIP3   OH2 7562   3.278   2.972   5.822
 2540TIP3    H1 7563   3.245   3.018   5.899
 2540TIP3    H2 7564   3.340   2.908   5.856
 2541TIP3   OH2 7565   5.792   2.607   1.118
 2541TIP3    H1 7566   5.881   2.572   1.116
 2541TIP3    H2 7567   5.737   2.531   1.101
 2542TIP3   OH2 7568   0.597   1.135   2.604
 2542TIP3    H1 7569   0.689   1.158   2.588
 2542TIP3    H2 7570   0.586   1.143   2.699
 2543TIP3   OH2 7571   6.679   2.510   0.964
 2543TIP3    H1 7572   6.676   2.466   0.879
 2543TIP3    H2 7573   6.604   2.569   0.963
 2544TIP3   OH2 7574   5.146   1.750   0.681
 2544TIP3    H1 7575   5.092   1.821   0.647
 2544TIP3    H2 7576   5.181   1.707   0.603
 2545TIP3   OH2 7577   4.661   7.301   6.171
 2545TIP3    H1 7578   4.745   7.328   6.133
 2545TIP3    H2 7579   4.596   7.322   6.104
 2546TIP3   OH2 7580   5.614   5.761   4.952
 2546TIP3    H1 7581   5.653   5.830   4.899
 2546TIP3    H2 7582   5.682   5.738   5.016
 2547TIP3   OH2 7583   6.460   2.961   3.802
 2547TIP3    H1 7584   6.478   3.022   3.874
 2547TIP3    H2 7585   6.485   2.875   3.837
 2548TIP3   OH2 7586   7.181   4.809   5.414
 2548TIP3    H1 7587   7.131   4.840   5.490
 2548TIP3    H2 7588   7.145   4.859   5.341
 2549TIP3   OH2 7589   5.405   5.936   3.586
 2549TIP3    H1 7590   5.444   5.972   3.507
 2549TIP3    H2 7591   5.480   5.903   3.637
 2550TIP3   OH2 7592   1.474   4.296   3.133
 2550TIP3    H1 7593   1.556   4.273   3.176
 2550TIP3    H2 7594   1.499   4.324   3.045
 2551TIP3   OH2 7595   7.453   2.150   1.401
 2551TIP3    H1 7596   7.450   2.066   1.448
 2551TIP3    H2 7597   7.541   2.153   1.364
 2552TIP3   OH2 7598   6.096   2.989   2.575
 2552TIP3    H1 7599   6.050   2.969   2.657
 2552TIP3    H2 7600   6.064   3.076   2.551
 2553TIP3   OH2 7601   0.535   0.091   4.885
 2553TIP3    H1 7602   0.475   0.155   4.922
 2553TIP3    H2 7603   0.580   0.138   4.814
 2554TIP3   OH2 7604   1.338   3.746   3.821
 2554TIP3    H1 7605   1.318   3.839   3.825
 2554TIP3    H2 7606   1.335   3.724   3.728
 2555TIP3   OH2 7607   6.727   5.932   2.627
 2555TIP3    H1 7608   6.716   5.851   2.577
 2555TIP3    H2 7609   6.692   6.000   2.570
 2556TIP3   OH2 7610   1.003   5.634   3.561
 2556TIP3    H1 7611   1.098   5.634   3.565
 2556TIP3    H2 7612   0.975   5.655   3.650
 2557TIP3   OH2 7613   1.563   0.015   5.910
 2557TIP3    H1 7614   1.612  -0.034   5.975
 2557TIP3    H2 7615   1.471  -0.008   5.925
 2558TIP3   OH2 7616   0.887   3.040   2.098
 2558TIP3    H1 7617   0.819   2.988   2.141
 2558TIP3    H2 7618   0.863   3.131   2.117
 2559TIP3   OH2 7619   4.911   2.989   3.118
 2559TIP3    H1 7620   4.849   2.982   3.045
 2559TIP3    H2 7621   4.974   2.919   3.102
 2560TIP3   OH2 7622   4.080   1.765   4.286
 2560TIP3    H1 7623   3.993   1.753   4.247
 2560TIP3    H2 7624   4.125   1.682   4.268
 2561TIP3   OH2 7625   0.066   2.909   1.888
 2561TIP3    H1 7626   0.001   2.972   1.857
 2561TIP3    H2 7627   0.021   2.825   1.885
 2562TIP3   OH2 7628   6.679   4.507   1.575
 2562TIP3    H1 7629   6.611   4.467   1.521
 2562TIP3    H2 7630   6.662   4.601   1.570
 2563TIP3   OH2 7631   4.199   4.668   4.160
 2563TIP3    H1 7632   4.104   4.658   4.162
 2563TIP3    H2 7633   4.233   4.579   4.165
 2564TIP3   OH2 7634   6.923   5.832   2.821
 2564TIP3    H1 7635   6.979   5.890   2.873
 2564TIP3    H2 7636   6.889   5.888   2.751
 2565TIP3   OH2 7637   7.231   3.288   3.414
 2565TIP3    H1 7638   7.285   3.353   3.368
 2565TIP3    H2 7639   7.259   3.204   3.377
 2566TIP3   OH2 7640   0.599   6.812   0.233
 2566TIP3    H1 7641   0.527   6.834   0.292
 2566TIP3    H2 7642   0.668   6.781   0.290
 2567TIP3   OH2 7643   7.500   5.559   0.266
 2567TIP3    H1 7644   7.536   5.575   0.178
 2567TIP3    H2 7645   7.442   5.483   0.255
 2568TIP3   OH2 7646   3.522   3.237   3.849
 2568TIP3    H1 7647   3.507   3.330   3.832
 2568TIP3    H2 7648   3.554   3.202   3.766
 2569TIP3   OH2 7649   6.827   4.981   4.909
 2569TIP3    H1 7650   6.779   5.061   4.928
 2569TIP3    H2 7651   6.781   4.913   4.957
 2570TIP3   OH2 7652   5.358   5.237   2.917
 2570TIP3    H1 7653   5.416   5.194   2.854
 2570TIP3    H2 7654   5.367   5.330   2.898
 2571TIP3   OH2 7655   5.412   5.353   6.721
 2571TIP3    H1 7656   5.405   5.259   6.735
 2571TIP3    H2 7657   5.416   5.363   6.626
 2572TIP3   OH2 7658   1.902   1.768   5.326
 2572TIP3    H1 7659   1.890   1.689   5.274
 2572TIP3    H2 7660   1.877   1.743   5.414
 2573TIP3   OH2 7661   7.744   4.032   6.083
 2573TIP3    H1 7662   7.711   3.947   6.114
 2573TIP3    H2 7663   7.839   4.021   6.080
 2574TIP3   OH2 7664   4.222   0.465   1.644
 2574TIP3    H1 7665   4.228   0.407   1.568
 2574TIP3    H2 7666   4.179   0.544   1.610
 2575TIP3   OH2 7667   0.123   6.451   1.903
 2575TIP3    H1 7668   0.114   6.477   1.811
 2575TIP3    H2 7669   0.164   6.526   1.945
 2576TIP3   OH2 7670   2.034   7.014   2.217
 2576TIP3    H1 7671   2.001   6.935   2.173
 2576TIP3    H2 7672   2.129   7.002   2.219
 2577TIP3   OH2 7673   7.855   2.890   5.487
 2577TIP3    H1 7674   7.889   2.979   5.480
 2577TIP3    H2 7675   7.905   2.839   5.424
 2578TIP3   OH2 7676   2.157   7.754   4.017
 2578TIP3    H1 7677   2.216   7.697   4.066
 2578TIP3    H2 7678   2.194   7.756   3.929
 2579TIP3   OH2 7679   4.631   2.900   6.143
 2579TIP3    H1 7680   4.653   2.862   6.229
 2579TIP3    H2 7681   4.580   2.832   6.099
 2580TIP3   OH2 7682   4.878   6.992   0.498
 2580TIP3    H1 7683   4.798   6.955   0.536
 2580TIP3    H2 7684   4.851   7.075   0.461
 2581TIP3   OH2 7685   6.497   7.709   4.482
 2581TIP3    H1 7686   6.415   7.661   4.471
 2581TIP3    H2 7687   6.562   7.656   4.437
 2582TIP3   OH2 7688   6.596   3.517   3.982
 2582TIP3    H1 7689   6.574   3.552   3.896
 2582TIP3    H2 7690   6.688   3.542   3.995
 2583TIP3   OH2 7691   0.307   6.894   2.979
 2583TIP3    H1 7692   0.364   6.897   3.056
 2583TIP3    H2 7693   0.289   6.801   2.966
 2584TIP3   OH2 7694   1.862   7.217   6.219
 2584TIP3    H1 7695   1.956   7.201   6.228
 2584TIP3    H2 7696   1.826   7.135   6.185
 2585TIP3   OH2 7697   1.512   5.620   5.815
 2585TIP3    H1 7698   1.453   5.569   5.760
 2585TIP3    H2 7699   1.489   5.596   5.905
 2586TIP3   OH2 7700   6.466   0.509   3.428
 2586TIP3    H1 7701   6.376   0.494   3.457
 2586TIP3    H2 7702   6.517   0.517   3.509
 2587TIP3   OH2 7703   2.756   7.059   0.272
 2587TIP3    H1 7704   2.789   7.140   0.232
 2587TIP3    H2 7705   2.752   7.078   0.366
 2588TIP3   OH2 7706   4.639   6.364   5.416
 2588TIP3    H1 7707   4.626   6.316   5.498
 2588TIP3    H2 7708   4.618   6.455   5.438
 2589TIP3   OH2 7709   0.883   4.467   6.596
 2589TIP3    H1 7710   0.926   4.540   6.640
 2589TIP3    H2 7711   0.798   4.503   6.567
 2590TIP3   OH2 7712   4.748   1.206   1.192
 2590TIP3    H1 7713   4.707   1.287   1.220
 2590TIP3    H2 7714   4.816   1.233   1.130
 2591TIP3   OH2 7715   7.154   2.678   2.655
 2591TIP3    H1 7716   7.140   2.719   2.570
 2591TIP3    H2 7717   7.187   2.590   2.635
 2592TIP3   OH2 7718   0.079   0.626   5.838
 2592TIP3    H1 7719   0.066   0.571   5.760
 2592TIP3    H2 7720   0.148   0.581   5.887
 2593TIP3   OH2 7721   5.093   6.752   3.799
 2593TIP3    H1 7722   5.160   6.800   3.848
 2593TIP3    H2 7723   5.018   6.812   3.796
 2594TIP3   OH2 7724   0.302   3.131   6.723
 2594TIP3    H1 7725   0.305   3.064   6.655
 2594TIP3    H2 7726   0.368   3.103   6.787
 2595TIP3   OH2 7727   4.703   6.262   4.373
 2595TIP3    H1 7728   4.785   6.312   4.374
 2595TIP3    H2 7729   4.687   6.242   4.465
 2596TIP3   OH2 7730   4.135   1.810   5.080
 2596TIP3    H1 7731   4.116   1.837   5.169
 2596TIP3    H2 7732   4.205   1.746   5.088
 2597TIP3   OH2 7733   6.119   2.790   3.087
 2597TIP3    H1 7734   6.202   2.834   3.105
 2597TIP3    H2 7735   6.084   2.768   3.173
 2598TIP3   OH2 7736   3.262   1.222   6.596
 2598TIP3    H1 7737   3.214   1.304   6.607
 2598TIP3    H2 7738   3.293   1.199   6.683
 2599TIP3   OH2 7739   2.819   2.522   0.174
 2599TIP3    H1 7740   2.757   2.457   0.142
 2599TIP3    H2 7741   2.850   2.567   0.095
 2600TIP3   OH2 7742   3.593   1.087   2.960
 2600TIP3    H1 7743   3.539   1.007   2.965
 2600TIP3    H2 7744   3.529   1.158   2.957
 2601TIP3   OH2 7745   7.017   4.756   3.611
 2601TIP3    H1 7746   6.965   4.679   3.589
 2601TIP3    H2 7747   7.093   4.720   3.657
 2602TIP3   OH2 7748   5.086   2.080   0.996
 2602TIP3    H1 7749   5.092   2.132   0.916
 2602TIP3    H2 7750   5.124   1.995   0.973
 2603TIP3   OH2 7751   1.950   4.302   3.208
 2603TIP3    H1 7752   1.924   4.375   3.264
 2603TIP3    H2 7753   1.868   4.261   3.181
 2604TIP3   OH2 7754   6.886   4.762   4.670
 2604TIP3    H1 7755   6.885   4.842   4.722
 2604TIP3    H2 7756   6.830   4.782   4.595
 2605TIP3   OH2 7757   1.344   7.078   0.231
 2605TIP3    H1 7758   1.388   7.119   0.157
 2605TIP3    H2 7759   1.344   6.984   0.211
 2606TIP3   OH2 7760   3.645   2.118   0.489
 2606TIP3    H1 7761   3.738   2.141   0.499
 2606TIP3    H2 7762   3.643   2.058   0.415
 2607TIP3   OH2 7763   0.332   3.958   1.386
 2607TIP3    H1 7764   0.322   3.893   1.316
 2607TIP3    H2 7765   0.426   3.974   1.391
 2608TIP3   OH2 7766   4.350   4.464   3.918
 2608TIP3    H1 7767   4.395   4.472   3.834
 2608TIP3    H2 7768   4.421   4.455   3.982
 2609TIP3   OH2 7769   0.768   7.137   5.771
 2609TIP3    H1 7770   0.834   7.115   5.705
 2609TIP3    H2 7771   0.813   7.200   5.828
 2610TIP3   OH2 7772   0.474   3.833   4.807
 2610TIP3    H1 7773   0.448   3.878   4.888
 2610TIP3    H2 7774   0.549   3.883   4.775
 2611TIP3   OH2 7775   5.466   5.807   2.846
 2611TIP3    H1 7776   5.482   5.747   2.773
 2611TIP3    H2 7777   5.392   5.860   2.817
 2612TIP3   OH2 7778   6.024   5.733   5.480
 2612TIP3    H1 7779   6.111   5.698   5.464
 2612TIP3    H2 7780   6.000   5.777   5.399
 2613TIP3   OH2 7781   2.915   5.139   4.175
 2613TIP3    H1 7782   2.990   5.090   4.209
 2613TIP3    H2 7783   2.924   5.227   4.212
 2614TIP3   OH2 7784   2.840   7.656   5.497
 2614TIP3    H1 7785   2.920   7.658   5.445
 2614TIP3    H2 7786   2.801   7.570   5.477
 2615TIP3   OH2 7787  -0.044   0.250   2.781
 2615TIP3    H1 7788  -0.038   0.329   2.836
 2615TIP3    H2 7789  -0.015   0.279   2.695
 2616TIP3   OH2 7790   7.185   6.246   4.048
 2616TIP3    H1 7791   7.207   6.329   4.005
 2616TIP3    H2 7792   7.151   6.191   3.977
 2617TIP3   OH2 7793   4.092   5.680   5.402
 2617TIP3    H1 7794   4.134   5.645   5.324
 2617TIP3    H2 7795   4.004   5.706   5.374
 2618TIP3   OH2 7796   3.392   3.385   4.170
 2618TIP3    H1 7797   3.343   3.352   4.245
 2618TIP3    H2 7798   3.483   3.389   4.201
 2619TIP3   OH2 7799   0.364   1.194   1.658
 2619TIP3    H1 7800   0.356   1.230   1.569
 2619TIP3    H2 7801   0.315   1.255   1.713
 2620TIP3   OH2 7802   6.924   6.961   6.068
 2620TIP3    H1 7803   6.971   6.931   5.990
 2620TIP3    H2 7804   6.836   6.925   6.058
 2621TIP3   OH2 7805   0.956   2.125   2.465
 2621TIP3    H1 7806   0.994   2.041   2.438
 2621TIP3    H2 7807   0.884   2.100   2.524
 2622TIP3   OH2 7808   1.725   1.314   0.521
 2622TIP3    H1 7809   1.669   1.313   0.599
 2622TIP3    H2 7810   1.739   1.407   0.503
 2623TIP3   OH2 7811   7.220   3.891   4.632
 2623TIP3    H1 7812   7.202   3.940   4.713
 2623TIP3    H2 7813   7.142   3.838   4.618
 2624TIP3   OH2 7814   2.782   7.206   3.990
 2624TIP3    H1 7815   2.777   7.220   4.085
 2624TIP3    H2 7816   2.823   7.285   3.956
 2625TIP3   OH2 7817   6.368   0.769   5.572
 2625TIP3    H1 7818   6.366   0.865   5.577
 2625TIP3    H2 7819   6.446   0.749   5.521
 2626TIP3   OH2 7820   0.455   6.489   1.382
 2626TIP3    H1 7821   0.442   6.399   1.351
 2626TIP3    H2 7822   0.536   6.486   1.432
 2627TIP3   OH2 7823   6.966   2.846   4.862
 2627TIP3    H1 7824   6.915   2.773   4.825
 2627TIP3    H2 7825   6.904   2.918   4.869
 2628TIP3   OH2 7826   3.416   0.777   1.552
 2628TIP3    H1 7827   3.487   0.719   1.524
 2628TIP3    H2 7828   3.385   0.819   1.472
 2629TIP3   OH2 7829   4.064   4.624   5.121
 2629TIP3    H1 7830   4.024   4.683   5.057
 2629TIP3    H2 7831   3.991   4.594   5.175
 2630TIP3   OH2 7832   5.878   6.753   0.368
 2630TIP3    H1 7833   5.902   6.845   0.382
 2630TIP3    H2 7834   5.939   6.722   0.301
 2631TIP3   OH2 7835   0.439   2.276   6.039
 2631TIP3    H1 7836   0.402   2.362   6.019
 2631TIP3    H2 7837   0.493   2.255   5.962
 2632TIP3   OH2 7838   7.330   0.633   1.707
 2632TIP3    H1 7839   7.348   0.620   1.800
 2632TIP3    H2 7840   7.270   0.708   1.704
 2633TIP3   OH2 7841   2.671   5.119   4.387
 2633TIP3    H1 7842   2.751   5.110   4.336
 2633TIP3    H2 7843   2.634   5.031   4.390
 2634TIP3   OH2 7844   3.316   6.782   4.459
 2634TIP3    H1 7845   3.404   6.749   4.478
 2634TIP3    H2 7846   3.330   6.871   4.426
 2635TIP3   OH2 7847   7.487   3.661   4.606
 2635TIP3    H1 7848   7.427   3.683   4.677
 2635TIP3    H2 7849   7.547   3.597   4.643
 2636TIP3   OH2 7850   6.134   6.715   0.885
 2636TIP3    H1 7851   6.150   6.621   0.891
 2636TIP3    H2 7852   6.161   6.739   0.796
 2637TIP3   OH2 7853   3.699   5.556   3.861
 2637TIP3    H1 7854   3.733   5.529   3.947
 2637TIP3    H2 7855   3.607   5.529   3.862
 2638TIP3   OH2 7856   7.836   1.419   4.570
 2638TIP3    H1 7857   7.838   1.328   4.540
 2638TIP3    H2 7858   7.778   1.464   4.508
 2639TIP3   OH2 7859   0.910   0.425   5.823
 2639TIP3    H1 7860   0.934   0.348   5.875
 2639TIP3    H2 7861   0.955   0.497   5.866
 2640TIP3   OH2 7862   5.503   4.478   1.421
 2640TIP3    H1 7863   5.424   4.448   1.376
 2640TIP3    H2 7864   5.491   4.573   1.430
 2641TIP3   OH2 7865   1.900   5.207   4.679
 2641TIP3    H1 7866   1.836   5.252   4.734
 2641TIP3    H2 7867   1.941   5.277   4.628
 2642TIP3   OH2 7868   6.770   5.759   2.411
 2642TIP3    H1 7869   6.704   5.695   2.439
 2642TIP3    H2 7870   6.844   5.706   2.381
 2643TIP3   OH2 7871   3.907   5.251   2.903
 2643TIP3    H1 7872   3.930   5.342   2.888
 2643TIP3    H2 7873   3.823   5.255   2.950
 2644TIP3   OH2 7874   4.181   6.354   6.334
 2644TIP3    H1 7875   4.202   6.333   6.425
 2644TIP3    H2 7876   4.186   6.270   6.289
 2645TIP3   OH2 7877   4.417   4.725   6.689
 2645TIP3    H1 7878   4.326   4.711   6.718
 2645TIP3    H2 7879   4.418   4.692   6.599
 2646TIP3   OH2 7880   3.122   4.622   1.242
 2646TIP3    H1 7881   3.087   4.699   1.198
 2646TIP3    H2 7882   3.110   4.640   1.335
 2647TIP3   OH2 7883   6.952   3.124   6.245
 2647TIP3    H1 7884   6.964   3.190   6.177
 2647TIP3    H2 7885   7.040   3.088   6.259
 2648TIP3   OH2 7886   5.032   6.450   3.795
 2648TIP3    H1 7887   5.053   6.543   3.791
 2648TIP3    H2 7888   4.938   6.447   3.810
 2649TIP3   OH2 7889   4.995   1.571   4.269
 2649TIP3    H1 7890   4.985   1.554   4.363
 2649TIP3    H2 7891   5.057   1.504   4.240
 2650TIP3   OH2 7892   0.949   4.439   3.649
 2650TIP3    H1 7893   0.926   4.347   3.632
 2650TIP3    H2 7894   0.887   4.489   3.597
 2651TIP3   OH2 7895   1.576   0.722   5.934
 2651TIP3    H1 7896   1.610   0.751   5.849
 2651TIP3    H2 7897   1.495   0.772   5.945
 2652TIP3   OH2 7898   1.957   2.572   4.920
 2652TIP3    H1 7899   1.933   2.621   4.842
 2652TIP3    H2 7900   1.877   2.528   4.947
 2653TIP3   OH2 7901   0.546   0.631   6.703
 2653TIP3    H1 7902   0.531   0.724   6.721
 2653TIP3    H2 7903   0.490   0.584   6.765
 2654TIP3   OH2 7904   4.570   2.039   3.263
 2654TIP3    H1 7905   4.519   2.059   3.185
 2654TIP3    H2 7906   4.508   2.045   3.335
 2655TIP3   OH2 7907   0.914   3.218   3.361
 2655TIP3    H1 7908   0.848   3.174   3.308
 2655TIP3    H2 7909   0.989   3.159   3.359
 2656TIP3   OH2 7910   2.607   2.270   2.463
 2656TIP3    H1 7911   2.671   2.220   2.413
 2656TIP3    H2 7912   2.543   2.298   2.398
 2657TIP3   OH2 7913   3.144   0.181   1.756
 2657TIP3    H1 7914   3.235   0.174   1.785
 2657TIP3    H2 7915   3.144   0.249   1.689
 2658TIP3   OH2 7916   7.882   4.651   1.155
 2658TIP3    H1 7917   7.927   4.669   1.072
 2658TIP3    H2 7918   7.952   4.649   1.220
 2659TIP3   OH2 7919   1.718   6.285   5.231
 2659TIP3    H1 7920   1.653   6.321   5.293
 2659TIP3    H2 7921   1.674   6.209   5.192
 2660TIP3   OH2 7922   6.708   4.788   4.451
 2660TIP3    H1 7923   6.715   4.820   4.361
 2660TIP3    H2 7924   6.614   4.774   4.464
 2661TIP3   OH2 7925   0.679   4.464   2.939
 2661TIP3    H1 7926   0.616   4.393   2.930
 2661TIP3    H2 7927   0.663   4.500   3.026
 2662TIP3   OH2 7928   4.193   5.539   5.191
 2662TIP3    H1 7929   4.242   5.605   5.141
 2662TIP3    H2 7930   4.225   5.455   5.157
 2663TIP3   OH2 7931   3.727   6.208   4.580
 2663TIP3    H1 7932   3.676   6.137   4.541
 2663TIP3    H2 7933   3.815   6.173   4.586
 2664TIP3   OH2 7934   6.548   0.522   4.775
 2664TIP3    H1 7935   6.563   0.474   4.856
 2664TIP3    H2 7936   6.466   0.485   4.741
 2665TIP3   OH2 7937   2.751   1.622   5.765
 2665TIP3    H1 7938   2.715   1.613   5.853
 2665TIP3    H2 7939   2.774   1.714   5.758
 2666TIP3   OH2 7940   7.449   1.820   5.153
 2666TIP3    H1 7941   7.513   1.882   5.188
 2666TIP3    H2 7942   7.377   1.823   5.215
 2667TIP3   OH2 7943   0.760   1.478   4.805
 2667TIP3    H1 7944   0.739   1.488   4.712
 2667TIP3    H2 7945   0.754   1.383   4.820
 2668TIP3   OH2 7946   1.191   7.249   1.852
 2668TIP3    H1 7947   1.173   7.230   1.760
 2668TIP3    H2 7948   1.147   7.178   1.899
 2669TIP3   OH2 7949   3.838   7.741   6.164
 2669TIP3    H1 7950   3.766   7.754   6.226
 2669TIP3    H2 7951   3.894   7.676   6.205
 2670TIP3   OH2 7952   0.691   3.878   6.377
 2670TIP3    H1 7953   0.718   3.806   6.434
 2670TIP3    H2 7954   0.774   3.917   6.348
 2671TIP3   OH2 7955   1.974   7.727   5.852
 2671TIP3    H1 7956   2.000   7.774   5.773
 2671TIP3    H2 7957   2.055   7.687   5.885
 2672TIP3   OH2 7958   8.223   5.331   3.093
 2672TIP3    H1 7959   8.187   5.251   3.054
 2672TIP3    H2 7960   8.316   5.329   3.071
 2673TIP3   OH2 7961   7.967   0.195   6.670
 2673TIP3    H1 7962   7.995   0.105   6.654
 2673TIP3    H2 7963   8.030   0.229   6.733
 2674TIP3   OH2 7964   5.010   1.785   6.584
 2674TIP3    H1 7965   5.015   1.879   6.566
 2674TIP3    H2 7966   4.954   1.751   6.514
 2675TIP3   OH2 7967   0.662   4.850   6.351
 2675TIP3    H1 7968   0.752   4.837   6.322
 2675TIP3    H2 7969   0.630   4.761   6.369
 2676TIP3   OH2 7970   7.868   2.838   0.544
 2676TIP3    H1 7971   7.908   2.895   0.479
 2676TIP3    H2 7972   7.780   2.820   0.510
 2677TIP3   OH2 7973   5.037   6.241   3.304
 2677TIP3    H1 7974   5.097   6.260   3.377
 2677TIP3    H2 7975   4.969   6.186   3.343
 2678TIP3   OH2 7976   7.296   2.056   6.095
 2678TIP3    H1 7977   7.391   2.059   6.085
 2678TIP3    H2 7978   7.282   2.035   6.187
 2679TIP3   OH2 7979   3.942   1.204   2.166
 2679TIP3    H1 7980   4.016   1.202   2.227
 2679TIP3    H2 7981   3.901   1.118   2.177
 2680TIP3   OH2 7982   2.443   0.872   3.833
 2680TIP3    H1 7983   2.444   0.936   3.904
 2680TIP3    H2 7984   2.447   0.924   3.753
 2681TIP3   OH2 7985   6.838   6.525   6.522
 2681TIP3    H1 7986   6.914   6.570   6.560
 2681TIP3    H2 7987   6.769   6.591   6.522
 2682TIP3   OH2 7988   6.989   6.378   0.661
 2682TIP3    H1 7989   6.995   6.311   0.729
 2682TIP3    H2 7990   6.901   6.414   0.670
 2683TIP3   OH2 7991   0.232   1.168   2.017
 2683TIP3    H1 7992   0.314   1.201   2.054
 2683TIP3    H2 7993   0.194   1.243   1.973
 2684TIP3   OH2 7994   3.439   7.602   0.728
 2684TIP3    H1 7995   3.369   7.626   0.666
 2684TIP3    H2 7996   3.396   7.599   0.813
 2685TIP3   OH2 7997   3.438   1.196   4.165
 2685TIP3    H1 7998   3.344   1.197   4.145
 2685TIP3    H2 7999   3.463   1.104   4.158
 2686TIP3   OH2 8000   2.431   4.999   3.956
 2686TIP3    H1 8001   2.361   4.990   4.021
 2686TIP3    H2 8002   2.512   4.990   4.006
 2687TIP3   OH2 8003   7.150   2.249   4.690
 2687TIP3    H1 8004   7.146   2.173   4.749
 2687TIP3    H2 8005   7.191   2.317   4.743
 2688TIP3   OH2 8006   1.250   0.915   3.124
 2688TIP3    H1 8007   1.248   0.833   3.073
 2688TIP3    H2 8008   1.172   0.909   3.180
 2689TIP3   OH2 8009   3.096   7.034   4.844
 2689TIP3    H1 8010   3.083   6.959   4.785
 2689TIP3    H2 8011   3.188   7.057   4.833
 2690TIP3   OH2 8012   1.072   1.904   3.959
 2690TIP3    H1 8013   1.153   1.856   3.945
 2690TIP3    H2 8014   1.039   1.922   3.871
 2691TIP3   OH2 8015   3.490   2.122   4.640
 2691TIP3    H1 8016   3.424   2.087   4.699
 2691TIP3    H2 8017   3.560   2.057   4.642
 2692TIP3   OH2 8018   0.578   0.393   6.354
 2692TIP3    H1 8019   0.637   0.448   6.406
 2692TIP3    H2 8020   0.620   0.388   6.268
 2693TIP3   OH2 8021   1.038   5.420   2.727
 2693TIP3    H1 8022   0.959   5.441   2.676
 2693TIP3    H2 8023   1.095   5.495   2.715
 2694TIP3   OH2 8024   0.370   3.597   1.997
 2694TIP3    H1 8025   0.326   3.640   2.070
 2694TIP3    H2 8026   0.434   3.662   1.966
 2695TIP3   OH2 8027   4.468   0.980   4.769
 2695TIP3    H1 8028   4.378   0.953   4.751
 2695TIP3    H2 8029   4.505   1.002   4.684
 2696TIP3   OH2 8030   2.840   4.705   1.025
 2696TIP3    H1 8031   2.861   4.782   1.077
 2696TIP3    H2 8032   2.746   4.711   1.008
 2697TIP3   OH2 8033   0.257   7.395   6.753
 2697TIP3    H1 8034   0.249   7.469   6.692
 2697TIP3    H2 8035   0.176   7.346   6.742
 2698TIP3   OH2 8036   4.727   6.704   1.769
 2698TIP3    H1 8037   4.792   6.766   1.736
 2698TIP3    H2 8038   4.769   6.666   1.847
 2699TIP3   OH2 8039   6.601   2.446   4.008
 2699TIP3    H1 8040   6.542   2.398   3.950
 2699TIP3    H2 8041   6.651   2.378   4.054
 2700TIP3   OH2 8042   0.038   2.515   1.630
 2700TIP3    H1 8043   0.020   2.592   1.576
 2700TIP3    H2 8044   0.052   2.445   1.567
 2701TIP3   OH2 8045   7.157   1.389   3.018
 2701TIP3    H1 8046   7.111   1.317   3.061
 2701TIP3    H2 8047   7.088   1.444   2.981
 2702TIP3   OH2 8048   7.344   6.478   0.383
 2702TIP3    H1 8049   7.412   6.438   0.329
 2702TIP3    H2 8050   7.316   6.555   0.334
 2703TIP3   OH2 8051   8.163   4.151   3.716
 2703TIP3    H1 8052   8.075   4.163   3.679
 2703TIP3    H2 8053   8.188   4.239   3.745
 2704TIP3   OH2 8054   2.853   4.798   6.681
 2704TIP3    H1 8055   2.795   4.774   6.752
 2704TIP3    H2 8056   2.877   4.889   6.699
 2705TIP3   OH2 8057   6.608   1.896   0.386
 2705TIP3    H1 8058   6.609   1.842   0.307
 2705TIP3    H2 8059   6.687   1.871   0.433
 2706TIP3   OH2 8060   4.463   2.250   4.981
 2706TIP3    H1 8061   4.467   2.156   4.965
 2706TIP3    H2 8062   4.390   2.281   4.927
 2707TIP3   OH2 8063   8.180   2.430   4.262
 2707TIP3    H1 8064   8.271   2.430   4.235
 2707TIP3    H2 8065   8.145   2.514   4.231
 2708TIP3   OH2 8066   2.244   0.511   3.102
 2708TIP3    H1 8067   2.321   0.518   3.159
 2708TIP3    H2 8068   2.220   0.602   3.084
 2709TIP3   OH2 8069   4.787   3.697   1.227
 2709TIP3    H1 8070   4.874   3.683   1.264
 2709TIP3    H2 8071   4.789   3.786   1.193
 2710TIP3   OH2 8072   2.974   5.503   3.597
 2710TIP3    H1 8073   2.893   5.487   3.646
 2710TIP3    H2 8074   2.967   5.595   3.569
 2711TIP3   OH2 8075   7.971   0.400   1.522
 2711TIP3    H1 8076   8.004   0.476   1.570
 2711TIP3    H2 8077   7.876   0.403   1.536
 2712TIP3   OH2 8078   4.420   2.050   3.494
 2712TIP3    H1 8079   4.387   2.106   3.564
 2712TIP3    H2 8080   4.353   1.982   3.483
 2713TIP3   OH2 8081   5.540   7.542   0.765
 2713TIP3    H1 8082   5.472   7.480   0.792
 2713TIP3    H2 8083   5.602   7.489   0.715
 2714TIP3   OH2 8084   1.772   5.314   3.675
 2714TIP3    H1 8085   1.725   5.263   3.740
 2714TIP3    H2 8086   1.826   5.374   3.726
 2715TIP3   OH2 8087   7.605   1.236   6.353
 2715TIP3    H1 8088   7.525   1.236   6.406
 2715TIP3    H2 8089   7.664   1.176   6.399
 2716TIP3   OH2 8090   1.128   3.463   0.115
 2716TIP3    H1 8091   1.112   3.536   0.055
 2716TIP3    H2 8092   1.096   3.386   0.068
 2717TIP3   OH2 8093   1.937   6.672   1.633
 2717TIP3    H1 8094   2.021   6.663   1.590
 2717TIP3    H2 8095   1.898   6.585   1.628
 2718TIP3   OH2 8096   0.083   7.326   0.639
 2718TIP3    H1 8097   0.060   7.295   0.727
 2718TIP3    H2 8098   0.022   7.398   0.624
 2719TIP3   OH2 8099   2.615   0.708   4.588
 2719TIP3    H1 8100   2.661   0.791   4.574
 2719TIP3    H2 8101   2.536   0.731   4.636
 2720TIP3   OH2 8102   6.186   7.173   5.070
 2720TIP3    H1 8103   6.196   7.258   5.114
 2720TIP3    H2 8104   6.274   7.135   5.069
 2721TIP3   OH2 8105   3.214   5.162   3.840
 2721TIP3    H1 8106   3.198   5.068   3.830
 2721TIP3    H2 8107   3.127   5.201   3.847
 2722TIP3   OH2 8108   2.117   2.703   6.683
 2722TIP3    H1 8109   2.067   2.783   6.665
 2722TIP3    H2 8110   2.086   2.673   6.768
 2723TIP3   OH2 8111   1.171   0.809   1.542
 2723TIP3    H1 8112   1.168   0.715   1.560
 2723TIP3    H2 8113   1.223   0.817   1.462
 2724TIP3   OH2 8114   7.502   5.571   1.875
 2724TIP3    H1 8115   7.439   5.519   1.925
 2724TIP3    H2 8116   7.458   5.655   1.862
 2725TIP3   OH2 8117   5.558   2.608   3.467
 2725TIP3    H1 8118   5.631   2.654   3.424
 2725TIP3    H2 8119   5.564   2.635   3.559
 2726TIP3   OH2 8120   8.084   1.110   2.564
 2726TIP3    H1 8121   8.141   1.038   2.538
 2726TIP3    H2 8122   8.072   1.162   2.485
 2727TIP3   OH2 8123   7.187   2.669   3.484
 2727TIP3    H1 8124   7.119   2.676   3.416
 2727TIP3    H2 8125   7.140   2.642   3.562
 2728TIP3   OH2 8126   6.907   3.887   5.077
 2728TIP3    H1 8127   7.003   3.885   5.076
 2728TIP3    H2 8128   6.883   3.894   4.985
 2729TIP3   OH2 8129   3.954   3.014   0.489
 2729TIP3    H1 8130   3.934   3.089   0.432
 2729TIP3    H2 8131   4.049   3.012   0.493
 2730TIP3   OH2 8132   7.838   2.450   6.244
 2730TIP3    H1 8133   7.911   2.431   6.304
 2730TIP3    H2 8134   7.839   2.546   6.235
 2731TIP3   OH2 8135   0.332   6.111   1.012
 2731TIP3    H1 8136   0.295   6.194   0.982
 2731TIP3    H2 8137   0.334   6.056   0.933
 2732TIP3   OH2 8138   0.468   5.449   3.929
 2732TIP3    H1 8139   0.416   5.487   3.858
 2732TIP3    H2 8140   0.531   5.518   3.952
 2733TIP3   OH2 8141   7.718   4.147   3.148
 2733TIP3    H1 8142   7.740   4.104   3.230
 2733TIP3    H2 8143   7.779   4.109   3.084
 2734TIP3   OH2 8144   6.670   4.582   0.157
 2734TIP3    H1 8145   6.703   4.560   0.070
 2734TIP3    H2 8146   6.593   4.636   0.140
 2735TIP3   OH2 8147   7.005   0.562   6.779
 2735TIP3    H1 8148   6.978   0.501   6.710
 2735TIP3    H2 8149   7.099   0.544   6.790
 2736TIP3   OH2 8150   1.092   2.328   0.336
 2736TIP3    H1 8151   1.074   2.265   0.267
 2736TIP3    H2 8152   1.107   2.274   0.414
 2737TIP3   OH2 8153   5.584   4.760   6.038
 2737TIP3    H1 8154   5.603   4.799   6.123
 2737TIP3    H2 8155   5.644   4.804   5.978
 2738TIP3   OH2 8156   5.862   2.246   4.692
 2738TIP3    H1 8157   5.953   2.232   4.667
 2738TIP3    H2 8158   5.828   2.306   4.625
 2739TIP3   OH2 8159   0.018   7.217   4.876
 2739TIP3    H1 8160   0.031   7.258   4.961
 2739TIP3    H2 8161  -0.071   7.242   4.851
 2740TIP3   OH2 8162   5.078   1.032   0.683
 2740TIP3    H1 8163   5.124   1.114   0.666
 2740TIP3    H2 8164   5.082   0.984   0.600
 2741TIP3   OH2 8165   7.045   5.893   0.032
 2741TIP3    H1 8166   6.999   5.939  -0.038
 2741TIP3    H2 8167   7.015   5.936   0.113
 2742TIP3   OH2 8168   7.017   2.626   3.699
 2742TIP3    H1 8169   6.925   2.636   3.674
 2742TIP3    H2 8170   7.015   2.594   3.789
 2743TIP3   OH2 8171   0.871   5.308   5.486
 2743TIP3    H1 8172   0.830   5.394   5.480
 2743TIP3    H2 8173   0.864   5.272   5.398
 2744TIP3   OH2 8174   7.175   0.869   3.669
 2744TIP3    H1 8175   7.095   0.894   3.717
 2744TIP3    H2 8176   7.164   0.776   3.651
 2745TIP3   OH2 8177   3.943   6.451   6.198
 2745TIP3    H1 8178   3.922   6.374   6.147
 2745TIP3    H2 8179   4.025   6.429   6.243
 2746TIP3   OH2 8180   5.695   7.005   1.050
 2746TIP3    H1 8181   5.622   6.972   1.102
 2746TIP3    H2 8182   5.764   6.940   1.060
 2747TIP3   OH2 8183   7.613   3.792   0.210
 2747TIP3    H1 8184   7.695   3.799   0.160
 2747TIP3    H2 8185   7.594   3.882   0.236
 2748TIP3   OH2 8186   1.429   6.912   1.604
 2748TIP3    H1 8187   1.424   6.962   1.523
 2748TIP3    H2 8188   1.490   6.841   1.585
 2749TIP3   OH2 8189   1.547   2.421   1.039
 2749TIP3    H1 8190   1.585   2.449   0.956
 2749TIP3    H2 8191   1.556   2.325   1.039
 2750TIP3   OH2 8192   6.771   0.196   4.381
 2750TIP3    H1 8193   6.810   0.201   4.294
 2750TIP3    H2 8194   6.721   0.114   4.380
 2751TIP3   OH2 8195   7.109   1.198   0.564
 2751TIP3    H1 8196   7.020   1.224   0.586
 2751TIP3    H2 8197   7.111   1.194   0.468
 2752TIP3   OH2 8198   7.306   4.905   4.192
 2752TIP3    H1 8199   7.368   4.853   4.244
 2752TIP3    H2 8200   7.341   4.994   4.193
 2753TIP3   OH2 8201   7.787   0.295   5.011
 2753TIP3    H1 8202   7.696   0.287   5.040
 2753TIP3    H2 8203   7.794   0.385   4.977
 2754TIP3   OH2 8204   5.553   7.677   2.256
 2754TIP3    H1 8205   5.614   7.636   2.194
 2754TIP3    H2 8206   5.500   7.736   2.201
 2755TIP3   OH2 8207   2.026   0.225   3.738
 2755TIP3    H1 8208   2.070   0.310   3.747
 2755TIP3    H2 8209   1.967   0.237   3.663
 2756TIP3   OH2 8210   6.168   3.968   2.248
 2756TIP3    H1 8211   6.075   3.947   2.249
 2756TIP3    H2 8212   6.181   4.022   2.326
 2757TIP3   OH2 8213   2.606   1.407   5.680
 2757TIP3    H1 8214   2.684   1.459   5.698
 2757TIP3    H2 8215   2.608   1.337   5.744
 2758TIP3   OH2 8216   3.592   1.381   0.123
 2758TIP3    H1 8217   3.668   1.400   0.067
 2758TIP3    H2 8218   3.549   1.308   0.079
 2759TIP3   OH2 8219   5.763   1.541   4.788
 2759TIP3    H1 8220   5.770   1.553   4.883
 2759TIP3    H2 8221   5.674   1.509   4.774
 2760TIP3   OH2 8222   4.806   7.155   3.657
 2760TIP3    H1 8223   4.815   7.207   3.577
 2760TIP3    H2 8224   4.740   7.089   3.635
 2761TIP3   OH2 8225   0.044   1.016   2.378
 2761TIP3    H1 8226   0.072   0.960   2.450
 2761TIP3    H2 8227   0.098   1.094   2.385
 2762TIP3   OH2 8228   6.061   2.865   4.026
 2762TIP3    H1 8229   6.155   2.852   4.015
 2762TIP3    H2 8230   6.036   2.922   3.953
 2763TIP3   OH2 8231   6.091   0.189   5.793
 2763TIP3    H1 8232   6.133   0.106   5.812
 2763TIP3    H2 8233   6.163   0.251   5.783
 2764TIP3   OH2 8234   1.814   0.810   1.010
 2764TIP3    H1 8235   1.808   0.718   1.036
 2764TIP3    H2 8236   1.795   0.811   0.916
 2765TIP3   OH2 8237   0.600   3.641   3.019
 2765TIP3    H1 8238   0.590   3.653   3.114
 2765TIP3    H2 8239   0.524   3.589   2.993
 2766TIP3   OH2 8240   1.060   6.242   6.555
 2766TIP3    H1 8241   1.114   6.294   6.495
 2766TIP3    H2 8242   1.022   6.173   6.500
 2767TIP3   OH2 8243   3.811   0.662   0.820
 2767TIP3    H1 8244   3.804   0.571   0.848
 2767TIP3    H2 8245   3.905   0.678   0.813
 2768TIP3   OH2 8246   1.040   3.961   4.381
 2768TIP3    H1 8247   1.134   3.970   4.400
 2768TIP3    H2 8248   1.002   4.044   4.409
 2769TIP3   OH2 8249   3.098   5.645   0.731
 2769TIP3    H1 8250   3.027   5.604   0.683
 2769TIP3    H2 8251   3.056   5.711   0.785
 2770TIP3   OH2 8252   6.077   4.977   4.734
 2770TIP3    H1 8253   6.085   5.067   4.704
 2770TIP3    H2 8254   6.051   4.984   4.825
 2771TIP3   OH2 8255   5.642   5.958   2.969
 2771TIP3    H1 8256   5.569   5.915   2.924
 2771TIP3    H2 8257   5.701   5.887   2.993
 2772TIP3   OH2 8258   8.123   4.161   4.342
 2772TIP3    H1 8259   8.068   4.199   4.411
 2772TIP3    H2 8260   8.103   4.068   4.344
 2773TIP3   OH2 8261   6.073   3.818   3.192
 2773TIP3    H1 8262   6.139   3.882   3.164
 2773TIP3    H2 8263   5.999   3.832   3.132
 2774TIP3   OH2 8264   0.766   6.667   5.595
 2774TIP3    H1 8265   0.715   6.748   5.595
 2774TIP3    H2 8266   0.742   6.624   5.513
 2775TIP3   OH2 8267   2.343   2.228   5.306
 2775TIP3    H1 8268   2.348   2.210   5.400
 2775TIP3    H2 8269   2.347   2.142   5.264
 2776TIP3   OH2 8270   3.062   2.386   6.279
 2776TIP3    H1 8271   3.066   2.396   6.374
 2776TIP3    H2 8272   3.146   2.346   6.256
 2777TIP3   OH2 8273   5.740   2.251   2.465
 2777TIP3    H1 8274   5.763   2.207   2.547
 2777TIP3    H2 8275   5.645   2.264   2.471
 2778TIP3   OH2 8276   2.259   1.984   4.248
 2778TIP3    H1 8277   2.263   2.033   4.329
 2778TIP3    H2 8278   2.349   1.955   4.232
 2779TIP3   OH2 8279   0.065   1.770   1.585
 2779TIP3    H1 8280   0.087   1.844   1.528
 2779TIP3    H2 8281   0.132   1.772   1.653
 2780TIP3   OH2 8282   6.328   2.371   2.767
 2780TIP3    H1 8283   6.262   2.338   2.706
 2780TIP3    H2 8284   6.411   2.366   2.719
 2781TIP3   OH2 8285   5.230   3.868   4.870
 2781TIP3    H1 8286   5.158   3.809   4.893
 2781TIP3    H2 8287   5.187   3.947   4.837
 2782TIP3   OH2 8288   6.294   5.287   6.436
 2782TIP3    H1 8289   6.365   5.256   6.492
 2782TIP3    H2 8290   6.339   5.334   6.365
 2783TIP3   OH2 8291   6.479   2.621   0.414
 2783TIP3    H1 8292   6.494   2.702   0.365
 2783TIP3    H2 8293   6.563   2.575   0.411
 2784TIP3   OH2 8294   3.017   6.690   3.038
 2784TIP3    H1 8295   3.040   6.616   2.982
 2784TIP3    H2 8296   3.098   6.741   3.044
 2785TIP3   OH2 8297   5.710   6.366   3.021
 2785TIP3    H1 8298   5.702   6.404   2.934
 2785TIP3    H2 8299   5.699   6.440   3.081
 2786TIP3   OH2 8300   6.711   3.757   4.459
 2786TIP3    H1 8301   6.750   3.682   4.415
 2786TIP3    H2 8302   6.643   3.788   4.399
 2787TIP3   OH2 8303   5.618   5.001   4.349
 2787TIP3    H1 8304   5.529   5.023   4.378
 2787TIP3    H2 8305   5.669   4.995   4.430
 2788TIP3   OH2 8306   5.794   5.840   0.753
 2788TIP3    H1 8307   5.726   5.867   0.815
 2788TIP3    H2 8308   5.787   5.902   0.680
 2789TIP3   OH2 8309   4.670   1.755   2.885
 2789TIP3    H1 8310   4.750   1.801   2.858
 2789TIP3    H2 8311   4.620   1.745   2.804
 2790TIP3   OH2 8312   2.207   5.500   2.674
 2790TIP3    H1 8313   2.262   5.569   2.711
 2790TIP3    H2 8314   2.123   5.510   2.719
 2791TIP3   OH2 8315   3.834   3.047   0.114
 2791TIP3    H1 8316   3.906   3.012   0.062
 2791TIP3    H2 8317   3.875   3.111   0.172
 2792TIP3   OH2 8318   0.247   6.643   2.055
 2792TIP3    H1 8319   0.265   6.727   2.012
 2792TIP3    H2 8320   0.321   6.631   2.115
 2793TIP3   OH2 8321   2.875   1.727   6.550
 2793TIP3    H1 8322   2.811   1.765   6.611
 2793TIP3    H2 8323   2.926   1.802   6.519
 2794TIP3   OH2 8324   6.268   3.707   5.416
 2794TIP3    H1 8325   6.324   3.634   5.442
 2794TIP3    H2 8326   6.188   3.694   5.466
 2795TIP3   OH2 8327   2.291   7.019   1.936
 2795TIP3    H1 8328   2.237   6.956   1.888
 2795TIP3    H2 8329   2.351   6.964   1.987
 2796TIP3   OH2 8330   0.424   2.253   5.433
 2796TIP3    H1 8331   0.331   2.228   5.436
 2796TIP3    H2 8332   0.427   2.322   5.366
 2797TIP3   OH2 8333   0.544   6.939   1.098
 2797TIP3    H1 8334   0.517   7.028   1.122
 2797TIP3    H2 8335   0.618   6.920   1.156
 2798TIP3   OH2 8336   2.339   5.136   3.114
 2798TIP3    H1 8337   2.289   5.106   3.038
 2798TIP3    H2 8338   2.336   5.062   3.175
 2799TIP3   OH2 8339   7.902   3.595   2.993
 2799TIP3    H1 8340   7.903   3.688   3.015
 2799TIP3    H2 8341   7.978   3.559   3.040
 2800TIP3   OH2 8342   3.301   4.368   5.980
 2800TIP3    H1 8343   3.344   4.452   5.992
 2800TIP3    H2 8344   3.370   4.310   5.946
 2801TIP3   OH2 8345   8.130   5.662   2.837
 2801TIP3    H1 8346   8.063   5.602   2.869
 2801TIP3    H2 8347   8.200   5.657   2.903
 2802TIP3   OH2 8348   3.087   4.448   2.100
 2802TIP3    H1 8349   3.155   4.386   2.126
 2802TIP3    H2 8350   3.056   4.486   2.182
 2803TIP3   OH2 8351   0.106   3.125   3.343
 2803TIP3    H1 8352   0.072   3.035   3.342
 2803TIP3    H2 8353   0.176   3.125   3.279
 2804TIP3   OH2 8354   3.488   2.593   2.440
 2804TIP3    H1 8355   3.556   2.587   2.508
 2804TIP3    H2 8356   3.521   2.537   2.369
 2805TIP3   OH2 8357   0.930   3.517   0.327
 2805TIP3    H1 8358   0.973   3.483   0.248
 2805TIP3    H2 8359   1.002   3.527   0.390
 2806TIP3   OH2 8360   7.633   1.300   5.652
 2806TIP3    H1 8361   7.671   1.273   5.735
 2806TIP3    H2 8362   7.620   1.395   5.661
 2807TIP3   OH2 8363   5.102   2.871   1.418
 2807TIP3    H1 8364   5.182   2.840   1.459
 2807TIP3    H2 8365   5.075   2.799   1.361
 2808TIP3   OH2 8366   7.231   2.442   6.189
 2808TIP3    H1 8367   7.169   2.382   6.230
 2808TIP3    H2 8368   7.190   2.465   6.105
 2809TIP3   OH2 8369   6.062   4.719   5.410
 2809TIP3    H1 8370   6.137   4.671   5.374
 2809TIP3    H2 8371   6.056   4.688   5.501
 2810TIP3   OH2 8372   6.473   7.777   3.831
 2810TIP3    H1 8373   6.556   7.748   3.794
 2810TIP3    H2 8374   6.411   7.771   3.758
 2811TIP3   OH2 8375   5.378   7.240   3.158
 2811TIP3    H1 8376   5.327   7.169   3.119
 2811TIP3    H2 8377   5.318   7.315   3.156
 2812TIP3   OH2 8378   2.541   3.723   4.650
 2812TIP3    H1 8379   2.480   3.675   4.595
 2812TIP3    H2 8380   2.549   3.669   4.729
 2813TIP3   OH2 8381   8.051   0.576   5.059
 2813TIP3    H1 8382   8.002   0.593   4.978
 2813TIP3    H2 8383   8.069   0.482   5.056
 2814TIP3   OH2 8384   5.729   7.098   2.854
 2814TIP3    H1 8385   5.649   7.143   2.883
 2814TIP3    H2 8386   5.786   7.168   2.824
 2815TIP3   OH2 8387   4.657   2.838   1.509
 2815TIP3    H1 8388   4.677   2.789   1.588
 2815TIP3    H2 8389   4.567   2.813   1.487
 2816TIP3   OH2 8390   5.707   7.622   5.177
 2816TIP3    H1 8391   5.768   7.676   5.227
 2816TIP3    H2 8392   5.713   7.654   5.088
 2817TIP3   OH2 8393   1.098   5.587   6.009
 2817TIP3    H1 8394   1.078   5.642   6.085
 2817TIP3    H2 8395   1.094   5.647   5.935
 2818TIP3   OH2 8396   6.808   1.272   1.079
 2818TIP3    H1 8397   6.813   1.362   1.112
 2818TIP3    H2 8398   6.769   1.222   1.151
 2819TIP3   OH2 8399   4.311   4.092   0.211
 2819TIP3    H1 8400   4.307   4.080   0.306
 2819TIP3    H2 8401   4.403   4.107   0.192
 2820TIP3   OH2 8402   7.242   2.557   5.523
 2820TIP3    H1 8403   7.192   2.608   5.588
 2820TIP3    H2 8404   7.308   2.618   5.491
 2821TIP3   OH2 8405   5.018   3.489   4.817
 2821TIP3    H1 8406   5.111   3.470   4.830
 2821TIP3    H2 8407   4.973   3.432   4.880
 2822TIP3   OH2 8408   2.233   0.060   4.399
 2822TIP3    H1 8409   2.171   0.133   4.399
 2822TIP3    H2 8410   2.316   0.100   4.372
 2823TIP3   OH2 8411   3.281   2.529   6.045
 2823TIP3    H1 8412   3.362   2.568   6.076
 2823TIP3    H2 8413   3.241   2.490   6.124
 2824TIP3   OH2 8414   7.063   3.750   0.860
 2824TIP3    H1 8415   6.983   3.713   0.896
 2824TIP3    H2 8416   7.133   3.696   0.895
 2825TIP3   OH2 8417   3.998   0.763   2.467
 2825TIP3    H1 8418   3.932   0.722   2.523
 2825TIP3    H2 8419   4.071   0.702   2.464
 2826TIP3   OH2 8420   5.419   1.042   3.434
 2826TIP3    H1 8421   5.503   1.041   3.389
 2826TIP3    H2 8422   5.354   1.040   3.363
 2827TIP3   OH2 8423   2.539   2.175   6.089
 2827TIP3    H1 8424   2.534   2.199   6.181
 2827TIP3    H2 8425   2.535   2.259   6.042
 2828TIP3   OH2 8426   1.990   2.682   5.803
 2828TIP3    H1 8427   1.949   2.709   5.721
 2828TIP3    H2 8428   2.054   2.751   5.822
 2829TIP3   OH2 8429   4.874   0.722   5.890
 2829TIP3    H1 8430   4.901   0.784   5.822
 2829TIP3    H2 8431   4.786   0.751   5.915
 2830TIP3   OH2 8432   2.277   5.623   3.947
 2830TIP3    H1 8433   2.227   5.580   4.016
 2830TIP3    H2 8434   2.223   5.616   3.869
 2831TIP3   OH2 8435   7.735   3.399   2.302
 2831TIP3    H1 8436   7.691   3.347   2.369
 2831TIP3    H2 8437   7.718   3.350   2.221
 2832TIP3   OH2 8438   4.745   2.476   0.831
 2832TIP3    H1 8439   4.717   2.407   0.891
 2832TIP3    H2 8440   4.664   2.508   0.791
 2833TIP3   OH2 8441   3.872   0.971   1.871
 2833TIP3    H1 8442   3.852   0.988   1.963
 2833TIP3    H2 8443   3.831   0.887   1.852
 2834TIP3   OH2 8444   7.233   0.521   5.631
 2834TIP3    H1 8445   7.207   0.433   5.656
 2834TIP3    H2 8446   7.185   0.538   5.550
 2835TIP3   OH2 8447   6.736   3.895   2.692
 2835TIP3    H1 8448   6.784   3.978   2.692
 2835TIP3    H2 8449   6.704   3.885   2.603
 2836TIP3   OH2 8450   6.531   7.039   3.907
 2836TIP3    H1 8451   6.533   7.129   3.874
 2836TIP3    H2 8452   6.564   6.986   3.835
 2837TIP3   OH2 8453   8.229   2.679   5.430
 2837TIP3    H1 8454   8.247   2.679   5.524
 2837TIP3    H2 8455   8.286   2.611   5.394
 2838TIP3   OH2 8456   4.791   4.332   0.224
 2838TIP3    H1 8457   4.790   4.387   0.302
 2838TIP3    H2 8458   4.880   4.337   0.191
 2839TIP3   OH2 8459   1.246   0.085   5.673
 2839TIP3    H1 8460   1.225   0.176   5.654
 2839TIP3    H2 8461   1.182   0.034   5.623
 2840TIP3   OH2 8462   0.386   7.142   1.409
 2840TIP3    H1 8463   0.423   7.170   1.326
 2840TIP3    H2 8464   0.357   7.052   1.393
 2841TIP3   OH2 8465   7.541   7.142   2.267
 2841TIP3    H1 8466   7.464   7.183   2.228
 2841TIP3    H2 8467   7.532   7.160   2.361
 2842TIP3   OH2 8468   7.288   6.806   6.504
 2842TIP3    H1 8469   7.318   6.801   6.413
 2842TIP3    H2 8470   7.297   6.717   6.537
 2843TIP3   OH2 8471   2.072   6.641   2.793
 2843TIP3    H1 8472   2.035   6.588   2.864
 2843TIP3    H2 8473   2.164   6.652   2.817
 2844TIP3   OH2 8474   4.984   1.825   2.509
 2844TIP3    H1 8475   4.971   1.772   2.431
 2844TIP3    H2 8476   4.985   1.915   2.477
 2845TIP3   OH2 8477   2.318   0.634   1.615
 2845TIP3    H1 8478   2.290   0.581   1.689
 2845TIP3    H2 8479   2.293   0.583   1.538
 2846TIP3   OH2 8480   5.675   0.012   3.521
 2846TIP3    H1 8481   5.604  -0.049   3.540
 2846TIP3    H2 8482   5.645   0.061   3.444
 2847TIP3   OH2 8483   2.672   4.731   3.150
 2847TIP3    H1 8484   2.606   4.708   3.215
 2847TIP3    H2 8485   2.684   4.825   3.159
 2848TIP3   OH2 8486   2.414   6.913   6.140
 2848TIP3    H1 8487   2.383   6.966   6.066
 2848TIP3    H2 8488   2.506   6.938   6.150
 2849TIP3   OH2 8489   3.062   4.988   5.766
 2849TIP3    H1 8490   3.122   4.919   5.796
 2849TIP3    H2 8491   2.978   4.966   5.806
 2850TIP3   OH2 8492   8.289   3.520   0.994
 2850TIP3    H1 8493   8.222   3.573   0.951
 2850TIP3    H2 8494   8.300   3.562   1.080
 2851TIP3   OH2 8495   0.177   3.689   5.741
 2851TIP3    H1 8496   0.092   3.731   5.750
 2851TIP3    H2 8497   0.201   3.664   5.830
 2852TIP3   OH2 8498   5.617   6.430   1.414
 2852TIP3    H1 8499   5.559   6.429   1.490
 2852TIP3    H2 8500   5.682   6.361   1.432
 2853TIP3   OH2 8501   5.564   2.455   4.103
 2853TIP3    H1 8502   5.573   2.360   4.093
 2853TIP3    H2 8503   5.643   2.482   4.150
 2854TIP3   OH2 8504   4.734   3.954   1.150
 2854TIP3    H1 8505   4.766   3.991   1.068
 2854TIP3    H2 8506   4.646   3.990   1.160
 2855TIP3   OH2 8507   7.439   6.181   3.031
 2855TIP3    H1 8508   7.411   6.096   3.065
 2855TIP3    H2 8509   7.533   6.170   3.015
 2856TIP3   OH2 8510   0.913   6.321   5.238
 2856TIP3    H1 8511   0.946   6.237   5.269
 2856TIP3    H2 8512   0.866   6.300   5.157
 2857TIP3   OH2 8513   5.066   2.073   5.641
 2857TIP3    H1 8514   5.068   2.110   5.553
 2857TIP3    H2 8515   4.998   2.005   5.637
 2858TIP3   OH2 8516   2.105   1.670   1.667
 2858TIP3    H1 8517   2.020   1.699   1.635
 2858TIP3    H2 8518   2.155   1.649   1.588
 2859TIP3   OH2 8519   0.112   4.472   2.465
 2859TIP3    H1 8520   0.126   4.526   2.543
 2859TIP3    H2 8521   0.197   4.430   2.450
 2860TIP3   OH2 8522   3.022   7.114   1.177
 2860TIP3    H1 8523   2.970   7.052   1.228
 2860TIP3    H2 8524   3.048   7.065   1.099
 2861TIP3   OH2 8525   2.055   1.370   1.833
 2861TIP3    H1 8526   2.028   1.367   1.742
 2861TIP3    H2 8527   2.146   1.343   1.833
 2862TIP3   OH2 8528   5.654   7.043   4.474
 2862TIP3    H1 8529   5.688   7.039   4.563
 2862TIP3    H2 8530   5.699   6.973   4.428
 2863TIP3   OH2 8531   2.200   4.027   3.774
 2863TIP3    H1 8532   2.294   4.046   3.765
 2863TIP3    H2 8533   2.157   4.111   3.761
 2864TIP3   OH2 8534   6.948   0.632   4.284
 2864TIP3    H1 8535   6.892   0.710   4.290
 2864TIP3    H2 8536   6.996   0.643   4.202
 2865TIP3   OH2 8537   0.803   1.380   5.531
 2865TIP3    H1 8538   0.879   1.401   5.585
 2865TIP3    H2 8539   0.744   1.334   5.590
 2866TIP3   OH2 8540   3.232   5.542   4.842
 2866TIP3    H1 8541   3.256   5.483   4.770
 2866TIP3    H2 8542   3.139   5.524   4.857
 2867TIP3   OH2 8543   0.148   6.743   5.842
 2867TIP3    H1 8544   0.191   6.727   5.926
 2867TIP3    H2 8545   0.180   6.829   5.814
 2868TIP3   OH2 8546   0.179   5.221   1.156
 2868TIP3    H1 8547   0.122   5.292   1.184
 2868TIP3    H2 8548   0.259   5.265   1.126
 2869TIP3   OH2 8549   2.344   4.204   2.720
 2869TIP3    H1 8550   2.375   4.148   2.792
 2869TIP3    H2 8551   2.423   4.247   2.687
 2870TIP3   OH2 8552   4.751   2.070   0.712
 2870TIP3    H1 8553   4.752   2.052   0.806
 2870TIP3    H2 8554   4.747   1.984   0.671
 2871TIP3   OH2 8555   2.955   7.136   4.303
 2871TIP3    H1 8556   2.975   7.219   4.259
 2871TIP3    H2 8557   3.035   7.084   4.295
 2872TIP3   OH2 8558   0.788   0.111   1.657
 2872TIP3    H1 8559   0.740   0.038   1.618
 2872TIP3    H2 8560   0.738   0.188   1.632
 2873TIP3   OH2 8561   4.079   7.351   4.663
 2873TIP3    H1 8562   4.128   7.271   4.682
 2873TIP3    H2 8563   4.017   7.359   4.736
 2874TIP3   OH2 8564   1.668   7.857   2.423
 2874TIP3    H1 8565   1.580   7.879   2.392
 2874TIP3    H2 8566   1.654   7.824   2.512
 2875TIP3   OH2 8567   0.677   2.998   1.059
 2875TIP3    H1 8568   0.628   3.021   1.138
 2875TIP3    H2 8569   0.656   3.068   0.997
 2876TIP3   OH2 8570   6.370   3.094   0.963
 2876TIP3    H1 8571   6.286   3.134   0.985
 2876TIP3    H2 8572   6.360   3.068   0.871
 2877TIP3   OH2 8573   4.625   5.981   1.009
 2877TIP3    H1 8574   4.714   5.998   0.979
 2877TIP3    H2 8575   4.629   5.992   1.104
 2878TIP3   OH2 8576   7.515   4.350   2.941
 2878TIP3    H1 8577   7.593   4.405   2.939
 2878TIP3    H2 8578   7.451   4.396   2.887
 2879TIP3   OH2 8579   4.508   4.928   4.562
 2879TIP3    H1 8580   4.453   4.894   4.492
 2879TIP3    H2 8581   4.473   5.015   4.581
 2880TIP3   OH2 8582   2.089   6.916   5.874
 2880TIP3    H1 8583   2.176   6.947   5.900
 2880TIP3    H2 8584   2.077   6.952   5.786
 2881TIP3   OH2 8585   3.484   3.775   1.935
 2881TIP3    H1 8586   3.565   3.809   1.895
 2881TIP3    H2 8587   3.473   3.689   1.895
 2882TIP3   OH2 8588   3.639   0.338   4.177
 2882TIP3    H1 8589   3.607   0.321   4.266
 2882TIP3    H2 8590   3.668   0.252   4.145
 2883TIP3   OH2 8591   2.814   3.416   3.760
 2883TIP3    H1 8592   2.813   3.420   3.664
 2883TIP3    H2 8593   2.730   3.378   3.783
 2884TIP3   OH2 8594   4.545   5.289   0.241
 2884TIP3    H1 8595   4.594   5.337   0.174
 2884TIP3    H2 8596   4.564   5.197   0.223
 2885TIP3   OH2 8597   1.074   7.712   6.188
 2885TIP3    H1 8598   1.160   7.753   6.180
 2885TIP3    H2 8599   1.018   7.762   6.129
 2886TIP3   OH2 8600   4.496   7.205   0.333
 2886TIP3    H1 8601   4.574   7.154   0.351
 2886TIP3    H2 8602   4.461   7.167   0.252
 2887TIP3   OH2 8603   7.777   7.596   5.945
 2887TIP3    H1 8604   7.786   7.506   5.915
 2887TIP3    H2 8605   7.696   7.626   5.904
 2888TIP3   OH2 8606   7.935   4.807   5.224
 2888TIP3    H1 8607   7.950   4.714   5.206
 2888TIP3    H2 8608   7.867   4.808   5.291
 2889TIP3   OH2 8609   4.008   0.725   1.287
 2889TIP3    H1 8610   3.951   0.655   1.256
 2889TIP3    H2 8611   3.975   0.745   1.375
 2890TIP3   OH2 8612   4.653   1.205   2.992
 2890TIP3    H1 8613   4.696   1.136   3.042
 2890TIP3    H2 8614   4.636   1.274   3.056
 2891TIP3   OH2 8615   6.117   1.075   3.298
 2891TIP3    H1 8616   6.111   1.120   3.382
 2891TIP3    H2 8617   6.087   0.986   3.317
 2892TIP3   OH2 8618   5.329   2.311   2.845
 2892TIP3    H1 8619   5.261   2.378   2.850
 2892TIP3    H2 8620   5.336   2.291   2.752
 2893TIP3   OH2 8621   7.278   1.014   1.026
 2893TIP3    H1 8622   7.340   1.017   1.099
 2893TIP3    H2 8623   7.249   1.105   1.016
 2894TIP3   OH2 8624   4.316   6.933   3.504
 2894TIP3    H1 8625   4.354   6.860   3.454
 2894TIP3    H2 8626   4.244   6.964   3.449
 2895TIP3   OH2 8627   5.233   3.889   0.606
 2895TIP3    H1 8628   5.218   3.818   0.667
 2895TIP3    H2 8629   5.169   3.956   0.630
 2896TIP3   OH2 8630   1.403   1.607   0.255
 2896TIP3    H1 8631   1.406   1.549   0.330
 2896TIP3    H2 8632   1.456   1.683   0.281
 2897TIP3   OH2 8633   5.865   6.365   2.736
 2897TIP3    H1 8634   5.899   6.447   2.773
 2897TIP3    H2 8635   5.775   6.386   2.712
 2898TIP3   OH2 8636   7.486   2.172   4.979
 2898TIP3    H1 8637   7.542   2.242   4.944
 2898TIP3    H2 8638   7.482   2.190   5.073
 2899TIP3   OH2 8639   3.243   6.570   4.770
 2899TIP3    H1 8640   3.177   6.511   4.806
 2899TIP3    H2 8641   3.230   6.567   4.675
 2900TIP3   OH2 8642   7.064   0.853   5.232
 2900TIP3    H1 8643   6.980   0.887   5.262
 2900TIP3    H2 8644   7.043   0.769   5.191
 2901TIP3   OH2 8645   3.958   6.980   6.474
 2901TIP3    H1 8646   4.019   6.912   6.503
 2901TIP3    H2 8647   3.983   7.058   6.523
 2902TIP3   OH2 8648   5.088   3.666   1.635
 2902TIP3    H1 8649   5.108   3.635   1.547
 2902TIP3    H2 8650   5.010   3.617   1.661
 2903TIP3   OH2 8651   7.324   0.157   5.440
 2903TIP3    H1 8652   7.268   0.234   5.429
 2903TIP3    H2 8653   7.318   0.135   5.533
 2904TIP3   OH2 8654   0.918   7.689   2.455
 2904TIP3    H1 8655   0.848   7.753   2.457
 2904TIP3    H2 8656   0.905   7.642   2.372
 2905TIP3   OH2 8657   1.517   1.933   4.701
 2905TIP3    H1 8658   1.573   1.905   4.774
 2905TIP3    H2 8659   1.574   1.991   4.649
 2906TIP3   OH2 8660   0.403   3.770   2.440
 2906TIP3    H1 8661   0.422   3.830   2.512
 2906TIP3    H2 8662   0.318   3.732   2.461
 2907TIP3   OH2 8663   4.094   6.592   5.840
 2907TIP3    H1 8664   4.029   6.527   5.814
 2907TIP3    H2 8665   4.162   6.543   5.884
 2908TIP3   OH2 8666   5.395   1.617   3.672
 2908TIP3    H1 8667   5.405   1.634   3.766
 2908TIP3    H2 8668   5.329   1.547   3.668
 2909TIP3   OH2 8669   3.806   4.955   6.124
 2909TIP3    H1 8670   3.850   4.993   6.200
 2909TIP3    H2 8671   3.750   5.025   6.091
 2910TIP3   OH2 8672   4.326   7.094   5.627
 2910TIP3    H1 8673   4.321   7.138   5.712
 2910TIP3    H2 8674   4.369   7.157   5.570
 2911TIP3   OH2 8675   5.627   2.650   2.132
 2911TIP3    H1 8676   5.717   2.683   2.139
 2911TIP3    H2 8677   5.621   2.618   2.042
 2912TIP3   OH2 8678   1.380   5.962   4.845
 2912TIP3    H1 8679   1.343   5.876   4.867
 2912TIP3    H2 8680   1.358   6.017   4.921
 2913TIP3   OH2 8681   2.706   5.192   6.089
 2913TIP3    H1 8682   2.639   5.260   6.073
 2913TIP3    H2 8683   2.667   5.137   6.157
 2914TIP3   OH2 8684   1.172   2.790   5.669
 2914TIP3    H1 8685   1.080   2.803   5.693
 2914TIP3    H2 8686   1.170   2.728   5.596
 2915TIP3   OH2 8687   7.972   2.649   1.988
 2915TIP3    H1 8688   7.895   2.610   2.030
 2915TIP3    H2 8689   7.982   2.601   1.906
 2916TIP3   OH2 8690   0.488   2.653   4.955
 2916TIP3    H1 8691   0.526   2.684   4.873
 2916TIP3    H2 8692   0.538   2.698   5.023
 2917TIP3   OH2 8693   4.074   0.413   2.092
 2917TIP3    H1 8694   4.038   0.327   2.112
 2917TIP3    H2 8695   4.003   0.459   2.047
 2918TIP3   OH2 8696   7.220   7.822   6.320
 2918TIP3    H1 8697   7.282   7.749   6.325
 2918TIP3    H2 8698   7.211   7.851   6.411
 2919TIP3   OH2 8699   3.307   0.753   4.458
 2919TIP3    H1 8700   3.277   0.783   4.544
 2919TIP3    H2 8701   3.230   0.710   4.420
 2920TIP3   OH2 8702   7.201   1.484   1.820
 2920TIP3    H1 8703   7.204   1.579   1.807
 2920TIP3    H2 8704   7.279   1.464   1.871
 2921TIP3   OH2 8705   2.799   4.295   0.390
 2921TIP3    H1 8706   2.886   4.255   0.381
 2921TIP3    H2 8707   2.738   4.222   0.381
 2922TIP3   OH2 8708   0.379   2.039   3.623
 2922TIP3    H1 8709   0.459   2.056   3.673
 2922TIP3    H2 8710   0.407   2.046   3.531
 2923TIP3   OH2 8711   2.862   6.888   4.030
 2923TIP3    H1 8712   2.817   6.936   4.100
 2923TIP3    H2 8713   2.818   6.803   4.027
 2924TIP3   OH2 8714   1.293   1.881   0.629
 2924TIP3    H1 8715   1.275   1.904   0.720
 2924TIP3    H2 8716   1.220   1.919   0.580
 2925TIP3   OH2 8717   3.593   7.376   3.142
 2925TIP3    H1 8718   3.521   7.321   3.112
 2925TIP3    H2 8719   3.552   7.439   3.201
 2926TIP3   OH2 8720   3.487   1.202   0.421
 2926TIP3    H1 8721   3.574   1.173   0.449
 2926TIP3    H2 8722   3.437   1.209   0.502
 2927TIP3   OH2 8723   2.367   2.239   5.572
 2927TIP3    H1 8724   2.436   2.270   5.631
 2927TIP3    H2 8725   2.297   2.303   5.582
 2928TIP3   OH2 8726   2.857   0.785   2.468
 2928TIP3    H1 8727   2.865   0.794   2.373
 2928TIP3    H2 8728   2.781   0.729   2.481
 2929TIP3   OH2 8729   4.825   5.450   2.515
 2929TIP3    H1 8730   4.785   5.535   2.530
 2929TIP3    H2 8731   4.855   5.453   2.424
 2930TIP3   OH2 8732   2.796   3.080   6.075
 2930TIP3    H1 8733   2.773   3.148   6.013
 2930TIP3    H2 8734   2.754   3.106   6.157
 2931TIP3   OH2 8735   0.183   3.065   4.638
 2931TIP3    H1 8736   0.097   3.083   4.600
 2931TIP3    H2 8737   0.236   3.038   4.563
 2932TIP3   OH2 8738   0.257   7.710   4.477
 2932TIP3    H1 8739   0.263   7.643   4.409
 2932TIP3    H2 8740   0.347   7.722   4.507
 2933TIP3   OH2 8741   1.408   3.595   4.456
 2933TIP3    H1 8742   1.444   3.524   4.403
 2933TIP3    H2 8743   1.420   3.673   4.403
 2934TIP3   OH2 8744   6.323   7.526   4.104
 2934TIP3    H1 8745   6.319   7.560   4.193
 2934TIP3    H2 8746   6.411   7.489   4.096
 2935TIP3   OH2 8747   1.283   2.656   4.029
 2935TIP3    H1 8748   1.212   2.720   4.019
 2935TIP3    H2 8749   1.352   2.704   4.075
 2936TIP3   OH2 8750   3.565   0.001   5.089
 2936TIP3    H1 8751   3.551   0.072   5.151
 2936TIP3    H2 8752   3.554  -0.079   5.140
 2937TIP3   OH2 8753   3.563   0.291   4.428
 2937TIP3    H1 8754   3.623   0.227   4.467
 2937TIP3    H2 8755   3.586   0.373   4.471
 2938TIP3   OH2 8756   6.307   2.950   0.726
 2938TIP3    H1 8757   6.327   3.007   0.652
 2938TIP3    H2 8758   6.214   2.930   0.715
 2939TIP3   OH2 8759   8.238   4.133   1.222
 2939TIP3    H1 8760   8.206   4.044   1.232
 2939TIP3    H2 8761   8.276   4.155   1.307
 2940TIP3   OH2 8762   0.477   3.348   5.044
 2940TIP3    H1 8763   0.388   3.374   5.020
 2940TIP3    H2 8764   0.532   3.420   5.014
 2941TIP3   OH2 8765   5.862   3.442   1.944
 2941TIP3    H1 8766   5.881   3.386   1.869
 2941TIP3    H2 8767   5.920   3.410   2.014
 2942TIP3   OH2 8768   1.352   2.160   3.043
 2942TIP3    H1 8769   1.429   2.198   3.084
 2942TIP3    H2 8770   1.280   2.215   3.071
 2943TIP3   OH2 8771   8.071   7.667   5.903
 2943TIP3    H1 8772   7.991   7.616   5.892
 2943TIP3    H2 8773   8.044   7.746   5.949
 2944TIP3   OH2 8774   6.790   6.921   3.262
 2944TIP3    H1 8775   6.742   6.942   3.181
 2944TIP3    H2 8776   6.820   7.005   3.295
 2945TIP3   OH2 8777   5.362   6.871   3.345
 2945TIP3    H1 8778   5.278   6.872   3.300
 2945TIP3    H2 8779   5.355   6.940   3.410
 2946TIP3   OH2 8780   7.661   6.878   5.351
 2946TIP3    H1 8781   7.617   6.901   5.432
 2946TIP3    H2 8782   7.713   6.955   5.329
 2947TIP3   OH2 8783   4.839   7.083   6.141
 2947TIP3    H1 8784   4.790   7.155   6.180
 2947TIP3    H2 8785   4.931   7.107   6.154
 2948TIP3   OH2 8786   5.102   7.170   2.838
 2948TIP3    H1 8787   5.009   7.178   2.862
 2948TIP3    H2 8788   5.110   7.219   2.756
 2949TIP3   OH2 8789   5.430   5.048   1.803
 2949TIP3    H1 8790   5.392   5.009   1.882
 2949TIP3    H2 8791   5.474   5.127   1.835
 2950TIP3   OH2 8792   0.653   6.494   5.898
 2950TIP3    H1 8793   0.702   6.508   5.817
 2950TIP3    H2 8794   0.561   6.496   5.872
 2951TIP3   OH2 8795   5.187   1.151   1.790
 2951TIP3    H1 8796   5.168   1.058   1.801
 2951TIP3    H2 8797   5.260   1.153   1.727
 2952TIP3   OH2 8798   2.452   7.346   4.336
 2952TIP3    H1 8799   2.530   7.337   4.390
 2952TIP3    H2 8800   2.454   7.270   4.277
 2953TIP3   OH2 8801   2.304   5.369   4.854
 2953TIP3    H1 8802   2.336   5.320   4.929
 2953TIP3    H2 8803   2.372   5.434   4.837
 2954TIP3   OH2 8804   4.168   3.272   5.088
 2954TIP3    H1 8805   4.187   3.182   5.063
 2954TIP3    H2 8806   4.182   3.322   5.008
 2955TIP3   OH2 8807   2.417   3.959   4.339
 2955TIP3    H1 8808   2.467   3.881   4.365
 2955TIP3    H2 8809   2.443   3.974   4.248
 2956TIP3   OH2 8810   5.104   2.068   2.857
 2956TIP3    H1 8811   5.122   2.162   2.860
 2956TIP3    H2 8812   5.162   2.031   2.924
 2957TIP3   OH2 8813   0.588   3.576   2.684
 2957TIP3    H1 8814   0.501   3.566   2.644
 2957TIP3    H2 8815   0.606   3.670   2.679
 2958TIP3   OH2 8816   8.145   6.882   0.972
 2958TIP3    H1 8817   8.178   6.816   0.911
 2958TIP3    H2 8818   8.079   6.930   0.922
 2959TIP3   OH2 8819   6.768   7.354   5.505
 2959TIP3    H1 8820   6.761   7.260   5.523
 2959TIP3    H2 8821   6.704   7.370   5.435
 2960TIP3   OH2 8822   3.891   0.156   5.002
 2960TIP3    H1 8823   3.853   0.243   5.009
 2960TIP3    H2 8824   3.890   0.122   5.092
 2961TIP3   OH2 8825   2.938   6.762   1.772
 2961TIP3    H1 8826   2.928   6.778   1.866
 2961TIP3    H2 8827   2.848   6.753   1.740
 2962TIP3   OH2 8828   3.092   5.235   5.891
 2962TIP3    H1 8829   3.093   5.173   5.818
 2962TIP3    H2 8830   3.153   5.198   5.955
 2963TIP3   OH2 8831   2.639   6.031   5.996
 2963TIP3    H1 8832   2.618   5.952   6.046
 2963TIP3    H2 8833   2.568   6.092   6.017
 2964TIP3   OH2 8834   2.779   0.365   4.352
 2964TIP3    H1 8835   2.850   0.319   4.397
 2964TIP3    H2 8836   2.778   0.327   4.264
 2965TIP3   OH2 8837   7.744   0.562   4.947
 2965TIP3    H1 8838   7.653   0.566   4.975
 2965TIP3    H2 8839   7.779   0.650   4.965
 2966TIP3   OH2 8840   2.442   5.292   6.288
 2966TIP3    H1 8841   2.521   5.345   6.282
 2966TIP3    H2 8842   2.416   5.278   6.197
 2967TIP3   OH2 8843   2.554   3.345  -0.006
 2967TIP3    H1 8844   2.530   3.427   0.036
 2967TIP3    H2 8845   2.559   3.282   0.065
 2968TIP3   OH2 8846   3.167   1.020   0.484
 2968TIP3    H1 8847   3.092   1.039   0.428
 2968TIP3    H2 8848   3.240   1.007   0.423
 2969TIP3   OH2 8849   1.414   3.869   2.319
 2969TIP3    H1 8850   1.488   3.864   2.379
 2969TIP3    H2 8851   1.423   3.954   2.277
 2970TIP3   OH2 8852   3.864   7.041   3.578
 2970TIP3    H1 8853   3.777   7.009   3.559
 2970TIP3    H2 8854   3.893   6.992   3.654
 2971TIP3   OH2 8855   6.767   2.636   3.613
 2971TIP3    H1 8856   6.725   2.722   3.609
 2971TIP3    H2 8857   6.698   2.577   3.644
 2972TIP3   OH2 8858   6.621   1.540   3.672
 2972TIP3    H1 8859   6.712   1.566   3.685
 2972TIP3    H2 8860   6.602   1.563   3.582
 2973TIP3   OH2 8861   2.810   4.042   1.952
 2973TIP3    H1 8862   2.793   3.952   1.980
 2973TIP3    H2 8863   2.834   4.034   1.860
 2974TIP3   OH2 8864   6.918   4.983   2.683
 2974TIP3    H1 8865   6.989   4.940   2.730
 2974TIP3    H2 8866   6.894   5.058   2.737
 2975TIP3   OH2 8867   0.106   6.974   1.084
 2975TIP3    H1 8868   0.021   6.951   1.046
 2975TIP3    H2 8869   0.170   6.938   1.023
 2976TIP3   OH2 8870   0.370   0.330   1.079
 2976TIP3    H1 8871   0.295   0.388   1.070
 2976TIP3    H2 8872   0.351   0.256   1.021
 2977TIP3   OH2 8873   1.106   5.775   5.815
 2977TIP3    H1 8874   1.037   5.837   5.794
 2977TIP3    H2 8875   1.163   5.823   5.876
 2978TIP3   OH2 8876   5.756   4.517   1.325
 2978TIP3    H1 8877   5.764   4.598   1.377
 2978TIP3    H2 8878   5.668   4.485   1.346
 2979TIP3   OH2 8879   5.107   1.432   1.793
 2979TIP3    H1 8880   5.133   1.353   1.841
 2979TIP3    H2 8881   5.190   1.477   1.775
 2980TIP3   OH2 8882   6.830   0.279   1.327
 2980TIP3    H1 8883   6.871   0.284   1.413
 2980TIP3    H2 8884   6.759   0.343   1.331
 2981TIP3   OH2 8885   2.148   4.245   5.959
 2981TIP3    H1 8886   2.162   4.181   6.029
 2981TIP3    H2 8887   2.089   4.201   5.898
 2982TIP3   OH2 8888   4.679   5.457   1.642
 2982TIP3    H1 8889   4.730   5.532   1.612
 2982TIP3    H2 8890   4.589   5.477   1.618
 2983TIP3   OH2 8891   2.355   1.809   5.985
 2983TIP3    H1 8892   2.440   1.852   5.991
 2983TIP3    H2 8893   2.376   1.716   5.975
 2984TIP3   OH2 8894   1.925   7.415   2.629
 2984TIP3    H1 8895   1.859   7.351   2.603
 2984TIP3    H2 8896   1.882   7.469   2.695
 2985TIP3   OH2 8897   4.088   1.634   0.354
 2985TIP3    H1 8898   4.020   1.654   0.419
 2985TIP3    H2 8899   4.041   1.591   0.283
 2986TIP3   OH2 8900   3.749   0.109   5.478
 2986TIP3    H1 8901   3.699   0.106   5.397
 2986TIP3    H2 8902   3.725   0.029   5.525
 2987TIP3   OH2 8903   7.947   4.918   3.873
 2987TIP3    H1 8904   7.972   4.945   3.961
 2987TIP3    H2 8905   7.924   5.000   3.828
 2988TIP3   OH2 8906   4.965   7.519   0.725
 2988TIP3    H1 8907   4.926   7.599   0.760
 2988TIP3    H2 8908   5.027   7.550   0.659
 2989TIP3   OH2 8909   1.554   3.747   0.229
 2989TIP3    H1 8910   1.634   3.703   0.199
 2989TIP3    H2 8911   1.486   3.717   0.170
 2990TIP3   OH2 8912   1.128   4.076   1.491
 2990TIP3    H1 8913   1.098   4.125   1.415
 2990TIP3    H2 8914   1.214   4.113   1.512
 2991TIP3   OH2 8915   4.688   1.655   1.549
 2991TIP3    H1 8916   4.759   1.615   1.600
 2991TIP3    H2 8917   4.612   1.600   1.566
 2992TIP3   OH2 8918   6.491   5.552   5.570
 2992TIP3    H1 8919   6.544   5.613   5.519
 2992TIP3    H2 8920   6.520   5.565   5.661
 2993TIP3   OH2 8921   0.242   2.189   3.196
 2993TIP3    H1 8922   0.263   2.103   3.160
 2993TIP3    H2 8923   0.149   2.202   3.176
 2994TIP3   OH2 8924   3.491   5.250   6.231
 2994TIP3    H1 8925   3.526   5.161   6.237
 2994TIP3    H2 8926   3.523   5.282   6.147
 2995TIP3   OH2 8927   0.287   4.310   4.651
 2995TIP3    H1 8928   0.232   4.387   4.669
 2995TIP3    H2 8929   0.320   4.284   4.737
 2996TIP3   OH2 8930   7.904   7.384   3.688
 2996TIP3    H1 8931   7.920   7.375   3.594
 2996TIP3    H2 8932   7.985   7.423   3.722
 2997TIP3   OH2 8933   2.610   7.138   1.964
 2997TIP3    H1 8934   2.704   7.143   1.948
 2997TIP3    H2 8935   2.571   7.196   1.898
 2998TIP3   OH2 8936   4.807   4.116   5.046
 2998TIP3    H1 8937   4.786   4.075   5.131
 2998TIP3    H2 8938   4.839   4.044   4.992
 2999TIP3   OH2 8939   4.292   3.878   1.703
 2999TIP3    H1 8940   4.337   3.958   1.678
 2999TIP3    H2 8941   4.362   3.815   1.720
 3000TIP3   OH2 8942   4.910   1.140   6.233
 3000TIP3    H1 8943   4.865   1.060   6.207
 3000TIP3    H2 8944   4.984   1.110   6.286
 3001TIP3   OH2 8945   1.548   1.543   3.692
 3001TIP3    H1 8946   1.513   1.486   3.761
 3001TIP3    H2 8947   1.631   1.574   3.727
 3002TIP3   OH2 8948   1.754   1.448   1.783
 3002TIP3    H1 8949   1.714   1.512   1.724
 3002TIP3    H2 8950   1.846   1.473   1.788
 3003TIP3   OH2 8951   7.974   6.553   5.166
 3003TIP3    H1 8952   7.916   6.478   5.155
 3003TIP3    H2 8953   7.923   6.628   5.135
 3004TIP3   OH2 8954   7.548   6.610   6.256
 3004TIP3    H1 8955   7.594   6.613   6.339
 3004TIP3    H2 8956   7.617   6.613   6.190
 3005TIP3   OH2 8957   2.192   2.676   5.422
 3005TIP3    H1 8958   2.163   2.654   5.334
 3005TIP3    H2 8959   2.257   2.608   5.443
 3006TIP3   OH2 8960   7.387   4.026   1.615
 3006TIP3    H1 8961   7.399   4.120   1.599
 3006TIP3    H2 8962   7.431   4.010   1.698
 3007TIP3   OH2 8963   0.766   0.185   3.891
 3007TIP3    H1 8964   0.831   0.229   3.837
 3007TIP3    H2 8965   0.816   0.120   3.941
 3008TIP3   OH2 8966   2.917   4.749   1.863
 3008TIP3    H1 8967   2.938   4.807   1.936
 3008TIP3    H2 8968   2.822   4.737   1.869
 3009TIP3   OH2 8969   7.350   2.738   0.080
 3009TIP3    H1 8970   7.317   2.736  -0.010
 3009TIP3    H2 8971   7.445   2.745   0.071
 3010TIP3   OH2 8972   2.606   0.225   5.882
 3010TIP3    H1 8973   2.701   0.241   5.876
 3010TIP3    H2 8974   2.567   0.298   5.835
 3011TIP3   OH2 8975   3.216   6.796   1.206
 3011TIP3    H1 8976   3.303   6.756   1.204
 3011TIP3    H2 8977   3.201   6.815   1.299
 3012TIP3   OH2 8978   8.081   1.127   5.891
 3012TIP3    H1 8979   8.054   1.150   5.980
 3012TIP3    H2 8980   8.091   1.211   5.847
 3013TIP3   OH2 8981   6.373   1.012   3.825
 3013TIP3    H1 8982   6.364   1.002   3.920
 3013TIP3    H2 8983   6.302   1.073   3.801
 3014TIP3   OH2 8984   6.335   2.373   0.247
 3014TIP3    H1 8985   6.322   2.287   0.286
 3014TIP3    H2 8986   6.416   2.365   0.197
 3015TIP3   OH2 8987   3.072   0.709   0.167
 3015TIP3    H1 8988   3.025   0.626   0.176
 3015TIP3    H2 8989   3.155   0.686   0.125
 3016TIP3   OH2 8990   1.429   2.322   3.821
 3016TIP3    H1 8991   1.398   2.406   3.789
 3016TIP3    H2 8992   1.482   2.287   3.749
 3017TIP3   OH2 8993   6.874   2.520   6.383
 3017TIP3    H1 8994   6.884   2.565   6.298
 3017TIP3    H2 8995   6.893   2.588   6.448
 3018TIP3   OH2 8996   1.585   4.433   2.117
 3018TIP3    H1 8997   1.533   4.375   2.061
 3018TIP3    H2 8998   1.667   4.386   2.130
 3019TIP3   OH2 8999   5.854   3.816   3.018
 3019TIP3    H1 9000   5.831   3.828   2.925
 3019TIP3    H2 9001   5.815   3.732   3.041
 3020TIP3   OH2 9002   1.346   4.145   0.588
 3020TIP3    H1 9003   1.389   4.101   0.514
 3020TIP3    H2 9004   1.330   4.075   0.651
 3021TIP3   OH2 9005   4.397   1.328   4.653
 3021TIP3    H1 9006   4.434   1.258   4.706
 3021TIP3    H2 9007   4.468   1.390   4.641
 3022TIP3   OH2 9008   3.526   6.403   4.011
 3022TIP3    H1 9009   3.520   6.401   3.916
 3022TIP3    H2 9010   3.565   6.318   4.035
 3023TIP3   OH2 9011   5.349   6.061   3.023
 3023TIP3    H1 9012   5.417   6.125   3.045
 3023TIP3    H2 9013   5.352   5.997   3.095
 3024TIP3   OH2 9014   2.627   3.255   5.881
 3024TIP3    H1 9015   2.687   3.298   5.820
 3024TIP3    H2 9016   2.548   3.309   5.879
 3025TIP3   OH2 9017   3.436   7.256   4.074
 3025TIP3    H1 9018   3.484   7.203   4.137
 3025TIP3    H2 9019   3.502   7.282   4.010
 3026TIP3   OH2 9020   2.284   2.923   2.562
 3026TIP3    H1 9021   2.213   2.909   2.624
 3026TIP3    H2 9022   2.358   2.875   2.599
 3027TIP3   OH2 9023   6.804   4.143   2.257
 3027TIP3    H1 9024   6.819   4.218   2.315
 3027TIP3    H2 9025   6.740   4.174   2.193
 3028TIP3   OH2 9026   7.876   7.581   5.261
 3028TIP3    H1 9027   7.937   7.529   5.208
 3028TIP3    H2 9028   7.816   7.517   5.298
 3029TIP3   OH2 9029   3.245   4.355   3.078
 3029TIP3    H1 9030   3.232   4.282   3.139
 3029TIP3    H2 9031   3.302   4.416   3.126
 3030TIP3   OH2 9032   4.016   7.614   0.677
 3030TIP3    H1 9033   4.008   7.668   0.756
 3030TIP3    H2 9034   4.003   7.675   0.605
 3031TIP3   OH2 9035   3.339   3.976   6.148
 3031TIP3    H1 9036   3.413   4.033   6.126
 3031TIP3    H2 9037   3.375   3.887   6.145
 3032TIP3   OH2 9038   0.620   3.571   6.018
 3032TIP3    H1 9039   0.666   3.487   6.015
 3032TIP3    H2 9040   0.586   3.577   6.107
 3033TIP3   OH2 9041   6.383   3.831   3.339
 3033TIP3    H1 9042   6.377   3.743   3.376
 3033TIP3    H2 9043   6.395   3.816   3.245
 3034TIP3   OH2 9044   3.906   4.642   0.429
 3034TIP3    H1 9045   3.822   4.599   0.412
 3034TIP3    H2 9046   3.916   4.637   0.524
 3035TIP3   OH2 9047   7.870   6.128   1.510
 3035TIP3    H1 9048   7.781   6.162   1.512
 3035TIP3    H2 9049   7.862   6.036   1.536
 3036TIP3   OH2 9050   0.631   2.400   3.481
 3036TIP3    H1 9051   0.648   2.407   3.575
 3036TIP3    H2 9052   0.705   2.444   3.440
 3037TIP3   OH2 9053   7.918   2.899   1.825
 3037TIP3    H1 9054   7.915   2.830   1.892
 3037TIP3    H2 9055   7.956   2.855   1.748
 3038TIP3   OH2 9056   0.965   0.603   4.874
 3038TIP3    H1 9057   0.971   0.516   4.835
 3038TIP3    H2 9058   1.018   0.659   4.817
 3039TIP3   OH2 9059   4.236   5.186   2.045
 3039TIP3    H1 9060   4.269   5.097   2.059
 3039TIP3    H2 9061   4.303   5.228   1.991
 3040TIP3   OH2 9062   0.532   4.779   3.358
 3040TIP3    H1 9063   0.626   4.773   3.338
 3040TIP3    H2 9064   0.489   4.747   3.278
 3041TIP3   OH2 9065   7.433   7.555   1.975
 3041TIP3    H1 9066   7.346   7.594   1.966
 3041TIP3    H2 9067   7.426   7.471   1.931
 3042TIP3   OH2 9068   7.089   5.457   0.709
 3042TIP3    H1 9069   7.053   5.375   0.742
 3042TIP3    H2 9070   7.016   5.519   0.716
 3043TIP3   OH2 9071   5.119   7.084   1.404
 3043TIP3    H1 9072   5.139   7.157   1.345
 3043TIP3    H2 9073   5.095   7.125   1.487
 3044TIP3   OH2 9074   0.442   4.853   6.644
 3044TIP3    H1 9075   0.487   4.769   6.635
 3044TIP3    H2 9076   0.359   4.832   6.687
 3045TIP3   OH2 9077   0.850   7.264   4.156
 3045TIP3    H1 9078   0.871   7.194   4.094
 3045TIP3    H2 9079   0.771   7.304   4.121
 3046TIP3   OH2 9080   0.242   5.676   2.544
 3046TIP3    H1 9081   0.289   5.612   2.491
 3046TIP3    H2 9082   0.168   5.702   2.490
 3047TIP3   OH2 9083   8.052   0.502   0.718
 3047TIP3    H1 9084   7.964   0.527   0.746
 3047TIP3    H2 9085   8.094   0.584   0.693
 3048TIP3   OH2 9086   5.695   5.337   1.760
 3048TIP3    H1 9087   5.686   5.244   1.783
 3048TIP3    H2 9088   5.639   5.383   1.822
 3049TIP3   OH2 9089   1.222   4.608   6.219
 3049TIP3    H1 9090   1.248   4.676   6.281
 3049TIP3    H2 9091   1.183   4.540   6.274
 3050TIP3   OH2 9092   7.985   5.397   1.790
 3050TIP3    H1 9093   8.039   5.387   1.868
 3050TIP3    H2 9094   8.001   5.317   1.739
 3051TIP3   OH2 9095   0.174   5.372   4.745
 3051TIP3    H1 9096   0.086   5.380   4.708
 3051TIP3    H2 9097   0.211   5.295   4.702
 3052TIP3   OH2 9098   5.206   2.509   4.598
 3052TIP3    H1 9099   5.278   2.520   4.660
 3052TIP3    H2 9100   5.149   2.444   4.640
 3053TIP3   OH2 9101   4.371   4.931   4.885
 3053TIP3    H1 9102   4.346   4.984   4.810
 3053TIP3    H2 9103   4.339   4.979   4.961
 3054TIP3   OH2 9104   1.220   3.754   2.548
 3054TIP3    H1 9105   1.196   3.820   2.612
 3054TIP3    H2 9106   1.284   3.797   2.491
 3055TIP3   OH2 9107   6.655   5.863   1.254
 3055TIP3    H1 9108   6.660   5.957   1.240
 3055TIP3    H2 9109   6.631   5.853   1.346
 3056TIP3   OH2 9110   4.225   1.266   5.031
 3056TIP3    H1 9111   4.307   1.216   5.036
 3056TIP3    H2 9112   4.215   1.285   4.937
 3057TIP3   OH2 9113   7.773   7.027   2.195
 3057TIP3    H1 9114   7.698   7.080   2.224
 3057TIP3    H2 9115   7.754   6.939   2.230
 3058TIP3   OH2 9116   1.205   0.661   6.086
 3058TIP3    H1 9117   1.137   0.725   6.104
 3058TIP3    H2 9118   1.268   0.672   6.157
 3059TIP3   OH2 9119   5.164   3.522   6.512
 3059TIP3    H1 9120   5.146   3.440   6.466
 3059TIP3    H2 9121   5.245   3.506   6.559
 3060TIP3   OH2 9122   2.448   0.327   6.439
 3060TIP3    H1 9123   2.510   0.321   6.367
 3060TIP3    H2 9124   2.475   0.260   6.501
 3061TIP3   OH2 9125   6.407   5.809   5.202
 3061TIP3    H1 9126   6.391   5.880   5.140
 3061TIP3    H2 9127   6.472   5.754   5.159
 3062TIP3   OH2 9128   3.727   3.719   1.196
 3062TIP3    H1 9129   3.805   3.669   1.172
 3062TIP3    H2 9130   3.711   3.775   1.121
 3063TIP3   OH2 9131   1.248   0.596   0.261
 3063TIP3    H1 9132   1.188   0.522   0.249
 3063TIP3    H2 9133   1.314   0.564   0.322
 3064TIP3   OH2 9134   2.010   0.615   5.859
 3064TIP3    H1 9135   1.953   0.538   5.864
 3064TIP3    H2 9136   1.958   0.681   5.813
 3065TIP3   OH2 9137   5.462   5.084   2.706
 3065TIP3    H1 9138   5.527   5.023   2.740
 3065TIP3    H2 9139   5.434   5.045   2.623
 3066TIP3   OH2 9140   3.132   5.910   6.558
 3066TIP3    H1 9141   3.129   5.835   6.498
 3066TIP3    H2 9142   3.071   5.973   6.520
 3067TIP3   OH2 9143   3.106   3.530   2.459
 3067TIP3    H1 9144   3.142   3.447   2.427
 3067TIP3    H2 9145   3.157   3.598   2.416
 3068TIP3   OH2 9146   5.332   3.475   5.700
 3068TIP3    H1 9147   5.318   3.394   5.651
 3068TIP3    H2 9148   5.373   3.448   5.782
 3069TIP3   OH2 9149   0.048   4.940   4.257
 3069TIP3    H1 9150   0.089   4.853   4.262
 3069TIP3    H2 9151   0.111   4.993   4.210
 3070TIP3   OH2 9152   7.271   5.410   2.330
 3070TIP3    H1 9153   7.328   5.362   2.390
 3070TIP3    H2 9154   7.238   5.484   2.382
 3071TIP3   OH2 9155   2.139   7.721   1.573
 3071TIP3    H1 9156   2.109   7.651   1.515
 3071TIP3    H2 9157   2.061   7.748   1.621
 3072TIP3   OH2 9158   0.278   2.439   1.315
 3072TIP3    H1 9159   0.275   2.535   1.316
 3072TIP3    H2 9160   0.325   2.417   1.235
 3073TIP3   OH2 9161   6.724   1.001   0.475
 3073TIP3    H1 9162   6.762   0.914   0.483
 3073TIP3    H2 9163   6.720   1.018   0.381
 3074TIP3   OH2 9164   3.607   5.136   4.543
 3074TIP3    H1 9165   3.574   5.080   4.613
 3074TIP3    H2 9166   3.563   5.220   4.556
 3075TIP3   OH2 9167   0.109   1.345   6.026
 3075TIP3    H1 9168   0.153   1.424   6.057
 3075TIP3    H2 9169   0.133   1.278   6.089
 3076TIP3   OH2 9170   6.637   1.343   5.149
 3076TIP3    H1 9171   6.620   1.408   5.217
 3076TIP3    H2 9172   6.602   1.383   5.069
 3077TIP3   OH2 9173   1.807   6.989   5.327
 3077TIP3    H1 9174   1.860   7.042   5.267
 3077TIP3    H2 9175   1.786   7.050   5.399
 3078TIP3   OH2 9176   6.110   0.278   1.282
 3078TIP3    H1 9177   6.090   0.185   1.269
 3078TIP3    H2 9178   6.030   0.315   1.320
 3079TIP3   OH2 9179   5.671   4.281   0.952
 3079TIP3    H1 9180   5.648   4.374   0.958
 3079TIP3    H2 9181   5.647   4.256   0.863
 3080TIP3   OH2 9182   6.167   5.795   3.719
 3080TIP3    H1 9183   6.142   5.858   3.787
 3080TIP3    H2 9184   6.262   5.787   3.727
 3081TIP3   OH2 9185   3.589   6.537   5.409
 3081TIP3    H1 9186   3.669   6.588   5.399
 3081TIP3    H2 9187   3.534   6.589   5.468
 3082TIP3   OH2 9188   2.400   6.503   2.706
 3082TIP3    H1 9189   2.320   6.454   2.685
 3082TIP3    H2 9190   2.471   6.444   2.682
 3083TIP3   OH2 9191   6.350   5.000   2.001
 3083TIP3    H1 9192   6.439   5.031   1.980
 3083TIP3    H2 9193   6.359   4.959   2.087
 3084TIP3   OH2 9194   1.094   6.393   0.952
 3084TIP3    H1 9195   1.128   6.447   1.023
 3084TIP3    H2 9196   1.044   6.454   0.897
 3085TIP3   OH2 9197   5.135   3.287   6.342
 3085TIP3    H1 9198   5.042   3.282   6.365
 3085TIP3    H2 9199   5.163   3.195   6.340
 3086TIP3   OH2 9200   6.876   2.365   1.760
 3086TIP3    H1 9201   6.877   2.330   1.849
 3086TIP3    H2 9202   6.910   2.454   1.768
 3087TIP3   OH2 9203   5.203   0.727   4.674
 3087TIP3    H1 9204   5.144   0.681   4.734
 3087TIP3    H2 9205   5.272   0.663   4.656
 3088TIP3   OH2 9206   5.069   4.931   1.700
 3088TIP3    H1 9207   4.982   4.908   1.667
 3088TIP3    H2 9208   5.100   4.999   1.640
 3089TIP3   OH2 9209   0.230   6.694   0.169
 3089TIP3    H1 9210   0.273   6.685   0.254
 3089TIP3    H2 9211   0.187   6.609   0.155
 3090TIP3   OH2 9212   6.712   1.692   0.618
 3090TIP3    H1 9213   6.631   1.687   0.568
 3090TIP3    H2 9214   6.689   1.739   0.698
 3091TIP3   OH2 9215   1.338   3.945   0.780
 3091TIP3    H1 9216   1.281   3.870   0.799
 3091TIP3    H2 9217   1.426   3.913   0.801
 3092TIP3   OH2 9218   1.705   5.850   5.375
 3092TIP3    H1 9219   1.730   5.771   5.422
 3092TIP3    H2 9220   1.642   5.893   5.433
 3093TIP3   OH2 9221   6.241   7.794   3.317
 3093TIP3    H1 9222   6.165   7.749   3.281
 3093TIP3    H2 9223   6.272   7.850   3.246
 3094TIP3   OH2 9224   1.502   1.330   2.937
 3094TIP3    H1 9225   1.542   1.313   2.852
 3094TIP3    H2 9226   1.529   1.257   2.992
 3095TIP3   OH2 9227  -0.013   7.718   2.811
 3095TIP3    H1 9228  -0.097   7.672   2.816
 3095TIP3    H2 9229   0.022   7.696   2.725
 3096TIP3   OH2 9230   5.967   7.611   5.780
 3096TIP3    H1 9231   5.898   7.652   5.832
 3096TIP3    H2 9232   5.940   7.626   5.689
 3097TIP3   OH2 9233   6.257   3.984   5.711
 3097TIP3    H1 9234   6.318   4.036   5.763
 3097TIP3    H2 9235   6.298   3.977   5.625
 3098TIP3   OH2 9236   3.314   4.899   1.615
 3098TIP3    H1 9237   3.320   4.803   1.613
 3098TIP3    H2 9238   3.363   4.927   1.538
 3099TIP3   OH2 9239   6.477   3.271   3.112
 3099TIP3    H1 9240   6.515   3.310   3.033
 3099TIP3    H2 9241   6.395   3.319   3.125
 3100TIP3   OH2 9242   7.994   5.762   5.668
 3100TIP3    H1 9243   7.904   5.732   5.678
 3100TIP3    H2 9244   7.988   5.858   5.667
 3101TIP3   OH2 9245   1.038   2.219   5.677
 3101TIP3    H1 9246   1.115   2.210   5.621
 3101TIP3    H2 9247   1.072   2.209   5.766
 3102TIP3   OH2 9248   4.868   3.147   6.134
 3102TIP3    H1 9249   4.877   3.155   6.039
 3102TIP3    H2 9250   4.897   3.057   6.152
 3103TIP3   OH2 9251   0.892   5.523   1.235
 3103TIP3    H1 9252   0.884   5.549   1.143
 3103TIP3    H2 9253   0.870   5.429   1.235
 3104TIP3   OH2 9254   2.915   3.046   5.515
 3104TIP3    H1 9255   2.983   3.113   5.514
 3104TIP3    H2 9256   2.912   3.012   5.426
 3105TIP3   OH2 9257   1.091   2.382   2.549
 3105TIP3    H1 9258   1.028   2.427   2.605
 3105TIP3    H2 9259   1.046   2.302   2.522
 3106TIP3   OH2 9260   2.240   0.104   6.412
 3106TIP3    H1 9261   2.262   0.081   6.322
 3106TIP3    H2 9262   2.225   0.199   6.409
 3107TIP3   OH2 9263   2.965   3.163   0.258
 3107TIP3    H1 9264   2.931   3.221   0.327
 3107TIP3    H2 9265   2.963   3.217   0.179
 3108TIP3   OH2 9266   4.138   0.484   4.113
 3108TIP3    H1 9267   4.115   0.536   4.190
 3108TIP3    H2 9268   4.204   0.536   4.067
 3109TIP3   OH2 9269   3.496   3.111   4.903
 3109TIP3    H1 9270   3.509   3.137   4.812
 3109TIP3    H2 9271   3.583   3.119   4.943
 3110TIP3   OH2 9272   4.973   4.704   4.617
 3110TIP3    H1 9273   5.021   4.655   4.550
 3110TIP3    H2 9274   4.903   4.645   4.644
 3111TIP3   OH2 9275   6.482   1.862   5.358
 3111TIP3    H1 9276   6.389   1.861   5.381
 3111TIP3    H2 9277   6.487   1.916   5.279
 3112TIP3   OH2 9278   6.132   3.713   2.769
 3112TIP3    H1 9279   6.071   3.699   2.842
 3112TIP3    H2 9280   6.169   3.800   2.785
 3113TIP3   OH2 9281   7.399   2.516   3.475
 3113TIP3    H1 9282   7.324   2.573   3.489
 3113TIP3    H2 9283   7.449   2.559   3.405
 3114TIP3   OH2 9284   1.288   5.535   5.138
 3114TIP3    H1 9285   1.254   5.447   5.157
 3114TIP3    H2 9286   1.380   5.532   5.166
 3115TIP3   OH2 9287   1.276   6.709   5.041
 3115TIP3    H1 9288   1.298   6.795   5.003
 3115TIP3    H2 9289   1.191   6.723   5.081
 3116TIP3   OH2 9290   4.838   0.938   1.600
 3116TIP3    H1 9291   4.765   0.985   1.559
 3116TIP3    H2 9292   4.838   0.853   1.557
 3117TIP3   OH2 9293   4.559   1.238   6.163
 3117TIP3    H1 9294   4.556   1.311   6.225
 3117TIP3    H2 9295   4.479   1.247   6.111
 3118TIP3   OH2 9296   2.273   2.793   4.297
 3118TIP3    H1 9297   2.317   2.749   4.224
 3118TIP3    H2 9298   2.195   2.832   4.257
 3119TIP3   OH2 9299   5.695   2.483   4.865
 3119TIP3    H1 9300   5.778   2.522   4.837
 3119TIP3    H2 9301   5.720   2.401   4.907
 3120TIP3   OH2 9302   2.193   5.518   4.180
 3120TIP3    H1 9303   2.249   5.584   4.220
 3120TIP3    H2 9304   2.135   5.489   4.251
 3121TIP3   OH2 9305   0.646   0.399   3.480
 3121TIP3    H1 9306   0.604   0.419   3.397
 3121TIP3    H2 9307   0.737   0.423   3.468
 3122TIP3   OH2 9308   6.777   7.162   3.673
 3122TIP3    H1 9309   6.792   7.068   3.669
 3122TIP3    H2 9310   6.791   7.185   3.765
 3123TIP3   OH2 9311   1.329   7.646   5.523
 3123TIP3    H1 9312   1.379   7.598   5.589
 3123TIP3    H2 9313   1.286   7.717   5.571
 3124TIP3   OH2 9314   3.274   2.847   0.862
 3124TIP3    H1 9315   3.210   2.895   0.809
 3124TIP3    H2 9316   3.241   2.757   0.864
 3125TIP3   OH2 9317   6.007   6.985   5.683
 3125TIP3    H1 9318   6.004   6.966   5.589
 3125TIP3    H2 9319   5.976   6.904   5.724
 3126TIP3   OH2 9320   2.616   7.263   2.233
 3126TIP3    H1 9321   2.592   7.235   2.145
 3126TIP3    H2 9322   2.588   7.354   2.238
 3127TIP3   OH2 9323   2.772   0.178   5.558
 3127TIP3    H1 9324   2.756   0.111   5.624
 3127TIP3    H2 9325   2.781   0.130   5.476
 3128TIP3   OH2 9326   2.507   3.224   4.187
 3128TIP3    H1 9327   2.495   3.135   4.154
 3128TIP3    H2 9328   2.544   3.213   4.274
 3129TIP3   OH2 9329   0.482   7.316   0.179
 3129TIP3    H1 9330   0.436   7.389   0.136
 3129TIP3    H2 9331   0.560   7.302   0.125
 3130TIP3   OH2 9332   7.806   0.130   4.780
 3130TIP3    H1 9333   7.890   0.084   4.790
 3130TIP3    H2 9334   7.782   0.154   4.869
 3131TIP3   OH2 9335   6.285   1.960   4.343
 3131TIP3    H1 9336   6.200   1.995   4.370
 3131TIP3    H2 9337   6.323   1.923   4.422
 3132TIP3   OH2 9338   2.503   2.106   2.952
 3132TIP3    H1 9339   2.597   2.113   2.967
 3132TIP3    H2 9340   2.486   2.165   2.879
 3133TIP3   OH2 9341   6.464   1.968   4.874
 3133TIP3    H1 9342   6.487   1.890   4.823
 3133TIP3    H2 9343   6.526   2.035   4.843
 3134TIP3   OH2 9344   1.031   5.921   4.776
 3134TIP3    H1 9345   1.050   5.845   4.721
 3134TIP3    H2 9346   1.051   5.997   4.721
 3135TIP3   OH2 9347   0.958   0.435   3.503
 3135TIP3    H1 9348   1.051   0.412   3.504
 3135TIP3    H2 9349   0.917   0.367   3.449
 3136TIP3   OH2 9350   2.567   4.713   1.011
 3136TIP3    H1 9351   2.501   4.652   0.977
 3136TIP3    H2 9352   2.516   4.778   1.060
 3137TIP3   OH2 9353   3.790   6.387   6.632
 3137TIP3    H1 9354   3.783   6.413   6.723
 3137TIP3    H2 9355   3.700   6.371   6.605
 3138TIP3   OH2 9356   2.583   1.207   0.530
 3138TIP3    H1 9357   2.496   1.243   0.548
 3138TIP3    H2 9358   2.594   1.137   0.594
 3139TIP3   OH2 9359   2.244   4.119   1.878
 3139TIP3    H1 9360   2.337   4.142   1.866
 3139TIP3    H2 9361   2.230   4.048   1.816
 3140TIP3   OH2 9362   1.020   4.615   2.436
 3140TIP3    H1 9363   0.940   4.667   2.446
 3140TIP3    H2 9364   1.041   4.586   2.525
 3141TIP3   OH2 9365   0.577   1.348   2.427
 3141TIP3    H1 9366   0.490   1.387   2.438
 3141TIP3    H2 9367   0.571   1.266   2.477
 3142TIP3   OH2 9368   1.818   1.560   6.567
 3142TIP3    H1 9369   1.838   1.627   6.502
 3142TIP3    H2 9370   1.785   1.486   6.516
 3143TIP3   OH2 9371   7.243   3.638   1.303
 3143TIP3    H1 9372   7.231   3.636   1.208
 3143TIP3    H2 9373   7.154   3.639   1.338
 3144TIP3   OH2 9374   6.346   4.422   5.148
 3144TIP3    H1 9375   6.263   4.461   5.121
 3144TIP3    H2 9376   6.413   4.480   5.112
 3145TIP3   OH2 9377   4.378   7.643   4.365
 3145TIP3    H1 9378   4.471   7.630   4.382
 3145TIP3    H2 9379   4.365   7.738   4.373
 3146TIP3   OH2 9380   3.595   4.073   4.070
 3146TIP3    H1 9381   3.533   4.093   4.140
 3146TIP3    H2 9382   3.665   4.138   4.081
 3147TIP3   OH2 9383   4.900   1.603   6.783
 3147TIP3    H1 9384   4.975   1.631   6.732
 3147TIP3    H2 9385   4.834   1.671   6.769
 3148TIP3   OH2 9386   3.872   7.256   4.167
 3148TIP3    H1 9387   3.872   7.329   4.229
 3148TIP3    H2 9388   3.946   7.202   4.192
 3149TIP3   OH2 9389   8.145   1.193   4.679
 3149TIP3    H1 9390   8.123   1.118   4.735
 3149TIP3    H2 9391   8.175   1.261   4.740
 3150TIP3   OH2 9392   1.090   2.522   4.940
 3150TIP3    H1 9393   1.084   2.470   5.021
 3150TIP3    H2 9394   1.083   2.612   4.970
 3151TIP3   OH2 9395   0.381   2.170   1.392
 3151TIP3    H1 9396   0.334   2.247   1.425
 3151TIP3    H2 9397   0.316   2.099   1.397
 3152TIP3   OH2 9398   1.407   4.032   5.818
 3152TIP3    H1 9399   1.336   4.077   5.864
 3152TIP3    H2 9400   1.407   3.943   5.854
 3153TIP3   OH2 9401   0.620   5.754   4.827
 3153TIP3    H1 9402   0.630   5.752   4.922
 3153TIP3    H2 9403   0.525   5.745   4.813
 3154TIP3   OH2 9404   4.578   1.777   5.509
 3154TIP3    H1 9405   4.514   1.749   5.443
 3154TIP3    H2 9406   4.546   1.863   5.536
 3155TIP3   OH2 9407   7.481   2.456   6.258
 3155TIP3    H1 9408   7.493   2.548   6.237
 3155TIP3    H2 9409   7.390   2.437   6.238
 3156TIP3   OH2 9410   7.028   6.324   3.679
 3156TIP3    H1 9411   7.098   6.365   3.729
 3156TIP3    H2 9412   7.071   6.295   3.598
 3157TIP3   OH2 9413   1.727   3.233   6.540
 3157TIP3    H1 9414   1.809   3.206   6.500
 3157TIP3    H2 9415   1.749   3.251   6.631
 3158TIP3   OH2 9416   2.978   3.194   0.954
 3158TIP3    H1 9417   2.949   3.106   0.977
 3158TIP3    H2 9418   3.004   3.188   0.862
 3159TIP3   OH2 9419   3.828   7.735   5.038
 3159TIP3    H1 9420   3.787   7.649   5.045
 3159TIP3    H2 9421   3.762   7.796   5.068
 3160TIP3   OH2 9422   4.185   4.993   0.997
 3160TIP3    H1 9423   4.124   5.059   0.965
 3160TIP3    H2 9424   4.148   4.965   1.081
 3161TIP3   OH2 9425   7.242   2.391   1.879
 3161TIP3    H1 9426   7.223   2.321   1.941
 3161TIP3    H2 9427   7.273   2.346   1.800
 3162TIP3   OH2 9428   3.811   3.473   0.067
 3162TIP3    H1 9429   3.869   3.398   0.080
 3162TIP3    H2 9430   3.741   3.462   0.132
 3163TIP3   OH2 9431   5.964   5.201   1.594
 3163TIP3    H1 9432   5.976   5.261   1.521
 3163TIP3    H2 9433   5.965   5.256   1.672
 3164TIP3   OH2 9434   4.665   5.340   5.895
 3164TIP3    H1 9435   4.614   5.277   5.844
 3164TIP3    H2 9436   4.658   5.308   5.985
 3165TIP3   OH2 9437   5.002   1.978   1.506
 3165TIP3    H1 9438   4.995   2.035   1.582
 3165TIP3    H2 9439   4.915   1.980   1.466
 3166TIP3   OH2 9440   4.337   3.094   6.511
 3166TIP3    H1 9441   4.290   3.114   6.591
 3166TIP3    H2 9442   4.279   3.035   6.463
 3167TIP3   OH2 9443   4.441   4.288   6.099
 3167TIP3    H1 9444   4.368   4.350   6.097
 3167TIP3    H2 9445   4.494   4.312   6.022
 3168TIP3   OH2 9446   4.658   7.134   3.943
 3168TIP3    H1 9447   4.704   7.105   3.864
 3168TIP3    H2 9448   4.718   7.116   4.015
 3169TIP3   OH2 9449   8.232   3.476   3.756
 3169TIP3    H1 9450   8.283   3.556   3.756
 3169TIP3    H2 9451   8.281   3.416   3.699
 3170TIP3   OH2 9452   5.990   4.238   6.496
 3170TIP3    H1 9453   6.032   4.155   6.470
 3170TIP3    H2 9454   5.996   4.239   6.591
 3171TIP3   OH2 9455   2.372   1.301   1.142
 3171TIP3    H1 9456   2.440   1.323   1.207
 3171TIP3    H2 9457   2.418   1.249   1.076
 3172TIP3   OH2 9458   7.943   3.508   6.282
 3172TIP3    H1 9459   7.875   3.565   6.319
 3172TIP3    H2 9460   8.006   3.568   6.243
 3173TIP3   OH2 9461   0.847   3.947   2.432
 3173TIP3    H1 9462   0.924   3.939   2.375
 3173TIP3    H2 9463   0.848   3.867   2.485
 3174TIP3   OH2 9464   6.428   6.900   6.001
 3174TIP3    H1 9465   6.397   6.984   5.967
 3174TIP3    H2 9466   6.395   6.835   5.938
 3175TIP3   OH2 9467   7.963   1.043   0.493
 3175TIP3    H1 9468   7.899   1.111   0.472
 3175TIP3    H2 9469   8.048   1.083   0.473
 3176TIP3   OH2 9470   7.147   2.208   2.046
 3176TIP3    H1 9471   7.066   2.208   2.098
 3176TIP3    H2 9472   7.210   2.161   2.100
 3177TIP3   OH2 9473   4.868   2.069   3.503
 3177TIP3    H1 9474   4.823   2.151   3.482
 3177TIP3    H2 9475   4.857   2.059   3.598
 3178TIP3   OH2 9476   2.485   6.800   5.160
 3178TIP3    H1 9477   2.431   6.878   5.173
 3178TIP3    H2 9478   2.575   6.833   5.161
 3179TIP3   OH2 9479   8.106   6.911   3.409
 3179TIP3    H1 9480   8.060   6.926   3.492
 3179TIP3    H2 9481   8.109   6.816   3.400
 3180TIP3   OH2 9482   2.667   7.272   4.509
 3180TIP3    H1 9483   2.583   7.233   4.535
 3180TIP3    H2 9484   2.732   7.210   4.541
 3181TIP3   OH2 9485   4.717   1.826   5.850
 3181TIP3    H1 9486   4.759   1.815   5.764
 3181TIP3    H2 9487   4.750   1.753   5.903
 3182TIP3   OH2 9488   3.303   7.788   6.517
 3182TIP3    H1 9489   3.378   7.762   6.570
 3182TIP3    H2 9490   3.342   7.822   6.436
 3183TIP3   OH2 9491   2.779   6.563   1.364
 3183TIP3    H1 9492   2.689   6.551   1.335
 3183TIP3    H2 9493   2.824   6.601   1.289
 3184TIP3   OH2 9494   2.456   6.267   1.792
 3184TIP3    H1 9495   2.438   6.293   1.883
 3184TIP3    H2 9496   2.509   6.338   1.756
 3185TIP3   OH2 9497   6.921   4.884   2.252
 3185TIP3    H1 9498   6.963   4.800   2.273
 3185TIP3    H2 9499   6.981   4.926   2.191
 3186TIP3   OH2 9500   1.581   1.082   0.335
 3186TIP3    H1 9501   1.523   1.007   0.343
 3186TIP3    H2 9502   1.647   1.055   0.271
 3187TIP3   OH2 9503   5.321   7.303   1.004
 3187TIP3    H1 9504   5.391   7.356   1.042
 3187TIP3    H2 9505   5.309   7.337   0.916
 3188TIP3   OH2 9506   5.367   2.542   4.347
 3188TIP3    H1 9507   5.320   2.550   4.430
 3188TIP3    H2 9508   5.336   2.459   4.310
 3189TIP3   OH2 9509   3.115   7.485   1.161
 3189TIP3    H1 9510   3.188   7.538   1.127
 3189TIP3    H2 9511   3.154   7.398   1.175
 3190TIP3   OH2 9512   6.968   7.057   4.890
 3190TIP3    H1 9513   7.056   7.027   4.872
 3190TIP3    H2 9514   6.946   7.113   4.815
 3191TIP3   OH2 9515   2.141   5.184   6.596
 3191TIP3    H1 9516   2.113   5.276   6.601
 3191TIP3    H2 9517   2.235   5.189   6.574
 3192TIP3   OH2 9518   6.439   3.034   2.757
 3192TIP3    H1 9519   6.373   3.067   2.817
 3192TIP3    H2 9520   6.437   2.939   2.769
 3193TIP3   OH2 9521   1.365   2.350   2.617
 3193TIP3    H1 9522   1.300   2.362   2.686
 3193TIP3    H2 9523   1.422   2.426   2.624
 3194TIP3   OH2 9524   4.168   4.114   4.695
 3194TIP3    H1 9525   4.114   4.192   4.681
 3194TIP3    H2 9526   4.109   4.040   4.680
 3195TIP3   OH2 9527   6.793   6.551   0.441
 3195TIP3    H1 9528   6.874   6.502   0.427
 3195TIP3    H2 9529   6.756   6.515   0.521
 3196TIP3   OH2 9530   7.763   3.478   0.484
 3196TIP3    H1 9531   7.680   3.444   0.518
 3196TIP3    H2 9532   7.829   3.446   0.546
 3197TIP3   OH2 9533   6.547   5.398   3.310
 3197TIP3    H1 9534   6.630   5.441   3.288
 3197TIP3    H2 9535   6.556   5.375   3.402
 3198TIP3   OH2 9536   2.797   6.767   4.487
 3198TIP3    H1 9537   2.841   6.755   4.571
 3198TIP3    H2 9538   2.704   6.761   4.507
 3199TIP3   OH2 9539   6.982   3.755   4.608
 3199TIP3    H1 9540   6.902   3.734   4.560
 3199TIP3    H2 9541   6.982   3.694   4.682
 3200TIP3   OH2 9542  -0.021   3.827   1.546
 3200TIP3    H1 9543  -0.003   3.819   1.640
 3200TIP3    H2 9544   0.062   3.854   1.508
 3201TIP3   OH2 9545   3.774   1.283   6.419
 3201TIP3    H1 9546   3.678   1.284   6.424
 3201TIP3    H2 9547   3.795   1.339   6.344
 3202TIP3   OH2 9548   1.988   0.705   6.124
 3202TIP3    H1 9549   2.010   0.658   6.043
 3202TIP3    H2 9550   1.967   0.635   6.186
 3203TIP3   OH2 9551   3.108   1.801   0.921
 3203TIP3    H1 9552   3.021   1.832   0.945
 3203TIP3    H2 9553   3.147   1.875   0.873
 3204TIP3   OH2 9554   5.964   3.690   0.784
 3204TIP3    H1 9555   5.883   3.693   0.732
 3204TIP3    H2 9556   5.948   3.750   0.856
 3205TIP3   OH2 9557   7.545   3.471   3.555
 3205TIP3    H1 9558   7.599   3.550   3.558
 3205TIP3    H2 9559   7.517   3.463   3.464
 3206TIP3   OH2 9560   8.252   1.974   0.569
 3206TIP3    H1 9561   8.266   1.964   0.475
 3206TIP3    H2 9562   8.338   1.999   0.603
 3207TIP3   OH2 9563   7.333   6.893   0.783
 3207TIP3    H1 9564   7.375   6.817   0.823
 3207TIP3    H2 9565   7.329   6.872   0.690
 3208TIP3   OH2 9566   3.851   2.991   2.623
 3208TIP3    H1 9567   3.879   3.066   2.571
 3208TIP3    H2 9568   3.880   2.915   2.572
 3209TIP3   OH2 9569   7.791   0.667   0.445
 3209TIP3    H1 9570   7.871   0.712   0.471
 3209TIP3    H2 9571   7.720   0.717   0.486
 3210TIP3   OH2 9572   5.394   6.757   1.132
 3210TIP3    H1 9573   5.478   6.801   1.145
 3210TIP3    H2 9574   5.393   6.687   1.196
 3211TIP3   OH2 9575   3.088   3.936   6.226
 3211TIP3    H1 9576   3.172   3.967   6.193
 3211TIP3    H2 9577   3.104   3.844   6.250
 3212TIP3   OH2 9578   3.432   6.053   6.080
 3212TIP3    H1 9579   3.344   6.067   6.046
 3212TIP3    H2 9580   3.432   5.962   6.109
 3213TIP3   OH2 9581   7.708   2.320   4.405
 3213TIP3    H1 9582   7.801   2.332   4.425
 3213TIP3    H2 9583   7.665   2.322   4.491
 3214TIP3   OH2 9584   5.609   4.275   6.507
 3214TIP3    H1 9585   5.670   4.321   6.450
 3214TIP3    H2 9586   5.579   4.201   6.455
 3215TIP3   OH2 9587   7.074   6.239   5.282
 3215TIP3    H1 9588   7.168   6.223   5.294
 3215TIP3    H2 9589   7.045   6.276   5.365
 3216TIP3   OH2 9590   2.893   5.530   5.323
 3216TIP3    H1 9591   2.898   5.438   5.298
 3216TIP3    H2 9592   2.885   5.529   5.418
 3217TIP3   OH2 9593   0.857   5.329   6.757
 3217TIP3    H1 9594   0.826   5.358   6.671
 3217TIP3    H2 9595   0.778   5.321   6.810
 3218TIP3   OH2 9596   5.676   0.377   5.675
 3218TIP3    H1 9597   5.654   0.386   5.768
 3218TIP3    H2 9598   5.757   0.427   5.665
 3219TIP3   OH2 9599   2.333   6.767   0.624
 3219TIP3    H1 9600   2.309   6.702   0.690
 3219TIP3    H2 9601   2.422   6.743   0.598
 3220TIP3   OH2 9602   4.126   1.938   0.350
 3220TIP3    H1 9603   4.083   1.890   0.420
 3220TIP3    H2 9604   4.112   2.030   0.371
 3221TIP3   OH2 9605   2.805   4.416   2.422
 3221TIP3    H1 9606   2.871   4.467   2.376
 3221TIP3    H2 9607   2.769   4.357   2.355
 3222TIP3   OH2 9608   3.046   1.001   2.212
 3222TIP3    H1 9609   3.075   1.061   2.281
 3222TIP3    H2 9610   2.974   1.047   2.169
 3223TIP3   OH2 9611   1.048   2.391   6.240
 3223TIP3    H1 9612   1.074   2.299   6.235
 3223TIP3    H2 9613   0.954   2.390   6.222
 3224TIP3   OH2 9614   8.098   0.152   5.765
 3224TIP3    H1 9615   8.148   0.103   5.830
 3224TIP3    H2 9616   8.129   0.242   5.774
 3225TIP3   OH2 9617   6.732   3.164   2.195
 3225TIP3    H1 9618   6.742   3.246   2.243
 3225TIP3    H2 9619   6.639   3.160   2.172
 3226TIP3   OH2 9620   3.790   0.475   0.571
 3226TIP3    H1 9621   3.843   0.552   0.591
 3226TIP3    H2 9622   3.717   0.479   0.633
 3227TIP3   OH2 9623   8.079   7.090   2.789
 3227TIP3    H1 9624   8.155   7.035   2.772
 3227TIP3    H2 9625   8.077   7.152   2.716
 3228TIP3   OH2 9626   8.162   0.730   2.113
 3228TIP3    H1 9627   8.120   0.802   2.159
 3228TIP3    H2 9628   8.256   0.744   2.124
 3229TIP3   OH2 9629   3.451   6.941   1.954
 3229TIP3    H1 9630   3.361   6.946   1.922
 3229TIP3    H2 9631   3.504   6.945   1.874
 3230TIP3   OH2 9632   1.761   0.145   2.928
 3230TIP3    H1 9633   1.737   0.224   2.879
 3230TIP3    H2 9634   1.686   0.087   2.918
 3231TIP3   OH2 9635   6.543   0.582   1.973
 3231TIP3    H1 9636   6.493   0.507   2.006
 3231TIP3    H2 9637   6.634   0.554   1.981
 3232TIP3   OH2 9638   3.255   4.633   3.888
 3232TIP3    H1 9639   3.334   4.681   3.912
 3232TIP3    H2 9640   3.241   4.654   3.796
 3233TIP3   OH2 9641   6.404   4.791   5.178
 3233TIP3    H1 9642   6.314   4.775   5.150
 3233TIP3    H2 9643   6.403   4.880   5.213
 3234TIP3   OH2 9644   1.962   0.212   0.475
 3234TIP3    H1 9645   2.005   0.294   0.450
 3234TIP3    H2 9646   2.028   0.165   0.526
 3235TIP3   OH2 9647   3.412   3.274   2.004
 3235TIP3    H1 9648   3.367   3.202   1.959
 3235TIP3    H2 9649   3.424   3.243   2.093
 3236TIP3   OH2 9650   3.871   4.761   4.617
 3236TIP3    H1 9651   3.839   4.684   4.664
 3236TIP3    H2 9652   3.866   4.832   4.681
 3237TIP3   OH2 9653   6.008   7.676   3.236
 3237TIP3    H1 9654   5.993   7.633   3.319
 3237TIP3    H2 9655   5.965   7.620   3.171
 3238TIP3   OH2 9656   0.611   7.190   3.066
 3238TIP3    H1 9657   0.651   7.276   3.080
 3238TIP3    H2 9658   0.678   7.128   3.094
 3239TIP3   OH2 9659   1.379   0.379   3.094
 3239TIP3    H1 9660   1.395   0.285   3.095
 3239TIP3    H2 9661   1.461   0.418   3.063
 3240TIP3   OH2 9662   4.699   4.958   5.707
 3240TIP3    H1 9663   4.772   4.954   5.646
 3240TIP3    H2 9664   4.632   5.010   5.663
 3241TIP3   OH2 9665   2.560   5.455   2.362
 3241TIP3    H1 9666   2.610   5.483   2.285
 3241TIP3    H2 9667   2.624   5.413   2.419
 3242TIP3   OH2 9668   3.366   3.660   3.558
 3242TIP3    H1 9669   3.325   3.647   3.644
 3242TIP3    H2 9670   3.387   3.571   3.528
 3243TIP3   OH2 9671   3.506   0.959   3.942
 3243TIP3    H1 9672   3.452   0.919   4.010
 3243TIP3    H2 9673   3.582   0.901   3.935
 3244TIP3   OH2 9674   6.008   2.925   4.299
 3244TIP3    H1 9675   5.917   2.948   4.317
 3244TIP3    H2 9676   6.015   2.929   4.203
 3245TIP3   OH2 9677   3.914   5.219   1.568
 3245TIP3    H1 9678   3.945   5.229   1.658
 3245TIP3    H2 9679   3.959   5.288   1.519
 3246TIP3   OH2 9680   1.624   6.434   3.761
 3246TIP3    H1 9681   1.683   6.508   3.748
 3246TIP3    H2 9682   1.567   6.461   3.833
 3247TIP3   OH2 9683   5.264   0.297   6.324
 3247TIP3    H1 9684   5.275   0.277   6.231
 3247TIP3    H2 9685   5.182   0.347   6.328
 3248TIP3   OH2 9686   7.625   5.807   5.069
 3248TIP3    H1 9687   7.668   5.809   5.154
 3248TIP3    H2 9688   7.647   5.722   5.032
 3249TIP3   OH2 9689   5.091   5.244   5.122
 3249TIP3    H1 9690   5.025   5.286   5.177
 3249TIP3    H2 9691   5.070   5.151   5.126
 3250TIP3   OH2 9692   3.758   6.649   4.382
 3250TIP3    H1 9693   3.714   6.619   4.302
 3250TIP3    H2 9694   3.690   6.646   4.449
 3251TIP3   OH2 9695   4.203   5.748   1.058
 3251TIP3    H1 9696   4.122   5.792   1.035
 3251TIP3    H2 9697   4.263   5.818   1.084
 3252TIP3   OH2 9698   2.346   2.252   4.698
 3252TIP3    H1 9699   2.349   2.229   4.606
 3252TIP3    H2 9700   2.430   2.294   4.716
 3253TIP3   OH2 9701   3.289   4.071   3.353
 3253TIP3    H1 9702   3.359   4.115   3.303
 3253TIP3    H2 9703   3.215   4.068   3.292
 3254TIP3   OH2 9704   3.544   5.356   1.879
 3254TIP3    H1 9705   3.489   5.290   1.921
 3254TIP3    H2 9706   3.629   5.314   1.870
 3255TIP3   OH2 9707   6.138   7.713   1.507
 3255TIP3    H1 9708   6.191   7.673   1.439
 3255TIP3    H2 9709   6.061   7.747   1.460
 3256TIP3   OH2 9710   5.848   5.156   3.861
 3256TIP3    H1 9711   5.798   5.195   3.789
 3256TIP3    H2 9712   5.931   5.130   3.823
 3257TIP3   OH2 9713   1.929   6.303   2.060
 3257TIP3    H1 9714   1.906   6.338   2.146
 3257TIP3    H2 9715   2.019   6.270   2.071
 3258TIP3   OH2 9716   1.741   5.143   1.888
 3258TIP3    H1 9717   1.807   5.164   1.954
 3258TIP3    H2 9718   1.684   5.078   1.930
 3259TIP3   OH2 9719   2.225   3.417   2.804
 3259TIP3    H1 9720   2.237   3.345   2.742
 3259TIP3    H2 9721   2.302   3.473   2.791
 3260TIP3   OH2 9722   4.176   5.244   3.504
 3260TIP3    H1 9723   4.135   5.202   3.580
 3260TIP3    H2 9724   4.160   5.338   3.517
 3261TIP3   OH2 9725   4.452   1.998   4.882
 3261TIP3    H1 9726   4.360   2.004   4.857
 3261TIP3    H2 9727   4.500   2.006   4.799
 3262TIP3   OH2 9728   1.619   3.133   5.199
 3262TIP3    H1 9729   1.568   3.175   5.270
 3262TIP3    H2 9730   1.554   3.081   5.151
 3263TIP3   OH2 9731   7.796   6.419   2.900
 3263TIP3    H1 9732   7.825   6.396   2.989
 3263TIP3    H2 9733   7.732   6.489   2.912
 3264TIP3   OH2 9734   6.450   7.164   3.573
 3264TIP3    H1 9735   6.497   7.090   3.534
 3264TIP3    H2 9736   6.359   7.135   3.577
 3265TIP3   OH2 9737   3.029   6.071   6.228
 3265TIP3    H1 9738   3.001   6.072   6.319
 3265TIP3    H2 9739   3.037   6.164   6.204
 3266TIP3   OH2 9740   3.269   2.990   5.520
 3266TIP3    H1 9741   3.246   3.061   5.580
 3266TIP3    H2 9742   3.287   3.035   5.437
 3267TIP3   OH2 9743   6.782   3.467   6.759
 3267TIP3    H1 9744   6.720   3.537   6.741
 3267TIP3    H2 9745   6.862   3.512   6.787
 3268TIP3   OH2 9746   3.873   4.125   4.001
 3268TIP3    H1 9747   3.892   4.034   3.975
 3268TIP3    H2 9748   3.907   4.132   4.090
 3269TIP3   OH2 9749   3.199   7.731   3.420
 3269TIP3    H1 9750   3.218   7.654   3.366
 3269TIP3    H2 9751   3.106   7.750   3.403
 3270TIP3   OH2 9752   0.303   0.856   5.281
 3270TIP3    H1 9753   0.262   0.941   5.263
 3270TIP3    H2 9754   0.269   0.798   5.213
 3271TIP3   OH2 9755   6.286   4.144   1.027
 3271TIP3    H1 9756   6.289   4.135   0.932
 3271TIP3    H2 9757   6.358   4.203   1.049
 3272TIP3   OH2 9758   6.999   7.831   3.345
 3272TIP3    H1 9759   7.054   7.755   3.367
 3272TIP3    H2 9760   6.919   7.817   3.395
 3273TIP3   OH2 9761   5.988   4.385   5.599
 3273TIP3    H1 9762   5.919   4.350   5.656
 3273TIP3    H2 9763   5.994   4.478   5.623
 3274TIP3   OH2 9764   7.373   6.518   2.569
 3274TIP3    H1 9765   7.302   6.580   2.549
 3274TIP3    H2 9766   7.386   6.469   2.488
 3275TIP3   OH2 9767   7.540   1.805   6.678
 3275TIP3    H1 9768   7.559   1.889   6.635
 3275TIP3    H2 9769   7.625   1.763   6.686
 3276TIP3   OH2 9770   5.093   7.700   4.372
 3276TIP3    H1 9771   5.106   7.793   4.354
 3276TIP3    H2 9772   5.074   7.697   4.466
 3277TIP3   OH2 9773   2.052   2.521   2.775
 3277TIP3    H1 9774   2.098   2.443   2.806
 3277TIP3    H2 9775   2.117   2.591   2.782
 3278TIP3   OH2 9776   3.912   1.405   2.514
 3278TIP3    H1 9777   3.849   1.413   2.442
 3278TIP3    H2 9778   3.922   1.495   2.547
 3279TIP3   OH2 9779   0.310   1.423   4.684
 3279TIP3    H1 9780   0.278   1.442   4.772
 3279TIP3    H2 9781   0.233   1.393   4.636
 3280TIP3   OH2 9782   6.332   3.741   2.192
 3280TIP3    H1 9783   6.381   3.735   2.274
 3280TIP3    H2 9784   6.282   3.822   2.201
 3281TIP3   OH2 9785   4.170   6.103   6.222
 3281TIP3    H1 9786   4.207   6.017   6.203
 3281TIP3    H2 9787   4.076   6.088   6.229
 3282TIP3   OH2 9788   3.302   3.115   5.260
 3282TIP3    H1 9789   3.252   3.075   5.189
 3282TIP3    H2 9790   3.393   3.106   5.233
 3283TIP3   OH2 9791   0.758   7.050   3.669
 3283TIP3    H1 9792   0.683   7.034   3.610
 3283TIP3    H2 9793   0.790   6.962   3.691
 3284TIP3   OH2 9794   2.154   2.924   5.312
 3284TIP3    H1 9795   2.149   2.852   5.375
 3284TIP3    H2 9796   2.069   2.967   5.317
 3285TIP3   OH2 9797   1.955   6.977   6.685
 3285TIP3    H1 9798   1.928   6.936   6.603
 3285TIP3    H2 9799   2.034   7.026   6.663
 3286TIP3   OH2 9800   4.731   6.652   5.858
 3286TIP3    H1 9801   4.708   6.562   5.884
 3286TIP3    H2 9802   4.770   6.690   5.936
 3287TIP3   OH2 9803   2.156   2.514   3.802
 3287TIP3    H1 9804   2.180   2.513   3.895
 3287TIP3    H2 9805   2.074   2.563   3.799
 3288TIP3   OH2 9806   6.257   1.798   6.566
 3288TIP3    H1 9807   6.243   1.820   6.658
 3288TIP3    H2 9808   6.351   1.783   6.559
 3289TIP3   OH2 9809   5.759   0.894   4.936
 3289TIP3    H1 9810   5.779   0.972   4.885
 3289TIP3    H2 9811   5.714   0.836   4.874
 3290TIP3   OH2 9812   3.811   2.603   5.224
 3290TIP3    H1 9813   3.838   2.629   5.136
 3290TIP3    H2 9814   3.718   2.583   5.216
 3291TIP3   OH2 9815   7.983   2.312   4.421
 3291TIP3    H1 9816   7.980   2.236   4.364
 3291TIP3    H2 9817   8.058   2.362   4.390
 3292TIP3   OH2 9818   6.426   2.766   5.299
 3292TIP3    H1 9819   6.459   2.767   5.388
 3292TIP3    H2 9820   6.372   2.844   5.292
 3293TIP3   OH2 9821   4.337   5.168   0.704
 3293TIP3    H1 9822   4.394   5.098   0.673
 3293TIP3    H2 9823   4.384   5.207   0.778
 3294TIP3   OH2 9824   7.543   5.395   5.608
 3294TIP3    H1 9825   7.550   5.391   5.513
 3294TIP3    H2 9826   7.517   5.306   5.633
 3295TIP3   OH2 9827   3.541   4.789   3.938
 3295TIP3    H1 9828   3.558   4.847   3.864
 3295TIP3    H2 9829   3.510   4.847   4.007
 3296TIP3   OH2 9830   7.082   3.513   4.317
 3296TIP3    H1 9831   7.159   3.480   4.363
 3296TIP3    H2 9832   7.052   3.439   4.264
 3297TIP3   OH2 9833   5.962   3.230   4.377
 3297TIP3    H1 9834   6.052   3.240   4.407
 3297TIP3    H2 9835   5.965   3.249   4.283
 3298TIP3   OH2 9836   3.217   6.110   5.735
 3298TIP3    H1 9837   3.282   6.180   5.745
 3298TIP3    H2 9838   3.180   6.099   5.822
 3299TIP3   OH2 9839   6.563   2.729   3.928
 3299TIP3    H1 9840   6.651   2.767   3.928
 3299TIP3    H2 9841   6.577   2.635   3.934
 3300TIP3   OH2 9842   4.427   3.575   5.972
 3300TIP3    H1 9843   4.458   3.575   6.062
 3300TIP3    H2 9844   4.414   3.668   5.951
 3301TIP3   OH2 9845   4.970   0.699   2.396
 3301TIP3    H1 9846   5.013   0.663   2.473
 3301TIP3    H2 9847   5.028   0.771   2.368
 3302TIP3   OH2 9848   0.539   5.123   2.097
 3302TIP3    H1 9849   0.556   5.028   2.093
 3302TIP3    H2 9850   0.524   5.141   2.190
 3303TIP3   OH2 9851   2.171   3.501   0.520
 3303TIP3    H1 9852   2.226   3.523   0.446
 3303TIP3    H2 9853   2.224   3.441   0.573
 3304TIP3   OH2 9854   6.438   6.698   2.464
 3304TIP3    H1 9855   6.520   6.732   2.428
 3304TIP3    H2 9856   6.459   6.609   2.493
 3305TIP3   OH2 9857   5.346   7.476   3.734
 3305TIP3    H1 9858   5.264   7.465   3.687
 3305TIP3    H2 9859   5.333   7.556   3.786
 3306TIP3   OH2 9860   7.852   2.655   3.818
 3306TIP3    H1 9861   7.833   2.648   3.911
 3306TIP3    H2 9862   7.945   2.674   3.813
 3307TIP3   OH2 9863   3.266   0.212   2.806
 3307TIP3    H1 9864   3.248   0.220   2.713
 3307TIP3    H2 9865   3.235   0.124   2.829
 3308TIP3   OH2 9866   7.892   0.967   4.524
 3308TIP3    H1 9867   7.895   1.010   4.438
 3308TIP3    H2 9868   7.810   0.918   4.523
 3309TIP3   OH2 9869   6.628   1.979   0.772
 3309TIP3    H1 9870   6.633   2.034   0.694
 3309TIP3    H2 9871   6.683   2.024   0.837
 3310TIP3   OH2 9872   7.036   3.621   4.846
 3310TIP3    H1 9873   7.045   3.536   4.890
 3310TIP3    H2 9874   7.078   3.683   4.906
 3311TIP3   OH2 9875   5.148   1.690   2.680
 3311TIP3    H1 9876   5.075   1.744   2.649
 3311TIP3    H2 9877   5.164   1.628   2.608
 3312TIP3   OH2 9878   5.283   4.458   5.220
 3312TIP3    H1 9879   5.354   4.415   5.172
 3312TIP3    H2 9880   5.220   4.482   5.153
 3313TIP3   OH2 9881   6.406   1.809   4.080
 3313TIP3    H1 9882   6.423   1.719   4.107
 3313TIP3    H2 9883   6.350   1.845   4.150
 3314TIP3   OH2 9884   3.015   3.372   3.027
 3314TIP3    H1 9885   3.031   3.437   3.095
 3314TIP3    H2 9886   2.947   3.411   2.972
 3315TIP3   OH2 9887   1.943   0.727   1.663
 3315TIP3    H1 9888   1.967   0.718   1.571
 3315TIP3    H2 9889   1.914   0.818   1.671
 3316TIP3   OH2 9890   7.064   7.551   3.409
 3316TIP3    H1 9891   6.979   7.513   3.433
 3316TIP3    H2 9892   7.103   7.487   3.349
 3317TIP3   OH2 9893   0.807   7.408   1.369
 3317TIP3    H1 9894   0.775   7.336   1.314
 3317TIP3    H2 9895   0.841   7.365   1.447
 3318TIP3   OH2 9896   4.484   3.743   1.853
 3318TIP3    H1 9897   4.509   3.819   1.906
 3318TIP3    H2 9898   4.552   3.738   1.786
 3319TIP3   OH2 9899   7.124   6.291   1.127
 3319TIP3    H1 9900   7.216   6.277   1.104
 3319TIP3    H2 9901   7.120   6.383   1.155
 3320TIP3   OH2 9902   6.293   0.147   0.400
 3320TIP3    H1 9903   6.318   0.112   0.315
 3320TIP3    H2 9904   6.211   0.102   0.421
 3321TIP3   OH2 9905   3.862   6.430   1.739
 3321TIP3    H1 9906   3.927   6.424   1.808
 3321TIP3    H2 9907   3.821   6.516   1.752
 3322TIP3   OH2 9908   3.159   2.492   0.017
 3322TIP3    H1 9909   3.149   2.546   0.096
 3322TIP3    H2 9910   3.115   2.543  -0.051
 3323TIP3   OH2 9911   3.368   1.561   6.009
 3323TIP3    H1 9912   3.360   1.467   6.021
 3323TIP3    H2 9913   3.367   1.574   5.915
 3324TIP3   OH2 9914   6.010   7.267   2.557
 3324TIP3    H1 9915   5.939   7.212   2.524
 3324TIP3    H2 9916   5.989   7.355   2.526
 3325TIP3   OH2 9917   0.620   2.128   0.704
 3325TIP3    H1 9918   0.597   2.056   0.645
 3325TIP3    H2 9919   0.709   2.151   0.680
 3326TIP3   OH2 9920   1.389   6.650   5.277
 3326TIP3    H1 9921   1.370   6.653   5.184
 3326TIP3    H2 9922   1.470   6.698   5.287
 3327TIP3   OH2 9923   3.584   7.563   5.376
 3327TIP3    H1 9924   3.491   7.565   5.398
 3327TIP3    H2 9925   3.596   7.481   5.328
 3328TIP3   OH2 9926   2.099   1.304   6.290
 3328TIP3    H1 9927   2.189   1.318   6.259
 3328TIP3    H2 9928   2.072   1.222   6.251
 3329TIP3   OH2 9929   2.082   2.286   1.893
 3329TIP3    H1 9930   2.083   2.259   1.984
 3329TIP3    H2 9931   2.067   2.381   1.896
 3330TIP3   OH2 9932   4.274   4.787   2.310
 3330TIP3    H1 9933   4.246   4.753   2.395
 3330TIP3    H2 9934   4.239   4.876   2.307
 3331TIP3   OH2 9935   1.904   5.171   5.419
 3331TIP3    H1 9936   1.957   5.133   5.489
 3331TIP3    H2 9937   1.967   5.197   5.352
 3332TIP3   OH2 9938   6.229   5.476   3.883
 3332TIP3    H1 9939   6.205   5.384   3.870
 3332TIP3    H2 9940   6.149   5.518   3.915
 3333TIP3   OH2 9941   7.616   1.704   6.035
 3333TIP3    H1 9942   7.647   1.617   6.060
 3333TIP3    H2 9943   7.649   1.761   6.104
 3334TIP3   OH2 9944   7.548   1.765   3.858
 3334TIP3    H1 9945   7.624   1.820   3.842
 3334TIP3    H2 9946   7.475   1.826   3.867
 3335TIP3   OH2 9947   0.386   0.841   3.747
 3335TIP3    H1 9948   0.417   0.751   3.760
 3335TIP3    H2 9949   0.458   0.886   3.704
 3336TIP3   OH2 9950   7.475   6.680   2.031
 3336TIP3    H1 9951   7.544   6.743   2.009
 3336TIP3    H2 9952   7.401   6.735   2.056
 3337TIP3   OH2 9953   5.039   4.957   1.987
 3337TIP3    H1 9954   5.056   4.938   1.895
 3337TIP3    H2 9955   4.952   4.921   2.003
 3338TIP3   OH2 9956   1.394   5.948   3.330
 3338TIP3    H1 9957   1.366   5.890   3.402
 3338TIP3    H2 9958   1.457   6.008   3.371
 3339TIP3   OH2 9959   8.025   7.469   5.668
 3339TIP3    H1 9960   8.093   7.476   5.600
 3339TIP3    H2 9961   8.046   7.387   5.713
 3340TIP3   OH2 9962   0.085   5.971   4.726
 3340TIP3    H1 9963   0.093   5.919   4.646
 3340TIP3    H2 9964   0.025   5.921   4.781
 3341TIP3   OH2 9965   2.764   4.485   4.784
 3341TIP3    H1 9966   2.746   4.392   4.769
 3341TIP3    H2 9967   2.857   4.495   4.763
 3342TIP3   OH2 9968   6.793   1.866   5.371
 3342TIP3    H1 9969   6.838   1.811   5.435
 3342TIP3    H2 9970   6.702   1.840   5.375
 3343TIP3   OH2 9971   2.991   3.716   2.929
 3343TIP3    H1 9972   3.013   3.647   2.991
 3343TIP3    H2 9973   2.958   3.670   2.852
 3344TIP3   OH2 9974   3.146   2.589   5.820
 3344TIP3    H1 9975   3.198   2.605   5.741
 3344TIP3    H2 9976   3.210   2.565   5.887
 3345TIP3   OH2 9977   3.389   5.922   0.757
 3345TIP3    H1 9978   3.451   5.995   0.764
 3345TIP3    H2 9979   3.384   5.888   0.846
 3346TIP3   OH2 9980   5.584   5.736   2.446
 3346TIP3    H1 9981   5.520   5.736   2.375
 3346TIP3    H2 9982   5.668   5.748   2.403
 3347TIP3   OH2 9983   3.488   6.015   0.332
 3347TIP3    H1 9984   3.476   5.979   0.243
 3347TIP3    H2 9985   3.418   5.975   0.383
 3348TIP3   OH2 9986   0.214   4.279   6.172
 3348TIP3    H1 9987   0.215   4.296   6.078
 3348TIP3    H2 9988   0.125   4.247   6.189
 3349TIP3   OH2 9989   4.922   5.780   5.174
 3349TIP3    H1 9990   4.829   5.806   5.174
 3349TIP3    H2 9991   4.926   5.705   5.114
 3350TIP3   OH2 9992   2.282   6.293   4.797
 3350TIP3    H1 9993   2.235   6.374   4.813
 3350TIP3    H2 9994   2.219   6.237   4.752
 3351TIP3   OH2 9995   0.523   1.463   0.839
 3351TIP3    H1 9996   0.583   1.400   0.797
 3351TIP3    H2 9997   0.510   1.530   0.772
 3352TIP3   OH2 9998   2.177   6.625   4.600
 3352TIP3    H1 9999   2.107   6.688   4.580
 3352TIP3    H210000   2.146   6.579   4.677
 3353TIP3   OH210001   2.099   1.092   5.609
 3353TIP3    H110002   2.116   1.146   5.687
 3353TIP3    H210003   2.022   1.132   5.569
 3354TIP3   OH210004   0.771   2.774   1.849
 3354TIP3    H110005   0.725   2.848   1.810
 3354TIP3    H210006   0.848   2.812   1.891
 3355TIP3   OH210007   1.016   5.714   5.018
 3355TIP3    H110008   1.087   5.720   4.953
 3355TIP3    H210009   1.047   5.650   5.082
 3356TIP3   OH210010   7.313   6.996   2.562
 3356TIP3    H110011   7.295   7.011   2.655
 3356TIP3    H210012   7.295   7.080   2.520
 3357TIP3   OH210013   0.172   3.072   0.877
 3357TIP3    H110014   0.096   3.130   0.892
 3357TIP3    H210015   0.134   2.984   0.872
 3358TIP3   OH210016   0.139   4.173   2.725
 3358TIP3    H110017   0.214   4.191   2.669
 3358TIP3    H210018   0.113   4.084   2.701
 3359TIP3   OH210019   0.431   3.601   0.960
 3359TIP3    H110020   0.456   3.692   0.945
 3359TIP3    H210021   0.465   3.554   0.884
 3360TIP3   OH210022   6.008   1.363   5.209
 3360TIP3    H110023   6.012   1.280   5.162
 3360TIP3    H210024   6.096   1.375   5.244
 3361TIP3   OH210025   1.243   7.621   6.628
 3361TIP3    H110026   1.199   7.616   6.543
 3361TIP3    H210027   1.173   7.610   6.692
 3362TIP3   OH210028   5.071   4.267   5.586
 3362TIP3    H110029   5.049   4.254   5.494
 3362TIP3    H210030   5.143   4.329   5.586
 3363TIP3   OH210031   2.346   5.058   4.555
 3363TIP3    H110032   2.256   5.045   4.585
 3363TIP3    H210033   2.399   5.053   4.634
 3364TIP3   OH210034   3.207   2.152   2.063
 3364TIP3    H110035   3.202   2.200   1.981
 3364TIP3    H210036   3.289   2.103   2.057
 3365TIP3   OH210037   5.192   3.897   3.263
 3365TIP3    H110038   5.134   3.859   3.329
 3365TIP3    H210039   5.204   3.828   3.198
 3366TIP3   OH210040   5.327   5.765   6.422
 3366TIP3    H110041   5.309   5.742   6.513
 3366TIP3    H210042   5.419   5.791   6.421
 3367TIP3   OH210043   0.737   0.154   5.387
 3367TIP3    H110044   0.665   0.200   5.343
 3367TIP3    H210045   0.743   0.195   5.473
 3368TIP3   OH210046   4.998   4.946   4.383
 3368TIP3    H110047   5.045   4.920   4.303
 3368TIP3    H210048   5.012   4.873   4.443
 3369TIP3   OH210049   5.205   4.228   1.300
 3369TIP3    H110050   5.261   4.293   1.257
 3369TIP3    H210051   5.197   4.258   1.390
 3370TIP3   OH210052   3.855   5.341   2.474
 3370TIP3    H110053   3.896   5.258   2.497
 3370TIP3    H210054   3.928   5.403   2.469
 3371TIP3   OH210055   5.200   4.734   1.884
 3371TIP3    H110056   5.258   4.786   1.939
 3371TIP3    H210057   5.180   4.791   1.810
 3372TIP3   OH210058   7.001   1.930   0.771
 3372TIP3    H110059   7.070   1.940   0.836
 3372TIP3    H210060   7.044   1.889   0.696
 3373TIP3   OH210061   7.352   1.202   6.460
 3373TIP3    H110062   7.257   1.206   6.455
 3373TIP3    H210063   7.370   1.165   6.547
 3374TIP3   OH210064   3.609   1.964   3.786
 3374TIP3    H110065   3.551   1.903   3.742
 3374TIP3    H210066   3.608   1.937   3.878
 3375TIP3   OH210067   1.117   1.595   0.277
 3375TIP3    H110068   1.147   1.587   0.368
 3375TIP3    H210069   1.198   1.593   0.225
 3376TIP3   OH210070   6.311   6.402   0.545
 3376TIP3    H110071   6.327   6.389   0.639
 3376TIP3    H210072   6.334   6.493   0.529
 3377TIP3   OH210073   6.639   5.808   0.074
 3377TIP3    H110074   6.648   5.839   0.164
 3377TIP3    H210075   6.725   5.824   0.035
 3378TIP3   OH210076   7.766   0.720   1.319
 3378TIP3    H110077   7.857   0.692   1.331
 3378TIP3    H210078   7.714   0.646   1.352
 3379TIP3   OH210079   5.105   4.191   1.921
 3379TIP3    H110080   5.047   4.201   1.996
 3379TIP3    H210081   5.050   4.213   1.846
 3380TIP3   OH210082   7.622   3.772   2.162
 3380TIP3    H110083   7.643   3.858   2.127
 3380TIP3    H210084   7.647   3.711   2.092
 3381TIP3   OH210085   6.773   2.909   1.727
 3381TIP3    H110086   6.788   2.995   1.689
 3381TIP3    H210087   6.689   2.917   1.773
 3382TIP3   OH210088   3.334   5.004   0.429
 3382TIP3    H110089   3.344   4.912   0.453
 3382TIP3    H210090   3.391   5.015   0.353
 3383TIP3   OH210091   6.984   0.690   5.789
 3383TIP3    H110092   7.076   0.703   5.765
 3383TIP3    H210093   6.935   0.730   5.717
 3384TIP3   OH210094   1.022   1.511   0.632
 3384TIP3    H110095   1.115   1.512   0.653
 3384TIP3    H210096   0.978   1.529   0.715
 3385TIP3   OH210097   1.579   7.703   6.039
 3385TIP3    H110098   1.625   7.715   5.956
 3385TIP3    H210099   1.633   7.640   6.087
 3386TIP3   OH210100   3.385   1.086   2.745
 3386TIP3    H110101   3.318   1.061   2.681
 3386TIP3    H210102   3.412   1.004   2.786
 3387TIP3   OH210103   7.009   4.663   6.533
 3387TIP3    H110104   7.049   4.697   6.453
 3387TIP3    H210105   7.077   4.672   6.600
 3388TIP3   OH210106   1.310   1.262   2.234
 3388TIP3    H110107   1.321   1.346   2.189
 3388TIP3    H210108   1.222   1.234   2.212
 3389TIP3   OH210109   6.105   0.744   3.633
 3389TIP3    H110110   6.101   0.832   3.669
 3389TIP3    H210111   6.192   0.712   3.658
 3390TIP3   OH210112   0.831   2.174   3.611
 3390TIP3    H110113   0.748   2.165   3.659
 3390TIP3    H210114   0.876   2.247   3.653
 3391TIP3   OH210115   5.458   0.467   5.424
 3391TIP3    H110116   5.412   0.401   5.477
 3391TIP3    H210117   5.536   0.489   5.476
 3392TIP3   OH210118   5.450   7.693   0.501
 3392TIP3    H110119   5.506   7.725   0.430
 3392TIP3    H210120   5.454   7.761   0.568
 3393TIP3   OH210121   3.462   0.566   5.970
 3393TIP3    H110122   3.435   0.657   5.980
 3393TIP3    H210123   3.439   0.544   5.880
 3394TIP3   OH210124   7.657   1.434   3.649
 3394TIP3    H110125   7.725   1.366   3.641
 3394TIP3    H210126   7.650   1.450   3.743
 3395TIP3   OH210127   5.677   5.471   3.501
 3395TIP3    H110128   5.584   5.483   3.487
 3395TIP3    H210129   5.719   5.539   3.447
 3396TIP3   OH210130   5.479   7.166   1.259
 3396TIP3    H110131   5.384   7.162   1.270
 3396TIP3    H210132   5.492   7.194   1.169
 3397TIP3   OH210133   6.609   2.985   1.025
 3397TIP3    H110134   6.679   3.040   0.993
 3397TIP3    H210135   6.528   3.028   0.996
 3398TIP3   OH210136   3.939   5.729   4.300
 3398TIP3    H110137   3.902   5.815   4.321
 3398TIP3    H210138   3.873   5.666   4.330
 3399TIP3   OH210139   1.728   5.836   3.353
 3399TIP3    H110140   1.662   5.900   3.378
 3399TIP3    H210141   1.706   5.813   3.263
 3400TIP3   OH210142   0.022   5.319   5.957
 3400TIP3    H110143  -0.040   5.352   6.021
 3400TIP3    H210144   0.082   5.264   6.007
 3401TIP3   OH210145   5.763   4.597   5.873
 3401TIP3    H110146   5.717   4.515   5.887
 3401TIP3    H210147   5.701   4.653   5.825
 3402TIP3   OH210148   5.116   2.305   1.683
 3402TIP3    H110149   5.159   2.220   1.678
 3402TIP3    H210150   5.185   2.368   1.660
 3403TIP3   OH210151   0.454   1.116   4.712
 3403TIP3    H110152   0.366   1.096   4.682
 3403TIP3    H210153   0.448   1.115   4.807
 3404TIP3   OH210154   7.858   3.962   2.385
 3404TIP3    H110155   7.903   3.881   2.361
 3404TIP3    H210156   7.927   4.023   2.409
 3405TIP3   OH210157   5.552   6.161   4.881
 3405TIP3    H110158   5.644   6.142   4.900
 3405TIP3    H210159   5.507   6.144   4.964
 3406TIP3   OH210160   7.159   5.671   6.349
 3406TIP3    H110161   7.114   5.647   6.430
 3406TIP3    H210162   7.099   5.645   6.280
 3407TIP3   OH210163   2.843   4.941   5.899
 3407TIP3    H110164   2.881   4.888   5.969
 3407TIP3    H210165   2.762   4.974   5.936
 3408TIP3   OH210166   1.679   4.293   2.843
 3408TIP3    H110167   1.652   4.231   2.776
 3408TIP3    H210168   1.642   4.377   2.816
 3409TIP3   OH210169   1.490   7.711   0.749
 3409TIP3    H110170   1.420   7.645   0.754
 3409TIP3    H210171   1.495   7.747   0.837
 3410TIP3   OH210172   0.547   3.556   0.713
 3410TIP3    H110173   0.626   3.600   0.681
 3410TIP3    H210174   0.538   3.478   0.657
 3411TIP3   OH210175   6.166   2.393   6.032
 3411TIP3    H110176   6.179   2.299   6.020
 3411TIP3    H210177   6.207   2.413   6.116
 3412TIP3   OH210178   6.226   4.585   6.551
 3412TIP3    H110179   6.152   4.564   6.494
 3412TIP3    H210180   6.288   4.513   6.537
 3413TIP3   OH210181   3.472   0.760   1.966
 3413TIP3    H110182   3.487   0.742   2.059
 3413TIP3    H210183   3.457   0.854   1.962
 3414TIP3   OH210184   2.452   3.821   5.217
 3414TIP3    H110185   2.476   3.911   5.240
 3414TIP3    H210186   2.370   3.806   5.264
 3415TIP3   OH210187   4.735   7.479   0.052
 3415TIP3    H110188   4.657   7.523   0.086
 3415TIP3    H210189   4.727   7.388   0.081
 3416TIP3   OH210190   5.028   4.985   1.206
 3416TIP3    H110191   4.982   4.913   1.164
 3416TIP3    H210192   5.119   4.957   1.210
 3417TIP3   OH210193   4.788   1.549   3.487
 3417TIP3    H110194   4.752   1.635   3.508
 3417TIP3    H210195   4.881   1.566   3.468
 3418TIP3   OH210196   7.072   5.130   3.948
 3418TIP3    H110197   7.111   5.042   3.942
 3418TIP3    H210198   6.985   5.115   3.983
 3419TIP3   OH210199   5.876   2.571   6.784
 3419TIP3    H110200   5.948   2.630   6.762
 3419TIP3    H210201   5.825   2.565   6.704
 3420TIP3   OH210202   4.974   6.605   2.266
 3420TIP3    H110203   4.912   6.575   2.332
 3420TIP3    H210204   5.044   6.540   2.268
 3421TIP3   OH210205   4.709   6.360   6.785
 3421TIP3    H110206   4.733   6.396   6.699
 3421TIP3    H210207   4.614   6.367   6.789
 3422TIP3   OH210208   0.638   6.865   2.937
 3422TIP3    H110209   0.730   6.842   2.936
 3422TIP3    H210210   0.622   6.908   2.853
 3423TIP3   OH210211   1.646   0.507   3.457
 3423TIP3    H110212   1.559   0.548   3.459
 3423TIP3    H210213   1.628   0.413   3.458
 3424TIP3   OH210214   2.430   7.414   3.054
 3424TIP3    H110215   2.402   7.333   3.012
 3424TIP3    H210216   2.516   7.394   3.091
 3425TIP3   OH210217   2.804   2.031   1.743
 3425TIP3    H110218   2.709   2.024   1.754
 3425TIP3    H210219   2.840   2.002   1.827
 3426TIP3   OH210220   5.108   3.748   5.265
 3426TIP3    H110221   5.158   3.707   5.335
 3426TIP3    H210222   5.171   3.804   5.219
 3427TIP3   OH210223   5.173   7.584   2.227
 3427TIP3    H110224   5.198   7.492   2.219
 3427TIP3    H210225   5.228   7.618   2.298
 3428TIP3   OH210226   0.089   2.064   2.389
 3428TIP3    H110227   0.134   2.146   2.371
 3428TIP3    H210228   0.136   2.027   2.464
 3429TIP3   OH210229   8.103   3.498   3.178
 3429TIP3    H110230   8.190   3.491   3.138
 3429TIP3    H210231   8.105   3.436   3.251
 3430TIP3   OH210232   5.669   2.231   5.641
 3430TIP3    H110233   5.594   2.185   5.679
 3430TIP3    H210234   5.723   2.256   5.716
 3431TIP3   OH210235   7.741   4.147   0.215
 3431TIP3    H110236   7.812   4.092   0.247
 3431TIP3    H210237   7.780   4.234   0.205
 3432TIP3   OH210238   4.471   6.214   4.540
 3432TIP3    H110239   4.460   6.142   4.478
 3432TIP3    H210240   4.475   6.171   4.626
 3433TIP3   OH210241   8.255   5.731   5.593
 3433TIP3    H110242   8.292   5.677   5.663
 3433TIP3    H210243   8.163   5.740   5.616
 3434TIP3   OH210244   1.724   5.295   0.190
 3434TIP3    H110245   1.679   5.326   0.111
 3434TIP3    H210246   1.810   5.268   0.159
 3435TIP3   OH210247   1.600   1.940   2.874
 3435TIP3    H110248   1.526   1.890   2.907
 3435TIP3    H210249   1.564   2.027   2.856
 3436TIP3   OH210250   4.647   6.001   3.156
 3436TIP3    H110251   4.705   5.979   3.083
 3436TIP3    H210252   4.668   6.093   3.176
 3437TIP3   OH210253   0.267   0.102   0.961
 3437TIP3    H110254   0.331   0.041   0.925
 3437TIP3    H210255   0.219   0.135   0.885
 3438TIP3   OH210256   2.171   3.417   1.586
 3438TIP3    H110257   2.148   3.424   1.678
 3438TIP3    H210258   2.093   3.381   1.544
 3439TIP3   OH210259   0.745   6.592   4.918
 3439TIP3    H110260   0.826   6.633   4.887
 3439TIP3    H210261   0.744   6.609   5.012
 3440TIP3   OH210262   5.978   7.278   1.500
 3440TIP3    H110263   5.894   7.276   1.454
 3440TIP3    H210264   5.967   7.347   1.566
 3441TIP3   OH210265   7.736   6.232   2.717
 3441TIP3    H110266   7.649   6.266   2.695
 3441TIP3    H210267   7.767   6.288   2.788
 3442TIP3   OH210268   0.717   0.546   6.517
 3442TIP3    H110269   0.654   0.593   6.571
 3442TIP3    H210270   0.754   0.480   6.576
 3443TIP3   OH210271   1.393   5.618   2.375
 3443TIP3    H110272   1.413   5.636   2.467
 3443TIP3    H210273   1.476   5.590   2.338
 3444TIP3   OH210274   1.787   3.530   1.319
 3444TIP3    H110275   1.867   3.581   1.306
 3444TIP3    H210276   1.778   3.522   1.414
 3445TIP3   OH210277   2.945   2.042   2.469
 3445TIP3    H110278   2.960   1.981   2.542
 3445TIP3    H210279   2.953   2.129   2.509
 3446TIP3   OH210280   1.806   0.172   5.358
 3446TIP3    H110281   1.858   0.145   5.434
 3446TIP3    H210282   1.870   0.205   5.295
 3447TIP3   OH210283   5.293   0.129   1.955
 3447TIP3    H110284   5.223   0.085   2.003
 3447TIP3    H210285   5.302   0.079   1.874
 3448TIP3   OH210286   7.170   2.195   2.704
 3448TIP3    H110287   7.188   2.248   2.782
 3448TIP3    H210288   7.149   2.108   2.739
 3449TIP3   OH210289   6.568   0.985   4.544
 3449TIP3    H110290   6.580   0.905   4.595
 3449TIP3    H210291   6.598   1.055   4.602
 3450TIP3   OH210292   4.068   1.792   2.948
 3450TIP3    H110293   3.999   1.796   3.014
 3450TIP3    H210294   4.149   1.778   2.997
 3451TIP3   OH210295   3.982   0.050   1.190
 3451TIP3    H110296   3.899   0.051   1.142
 3451TIP3    H210297   3.989   0.139   1.225
 3452TIP3   OH210298   4.110   3.239   3.208
 3452TIP3    H110299   4.136   3.328   3.186
 3452TIP3    H210300   4.113   3.191   3.125
 3453TIP3   OH210301   0.763   0.995   6.485
 3453TIP3    H110302   0.841   1.014   6.537
 3453TIP3    H210303   0.692   1.040   6.531
 3454TIP3   OH210304   4.315   5.501   3.703
 3454TIP3    H110305   4.369   5.449   3.643
 3454TIP3    H210306   4.327   5.592   3.674
 3455TIP3   OH210307   6.115   7.305   0.193
 3455TIP3    H110308   6.209   7.312   0.180
 3455TIP3    H210309   6.104   7.294   0.287
 3456TIP3   OH210310   3.029   1.951   6.400
 3456TIP3    H110311   3.094   1.890   6.436
 3456TIP3    H210312   3.080   2.014   6.350
 3457TIP3   OH210313   6.554   0.064   1.428
 3457TIP3    H110314   6.627   0.041   1.485
 3457TIP3    H210315   6.548  -0.009   1.366
 3458TIP3   OH210316   5.077   4.228   0.206
 3458TIP3    H110317   5.130   4.282   0.147
 3458TIP3    H210318   5.111   4.139   0.195
 3459TIP3   OH210319   6.203   2.057   4.849
 3459TIP3    H110320   6.282   2.015   4.885
 3459TIP3    H210321   6.237   2.130   4.798
 3460TIP3   OH210322   1.366   6.968   4.589
 3460TIP3    H110323   1.374   7.004   4.500
 3460TIP3    H210324   1.291   7.015   4.627
 3461TIP3   OH210325   4.096   3.510   2.427
 3461TIP3    H110326   4.030   3.510   2.358
 3461TIP3    H210327   4.177   3.534   2.382
 3462TIP3   OH210328   0.981   2.707   5.119
 3462TIP3    H110329   0.921   2.690   5.047
 3462TIP3    H210330   0.935   2.677   5.197
 3463TIP3   OH210331   3.160   0.705   3.255
 3463TIP3    H110332   3.186   0.619   3.289
 3463TIP3    H210333   3.093   0.686   3.190
 3464TIP3   OH210334   0.923   3.972   6.253
 3464TIP3    H110335   1.017   3.958   6.265
 3464TIP3    H210336   0.908   4.064   6.272
 3465TIP3   OH210337   2.575   1.754   4.327
 3465TIP3    H110338   2.530   1.810   4.391
 3465TIP3    H210339   2.649   1.807   4.297
 3466TIP3   OH210340   5.483   0.890   2.139
 3466TIP3    H110341   5.577   0.876   2.128
 3466TIP3    H210342   5.476   0.973   2.187
 3467TIP3   OH210343   7.434   2.699   5.357
 3467TIP3    H110344   7.469   2.772   5.307
 3467TIP3    H210345   7.451   2.622   5.302
 3468TIP3   OH210346   7.098   4.006   0.125
 3468TIP3    H110347   7.068   4.095   0.142
 3468TIP3    H210348   7.018   3.958   0.104
 3469TIP3   OH210349   5.828   3.174   5.167
 3469TIP3    H110350   5.746   3.130   5.145
 3469TIP3    H210351   5.884   3.159   5.091
 3470TIP3   OH210352   6.928   1.029   4.701
 3470TIP3    H110353   6.978   1.041   4.782
 3470TIP3    H210354   6.854   1.088   4.709
 3471TIP3   OH210355   5.357   6.417   2.443
 3471TIP3    H110356   5.315   6.334   2.466
 3471TIP3    H210357   5.451   6.399   2.450
 3472TIP3   OH210358   0.159   0.119   5.327
 3472TIP3    H110359   0.245   0.151   5.298
 3472TIP3    H210360   0.165   0.118   5.423
 3473TIP3   OH210361   1.762   0.746   1.309
 3473TIP3    H110362   1.856   0.734   1.323
 3473TIP3    H210363   1.751   0.841   1.304
 3474TIP3   OH210364   1.570   1.262   1.737
 3474TIP3    H110365   1.549   1.265   1.644
 3474TIP3    H210366   1.629   1.336   1.751
 3475TIP3   OH210367   6.107   7.699   4.264
 3475TIP3    H110368   6.019   7.664   4.282
 3475TIP3    H210369   6.112   7.701   4.169
 3476TIP3   OH210370   1.116   2.160   4.124
 3476TIP3    H110371   1.059   2.117   4.060
 3476TIP3    H210372   1.205   2.142   4.091
 3477TIP3   OH210373   2.153   7.390   5.909
 3477TIP3    H110374   2.058   7.385   5.902
 3477TIP3    H210375   2.169   7.432   5.993
 3478TIP3   OH210376   3.621   4.675   3.393
 3478TIP3    H110377   3.634   4.580   3.385
 3478TIP3    H210378   3.682   4.713   3.331
 3479TIP3   OH210379   5.943   5.737   6.527
 3479TIP3    H110380   5.938   5.788   6.608
 3479TIP3    H210381   5.861   5.688   6.524
 3480TIP3   OH210382   0.739   3.871   3.721
 3480TIP3    H110383   0.726   3.781   3.749
 3480TIP3    H210384   0.833   3.880   3.708
 3481TIP3   OH210385   7.588   6.835   3.142
 3481TIP3    H110386   7.605   6.741   3.143
 3481TIP3    H210387   7.602   6.864   3.232
 3482TIP3   OH210388   3.114   6.124   3.802
 3482TIP3    H110389   3.068   6.111   3.719
 3482TIP3    H210390   3.126   6.219   3.808
 3483TIP3   OH210391   5.882   4.322   3.525
 3483TIP3    H110392   5.911   4.306   3.435
 3483TIP3    H210393   5.818   4.253   3.542
 3484TIP3   OH210394   0.706   0.810   1.823
 3484TIP3    H110395   0.653   0.890   1.825
 3484TIP3    H210396   0.679   0.765   1.743
 3485TIP3   OH210397   7.391   4.900   0.179
 3485TIP3    H110398   7.313   4.954   0.190
 3485TIP3    H210399   7.358   4.813   0.160
 3486TIP3   OH210400   0.916   5.964   5.702
 3486TIP3    H110401   0.918   5.996   5.612
 3486TIP3    H210402   0.827   5.930   5.714
 3487TIP3   OH210403   8.063   1.273   2.327
 3487TIP3    H110404   8.137   1.334   2.334
 3487TIP3    H210405   8.067   1.241   2.237
 3488TIP3   OH210406   7.327   5.208   4.719
 3488TIP3    H110407   7.256   5.196   4.656
 3488TIP3    H210408   7.332   5.124   4.765
 3489TIP3   OH210409   3.039   7.764   6.097
 3489TIP3    H110410   3.126   7.762   6.137
 3489TIP3    H210411   3.034   7.850   6.055
 3490TIP3   OH210412   4.541   6.950   1.274
 3490TIP3    H110413   4.615   6.962   1.333
 3490TIP3    H210414   4.510   7.039   1.255
 3491TIP3   OH210415   3.361   4.751   1.375
 3491TIP3    H110416   3.398   4.680   1.428
 3491TIP3    H210417   3.387   4.731   1.286
 3492TIP3   OH210418   5.027   2.325   4.705
 3492TIP3    H110419   5.055   2.235   4.724
 3492TIP3    H210420   4.941   2.316   4.664
 3493TIP3   OH210421   4.227   6.365   1.626
 3493TIP3    H110422   4.211   6.423   1.552
 3493TIP3    H210423   4.221   6.423   1.703
 3494TIP3   OH210424   8.146   7.186   6.115
 3494TIP3    H110425   8.103   7.253   6.169
 3494TIP3    H210426   8.229   7.169   6.160
 3495TIP3   OH210427   5.237   7.721   3.419
 3495TIP3    H110428   5.174   7.780   3.462
 3495TIP3    H210429   5.296   7.778   3.372
 3496TIP3   OH210430   2.015   5.351   6.006
 3496TIP3    H110431   2.053   5.427   5.962
 3496TIP3    H210432   1.933   5.384   6.045
 3497TIP3   OH210433   2.066   0.169   3.024
 3497TIP3    H110434   1.991   0.220   2.995
 3497TIP3    H210435   2.126   0.169   2.949
 3498TIP3   OH210436   4.789   3.479   6.622
 3498TIP3    H110437   4.848   3.506   6.693
 3498TIP3    H210438   4.717   3.541   6.625
 3499TIP3   OH210439   1.366   6.612   3.676
 3499TIP3    H110440   1.417   6.648   3.603
 3499TIP3    H210441   1.417   6.636   3.754
 3500TIP3   OH210442   4.778   0.051   0.827
 3500TIP3    H110443   4.828   0.014   0.755
 3500TIP3    H210444   4.686   0.040   0.801
 3501TIP3   OH210445   4.832   5.850   5.659
 3501TIP3    H110446   4.819   5.856   5.754
 3501TIP3    H210447   4.808   5.760   5.637
 3502TIP3   OH210448   7.777   0.651   1.622
 3502TIP3    H110449   7.868   0.678   1.611
 3502TIP3    H210450   7.758   0.667   1.714
 3503TIP3   OH210451   0.529   1.990   5.361
 3503TIP3    H110452   0.527   2.082   5.388
 3503TIP3    H210453   0.477   1.987   5.281
 3504TIP3   OH210454   0.424   6.283   1.650
 3504TIP3    H110455   0.510   6.301   1.611
 3504TIP3    H210456   0.383   6.221   1.589
 3505TIP3   OH210457   1.806   4.776   1.987
 3505TIP3    H110458   1.872   4.845   1.992
 3505TIP3    H210459   1.746   4.794   2.059
 3506TIP3   OH210460   6.952   6.649   0.919
 3506TIP3    H110461   6.871   6.697   0.936
 3506TIP3    H210462   6.975   6.674   0.829
 3507TIP3   OH210463   3.081   7.628   4.347
 3507TIP3    H110464   3.053   7.683   4.420
 3507TIP3    H210465   3.176   7.641   4.343
 3508TIP3   OH210466   4.792   2.564   4.865
 3508TIP3    H110467   4.822   2.622   4.935
 3508TIP3    H210468   4.702   2.591   4.848
 3509TIP3   OH210469   1.402   6.227   5.574
 3509TIP3    H110470   1.453   6.204   5.651
 3509TIP3    H210471   1.394   6.145   5.525
 3510TIP3   OH210472   0.449   1.399   3.159
 3510TIP3    H110473   0.387   1.328   3.143
 3510TIP3    H210474   0.534   1.356   3.164
 3511TIP3   OH210475   2.350   0.478   1.836
 3511TIP3    H110476   2.365   0.397   1.787
 3511TIP3    H210477   2.329   0.448   1.925
 3512TIP3   OH210478   2.897   6.597   5.534
 3512TIP3    H110479   2.867   6.507   5.525
 3512TIP3    H210480   2.821   6.645   5.566
 3513TIP3   OH210481   8.160   2.532   3.737
 3513TIP3    H110482   8.229   2.583   3.697
 3513TIP3    H210483   8.119   2.592   3.800
 3514TIP3   OH210484   2.960   0.143   4.356
 3514TIP3    H110485   3.025   0.075   4.377
 3514TIP3    H210486   2.876   0.098   4.360
 3515TIP3   OH210487   1.020   7.603   6.435
 3515TIP3    H110488   0.983   7.523   6.396
 3515TIP3    H210489   1.057   7.651   6.361
 3516TIP3   OH210490   5.011   5.433   5.543
 3516TIP3    H110491   4.941   5.370   5.555
 3516TIP3    H210492   4.974   5.517   5.572
 3517TIP3   OH210493   7.823   6.545   2.100
 3517TIP3    H110494   7.782   6.608   2.159
 3517TIP3    H210495   7.749   6.503   2.055
 3518TIP3   OH210496   7.041   5.495   5.100
 3518TIP3    H110497   6.979   5.469   5.032
 3518TIP3    H210498   7.116   5.530   5.051
 3519TIP3   OH210499   4.987   4.119   5.814
 3519TIP3    H110500   4.998   4.171   5.734
 3519TIP3    H210501   4.985   4.028   5.783
 3520TIP3   OH210502   7.499   4.075   0.266
 3520TIP3    H110503   7.440   4.096   0.194
 3520TIP3    H210504   7.586   4.097   0.234
 3521TIP3   OH210505   0.773   0.688   2.065
 3521TIP3    H110506   0.693   0.664   2.111
 3521TIP3    H210507   0.742   0.727   1.983
 3522TIP3   OH210508   5.511   3.078   1.501
 3522TIP3    H110509   5.428   3.029   1.495
 3522TIP3    H210510   5.579   3.010   1.500
 3523TIP3   OH210511   3.550   2.827   3.419
 3523TIP3    H110512   3.512   2.815   3.506
 3523TIP3    H210513   3.475   2.822   3.359
 3524TIP3   OH210514   5.501   1.738   5.343
 3524TIP3    H110515   5.547   1.709   5.423
 3524TIP3    H210516   5.561   1.801   5.304
 3525TIP3   OH210517   2.342   3.356   0.203
 3525TIP3    H110518   2.273   3.357   0.138
 3525TIP3    H210519   2.302   3.315   0.280
 3526TIP3   OH210520   1.599   2.335   1.535
 3526TIP3    H110521   1.563   2.409   1.485
 3526TIP3    H210522   1.694   2.345   1.527
 3527TIP3   OH210523   8.210   5.908   1.891
 3527TIP3    H110524   8.236   5.817   1.905
 3527TIP3    H210525   8.241   5.954   1.970
 3528TIP3   OH210526   7.908   5.291   5.227
 3528TIP3    H110527   7.991   5.323   5.263
 3528TIP3    H210528   7.877   5.363   5.171
 3529TIP3   OH210529   8.164   2.233   5.611
 3529TIP3    H110530   8.147   2.309   5.556
 3529TIP3    H210531   8.256   2.214   5.599
 3530TIP3   OH210532   4.173   2.553   1.348
 3530TIP3    H110533   4.243   2.556   1.282
 3530TIP3    H210534   4.205   2.609   1.419
 3531TIP3   OH210535   2.200   7.724   5.000
 3531TIP3    H110536   2.274   7.751   4.945
 3531TIP3    H210537   2.188   7.797   5.061
 3532TIP3   OH210538   4.940   6.405   4.431
 3532TIP3    H110539   4.959   6.326   4.482
 3532TIP3    H210540   5.016   6.414   4.373
 3533TIP3   OH210541   2.750   4.911   2.138
 3533TIP3    H110542   2.742   4.837   2.198
 3533TIP3    H210543   2.844   4.927   2.133
 3534TIP3   OH210544   3.206   6.973   1.796
 3534TIP3    H110545   3.220   6.980   1.701
 3534TIP3    H210546   3.160   6.889   1.806
 3535TIP3   OH210547   8.058   5.717   2.586
 3535TIP3    H110548   8.116   5.780   2.543
 3535TIP3    H210549   8.100   5.699   2.670
 3536TIP3   OH210550   3.336   1.503   1.094
 3536TIP3    H110551   3.279   1.553   1.152
 3536TIP3    H210552   3.279   1.436   1.055
 3537TIP3   OH210553   3.125   2.308   1.147
 3537TIP3    H110554   3.201   2.338   1.196
 3537TIP3    H210555   3.093   2.233   1.196
 3538TIP3   OH210556   2.698   7.447   5.408
 3538TIP3    H110557   2.725   7.422   5.320
 3538TIP3    H210558   2.603   7.453   5.403
 3539TIP3   OH210559   0.249   1.184   0.526
 3539TIP3    H110560   0.325   1.230   0.491
 3539TIP3    H210561   0.174   1.224   0.482
 3540TIP3   OH210562   6.232   4.555   3.828
 3540TIP3    H110563   6.288   4.478   3.828
 3540TIP3    H210564   6.143   4.521   3.813
 3541TIP3   OH210565   0.868   5.059   3.969
 3541TIP3    H110566   0.899   5.091   3.884
 3541TIP3    H210567   0.946   5.026   4.012
 3542TIP3   OH210568   6.540   1.848   2.043
 3542TIP3    H110569   6.572   1.908   1.976
 3542TIP3    H210570   6.601   1.774   2.042
 3543TIP3   OH210571   7.270   0.091   4.657
 3543TIP3    H110572   7.227   0.123   4.578
 3543TIP3    H210573   7.202   0.042   4.703
 3544TIP3   OH210574   1.320   7.405   5.998
 3544TIP3    H110575   1.329   7.399   6.093
 3544TIP3    H210576   1.401   7.368   5.964
 3545TIP3   OH210577   1.383   7.659   5.239
 3545TIP3    H110578   1.356   7.675   5.330
 3545TIP3    H210579   1.472   7.694   5.234
 3546TIP3   OH210580   3.135   3.379   2.003
 3546TIP3    H110581   3.188   3.387   2.082
 3546TIP3    H210582   3.074   3.308   2.023
 3547TIP3   OH210583   3.009   5.362   4.567
 3547TIP3    H110584   2.922   5.321   4.566
 3547TIP3    H210585   3.063   5.302   4.619
 3548TIP3   OH210586   2.832   5.961   2.547
 3548TIP3    H110587   2.796   5.895   2.607
 3548TIP3    H210588   2.758   5.988   2.493
 3549TIP3   OH210589   2.471   5.204   0.864
 3549TIP3    H110590   2.462   5.299   0.849
 3549TIP3    H210591   2.412   5.186   0.938
 3550TIP3   OH210592   2.229   1.959   6.296
 3550TIP3    H110593   2.161   1.907   6.254
 3550TIP3    H210594   2.230   2.041   6.247
 3551TIP3   OH210595   0.625   4.764   4.594
 3551TIP3    H110596   0.697   4.750   4.655
 3551TIP3    H210597   0.667   4.797   4.514
 3552TIP3   OH210598   2.072   7.731  -0.007
 3552TIP3    H110599   2.062   7.736   0.088
 3552TIP3    H210600   2.112   7.645  -0.022
 3553TIP3   OH210601   0.526   1.122   3.743
 3553TIP3    H110602   0.586   1.110   3.817
 3553TIP3    H210603   0.583   1.120   3.666
 3554TIP3   OH210604   6.113   7.743   0.913
 3554TIP3    H110605   6.112   7.810   0.845
 3554TIP3    H210606   6.173   7.776   0.979
 3555TIP3   OH210607   0.419   5.700   0.067
 3555TIP3    H110608   0.443   5.623   0.016
 3555TIP3    H210609   0.346   5.739   0.020
 3556TIP3   OH210610   1.339   5.402   4.835
 3556TIP3    H110611   1.248   5.398   4.862
 3556TIP3    H210612   1.389   5.372   4.911
 3557TIP3   OH210613   1.359   2.095   6.691
 3557TIP3    H110614   1.314   2.147   6.757
 3557TIP3    H210615   1.344   2.004   6.718
 3558TIP3   OH210616   3.394   7.728   5.805
 3558TIP3    H110617   3.350   7.677   5.873
 3558TIP3    H210618   3.474   7.760   5.847
 3559TIP3   OH210619   1.235   5.080   2.594
 3559TIP3    H110620   1.256   5.005   2.649
 3559TIP3    H210621   1.291   5.151   2.628
 3560TIP3   OH210622   7.423   6.089   2.722
 3560TIP3    H110623   7.460   6.058   2.804
 3560TIP3    H210624   7.428   6.184   2.728
 3561TIP3   OH210625   0.357   7.201   6.414
 3561TIP3    H110626   0.368   7.249   6.332
 3561TIP3    H210627   0.412   7.123   6.403
 3562TIP3   OH210628   6.744   4.138   1.336
 3562TIP3    H110629   6.687   4.110   1.265
 3562TIP3    H210630   6.814   4.072   1.338
 3563TIP3   OH210631   8.101   1.843   5.293
 3563TIP3    H110632   8.186   1.800   5.298
 3563TIP3    H210633   8.118   1.927   5.251
 3564TIP3   OH210634   3.435   6.225   5.091
 3564TIP3    H110635   3.424   6.272   5.009
 3564TIP3    H210636   3.414   6.289   5.159
 3565TIP3   OH210637   5.797   1.956   2.381
 3565TIP3    H110638   5.837   1.951   2.467
 3565TIP3    H210639   5.851   2.018   2.332
 3566TIP3   OH210640   2.059   5.740   0.629
 3566TIP3    H110641   2.147   5.773   0.610
 3566TIP3    H210642   2.008   5.765   0.552
 3567TIP3   OH210643   3.439   6.649   1.101
 3567TIP3    H110644   3.405   6.610   1.020
 3567TIP3    H210645   3.519   6.694   1.074
 3568TIP3   OH210646   3.146   4.982   3.600
 3568TIP3    H110647   3.053   5.005   3.593
 3568TIP3    H210648   3.193   5.064   3.589
 3569TIP3   OH210649   6.958   5.141   4.717
 3569TIP3    H110650   6.978   5.055   4.753
 3569TIP3    H210651   6.882   5.171   4.766
 3570TIP3   OH210652   6.220   4.809   0.715
 3570TIP3    H110653   6.202   4.723   0.677
 3570TIP3    H210654   6.241   4.865   0.639
 3571TIP3   OH210655   4.414   0.480   5.250
 3571TIP3    H110656   4.334   0.447   5.209
 3571TIP3    H210657   4.443   0.408   5.307
 3572TIP3   OH210658   4.829   4.811   2.751
 3572TIP3    H110659   4.816   4.838   2.660
 3572TIP3    H210660   4.858   4.891   2.795
 3573TIP3   OH210661   3.353   0.362   6.138
 3573TIP3    H110662   3.378   0.295   6.074
 3573TIP3    H210663   3.434   0.383   6.184
 3574TIP3   OH210664   5.719   5.225   2.738
 3574TIP3    H110665   5.689   5.310   2.771
 3574TIP3    H210666   5.672   5.161   2.791
 3575TIP3   OH210667   8.025   7.442   0.033
 3575TIP3    H110668   8.075   7.383   0.089
 3575TIP3    H210669   8.072   7.525   0.038
 3576TIP3   OH210670   0.040   2.600   0.135
 3576TIP3    H110671   0.076   2.650   0.208
 3576TIP3    H210672   0.070   2.647   0.057
 3577TIP3   OH210673   5.015   0.765   3.600
 3577TIP3    H110674   4.995   0.849   3.560
 3577TIP3    H210675   5.015   0.703   3.526
 3578TIP3   OH210676   1.100   7.566   4.476
 3578TIP3    H110677   1.069   7.529   4.558
 3578TIP3    H210678   1.022   7.571   4.421
 3579TIP3   OH210679   2.587   3.528   4.855
 3579TIP3    H110680   2.643   3.483   4.792
 3579TIP3    H210681   2.616   3.496   4.940
 3580TIP3   OH210682   6.515   3.330   0.464
 3580TIP3    H110683   6.482   3.383   0.537
 3580TIP3    H210684   6.445   3.333   0.398
 3581TIP3   OH210685   6.238   1.212   1.998
 3581TIP3    H110686   6.265   1.120   1.997
 3581TIP3    H210687   6.320   1.261   1.991
 3582TIP3   OH210688   6.149   0.783   2.685
 3582TIP3    H110689   6.146   0.688   2.671
 3582TIP3    H210690   6.076   0.801   2.743
 3583TIP3   OH210691   0.346   3.770   1.170
 3583TIP3    H110692   0.274   3.816   1.127
 3583TIP3    H210693   0.373   3.703   1.106
 3584TIP3   OH210694   0.049   7.770   4.648
 3584TIP3    H110695   0.050   7.865   4.652
 3584TIP3    H210696   0.116   7.747   4.584
 3585TIP3   OH210697   3.505   0.037   4.694
 3585TIP3    H110698   3.522   0.124   4.732
 3585TIP3    H210699   3.589   0.010   4.658
 3586TIP3   OH210700   5.718   2.800   4.928
 3586TIP3    H110701   5.646   2.843   4.883
 3586TIP3    H210702   5.747   2.732   4.867
 3587TIP3   OH210703   1.757   4.460   5.474
 3587TIP3    H110704   1.682   4.441   5.530
 3587TIP3    H210705   1.832   4.422   5.521
 3588TIP3   OH210706   4.577   4.546   3.416
 3588TIP3    H110707   4.540   4.471   3.371
 3588TIP3    H210708   4.551   4.621   3.362
 3589TIP3   OH210709   7.327   1.107   5.139
 3589TIP3    H110710   7.257   1.105   5.205
 3589TIP3    H210711   7.368   1.192   5.150
 3590TIP3   OH210712   6.095   5.827   1.779
 3590TIP3    H110713   6.057   5.741   1.796
 3590TIP3    H210714   6.055   5.856   1.697
 3591TIP3   OH210715   0.896   6.688   1.054
 3591TIP3    H110716   0.983   6.720   1.080
 3591TIP3    H210717   0.899   6.687   0.958
 3592TIP3   OH210718   4.829   7.684   3.525
 3592TIP3    H110719   4.848   7.664   3.616
 3592TIP3    H210720   4.883   7.761   3.505
 3593TIP3   OH210721   7.456   5.911   1.768
 3593TIP3    H110722   7.383   5.882   1.713
 3593TIP3    H210723   7.424   5.902   1.858
 3594TIP3   OH210724   4.827   5.621   5.518
 3594TIP3    H110725   4.843   5.675   5.440
 3594TIP3    H210726   4.733   5.601   5.514
 3595TIP3   OH210727   4.267   0.158   5.429
 3595TIP3    H110728   4.272   0.124   5.339
 3595TIP3    H210729   4.182   0.202   5.432
 3596TIP3   OH210730   6.539   7.026   0.857
 3596TIP3    H110731   6.540   7.117   0.887
 3596TIP3    H210732   6.618   7.017   0.803
 3597TIP3   OH210733   6.567   0.697   5.414
 3597TIP3    H110734   6.523   0.734   5.337
 3597TIP3    H210735   6.644   0.653   5.380
 3598TIP3   OH210736   0.784   5.085   5.660
 3598TIP3    H110737   0.838   5.147   5.611
 3598TIP3    H210738   0.830   5.001   5.652
 3599TIP3   OH210739   6.022   3.878   3.914
 3599TIP3    H110740   6.092   3.821   3.882
 3599TIP3    H210741   5.942   3.826   3.902
 3600TIP3   OH210742   0.919   4.391   0.549
 3600TIP3    H110743   0.884   4.354   0.630
 3600TIP3    H210744   0.987   4.330   0.522
 3601TIP3   OH210745   0.924   1.885   0.196
 3601TIP3    H110746   0.962   1.798   0.187
 3601TIP3    H210747   0.877   1.883   0.279
 3602TIP3   OH210748   7.072   4.262   3.127
 3602TIP3    H110749   7.002   4.240   3.067
 3602TIP3    H210750   7.142   4.200   3.106
 3603TIP3   OH210751   0.157   1.486   3.625
 3603TIP3    H110752   0.251   1.466   3.626
 3603TIP3    H210753   0.148   1.554   3.559
 3604TIP3   OH210754   1.128   4.534   1.440
 3604TIP3    H110755   1.036   4.555   1.422
 3604TIP3    H210756   1.126   4.493   1.527
 3605TIP3   OH210757   3.788   7.372   6.565
 3605TIP3    H110758   3.761   7.309   6.632
 3605TIP3    H210759   3.735   7.449   6.582
 3606TIP3   OH210760   3.866   5.736   5.962
 3606TIP3    H110761   3.854   5.793   5.886
 3606TIP3    H210762   3.953   5.700   5.951
 3607TIP3   OH210763   3.310   5.529   0.878
 3607TIP3    H110764   3.381   5.571   0.829
 3607TIP3    H210765   3.231   5.548   0.827
 3608TIP3   OH210766   7.243   5.909   4.588
 3608TIP3    H110767   7.253   5.913   4.683
 3608TIP3    H210768   7.224   5.817   4.570
 3609TIP3   OH210769   6.484   1.520   5.414
 3609TIP3    H110770   6.575   1.549   5.428
 3609TIP3    H210771   6.444   1.522   5.501
 3610TIP3   OH210772   4.312   4.660   4.826
 3610TIP3    H110773   4.223   4.650   4.791
 3610TIP3    H210774   4.328   4.754   4.823
 3611TIP3   OH210775   1.028   4.542   0.987
 3611TIP3    H110776   0.989   4.455   0.998
 3611TIP3    H210777   1.108   4.540   1.040
 3612TIP3   OH210778   2.018   2.176   6.267
 3612TIP3    H110779   1.981   2.153   6.352
 3612TIP3    H210780   2.007   2.097   6.214
 3613TIP3   OH210781   7.552   2.286   3.540
 3613TIP3    H110782   7.582   2.321   3.624
 3613TIP3    H210783   7.505   2.359   3.499
 3614TIP3   OH210784   7.171   5.298   6.518
 3614TIP3    H110785   7.093   5.253   6.484
 3614TIP3    H210786   7.191   5.253   6.600
 3615TIP3   OH210787   6.997   2.399   5.664
 3615TIP3    H110788   6.942   2.351   5.726
 3615TIP3    H210789   7.053   2.331   5.626
 3616TIP3   OH210790   6.290   0.183   4.826
 3616TIP3    H110791   6.362   0.141   4.873
 3616TIP3    H210792   6.239   0.110   4.789
 3617TIP3   OH210793   4.985   1.317   3.770
 3617TIP3    H110794   4.917   1.349   3.830
 3617TIP3    H210795   5.018   1.237   3.811
 3618TIP3   OH210796   6.484   1.861   5.803
 3618TIP3    H110797   6.501   1.845   5.896
 3618TIP3    H210798   6.392   1.886   5.799
 3619TIP3   OH210799   3.027   7.684   0.240
 3619TIP3    H110800   3.091   7.754   0.228
 3619TIP3    H210801   2.985   7.674   0.155
 3620TIP3   OH210802   8.123   6.918   2.510
 3620TIP3    H110803   8.062   6.868   2.564
 3620TIP3    H210804   8.193   6.943   2.570
 3621TIP3   OH210805   3.738   3.054   5.488
 3621TIP3    H110806   3.696   3.116   5.548
 3621TIP3    H210807   3.679   2.979   5.487
 3622TIP3   OH210808  -0.035   3.349   1.209
 3622TIP3    H110809   0.026   3.340   1.136
 3622TIP3    H210810  -0.029   3.441   1.235
 3623TIP3   OH210811   1.227   3.996   3.187
 3623TIP3    H110812   1.158   3.934   3.161
 3623TIP3    H210813   1.185   4.052   3.252
 3624TIP3   OH210814   2.359   7.032   5.894
 3624TIP3    H110815   2.378   6.994   5.809
 3624TIP3    H210816   2.405   7.116   5.894
 3625TIP3   OH210817   6.125   6.029   3.528
 3625TIP3    H110818   6.032   6.009   3.539
 3625TIP3    H210819   6.169   5.945   3.537
 3626TIP3   OH210820   6.009   4.761   1.374
 3626TIP3    H110821   6.022   4.804   1.459
 3626TIP3    H210822   5.914   4.768   1.359
 3627TIP3   OH210823   6.210   2.095   2.431
 3627TIP3    H110824   6.189   2.180   2.468
 3627TIP3    H210825   6.279   2.113   2.367
 3628TIP3   OH210826   3.405   1.445   2.944
 3628TIP3    H110827   3.464   1.426   3.018
 3628TIP3    H210828   3.371   1.532   2.963
 3629TIP3   OH210829   6.300   1.466   0.653
 3629TIP3    H110830   6.290   1.445   0.560
 3629TIP3    H210831   6.258   1.552   0.663
 3630TIP3   OH210832   2.351   6.038   5.084
 3630TIP3    H110833   2.445   6.052   5.093
 3630TIP3    H210834   2.311   6.102   5.143
 3631TIP3   OH210835   1.940   5.885   5.776
 3631TIP3    H110836   2.009   5.861   5.838
 3631TIP3    H210837   1.970   5.968   5.739
 3632TIP3   OH210838   1.314   2.078   2.459
 3632TIP3    H110839   1.291   2.168   2.484
 3632TIP3    H210840   1.399   2.063   2.502
 3633TIP3   OH210841   7.283   5.232   2.890
 3633TIP3    H110842   7.277   5.150   2.940
 3633TIP3    H210843   7.301   5.299   2.956
 3634TIP3   OH210844   7.440   2.240   2.916
 3634TIP3    H110845   7.362   2.211   2.964
 3634TIP3    H210846   7.502   2.168   2.926
 3635TIP3   OH210847   1.024   5.218   1.838
 3635TIP3    H110848   1.003   5.157   1.768
 3635TIP3    H210849   0.950   5.211   1.898
 3636TIP3   OH210850   5.708   3.949   1.930
 3636TIP3    H110851   5.628   3.999   1.911
 3636TIP3    H210852   5.681   3.858   1.928
 3637TIP3   OH210853   4.166   2.133   0.916
 3637TIP3    H110854   4.209   2.055   0.952
 3637TIP3    H210855   4.234   2.200   0.917
 3638TIP3   OH210856   4.637   4.373   5.945
 3638TIP3    H110857   4.709   4.334   5.995
 3638TIP3    H210858   4.628   4.317   5.868
 3639TIP3   OH210859   5.305   2.522   1.652
 3639TIP3    H110860   5.380   2.494   1.704
 3639TIP3    H210861   5.265   2.592   1.702
 3640TIP3   OH210862   6.313   1.436   0.372
 3640TIP3    H110863   6.380   1.368   0.367
 3640TIP3    H210864   6.248   1.410   0.307
 3641TIP3   OH210865   0.093   4.220   3.302
 3641TIP3    H110866   0.007   4.231   3.262
 3641TIP3    H210867   0.084   4.146   3.361
 3642TIP3   OH210868   6.936   0.291   4.051
 3642TIP3    H110869   6.980   0.376   4.049
 3642TIP3    H210870   6.858   0.306   4.103
 3643TIP3   OH210871   2.531   6.831   3.650
 3643TIP3    H110872   2.511   6.836   3.557
 3643TIP3    H210873   2.621   6.863   3.658
 3644TIP3   OH210874   6.981   4.210   4.224
 3644TIP3    H110875   7.056   4.150   4.222
 3644TIP3    H210876   6.935   4.189   4.306
 3645TIP3   OH210877   3.159   0.374   3.785
 3645TIP3    H110878   3.237   0.324   3.759
 3645TIP3    H210879   3.178   0.404   3.873
 3646TIP3   OH210880   7.766   3.073   5.121
 3646TIP3    H110881   7.683   3.102   5.083
 3646TIP3    H210882   7.832   3.096   5.056
 3647TIP3   OH210883   0.855   7.068   0.678
 3647TIP3    H110884   0.862   7.125   0.755
 3647TIP3    H210885   0.780   7.103   0.630
 3648TIP3   OH210886   0.531   1.631   5.604
 3648TIP3    H110887   0.593   1.642   5.676
 3648TIP3    H210888   0.586   1.620   5.527
 3649TIP3   OH210889   6.000   3.674   1.292
 3649TIP3    H110890   6.095   3.674   1.295
 3649TIP3    H210891   5.973   3.658   1.383
 3650TIP3   OH210892   6.509   0.582   3.726
 3650TIP3    H110893   6.534   0.627   3.808
 3650TIP3    H210894   6.464   0.649   3.675
 3651TIP3   OH210895   6.438   2.218   5.952
 3651TIP3    H110896   6.421   2.183   5.864
 3651TIP3    H210897   6.453   2.312   5.937
 3652TIP3   OH210898   3.693   2.464   0.275
 3652TIP3    H110899   3.788   2.448   0.269
 3652TIP3    H210900   3.657   2.380   0.302
 3653TIP3   OH210901   6.010   5.826   0.435
 3653TIP3    H110902   5.988   5.887   0.505
 3653TIP3    H210903   6.080   5.772   0.471
 3654TIP3   OH210904   7.398   0.373   4.810
 3654TIP3    H110905   7.418   0.283   4.836
 3654TIP3    H210906   7.473   0.400   4.757
 3655TIP3   OH210907   2.068   2.282   1.248
 3655TIP3    H110908   2.034   2.193   1.234
 3655TIP3    H210909   2.158   2.278   1.218
 3656TIP3   OH210910   5.267   2.733   0.635
 3656TIP3    H110911   5.220   2.683   0.702
 3656TIP3    H210912   5.283   2.670   0.565
 3657TIP3   OH210913   8.146   7.730   6.230
 3657TIP3    H110914   8.081   7.800   6.232
 3657TIP3    H210915   8.202   7.751   6.155
 3658TIP3   OH210916   4.366   4.206   0.864
 3658TIP3    H110917   4.315   4.139   0.820
 3658TIP3    H210918   4.311   4.285   0.860
 3659TIP3   OH210919   6.364   5.318   4.284
 3659TIP3    H110920   6.443   5.345   4.330
 3659TIP3    H210921   6.378   5.225   4.265
 3660TIP3   OH210922   1.279   2.050   2.184
 3660TIP3    H110923   1.318   2.067   2.269
 3660TIP3    H210924   1.203   2.108   2.180
 3661TIP3   OH210925   4.941   4.956   6.310
 3661TIP3    H110926   4.915   4.912   6.229
 3661TIP3    H210927   4.876   5.025   6.322
 3662TIP3   OH210928   2.752   0.243   2.683
 3662TIP3    H110929   2.700   0.321   2.703
 3662TIP3    H210930   2.707   0.171   2.727
 3663TIP3   OH210931   5.137   4.103   4.773
 3663TIP3    H110932   5.048   4.086   4.743
 3663TIP3    H210933   5.180   4.143   4.697
 3664TIP3   OH210934   5.326   2.772   6.485
 3664TIP3    H110935   5.329   2.709   6.557
 3664TIP3    H210936   5.413   2.811   6.484
 3665TIP3   OH210937   0.846   5.655   2.230
 3665TIP3    H110938   0.899   5.722   2.187
 3665TIP3    H210939   0.812   5.602   2.157
 3666TIP3   OH210940   7.878   5.126   6.212
 3666TIP3    H110941   7.958   5.077   6.192
 3666TIP3    H210942   7.870   5.189   6.141
 3667TIP3   OH210943   0.468   3.389   0.369
 3667TIP3    H110944   0.410   3.339   0.311
 3667TIP3    H210945   0.423   3.473   0.382
 3668TIP3   OH210946   5.846   3.088   0.414
 3668TIP3    H110947   5.774   3.113   0.357
 3668TIP3    H210948   5.806   3.035   0.483
 3669TIP3   OH210949   0.874   3.546   4.576
 3669TIP3    H110950   0.870   3.470   4.635
 3669TIP3    H210951   0.967   3.561   4.563
 3670TIP3   OH210952   0.790   5.027   0.825
 3670TIP3    H110953   0.714   5.086   0.820
 3670TIP3    H210954   0.786   4.991   0.914
 3671TIP3   OH210955   4.248   0.374   1.386
 3671TIP3    H110956   4.315   0.307   1.371
 3671TIP3    H210957   4.276   0.448   1.332
 3672TIP3   OH210958   4.358   0.131   4.401
 3672TIP3    H110959   4.405   0.069   4.346
 3672TIP3    H210960   4.372   0.099   4.490
 3673TIP3   OH210961   3.069   2.958   5.187
 3673TIP3    H110962   3.039   2.866   5.187
 3673TIP3    H210963   3.006   3.003   5.131
 3674TIP3   OH210964   6.174   6.280   5.618
 3674TIP3    H110965   6.109   6.346   5.592
 3674TIP3    H210966   6.126   6.222   5.677
 3675TIP3   OH210967   6.134   5.224   3.959
 3675TIP3    H110968   6.151   5.145   4.011
 3675TIP3    H210969   6.108   5.191   3.873
 3676TIP3   OH210970   5.721   1.932   4.106
 3676TIP3    H110971   5.699   1.894   4.192
 3676TIP3    H210972   5.808   1.897   4.087
 3677TIP3   OH210973   2.913   0.646   6.594
 3677TIP3    H110974   2.891   0.739   6.590
 3677TIP3    H210975   2.973   0.638   6.668
 3678TIP3   OH210976   3.320   1.041   1.390
 3678TIP3    H110977   3.314   1.136   1.378
 3678TIP3    H210978   3.239   1.007   1.352
 3679TIP3   OH210979   1.308   6.355   5.793
 3679TIP3    H110980   1.230   6.323   5.838
 3679TIP3    H210981   1.319   6.296   5.719
 3680TIP3   OH210982   2.565   5.524   3.120
 3680TIP3    H110983   2.554   5.449   3.178
 3680TIP3    H210984   2.502   5.509   3.049
 3681TIP3   OH210985   7.136   1.434   1.086
 3681TIP3    H110986   7.128   1.475   1.172
 3681TIP3    H210987   7.129   1.506   1.024
 3682TIP3   OH210988   7.415   0.374   6.567
 3682TIP3    H110989   7.362   0.454   6.563
 3682TIP3    H210990   7.446   0.370   6.657
 3683TIP3   OH210991   6.900   2.373   5.298
 3683TIP3    H110992   6.870   2.353   5.209
 3683TIP3    H210993   6.889   2.291   5.346
 3684TIP3   OH210994   1.492   6.123   5.819
 3684TIP3    H110995   1.577   6.079   5.818
 3684TIP3    H210996   1.471   6.132   5.912
 3685TIP3   OH210997   4.202   2.766   1.013
 3685TIP3    H110998   4.175   2.695   0.954
 3685TIP3    H210999   4.294   2.781   0.992
 3686TIP3   OH211000   6.438   4.284   2.375
 3686TIP3    H111001   6.477   4.291   2.287
 3686TIP3    H211002   6.407   4.372   2.394
 3687TIP3   OH211003   2.563   7.456   0.090
 3687TIP3    H111004   2.612   7.492   0.016
 3687TIP3    H211005   2.477   7.437   0.054
 3688TIP3   OH211006   5.397   3.637   4.820
 3688TIP3    H111007   5.486   3.674   4.816
 3688TIP3    H211008   5.342   3.711   4.843
 3689TIP3   OH211009   7.090   5.904   4.332
 3689TIP3    H111010   7.128   5.853   4.404
 3689TIP3    H211011   7.161   5.959   4.301
 3690TIP3   OH211012   7.403   5.146   2.636
 3690TIP3    H111013   7.404   5.172   2.728
 3690TIP3    H211014   7.314   5.165   2.606
 3691TIP3   OH211015   4.026   1.400   0.608
 3691TIP3    H111016   3.968   1.422   0.535
 3691TIP3    H211017   3.971   1.351   0.669
 3692TIP3   OH211018   1.374   1.630   2.501
 3692TIP3    H111019   1.453   1.587   2.533
 3692TIP3    H211020   1.401   1.673   2.420
 3693TIP3   OH211021   3.568   1.848   4.050
 3693TIP3    H111022   3.552   1.753   4.046
 3693TIP3    H211023   3.618   1.860   4.131
 3694TIP3   OH211024   0.139   0.447   6.562
 3694TIP3    H111025   0.064   0.478   6.512
 3694TIP3    H211026   0.142   0.505   6.639
 3695TIP3   OH211027   1.387   5.413   2.578
 3695TIP3    H111028   1.472   5.370   2.586
 3695TIP3    H211029   1.393   5.490   2.636
 3696TIP3   OH211030   0.647   5.282   0.803
 3696TIP3    H111031   0.657   5.372   0.832
 3696TIP3    H211032   0.639   5.289   0.707
 3697TIP3   OH211033   4.655   0.534   0.267
 3697TIP3    H111034   4.671   0.607   0.207
 3697TIP3    H211035   4.743   0.503   0.291
 3698TIP3   OH211036   4.112   4.304   1.228
 3698TIP3    H111037   4.160   4.386   1.232
 3698TIP3    H211038   4.027   4.323   1.269
 3699TIP3   OH211039   0.288   0.014   5.919
 3699TIP3    H111040   0.372   0.054   5.898
 3699TIP3    H211041   0.271   0.040   6.009
 3700TIP3   OH211042   2.664   1.218   4.653
 3700TIP3    H111043   2.722   1.235   4.580
 3700TIP3    H211044   2.580   1.256   4.627
 3701TIP3   OH211045   7.426   3.228   0.948
 3701TIP3    H111046   7.519   3.203   0.942
 3701TIP3    H211047   7.382   3.170   0.885
 3702TIP3   OH211048   6.843   4.457   2.961
 3702TIP3    H111049   6.843   4.550   2.938
 3702TIP3    H211050   6.926   4.444   3.008
 3703TIP3   OH211051   4.854   2.583   2.190
 3703TIP3    H111052   4.771   2.570   2.144
 3703TIP3    H211053   4.848   2.525   2.266
 3704TIP3   OH211054   7.663   7.542   5.570
 3704TIP3    H111055   7.602   7.615   5.561
 3704TIP3    H211056   7.750   7.581   5.558
 3705TIP3   OH211057   5.299   5.852   3.204
 3705TIP3    H111058   5.216   5.880   3.165
 3705TIP3    H211059   5.276   5.831   3.295
 3706TIP3   OH211060   8.248   3.895   5.858
 3706TIP3    H111061   8.167   3.874   5.905
 3706TIP3    H211062   8.218   3.944   5.781
 3707TIP3   OH211063   5.325   0.058   1.343
 3707TIP3    H111064   5.419   0.080   1.344
 3707TIP3    H211065   5.312   0.004   1.421
 3708TIP3   OH211066   3.940   3.224   0.329
 3708TIP3    H111067   3.933   3.294   0.393
 3708TIP3    H211068   3.975   3.266   0.251
 3709TIP3   OH211069   4.984   2.567   5.342
 3709TIP3    H111070   4.984   2.484   5.295
 3709TIP3    H211071   4.973   2.543   5.434
 3710TIP3   OH211072   0.564   4.957   3.979
 3710TIP3    H111073   0.548   5.041   3.934
 3710TIP3    H211074   0.659   4.952   3.986
 3711TIP3   OH211075   0.827   2.205   5.227
 3711TIP3    H111076   0.845   2.171   5.315
 3711TIP3    H211077   0.908   2.192   5.179
 3712TIP3   OH211078   5.140   1.259   2.869
 3712TIP3    H111079   5.161   1.306   2.950
 3712TIP3    H211080   5.049   1.280   2.851
 3713TIP3   OH211081   7.547   1.409   2.142
 3713TIP3    H111082   7.548   1.443   2.052
 3713TIP3    H211083   7.554   1.314   2.131
 3714TIP3   OH211084   0.978   6.652   4.778
 3714TIP3    H111085   1.002   6.668   4.686
 3714TIP3    H211086   0.978   6.739   4.818
 3715TIP3   OH211087   4.850   3.715   4.742
 3715TIP3    H111088   4.865   3.731   4.649
 3715TIP3    H211089   4.886   3.628   4.758
 3716TIP3   OH211090   5.098   7.520   3.590
 3716TIP3    H111091   5.034   7.554   3.652
 3716TIP3    H211092   5.156   7.593   3.572
 3717TIP3   OH211093   1.680   3.839   6.039
 3717TIP3    H111094   1.735   3.823   5.962
 3717TIP3    H211095   1.742   3.843   6.112
 3718TIP3   OH211096   5.568   6.351   0.987
 3718TIP3    H111097   5.493   6.316   1.035
 3718TIP3    H211098   5.600   6.422   1.042
 3719TIP3   OH211099   7.453   0.869   5.349
 3719TIP3    H111100   7.374   0.856   5.296
 3719TIP3    H211101   7.522   0.821   5.302
 3720TIP3   OH211102   1.051   3.492   2.141
 3720TIP3    H111103   1.034   3.518   2.051
 3720TIP3    H211104   1.143   3.464   2.141
 3721TIP3   OH211105   5.941   7.550   0.810
 3721TIP3    H111106   5.885   7.618   0.773
 3721TIP3    H211107   6.011   7.597   0.854
 3722TIP3   OH211108   6.811   3.405   2.273
 3722TIP3    H111109   6.839   3.392   2.182
 3722TIP3    H211110   6.807   3.500   2.283
 3723TIP3   OH211111   0.954   0.425   5.192
 3723TIP3    H111112   0.926   0.424   5.283
 3723TIP3    H211113   0.981   0.335   5.173
 3724TIP3   OH211114   6.437   4.323   2.806
 3724TIP3    H111115   6.492   4.309   2.883
 3724TIP3    H211116   6.360   4.369   2.840
 3725TIP3   OH211117   2.517   3.560   0.229
 3725TIP3    H111118   2.454   3.488   0.226
 3725TIP3    H211119   2.465   3.637   0.250
 3726TIP3   OH211120  -0.005   7.868   1.722
 3726TIP3    H111121   0.056   7.882   1.795
 3726TIP3    H211122  -0.020   7.774   1.721
 3727TIP3   OH211123   5.812   5.709   4.733
 3727TIP3    H111124   5.787   5.634   4.787
 3727TIP3    H211125   5.907   5.698   4.720
 3728TIP3   OH211126   0.097   7.310   2.473
 3728TIP3    H111127   0.150   7.236   2.444
 3728TIP3    H211128   0.092   7.299   2.568
 3729TIP3   OH211129   7.987   2.700   5.312
 3729TIP3    H111130   8.020   2.710   5.223
 3729TIP3    H211131   8.062   2.667   5.362
 3730TIP3   OH211132   5.334   2.787   4.571
 3730TIP3    H111133   5.398   2.728   4.610
 3730TIP3    H211134   5.249   2.752   4.599
 3731TIP3   OH211135   1.340   3.408   4.703
 3731TIP3    H111136   1.373   3.484   4.655
 3731TIP3    H211137   1.273   3.371   4.646
 3732TIP3   OH211138   3.132   6.921   0.978
 3732TIP3    H111139   3.191   6.956   0.912
 3732TIP3    H211140   3.190   6.887   1.047
 3733TIP3   OH211141   2.264   3.490   4.178
 3733TIP3    H111142   2.180   3.520   4.211
 3733TIP3    H211143   2.247   3.401   4.146
 3734TIP3   OH211144   2.395   0.654   0.694
 3734TIP3    H111145   2.399   0.578   0.636
 3734TIP3    H211146   2.357   0.621   0.775
 3735TIP3   OH211147   7.509   4.933   0.565
 3735TIP3    H111148   7.520   4.848   0.523
 3735TIP3    H211149   7.437   4.921   0.626
 3736TIP3   OH211150   4.153   4.683   2.518
 3736TIP3    H111151   4.058   4.679   2.520
 3736TIP3    H211152   4.181   4.637   2.598
 3737TIP3   OH211153   5.649   6.052   2.193
 3737TIP3    H111154   5.560   6.043   2.161
 3737TIP3    H211155   5.687   6.121   2.138
 3738TIP3   OH211156   0.082   5.591   5.807
 3738TIP3    H111157   0.097   5.501   5.838
 3738TIP3    H211158   0.128   5.646   5.870
 3739TIP3   OH211159   2.855   1.933   6.162
 3739TIP3    H111160   2.889   1.917   6.250
 3739TIP3    H211161   2.894   2.016   6.135
 3740TIP3   OH211162   0.939   7.183   3.019
 3740TIP3    H111163   0.967   7.167   3.109
 3740TIP3    H211164   0.994   7.125   2.966
 3741TIP3   OH211165   5.782   1.766   2.183
 3741TIP3    H111166   5.797   1.833   2.249
 3741TIP3    H211167   5.816   1.685   2.222
 3742TIP3   OH211168   3.295   6.783   2.704
 3742TIP3    H111169   3.206   6.816   2.709
 3742TIP3    H211170   3.326   6.810   2.618
 3743TIP3   OH211171   5.309   0.781   3.896
 3743TIP3    H111172   5.230   0.783   3.951
 3743TIP3    H211173   5.277   0.800   3.808
 3744TIP3   OH211174   7.371   3.390   1.233
 3744TIP3    H111175   7.315   3.338   1.291
 3744TIP3    H211176   7.360   3.480   1.265
 3745TIP3   OH211177   3.294   1.795   0.564
 3745TIP3    H111178   3.333   1.874   0.526
 3745TIP3    H211179   3.368   1.749   0.605
 3746TIP3   OH211180   6.788   3.091   0.860
 3746TIP3    H111181   6.836   3.020   0.816
 3746TIP3    H211182   6.763   3.150   0.789
 3747TIP3   OH211183   5.988   5.174   6.124
 3747TIP3    H111184   6.004   5.096   6.072
 3747TIP3    H211185   6.004   5.147   6.214
 3748TIP3   OH211186   5.538   3.692   0.065
 3748TIP3    H111187   5.452   3.673   0.028
 3748TIP3    H211188   5.563   3.777   0.028
 3749TIP3   OH211189   7.153   2.343   1.600
 3749TIP3    H111190   7.131   2.249   1.599
 3749TIP3    H211191   7.076   2.386   1.565
 3750TIP3   OH211192   1.062   1.157   0.737
 3750TIP3    H111193   1.146   1.110   0.737
 3750TIP3    H211194   1.081   1.240   0.781
 3751TIP3   OH211195   7.226   3.616   3.952
 3751TIP3    H111196   7.189   3.656   3.874
 3751TIP3    H211197   7.295   3.678   3.979
 3752TIP3   OH211198   1.799   3.311   4.615
 3752TIP3    H111199   1.889   3.326   4.587
 3752TIP3    H211200   1.755   3.276   4.537
 3753TIP3   OH211201   3.530   5.695   0.430
 3753TIP3    H111202   3.573   5.633   0.372
 3753TIP3    H211203   3.535   5.655   0.517
 3754TIP3   OH211204   4.662   4.939   4.802
 3754TIP3    H111205   4.590   4.894   4.848
 3754TIP3    H211206   4.635   4.938   4.710
 3755TIP3   OH211207   8.073   1.007   3.790
 3755TIP3    H111208   8.023   0.984   3.712
 3755TIP3    H211209   8.006   1.030   3.855
 3756TIP3   OH211210   0.248   5.504   5.572
 3756TIP3    H111211   0.173   5.531   5.626
 3756TIP3    H211212   0.250   5.409   5.580
 3757TIP3   OH211213   0.891   7.206   1.974
 3757TIP3    H111214   0.805   7.219   2.013
 3757TIP3    H211215   0.888   7.118   1.936
 3758TIP3   OH211216   3.370   4.029   4.272
 3758TIP3    H111217   3.279   4.046   4.296
 3758TIP3    H211218   3.371   3.937   4.244
 3759TIP3   OH211219   6.429   5.926   3.608
 3759TIP3    H111220   6.499   5.981   3.573
 3759TIP3    H211221   6.420   5.855   3.544
 3760TIP3   OH211222   5.673   2.456   2.722
 3760TIP3    H111223   5.664   2.446   2.627
 3760TIP3    H211224   5.605   2.520   2.746
 3761TIP3   OH211225   2.950   4.437   6.336
 3761TIP3    H111226   2.940   4.387   6.417
 3761TIP3    H211227   3.021   4.394   6.288
 3762TIP3   OH211228   7.480   2.462   0.436
 3762TIP3    H111229   7.503   2.389   0.494
 3762TIP3    H211230   7.537   2.534   0.465
 3763TIP3   OH211231   5.022   7.631   1.608
 3763TIP3    H111232   4.936   7.590   1.596
 3763TIP3    H211233   5.041   7.620   1.702
 3764TIP3   OH211234   7.836   6.668   2.510
 3764TIP3    H111235   7.909   6.690   2.452
 3764TIP3    H211236   7.861   6.703   2.595
 3765TIP3   OH211237   1.838   2.979   3.484
 3765TIP3    H111238   1.874   3.061   3.517
 3765TIP3    H211239   1.757   3.003   3.440
 3766TIP3   OH211240   2.097   7.088   6.208
 3766TIP3    H111241   2.066   7.055   6.124
 3766TIP3    H211242   2.172   7.143   6.187
 3767TIP3   OH211243   0.368   3.660   0.508
 3767TIP3    H111244   0.379   3.752   0.483
 3767TIP3    H211245   0.370   3.661   0.604
 3768TIP3   OH211246   6.900   0.777   5.539
 3768TIP3    H111247   6.908   0.860   5.491
 3768TIP3    H211248   6.958   0.716   5.492
 3769TIP3   OH211249   3.172   0.645   2.593
 3769TIP3    H111250   3.125   0.651   2.676
 3769TIP3    H211251   3.105   0.622   2.529
 3770TIP3   OH211252   1.973   6.425   1.340
 3770TIP3    H111253   1.895   6.407   1.287
 3770TIP3    H211254   1.990   6.518   1.326
 3771TIP3   OH211255   1.702   4.214   2.263
 3771TIP3    H111256   1.758   4.237   2.337
 3771TIP3    H211257   1.747   4.141   2.221
 3772TIP3   OH211258   2.426   2.667   5.177
 3772TIP3    H111259   2.426   2.626   5.091
 3772TIP3    H211260   2.415   2.594   5.238
 3773TIP3   OH211261   0.590   5.249   5.563
 3773TIP3    H111262   0.600   5.248   5.468
 3773TIP3    H211263   0.624   5.164   5.591
 3774TIP3   OH211264   1.240   0.747   1.828
 3774TIP3    H111265   1.173   0.762   1.894
 3774TIP3    H211266   1.245   0.830   1.779
 3775TIP3   OH211267   0.292   1.261   2.739
 3775TIP3    H111268   0.374   1.248   2.786
 3775TIP3    H211269   0.301   1.210   2.658
 3776TIP3   OH211270   5.409   5.066   6.356
 3776TIP3    H111271   5.461   5.041   6.433
 3776TIP3    H211272   5.319   5.071   6.388
 3777TIP3   OH211273   3.189   4.638   0.334
 3777TIP3    H111274   3.103   4.660   0.299
 3777TIP3    H211275   3.173   4.613   0.425
 3778TIP3   OH211276   4.738   6.027   0.583
 3778TIP3    H111277   4.675   5.963   0.616
 3778TIP3    H211278   4.792   6.049   0.659
 3779TIP3   OH211279   1.381   7.055   4.343
 3779TIP3    H111280   1.417   7.144   4.348
 3779TIP3    H211281   1.316   7.060   4.272
 3780TIP3   OH211282   8.091   5.867   0.692
 3780TIP3    H111283   8.112   5.903   0.606
 3780TIP3    H211284   8.169   5.882   0.744
 3781TIP3   OH211285   6.422   7.618   5.853
 3781TIP3    H111286   6.344   7.563   5.844
 3781TIP3    H211287   6.476   7.597   5.777
 3782TIP3   OH211288   5.790   0.765   3.845
 3782TIP3    H111289   5.854   0.818   3.796
 3782TIP3    H211290   5.734   0.830   3.888
 3783TIP3   OH211291   2.046   1.449   4.524
 3783TIP3    H111292   1.957   1.460   4.490
 3783TIP3    H211293   2.050   1.505   4.601
 3784TIP3   OH211294   5.964   2.991   6.156
 3784TIP3    H111295   6.050   2.947   6.153
 3784TIP3    H211296   5.962   3.045   6.077
 3785TIP3   OH211297   3.605   1.870   2.461
 3785TIP3    H111298   3.636   1.955   2.429
 3785TIP3    H211299   3.608   1.877   2.557
 3786TIP3   OH211300   2.553   0.651   4.935
 3786TIP3    H111301   2.486   0.716   4.913
 3786TIP3    H211302   2.634   0.701   4.945
 3787TIP3   OH211303   3.107   4.735  -0.029
 3787TIP3    H111304   3.052   4.779   0.036
 3787TIP3    H211305   3.114   4.797  -0.101
 3788TIP3   OH211306   7.812   2.013   5.786
 3788TIP3    H111307   7.736   2.060   5.751
 3788TIP3    H211308   7.873   2.083   5.811
 3789TIP3   OH211309   2.194   4.567   1.458
 3789TIP3    H111310   2.254   4.525   1.519
 3789TIP3    H211311   2.110   4.525   1.475
 3790TIP3   OH211312   7.979   3.144   0.004
 3790TIP3    H111313   8.024   3.203  -0.056
 3790TIP3    H211314   8.022   3.158   0.089
 3791TIP3   OH211315   3.198   2.556   1.374
 3791TIP3    H111316   3.171   2.628   1.317
 3791TIP3    H211317   3.293   2.566   1.382
 3792TIP3   OH211318   3.387   4.966   2.837
 3792TIP3    H111319   3.405   4.895   2.899
 3792TIP3    H211320   3.302   4.943   2.799
 3793TIP3   OH211321   0.334   2.922   2.289
 3793TIP3    H111322   0.378   2.838   2.302
 3793TIP3    H211323   0.250   2.899   2.249
 3794TIP3   OH211324   2.997   4.094   0.324
 3794TIP3    H111325   2.980   4.002   0.341
 3794TIP3    H211326   3.077   4.113   0.372
 3795TIP3   OH211327   4.128   3.040   1.677
 3795TIP3    H111328   4.123   3.036   1.581
 3795TIP3    H211329   4.194   2.974   1.700
 3796TIP3   OH211330   5.776   5.069   1.855
 3796TIP3    H111331   5.822   4.988   1.876
 3796TIP3    H211332   5.840   5.138   1.870
 3797TIP3   OH211333   2.433   6.704   0.248
 3797TIP3    H111334   2.353   6.657   0.222
 3797TIP3    H211335   2.490   6.635   0.284
 3798TIP3   OH211336   4.058   5.631   2.402
 3798TIP3    H111337   4.090   5.541   2.389
 3798TIP3    H211338   4.129   5.686   2.371
 3799TIP3   OH211339   5.924   3.062   1.540
 3799TIP3    H111340   6.003   3.018   1.570
 3799TIP3    H211341   5.882   2.998   1.482
 3800TIP3   OH211342   5.552   5.607   2.674
 3800TIP3    H111343   5.535   5.515   2.654
 3800TIP3    H211344   5.563   5.650   2.589
 3801TIP3   OH211345   6.853   3.564   3.018
 3801TIP3    H111346   6.888   3.637   3.069
 3801TIP3    H211347   6.877   3.585   2.928
 3802TIP3   OH211348   6.922   1.211   5.608
 3802TIP3    H111349   6.887   1.169   5.687
 3802TIP3    H211350   7.002   1.163   5.589
 3803TIP3   OH211351   3.141   4.617   0.895
 3803TIP3    H111352   3.156   4.705   0.928
 3803TIP3    H211353   3.082   4.577   0.959
 3804TIP3   OH211354   4.724   7.205   0.139
 3804TIP3    H111355   4.779   7.173   0.067
 3804TIP3    H211356   4.635   7.203   0.103
 3805TIP3   OH211357   6.161   2.603   4.673
 3805TIP3    H111358   6.146   2.556   4.756
 3805TIP3    H211359   6.093   2.570   4.614
 3806TIP3   OH211360   4.601   2.465   0.466
 3806TIP3    H111361   4.661   2.535   0.493
 3806TIP3    H211362   4.551   2.444   0.545
 3807TIP3   OH211363   5.884   6.989   5.415
 3807TIP3    H111364   5.844   6.902   5.425
 3807TIP3    H211365   5.941   6.980   5.339
 3808TIP3   OH211366   4.584   7.017   2.743
 3808TIP3    H111367   4.492   7.041   2.729
 3808TIP3    H211368   4.607   6.965   2.667
 3809TIP3   OH211369   2.544   2.481   1.167
 3809TIP3    H111370   2.613   2.414   1.165
 3809TIP3    H211371   2.463   2.431   1.177
 3810TIP3   OH211372   2.564   2.334   3.853
 3810TIP3    H111373   2.584   2.246   3.821
 3810TIP3    H211374   2.508   2.320   3.930
 3811TIP3   OH211375   0.756   2.426   4.845
 3811TIP3    H111376   0.673   2.422   4.893
 3811TIP3    H211377   0.823   2.433   4.914
 3812TIP3   OH211378   5.872   5.367   1.211
 3812TIP3    H111379   5.917   5.293   1.170
 3812TIP3    H211380   5.926   5.388   1.288
 3813TIP3   OH211381   1.409   6.767   1.137
 3813TIP3    H111382   1.421   6.774   1.043
 3813TIP3    H211383   1.496   6.777   1.174
 3814TIP3   OH211384   1.286   2.210   4.520
 3814TIP3    H111385   1.283   2.175   4.609
 3814TIP3    H211386   1.236   2.147   4.468
 3815TIP3   OH211387   0.325   5.836   4.753
 3815TIP3    H111388   0.275   5.876   4.823
 3815TIP3    H211389   0.371   5.909   4.711
 3816TIP3   OH211390   2.214   1.075   1.533
 3816TIP3    H111391   2.201   1.077   1.438
 3816TIP3    H211392   2.283   1.009   1.547
 3817TIP3   OH211393   2.555   4.726   4.075
 3817TIP3    H111394   2.532   4.748   4.166
 3817TIP3    H211395   2.558   4.630   4.074
 3818TIP3   OH211396   0.878   0.827   0.291
 3818TIP3    H111397   0.846   0.810   0.202
 3818TIP3    H211398   0.844   0.914   0.312
 3819TIP3   OH211399   6.512   6.672   3.508
 3819TIP3    H111400   6.603   6.656   3.484
 3819TIP3    H211401   6.488   6.598   3.564
 3820TIP3   OH211402   7.152   2.948   5.869
 3820TIP3    H111403   7.166   3.043   5.878
 3820TIP3    H211404   7.083   2.941   5.802
 3821TIP3   OH211405   2.196   6.770   6.506
 3821TIP3    H111406   2.289   6.755   6.520
 3821TIP3    H211407   2.153   6.721   6.576
 3822TIP3   OH211408   4.203   1.522   4.273
 3822TIP3    H111409   4.293   1.524   4.239
 3822TIP3    H211410   4.198   1.441   4.323
 3823TIP3   OH211411   6.422   0.603   5.800
 3823TIP3    H111412   6.449   0.664   5.869
 3823TIP3    H211413   6.394   0.659   5.728
 3824TIP3   OH211414   7.807   2.206   3.100
 3824TIP3    H111415   7.766   2.176   3.018
 3824TIP3    H211416   7.756   2.163   3.169
 3825TIP3   OH211417   3.028   0.715   1.066
 3825TIP3    H111418   2.993   0.737   1.152
 3825TIP3    H211419   2.972   0.644   1.035
 3826TIP3   OH211420   0.057   1.940   3.241
 3826TIP3    H111421   0.083   1.980   3.323
 3826TIP3    H211422   0.005   2.006   3.197
 3827TIP3   OH211423   3.053   6.859   3.456
 3827TIP3    H111424   2.979   6.828   3.403
 3827TIP3    H211425   3.030   6.949   3.479
 3828TIP3   OH211426   1.287   5.923   6.653
 3828TIP3    H111427   1.268   5.911   6.560
 3828TIP3    H211428   1.236   5.856   6.697
 3829TIP3   OH211429   4.520   0.360   4.032
 3829TIP3    H111430   4.555   0.442   4.066
 3829TIP3    H211431   4.564   0.291   4.082
 3830TIP3   OH211432   5.070   4.782   0.239
 3830TIP3    H111433   5.110   4.762   0.154
 3830TIP3    H211434   5.029   4.700   0.266
 3831TIP3   OH211435   8.008   5.411   6.553
 3831TIP3    H111436   8.022   5.501   6.524
 3831TIP3    H211437   7.920   5.389   6.523
 3832TIP3   OH211438   6.139   1.617   1.302
 3832TIP3    H111439   6.161   1.612   1.395
 3832TIP3    H211440   6.218   1.589   1.257
 3833TIP3   OH211441   6.284   1.075   1.305
 3833TIP3    H111442   6.205   1.125   1.326
 3833TIP3    H211443   6.273   0.993   1.353
 3834TIP3   OH211444   7.552   4.501   1.213
 3834TIP3    H111445   7.612   4.439   1.172
 3834TIP3    H211446   7.530   4.563   1.142
 3835TIP3   OH211447   2.639   1.161   2.269
 3835TIP3    H111448   2.675   1.227   2.329
 3835TIP3    H211449   2.562   1.203   2.230
 3836TIP3   OH211450   3.697   4.754   3.017
 3836TIP3    H111451   3.748   4.835   3.011
 3836TIP3    H211452   3.759   4.689   3.049
 3837TIP3   OH211453   0.880   2.725   2.458
 3837TIP3    H111454   0.960   2.679   2.485
 3837TIP3    H211455   0.815   2.699   2.523
 3838TIP3   OH211456   5.456   3.899   3.668
 3838TIP3    H111457   5.464   3.994   3.656
 3838TIP3    H211458   5.482   3.885   3.759
 3839TIP3   OH211459   6.742   7.711   3.769
 3839TIP3    H111460   6.700   7.655   3.704
 3839TIP3    H211461   6.821   7.744   3.726
 3840TIP3   OH211462   0.247   6.832   0.680
 3840TIP3    H111463   0.261   6.926   0.668
 3840TIP3    H211464   0.203   6.803   0.600
 3841TIP3   OH211465   0.631   1.829   4.680
 3841TIP3    H111466   0.724   1.820   4.702
 3841TIP3    H211467   0.606   1.743   4.648
 3842TIP3   OH211468   5.821   3.672   2.129
 3842TIP3    H111469   5.833   3.728   2.205
 3842TIP3    H211470   5.903   3.623   2.122
 3843TIP3   OH211471   6.063   1.719   0.847
 3843TIP3    H111472   6.048   1.792   0.908
 3843TIP3    H211473   6.008   1.648   0.881
 3844TIP3   OH211474   1.130   0.141   2.904
 3844TIP3    H111475   1.099   0.187   2.825
 3844TIP3    H211476   1.223   0.165   2.910
 3845TIP3   OH211477   6.352   4.975   1.268
 3845TIP3    H111478   6.321   5.031   1.339
 3845TIP3    H211479   6.420   5.027   1.224
 3846TIP3   OH211480   6.782   5.631   2.078
 3846TIP3    H111481   6.848   5.647   2.146
 3846TIP3    H211482   6.713   5.582   2.122
 3847TIP3   OH211483   7.525   2.498   1.651
 3847TIP3    H111484   7.592   2.556   1.614
 3847TIP3    H211485   7.471   2.473   1.576
 3848TIP3   OH211486   1.253   1.029   1.740
 3848TIP3    H111487   1.334   1.010   1.692
 3848TIP3    H211488   1.265   1.119   1.771
 3849TIP3   OH211489   6.955   1.496   2.110
 3849TIP3    H111490   6.988   1.407   2.126
 3849TIP3    H211491   7.008   1.551   2.168
 3850TIP3   OH211492   8.143   2.994   4.233
 3850TIP3    H111493   8.192   3.013   4.313
 3850TIP3    H211494   8.054   2.975   4.264
 3851TIP3   OH211495   4.498   1.312   3.387
 3851TIP3    H111496   4.442   1.376   3.431
 3851TIP3    H211497   4.542   1.361   3.318
 3852TIP3   OH211498   3.734   0.126   4.574
 3852TIP3    H111499   3.801   0.172   4.625
 3852TIP3    H211500   3.777   0.046   4.545
 3853TIP3   OH211501   2.306   0.078   5.077
 3853TIP3    H111502   2.395   0.101   5.105
 3853TIP3    H211503   2.296   0.119   4.991
 3854TIP3   OH211504   6.524   2.887   0.033
 3854TIP3    H111505   6.615   2.887   0.063
 3854TIP3    H211506   6.476   2.840   0.101
 3855TIP3   OH211507   8.019   1.068   0.766
 3855TIP3    H111508   8.015   1.163   0.762
 3855TIP3    H211509   7.977   1.039   0.685
 3856TIP3   OH211510   2.191   1.796   4.893
 3856TIP3    H111511   2.212   1.886   4.919
 3856TIP3    H211512   2.276   1.758   4.871
 3857TIP3   OH211513   4.924   0.450   5.071
 3857TIP3    H111514   4.831   0.454   5.091
 3857TIP3    H211515   4.928   0.413   4.983
 3858TIP3   OH211516   6.359   6.036   3.880
 3858TIP3    H111517   6.374   5.972   3.811
 3858TIP3    H211518   6.357   6.121   3.835
 3859TIP3   OH211519   8.229   3.448   2.387
 3859TIP3    H111520   8.187   3.374   2.344
 3859TIP3    H211521   8.281   3.490   2.318
 3860TIP3   OH211522   6.993   1.491   5.181
 3860TIP3    H111523   6.970   1.478   5.273
 3860TIP3    H211524   6.932   1.557   5.150
 3861TIP3   OH211525   6.297   4.101   1.582
 3861TIP3    H111526   6.342   4.122   1.500
 3861TIP3    H211527   6.249   4.020   1.564
 3862TIP3   OH211528   0.370   4.780   1.007
 3862TIP3    H111529   0.395   4.747   0.920
 3862TIP3    H211530   0.371   4.702   1.063
 3863TIP3   OH211531   2.930   5.654   5.878
 3863TIP3    H111532   2.888   5.591   5.820
 3863TIP3    H211533   3.023   5.646   5.860
 3864TIP3   OH211534   2.198   1.374   3.167
 3864TIP3    H111535   2.268   1.309   3.159
 3864TIP3    H211536   2.244   1.457   3.180
 3865TIP3   OH211537   2.184   2.360   2.380
 3865TIP3    H111538   2.114   2.394   2.435
 3865TIP3    H211539   2.258   2.419   2.397
 3866TIP3   OH211540   1.186   0.331   2.280
 3866TIP3    H111541   1.269   0.377   2.291
 3866TIP3    H211542   1.129   0.395   2.237
 3867TIP3   OH211543   3.036   1.081   1.315
 3867TIP3    H111544   3.030   0.993   1.352
 3867TIP3    H211545   3.013   1.070   1.223
 3868TIP3   OH211546   3.327   6.531   0.868
 3868TIP3    H111547   3.340   6.515   0.775
 3868TIP3    H211548   3.290   6.449   0.901
 3869TIP3   OH211549   7.774   4.360   5.738
 3869TIP3    H111550   7.722   4.384   5.661
 3869TIP3    H211551   7.732   4.282   5.772
 3870TIP3   OH211552   2.249   0.054   6.684
 3870TIP3    H111553   2.177  -0.008   6.676
 3870TIP3    H211554   2.257   0.093   6.597
 3871TIP3   OH211555   0.423   7.262   4.304
 3871TIP3    H111556   0.493   7.326   4.320
 3871TIP3    H211557   0.423   7.207   4.383
 3872TIP3   OH211558   1.910   6.759   0.431
 3872TIP3    H111559   1.971   6.689   0.453
 3872TIP3    H211560   1.823   6.719   0.439
 3873TIP3   OH211561   6.779   2.471   6.728
 3873TIP3    H111562   6.868   2.499   6.705
 3873TIP3    H211563   6.791   2.414   6.804
 3874TIP3   OH211564   1.844   1.104   1.101
 3874TIP3    H111565   1.932   1.120   1.068
 3874TIP3    H211566   1.819   1.020   1.063
 3875TIP3   OH211567   3.959   0.927   2.794
 3875TIP3    H111568   4.001   0.866   2.855
 3875TIP3    H211569   3.926   0.871   2.723
 3876TIP3   OH211570   3.521   3.519   1.527
 3876TIP3    H111571   3.528   3.435   1.572
 3876TIP3    H211572   3.461   3.503   1.455
 3877TIP3   OH211573   4.535   2.609   1.366
 3877TIP3    H111574   4.456   2.586   1.415
 3877TIP3    H211575   4.586   2.528   1.364
 3878TIP3   OH211576   3.022   1.368   6.645
 3878TIP3    H111577   3.008   1.431   6.574
 3878TIP3    H211578   2.945   1.379   6.702
 3879TIP3   OH211579   3.830   4.400   2.783
 3879TIP3    H111580   3.788   4.484   2.765
 3879TIP3    H211581   3.906   4.422   2.837
 3880TIP3   OH211582   6.509   0.319   2.532
 3880TIP3    H111583   6.552   0.247   2.485
 3880TIP3    H211584   6.420   0.287   2.548
 3881TIP3   OH211585   0.596   3.642   1.620
 3881TIP3    H111586   0.651   3.607   1.549
 3881TIP3    H211587   0.632   3.730   1.637
 3882TIP3   OH211588   1.930   3.101   2.277
 3882TIP3    H111589   2.015   3.062   2.257
 3882TIP3    H211590   1.949   3.167   2.345
 3883TIP3   OH211591   2.612   1.866   5.002
 3883TIP3    H111592   2.621   1.952   4.962
 3883TIP3    H211593   2.616   1.882   5.096
 3884TIP3   OH211594   6.891   5.967   3.942
 3884TIP3    H111595   6.954   6.037   3.923
 3884TIP3    H211596   6.946   5.891   3.962
 3885TIP3   OH211597   4.147   1.353   4.781
 3885TIP3    H111598   4.232   1.343   4.737
 3885TIP3    H211599   4.083   1.329   4.714
 3886TIP3   OH211600   0.962   4.610   1.727
 3886TIP3    H111601   0.999   4.688   1.769
 3886TIP3    H211602   0.901   4.644   1.662
 3887TIP3   OH211603   4.136   0.506   3.739
 3887TIP3    H111604   4.178   0.428   3.775
 3887TIP3    H211605   4.112   0.481   3.649
 3888TIP3   OH211606   7.546   6.041   5.912
 3888TIP3    H111607   7.551   6.066   6.004
 3888TIP3    H211608   7.479   5.972   5.910
 3889TIP3   OH211609   2.001   4.209   4.856
 3889TIP3    H111610   2.073   4.167   4.808
 3889TIP3    H211611   1.955   4.261   4.790
 3890TIP3   OH211612   4.214   0.245   6.421
 3890TIP3    H111613   4.238   0.159   6.385
 3890TIP3    H211614   4.168   0.224   6.502
 3891TIP3   OH211615   5.739   2.305   0.082
 3891TIP3    H111616   5.808   2.335   0.142
 3891TIP3    H211617   5.735   2.372   0.014
 3892TIP3   OH211618   2.590   3.442   4.061
 3892TIP3    H111619   2.570   3.355   4.095
 3892TIP3    H211620   2.610   3.428   3.968
 3893TIP3   OH211621   4.685   2.017   0.425
 3893TIP3    H111622   4.635   1.944   0.390
 3893TIP3    H211623   4.760   1.976   0.468
 3894TIP3   OH211624   4.660   2.191   0.146
 3894TIP3    H111625   4.582   2.145   0.174
 3894TIP3    H211626   4.724   2.122   0.129
 3895TIP3   OH211627   2.552   3.103   1.490
 3895TIP3    H111628   2.531   3.164   1.561
 3895TIP3    H211629   2.637   3.132   1.457
 3896TIP3   OH211630   4.082   7.346   5.493
 3896TIP3    H111631   4.135   7.313   5.565
 3896TIP3    H211632   3.993   7.351   5.529
 3897TIP3   OH211633   4.564   4.931   4.076
 3897TIP3    H111634   4.498   4.979   4.126
 3897TIP3    H211635   4.514   4.868   4.024
 3898TIP3   OH211636   6.627   0.393   0.637
 3898TIP3    H111637   6.710   0.350   0.615
 3898TIP3    H211638   6.644   0.486   0.623
 3899TIP3   OH211639   4.678   6.253   3.258
 3899TIP3    H111640   4.716   6.315   3.197
 3899TIP3    H211641   4.620   6.305   3.314
 3900TIP3   OH211642   6.639   7.040   0.563
 3900TIP3    H111643   6.653   6.946   0.557
 3900TIP3    H211644   6.717   7.079   0.523
 3901TIP3   OH211645   7.385   3.643   4.904
 3901TIP3    H111646   7.473   3.676   4.923
 3901TIP3    H211647   7.327   3.713   4.935
 3902TIP3   OH211648   3.346   5.865   2.390
 3902TIP3    H111649   3.322   5.836   2.302
 3902TIP3    H211650   3.262   5.882   2.433
 3903TIP3   OH211651   8.212   4.365   5.337
 3903TIP3    H111652   8.268   4.341   5.411
 3903TIP3    H211653   8.123   4.350   5.369
 3904TIP3   OH211654   6.385   2.690   0.154
 3904TIP3    H111655   6.356   2.625   0.218
 3904TIP3    H211656   6.425   2.638   0.084
 3905TIP3   OH211657   5.463   3.093   4.586
 3905TIP3    H111658   5.374   3.123   4.571
 3905TIP3    H211659   5.454   3.002   4.616
 3906TIP3   OH211660   8.232   5.377   0.705
 3906TIP3    H111661   8.198   5.290   0.726
 3906TIP3    H211662   8.217   5.428   0.785
 3907TIP3   OH211663   4.570  -0.032   3.732
 3907TIP3    H111664   4.564  -0.094   3.660
 3907TIP3    H211665   4.601   0.049   3.692
 3908TIP3   OH211666   3.113   7.427   2.718
 3908TIP3    H111667   3.066   7.504   2.685
 3908TIP3    H211668   3.204   7.441   2.692
 3909TIP3   OH211669   2.348   6.096   5.592
 3909TIP3    H111670   2.263   6.052   5.602
 3909TIP3    H211671   2.335   6.155   5.518
 3910TIP3   OH211672   5.413   6.670   2.514
 3910TIP3    H111673   5.363   6.702   2.589
 3910TIP3    H211674   5.381   6.581   2.499
 3911TIP3   OH211675   3.697   2.425   2.617
 3911TIP3    H111676   3.733   2.478   2.689
 3911TIP3    H211677   3.753   2.446   2.542
 3912TIP3   OH211678   3.777   3.982   4.397
 3912TIP3    H111679   3.706   4.046   4.402
 3912TIP3    H211680   3.855   4.031   4.425
 3913TIP3   OH211681   0.338   1.279   1.411
 3913TIP3    H111682   0.302   1.367   1.406
 3913TIP3    H211683   0.404   1.276   1.341
 3914TIP3   OH211684   4.027   0.257   3.086
 3914TIP3    H111685   4.119   0.232   3.099
 3914TIP3    H211686   4.016   0.259   2.991
 3915TIP3   OH211687   1.513   1.595   4.994
 3915TIP3    H111688   1.429   1.630   4.964
 3915TIP3    H211689   1.574   1.668   4.983
 3916TIP3   OH211690   3.749   1.186   2.568
 3916TIP3    H111691   3.830   1.236   2.577
 3916TIP3    H211692   3.684   1.237   2.617
 3917TIP3   OH211693   2.425   1.380   1.552
 3917TIP3    H111694   2.467   1.322   1.488
 3917TIP3    H211695   2.383   1.321   1.614
 3918TIP3   OH211696   5.936   5.194   0.433
 3918TIP3    H111697   5.851   5.179   0.393
 3918TIP3    H211698   5.962   5.108   0.468
 3919TIP3   OH211699   3.106   4.109   4.531
 3919TIP3    H111700   3.035   4.157   4.488
 3919TIP3    H211701   3.182   4.166   4.522
 3920TIP3   OH211702   0.057   4.667   6.128
 3920TIP3    H111703   0.085   4.746   6.081
 3920TIP3    H211704   0.138   4.619   6.145
 3921TIP3   OH211705   2.489   3.707   3.735
 3921TIP3    H111706   2.584   3.701   3.741
 3921TIP3    H211707   2.460   3.623   3.700
 3922TIP3   OH211708   4.474   3.746   0.307
 3922TIP3    H111709   4.550   3.754   0.249
 3922TIP3    H211710   4.399   3.766   0.250
 3923TIP3   OH211711   6.305   7.441   1.816
 3923TIP3    H111712   6.328   7.353   1.786
 3923TIP3    H211713   6.343   7.447   1.904
 3924TIP3   OH211714   4.659   4.995   3.611
 3924TIP3    H111715   4.689   4.996   3.702
 3924TIP3    H211716   4.619   5.081   3.598
 3925TIP3   OH211717   1.931   6.536   5.740
 3925TIP3    H111718   1.932   6.597   5.814
 3925TIP3    H211719   1.871   6.577   5.677
 3926TIP3   OH211720   2.829   6.600   3.212
 3926TIP3    H111721   2.827   6.508   3.238
 3926TIP3    H211722   2.917   6.614   3.179
 3927TIP3   OH211723   6.664   3.791   3.495
 3927TIP3    H111724   6.588   3.817   3.444
 3927TIP3    H211725   6.666   3.696   3.489
 3928TIP3   OH211726   8.134   7.252   2.585
 3928TIP3    H111727   8.191   7.268   2.510
 3928TIP3    H211728   8.045   7.261   2.550
 3929TIP3   OH211729   7.595   7.352   5.049
 3929TIP3    H111730   7.599   7.406   5.128
 3929TIP3    H211731   7.606   7.415   4.977
 3930TIP3   OH211732   2.994   2.888   4.275
 3930TIP3    H111733   2.959   2.965   4.229
 3930TIP3    H211734   2.930   2.871   4.344
 3931TIP3   OH211735   4.762   2.783   6.679
 3931TIP3    H111736   4.714   2.782   6.762
 3931TIP3    H211737   4.704   2.828   6.618
 3932TIP3   OH211738   7.199   6.932   5.896
 3932TIP3    H111739   7.289   6.953   5.872
 3932TIP3    H211740   7.195   6.836   5.895
 3933TIP3   OH211741   4.924   4.310   4.898
 3933TIP3    H111742   4.898   4.238   4.955
 3933TIP3    H211743   5.019   4.306   4.895
 3934TIP3   OH211744   2.074   3.349   1.327
 3934TIP3    H111745   2.145   3.285   1.331
 3934TIP3    H211746   2.005   3.311   1.381
 3935TIP3   OH211747   2.299   6.457   1.072
 3935TIP3    H111748   2.208   6.483   1.078
 3935TIP3    H211749   2.299   6.364   1.097
 3936TIP3   OH211750   0.680   6.506   1.101
 3936TIP3    H111751   0.750   6.569   1.082
 3936TIP3    H211752   0.722   6.436   1.151
 3937TIP3   OH211753   4.674   5.112   5.077
 3937TIP3    H111754   4.639   5.046   5.137
 3937TIP3    H211755   4.671   5.193   5.127
 3938TIP3   OH211756   3.709   2.559   4.940
 3938TIP3    H111757   3.697   2.467   4.963
 3938TIP3    H211758   3.762   2.557   4.860
 3939TIP3   OH211759   5.804   3.417   6.641
 3939TIP3    H111760   5.878   3.357   6.641
 3939TIP3    H211761   5.729   3.362   6.665
 3940TIP3   OH211762   2.072   3.806   4.158
 3940TIP3    H111763   2.114   3.892   4.166
 3940TIP3    H211764   2.047   3.784   4.248
 3941TIP3   OH211765   5.990   5.293   5.053
 3941TIP3    H111766   6.072   5.342   5.063
 3941TIP3    H211767   5.929   5.336   5.113
 3942TIP3   OH211768   0.074   2.360   3.591
 3942TIP3    H111769   0.060   2.453   3.575
 3942TIP3    H211770   0.150   2.337   3.537
 3943TIP3   OH211771   7.953   6.245   5.876
 3943TIP3    H111772   7.995   6.317   5.831
 3943TIP3    H211773   7.899   6.286   5.944
 3944TIP3   OH211774   3.143   7.579   1.428
 3944TIP3    H111775   3.136   7.557   1.335
 3944TIP3    H211776   3.093   7.511   1.473
 3945TIP3   OH211777   3.061   2.039   3.369
 3945TIP3    H111778   3.054   2.099   3.296
 3945TIP3    H211779   3.137   1.984   3.348
 3946TIP3   OH211780   7.380   7.176   0.112
 3946TIP3    H111781   7.466   7.157   0.074
 3946TIP3    H211782   7.397   7.243   0.178
 3947TIP3   OH211783   0.734   0.075   1.094
 3947TIP3    H111784   0.774   0.129   1.027
 3947TIP3    H211785   0.733   0.130   1.172
 3948TIP3   OH211786   5.740   3.001   5.611
 3948TIP3    H111787   5.698   2.976   5.529
 3948TIP3    H211788   5.800   2.929   5.630
 3949TIP3   OH211789   7.604   6.383   3.661
 3949TIP3    H111790   7.661   6.324   3.612
 3949TIP3    H211791   7.518   6.341   3.660
 3950TIP3   OH211792   0.223   7.588   3.677
 3950TIP3    H111793   0.258   7.531   3.609
 3950TIP3    H211794   0.251   7.676   3.651
 3951TIP3   OH211795   8.187   4.056   2.136
 3951TIP3    H111796   8.189   4.146   2.103
 3951TIP3    H211797   8.145   4.063   2.222
 3952TIP3   OH211798   0.825   5.473   3.415
 3952TIP3    H111799   0.811   5.411   3.486
 3952TIP3    H211800   0.872   5.546   3.455
 3953TIP3   OH211801   4.474   3.727   0.994
 3953TIP3    H111802   4.540   3.661   0.975
 3953TIP3    H211803   4.406   3.680   1.042
 3954TIP3   OH211804   2.567   2.044   1.168
 3954TIP3    H111805   2.533   1.956   1.152
 3954TIP3    H211806   2.548   2.060   1.260
 3955TIP3   OH211807   0.314   5.746   5.442
 3955TIP3    H111808   0.232   5.793   5.455
 3955TIP3    H211809   0.308   5.671   5.502
 3956TIP3   OH211810   2.248   3.138   6.447
 3956TIP3    H111811   2.282   3.174   6.366
 3956TIP3    H211812   2.323   3.096   6.489
 3957TIP3   OH211813   5.362   3.542   2.371
 3957TIP3    H111814   5.360   3.523   2.277
 3957TIP3    H211815   5.391   3.461   2.412
 3958TIP3   OH211816   3.769   2.303   5.148
 3958TIP3    H111817   3.781   2.390   5.186
 3958TIP3    H211818   3.678   2.280   5.169
 3959TIP3   OH211819   4.057   5.847   4.675
 3959TIP3    H111820   4.071   5.857   4.769
 3959TIP3    H211821   4.122   5.781   4.648
 3960TIP3   OH211822   6.764   3.680   6.457
 3960TIP3    H111823   6.844   3.692   6.509
 3960TIP3    H211824   6.794   3.635   6.378
 3961TIP3   OH211825   6.575   7.190   0.299
 3961TIP3    H111826   6.532   7.202   0.383
 3961TIP3    H211827   6.552   7.267   0.248
 3962TIP3   OH211828   3.013   1.116   2.872
 3962TIP3    H111829   3.064   1.109   2.953
 3962TIP3    H211830   3.052   1.190   2.825
 3963TIP3   OH211831   0.791   2.441   5.893
 3963TIP3    H111832   0.750   2.398   5.819
 3963TIP3    H211833   0.764   2.390   5.969
 3964TIP3   OH211834   2.783   4.495   0.093
 3964TIP3    H111835   2.833   4.418   0.118
 3964TIP3    H211836   2.795   4.556   0.167
 3965TIP3   OH211837   3.099   3.540   1.816
 3965TIP3    H111838   3.139   3.627   1.820
 3965TIP3    H211839   3.146   3.490   1.883
 3966TIP3   OH211840   4.504   7.622   0.103
 3966TIP3    H111841   4.430   7.605   0.044
 3966TIP3    H211842   4.500   7.552   0.167
 3967TIP3   OH211843   6.790   5.925   3.130
 3967TIP3    H111844   6.788   5.831   3.147
 3967TIP3    H211845   6.737   5.937   3.051
 3968TIP3   OH211846   5.032   0.436   6.336
 3968TIP3    H111847   5.002   0.483   6.259
 3968TIP3    H211848   4.965   0.369   6.351
 3969TIP3   OH211849   2.525   2.822   4.452
 3969TIP3    H111850   2.491   2.814   4.541
 3969TIP3    H211851   2.448   2.814   4.396
 3970TIP3   OH211852   4.293   1.593   5.009
 3970TIP3    H111853   4.283   1.498   5.000
 3970TIP3    H211854   4.384   1.610   4.982
 3971TIP3   OH211855   5.238   6.894   2.594
 3971TIP3    H111856   5.155   6.927   2.558
 3971TIP3    H211857   5.268   6.964   2.652
 3972TIP3   OH211858   7.518   1.648   3.252
 3972TIP3    H111859   7.446   1.653   3.315
 3972TIP3    H211860   7.591   1.611   3.301
 3973TIP3   OH211861   7.986   3.097   2.031
 3973TIP3    H111862   8.007   3.057   1.946
 3973TIP3    H211863   7.989   3.024   2.093
 3974TIP3   OH211864   5.301   0.063   2.251
 3974TIP3    H111865   5.214   0.026   2.235
 3974TIP3    H211866   5.288   0.125   2.323
 3975TIP3   OH211867   5.458   2.197   4.997
 3975TIP3    H111868   5.473   2.196   4.903
 3975TIP3    H211869   5.463   2.289   5.021
 3976TIP3   OH211870   6.005   4.585   0.399
 3976TIP3    H111871   6.029   4.670   0.363
 3976TIP3    H211872   6.048   4.522   0.341
 3977TIP3   OH211873   6.619   5.098   1.011
 3977TIP3    H111874   6.586   5.105   0.922
 3977TIP3    H211875   6.550   5.136   1.066
 3978TIP3   OH211876   0.872   5.648   5.698
 3978TIP3    H111877   0.930   5.659   5.774
 3978TIP3    H211878   0.930   5.659   5.622
 3979TIP3   OH211879   5.530   5.487   1.443
 3979TIP3    H111880   5.612   5.509   1.488
 3979TIP3    H211881   5.508   5.566   1.393
 3980TIP3   OH211882   2.814   0.486   5.478
 3980TIP3    H111883   2.786   0.396   5.497
 3980TIP3    H211884   2.784   0.501   5.388
 3981TIP3   OH211885   3.555   5.754   3.585
 3981TIP3    H111886   3.608   5.677   3.604
 3981TIP3    H211887   3.468   5.733   3.620
 3982TIP3   OH211888   6.933   7.269   4.338
 3982TIP3    H111889   7.004   7.332   4.338
 3982TIP3    H211890   6.975   7.185   4.318
 3983TIP3   OH211891   2.072   2.611   1.697
 3983TIP3    H111892   2.139   2.647   1.755
 3983TIP3    H211893   2.026   2.688   1.662
 3984TIP3   OH211894   8.046   1.343   5.733
 3984TIP3    H111895   8.045   1.438   5.722
 3984TIP3    H211896   7.955   1.316   5.715
 3985TIP3   OH211897   2.779   4.831   5.440
 3985TIP3    H111898   2.833   4.753   5.450
 3985TIP3    H211899   2.781   4.851   5.347
 3986TIP3   OH211900   3.454   2.993   1.512
 3986TIP3    H111901   3.520   3.041   1.562
 3986TIP3    H211902   3.428   2.921   1.569
 3987TIP3   OH211903   1.036   1.801   5.567
 3987TIP3    H111904   0.999   1.873   5.516
 3987TIP3    H211905   1.003   1.815   5.656
 3988TIP3   OH211906   4.403   4.190   2.195
 3988TIP3    H111907   4.489   4.180   2.236
 3988TIP3    H211908   4.345   4.215   2.266
 3989TIP3   OH211909   2.111   4.616   4.298
 3989TIP3    H111910   2.207   4.614   4.297
 3989TIP3    H211911   2.088   4.630   4.390
 3990TIP3   OH211912   1.204   2.139   5.479
 3990TIP3    H111913   1.209   2.090   5.397
 3990TIP3    H211914   1.228   2.076   5.547
 3991TIP3   OH211915   0.324   7.548   2.303
 3991TIP3    H111916   0.349   7.484   2.236
 3991TIP3    H211917   0.405   7.593   2.324
 3992TIP3   OH211918   1.842   0.536   5.565
 3992TIP3    H111919   1.767   0.513   5.511
 3992TIP3    H211920   1.811   0.607   5.621
 3993TIP3   OH211921   1.768   7.111   2.223
 3993TIP3    H111922   1.721   7.107   2.140
 3993TIP3    H211923   1.860   7.098   2.199
 3994TIP3   OH211924   7.494   3.343   6.088
 3994TIP3    H111925   7.547   3.346   6.167
 3994TIP3    H211926   7.409   3.379   6.115
 3995TIP3   OH211927   6.305   4.802   1.056
 3995TIP3    H111928   6.278   4.721   1.099
 3995TIP3    H211929   6.345   4.854   1.126
 3996TIP3   OH211930   5.462   3.060   0.146
 3996TIP3    H111931   5.427   3.054   0.056
 3996TIP3    H211932   5.432   2.979   0.188
 3997TIP3   OH211933   5.003   4.506   5.876
 3997TIP3    H111934   4.953   4.464   5.806
 3997TIP3    H211935   4.937   4.536   5.938
 3998TIP3   OH211936   5.224   5.645   6.160
 3998TIP3    H111937   5.249   5.673   6.248
 3998TIP3    H211938   5.278   5.698   6.102
 3999TIP3   OH211939   4.128   3.064   2.976
 3999TIP3    H111940   4.124   3.126   2.903
 3999TIP3    H211941   4.200   3.005   2.953
 4000TIP3   OH211942   7.242   0.687   1.360
 4000TIP3    H111943   7.181   0.659   1.428
 4000TIP3    H211944   7.239   0.617   1.294
 4001TIP3   OH211945   1.295   3.044   0.712
 4001TIP3    H111946   1.263   3.134   0.706
 4001TIP3    H211947   1.287   3.010   0.622
 4002TIP3   OH211948   6.947   4.086   2.663
 4002TIP3    H111949   6.902   4.153   2.611
 4002TIP3    H211950   7.028   4.069   2.616
 4003TIP3   OH211951   6.792   0.353   6.633
 4003TIP3    H111952   6.858   0.342   6.565
 4003TIP3    H211953   6.827   0.307   6.709
 4004TIP3   OH211954   1.310   3.951   3.604
 4004TIP3    H111955   1.375   3.979   3.669
 4004TIP3    H211956   1.348   3.975   3.520
 4005TIP3   OH211957   6.833   1.878   1.707
 4005TIP3    H111958   6.891   1.932   1.652
 4005TIP3    H211959   6.820   1.929   1.787
 4006TIP3   OH211960   0.621   3.138   0.388
 4006TIP3    H111961   0.606   3.233   0.384
 4006TIP3    H211962   0.699   3.124   0.335
 4007TIP3   OH211963   6.066   2.625   1.823
 4007TIP3    H111964   6.089   2.582   1.905
 4007TIP3    H211965   6.091   2.716   1.836
 4008TIP3   OH211966   0.804   3.323   2.145
 4008TIP3    H111967   0.775   3.354   2.231
 4008TIP3    H211968   0.881   3.377   2.125
 4009TIP3   OH211969   7.311   0.743   1.945
 4009TIP3    H111970   7.260   0.805   1.996
 4009TIP3    H211971   7.374   0.797   1.897
 4010TIP3   OH211972   7.265   3.351   2.736
 4010TIP3    H111973   7.219   3.362   2.653
 4010TIP3    H211974   7.278   3.440   2.769
 4011TIP3   OH211975   4.601   2.509   2.103
 4011TIP3    H111976   4.604   2.435   2.164
 4011TIP3    H211977   4.511   2.510   2.071
 4012TIP3   OH211978   0.262   0.392   5.296
 4012TIP3    H111979   0.203   0.393   5.221
 4012TIP3    H211980   0.240   0.471   5.344
 4013TIP3   OH211981   3.756   0.223   2.267
 4013TIP3    H111982   3.690   0.175   2.218
 4013TIP3    H211983   3.707   0.288   2.316
 4014TIP3   OH211984   1.189   1.894   4.582
 4014TIP3    H111985   1.193   1.949   4.660
 4014TIP3    H211986   1.222   1.949   4.512
 4015TIP3   OH211987   1.067   2.480   4.066
 4015TIP3    H111988   1.134   2.548   4.069
 4015TIP3    H211989   1.022   2.487   4.151
 4016TIP3   OH211990   4.871   1.652   3.816
 4016TIP3    H111991   4.840   1.573   3.861
 4016TIP3    H211992   4.815   1.659   3.738
 4017TIP3   OH211993   4.652   3.219   6.301
 4017TIP3    H111994   4.712   3.267   6.358
 4017TIP3    H211995   4.708   3.187   6.230
 4018TIP3   OH211996   1.630   2.268   4.151
 4018TIP3    H111997   1.535   2.280   4.161
 4018TIP3    H211998   1.638   2.203   4.081
 4019TIP3   OH211999   2.054   3.408   0.955
 4019TIP3    H112000   2.002   3.334   0.987
 4019TIP3    H212001   2.140   3.397   0.997
 4020TIP3   OH212002   2.382   0.564   2.644
 4020TIP3    H112003   2.288   0.562   2.664
 4020TIP3    H212004   2.408   0.654   2.664
 4021TIP3   OH212005   5.987   4.314   4.267
 4021TIP3    H112006   6.025   4.254   4.202
 4021TIP3    H212007   5.892   4.309   4.251
 4022TIP3   OH212008   1.633   3.781   4.666
 4022TIP3    H112009   1.624   3.686   4.676
 4022TIP3    H212010   1.612   3.797   4.574
 4023TIP3   OH212011   7.216   0.658   4.887
 4023TIP3    H112012   7.131   0.702   4.890
 4023TIP3    H212013   7.205   0.589   4.821
 4024TIP3   OH212014   5.440   3.340   6.537
 4024TIP3    H112015   5.489   3.267   6.576
 4024TIP3    H212016   5.473   3.346   6.448
 4025TIP3   OH212017   6.389   3.720   4.449
 4025TIP3    H112018   6.377   3.625   4.441
 4025TIP3    H212019   6.365   3.754   4.363
 4026TIP3   OH212020   7.493   4.034   1.856
 4026TIP3    H112021   7.585   4.010   1.871
 4026TIP3    H212022   7.447   4.002   1.933
 4027TIP3   OH212023   3.707   2.744   3.092
 4027TIP3    H112024   3.730   2.753   3.185
 4027TIP3    H212025   3.705   2.834   3.059
 4028TIP3   OH212026   3.725   6.977   5.063
 4028TIP3    H112027   3.644   6.999   5.109
 4028TIP3    H212028   3.782   6.940   5.131
 4029TIP3   OH212029   1.758   1.051   2.832
 4029TIP3    H112030   1.827   1.107   2.797
 4029TIP3    H212031   1.766   1.059   2.927
 4030TIP3   OH212032   3.662   5.034   2.733
 4030TIP3    H112033   3.574   5.041   2.770
 4030TIP3    H212034   3.692   5.125   2.724
 4031TIP3   OH212035   4.661   3.479   1.318
 4031TIP3    H112036   4.715   3.552   1.290
 4031TIP3    H212037   4.571   3.506   1.297
 4032TIP3   OH212038   4.016   2.257   2.585
 4032TIP3    H112039   3.960   2.221   2.654
 4032TIP3    H212040   4.053   2.337   2.624
 4033TIP3   OH212041   5.925   0.635   2.400
 4033TIP3    H112042   5.992   0.596   2.343
 4033TIP3    H212043   5.924   0.728   2.376
 4034TIP3   OH212044   1.575   1.208   2.671
 4034TIP3    H112045   1.634   1.145   2.712
 4034TIP3    H212046   1.521   1.156   2.612
 4035TIP3   OH212047   3.223   4.577   2.637
 4035TIP3    H112048   3.144   4.524   2.638
 4035TIP3    H212049   3.254   4.573   2.546
 4036TIP3   OH212050   6.595   2.356   2.680
 4036TIP3    H112051   6.680   2.323   2.650
 4036TIP3    H212052   6.617   2.428   2.739
 4037TIP3   OH212053   7.967   1.421   1.738
 4037TIP3    H112054   8.049   1.466   1.717
 4037TIP3    H212055   7.936   1.463   1.818
 4038TIP3   OH212056   3.953   5.780   0.688
 4038TIP3    H112057   4.041   5.776   0.648
 4038TIP3    H212058   3.903   5.713   0.641
 4039TIP3   OH212059   7.128   0.088   1.323
 4039TIP3    H112060   7.192   0.118   1.388
 4039TIP3    H212061   7.102   0.168   1.278
 4040TIP3   OH212062   5.093   6.185   4.626
 4040TIP3    H112063   5.112   6.091   4.627
 4040TIP3    H212064   5.120   6.215   4.713
 4041TIP3   OH212065   3.453   5.301   0.517
 4041TIP3    H112066   3.418   5.267   0.434
 4041TIP3    H212067   3.529   5.354   0.491
 4042TIP3   OH212068   4.692   7.081   6.757
 4042TIP3    H112069   4.704   7.067   6.663
 4042TIP3    H212070   4.706   6.995   6.796
 4043TIP3   OH212071   2.326   6.142   4.109
 4043TIP3    H112072   2.305   6.049   4.115
 4043TIP3    H212073   2.393   6.148   4.041
 4044TIP3   OH212074   7.508   7.005   4.263
 4044TIP3    H112075   7.475   7.067   4.199
 4044TIP3    H212076   7.560   7.058   4.323
 4045TIP3   OH212077   7.567   2.722   4.980
 4045TIP3    H112078   7.628   2.737   5.052
 4045TIP3    H212079   7.506   2.656   5.013
 4046TIP3   OH212080   1.531   5.621   0.632
 4046TIP3    H112081   1.581   5.688   0.678
 4046TIP3    H212082   1.457   5.603   0.690
 4047TIP3   OH212083   0.168   7.723   4.930
 4047TIP3    H112084   0.103   7.730   4.859
 4047TIP3    H212085   0.237   7.785   4.906
 4048TIP3   OH212086   3.102   3.300   6.561
 4048TIP3    H112087   3.158   3.270   6.632
 4048TIP3    H212088   3.014   3.306   6.599
 4049TIP3   OH212089   0.486   6.528   4.033
 4049TIP3    H112090   0.559   6.558   4.087
 4049TIP3    H212091   0.441   6.609   4.006
 4050TIP3   OH212092   3.373   7.592   2.177
 4050TIP3    H112093   3.455   7.551   2.149
 4050TIP3    H212094   3.312   7.520   2.188
 4051TIP3   OH212095   6.146   6.800   6.740
 4051TIP3    H112096   6.224   6.823   6.791
 4051TIP3    H212097   6.107   6.884   6.718
 4052TIP3   OH212098   7.205   7.649   0.906
 4052TIP3    H112099   7.293   7.621   0.881
 4052TIP3    H212100   7.200   7.635   1.000
 4053TIP3   OH212101   2.747   3.585   0.077
 4053TIP3    H112102   2.804   3.603   0.152
 4053TIP3    H212103   2.660   3.577   0.115
 4054TIP3   OH212104   5.907   7.764   5.335
 4054TIP3    H112105   5.945   7.795   5.417
 4054TIP3    H212106   5.980   7.757   5.274
 4055TIP3   OH212107   6.752   2.518   0.546
 4055TIP3    H112108   6.845   2.518   0.528
 4055TIP3    H212109   6.741   2.586   0.613
 4056TIP3   OH212110   4.905   0.520   2.192
 4056TIP3    H112111   4.812   0.529   2.174
 4056TIP3    H212112   4.929   0.600   2.239
 4057TIP3   OH212113   6.360   5.431   2.331
 4057TIP3    H112114   6.370   5.338   2.353
 4057TIP3    H212115   6.290   5.462   2.388
 4058TIP3   OH212116   7.062   5.930   5.845
 4058TIP3    H112117   7.093   5.905   5.758
 4058TIP3    H212118   6.970   5.903   5.846
 4059TIP3   OH212119   7.041   4.122   5.466
 4059TIP3    H112120   7.060   4.150   5.377
 4059TIP3    H212121   6.946   4.131   5.474
 4060TIP3   OH212122   1.729   2.560   5.402
 4060TIP3    H112123   1.643   2.583   5.436
 4060TIP3    H212124   1.790   2.595   5.467
 4061TIP3   OH212125   2.104   2.912   4.101
 4061TIP3    H112126   2.018   2.881   4.070
 4061TIP3    H212127   2.092   3.006   4.113
 4062TIP3   OH212128   4.813   1.451   4.003
 4062TIP3    H112129   4.782   1.361   4.014
 4062TIP3    H212130   4.840   1.478   4.091
 4063TIP3   OH212131   7.206   1.282   6.052
 4063TIP3    H112132   7.248   1.364   6.077
 4063TIP3    H212133   7.113   1.303   6.049
 4064TIP3   OH212134   5.572   0.285   3.572
 4064TIP3    H112135   5.566   0.282   3.477
 4064TIP3    H212136   5.522   0.210   3.602
 4065TIP3   OH212137   7.347   7.351   4.900
 4065TIP3    H112138   7.389   7.268   4.876
 4065TIP3    H212139   7.409   7.418   4.872
 4066TIP3   OH212140   0.919   0.248   2.401
 4066TIP3    H112141   0.828   0.266   2.377
 4066TIP3    H212142   0.968   0.323   2.368
 4067TIP3   OH212143   1.864   7.130   4.624
 4067TIP3    H112144   1.958   7.125   4.641
 4067TIP3    H212145   1.855   7.200   4.559
 4068TIP3   OH212146   1.082   6.179   1.393
 4068TIP3    H112147   1.075   6.177   1.297
 4068TIP3    H212148   1.097   6.271   1.414
 4069TIP3   OH212149   1.434   3.045   4.708
 4069TIP3    H112150   1.523   3.025   4.682
 4069TIP3    H212151   1.385   3.048   4.626
 4070TIP3   OH212152   0.700   1.669   0.441
 4070TIP3    H112153   0.653   1.690   0.360
 4070TIP3    H212154   0.716   1.575   0.436
 4071TIP3   OH212155   4.203   6.931   2.564
 4071TIP3    H112156   4.251   6.994   2.619
 4071TIP3    H212157   4.155   6.986   2.502
 4072TIP3   OH212158   4.254   6.907   3.115
 4072TIP3    H112159   4.334   6.934   3.158
 4072TIP3    H212160   4.210   6.850   3.179
 4073TIP3   OH212161   7.897   6.699   3.135
 4073TIP3    H112162   7.982   6.662   3.157
 4073TIP3    H212163   7.906   6.730   3.045
 4074TIP3   OH212164   5.513   5.094   3.210
 4074TIP3    H112165   5.527   5.184   3.180
 4074TIP3    H212166   5.431   5.068   3.168
 4075TIP3   OH212167   1.974   4.910   3.192
 4075TIP3    H112168   2.047   4.849   3.204
 4075TIP3    H212169   2.003   4.991   3.234
 4076TIP3   OH212170   6.402   3.348   6.265
 4076TIP3    H112171   6.486   3.307   6.287
 4076TIP3    H212172   6.338   3.279   6.280
 4077TIP3   OH212173   6.527   2.777   2.822
 4077TIP3    H112174   6.615   2.762   2.788
 4077TIP3    H212175   6.541   2.805   2.913
 4078TIP3   OH212176   4.370   0.483   0.315
 4078TIP3    H112177   4.360   0.390   0.291
 4078TIP3    H212178   4.460   0.505   0.291
 4079TIP3   OH212179   1.763   2.327   2.305
 4079TIP3    H112180   1.807   2.254   2.262
 4079TIP3    H212181   1.833   2.386   2.332
 4080TIP3   OH212182   8.035   3.242   0.261
 4080TIP3    H112183   8.031   3.213   0.352
 4080TIP3    H212184   7.984   3.323   0.260
 4081TIP3   OH212185   4.317   3.686   3.634
 4081TIP3    H112186   4.300   3.723   3.721
 4081TIP3    H212187   4.302   3.759   3.574
 4082TIP3   OH212188   4.802   5.384   6.177
 4082TIP3    H112189   4.845   5.333   6.109
 4082TIP3    H212190   4.848   5.468   6.176
 4083TIP3   OH212191   2.244   5.432   5.549
 4083TIP3    H112192   2.158   5.422   5.591
 4083TIP3    H212193   2.232   5.507   5.490
 4084TIP3   OH212194   4.195   4.337   0.445
 4084TIP3    H112195   4.103   4.310   0.448
 4084TIP3    H212196   4.195   4.428   0.477
 4085TIP3   OH212197   4.400   5.300   4.154
 4085TIP3    H112198   4.386   5.369   4.090
 4085TIP3    H212199   4.495   5.289   4.157
 4086TIP3   OH212200   4.302   3.350   2.581
 4086TIP3    H112201   4.295   3.434   2.537
 4086TIP3    H212202   4.381   3.310   2.544
 4087TIP3   OH212203   8.244   6.712   5.435
 4087TIP3    H112204   8.308   6.641   5.437
 4087TIP3    H212205   8.257   6.759   5.517
 4088TIP3   OH212206   4.400   4.523   4.412
 4088TIP3    H112207   4.356   4.603   4.384
 4088TIP3    H212208   4.466   4.551   4.474
 4089TIP3   OH212209   5.650   1.314   3.091
 4089TIP3    H112210   5.726   1.262   3.117
 4089TIP3    H212211   5.596   1.253   3.040
 4090TIP3   OH212212   1.157   3.096   0.054
 4090TIP3    H112213   1.160   3.083   0.149
 4090TIP3    H212214   1.243   3.067   0.023
 4091TIP3   OH212215   7.548   0.328   5.156
 4091TIP3    H112216   7.532   0.334   5.250
 4091TIP3    H212217   7.525   0.414   5.122
 4092TIP3   OH212218   1.530   4.541   2.718
 4092TIP3    H112219   1.509   4.515   2.628
 4092TIP3    H212220   1.580   4.622   2.708
 4093TIP3   OH212221   6.582   1.676   1.459
 4093TIP3    H112222   6.665   1.655   1.417
 4093TIP3    H212223   6.559   1.762   1.424
 4094TIP3   OH212224   2.929   1.010   4.977
 4094TIP3    H112225   3.008   1.025   5.029
 4094TIP3    H212226   2.939   1.067   4.901
 4095TIP3   OH212227   6.261   5.930   4.814
 4095TIP3    H112228   6.213   5.998   4.768
 4095TIP3    H212229   6.284   5.969   4.898
 4096TIP3   OH212230   6.984   0.448   2.931
 4096TIP3    H112231   6.918   0.447   2.862
 4096TIP3    H212232   7.051   0.509   2.899
 4097TIP3   OH212233   7.577   1.063   4.036
 4097TIP3    H112234   7.504   1.086   4.093
 4097TIP3    H212235   7.576   1.129   3.967
 4098TIP3   OH212236   4.476   1.073   4.141
 4098TIP3    H112237   4.565   1.056   4.171
 4098TIP3    H212238   4.481   1.159   4.098
 4099TIP3   OH212239   6.475   0.473   1.714
 4099TIP3    H112240   6.456   0.382   1.736
 4099TIP3    H212241   6.483   0.517   1.799
 4100TIP3   OH212242   5.377   7.041   0.894
 4100TIP3    H112243   5.312   7.027   0.825
 4100TIP3    H212244   5.360   7.129   0.926
 4101TIP3   OH212245   4.626   5.024   0.900
 4101TIP3    H112246   4.694   5.012   0.834
 4101TIP3    H212247   4.660   4.979   0.978
 4102TIP3   OH212248   0.671   5.282   3.218
 4102TIP3    H112249   0.714   5.281   3.133
 4102TIP3    H212250   0.708   5.358   3.263
 4103TIP3   OH212251   7.411   7.376   6.595
 4103TIP3    H112252   7.471   7.450   6.602
 4103TIP3    H212253   7.386   7.357   6.686
 4104TIP3   OH212254   3.944   3.390   5.263
 4104TIP3    H112255   4.010   3.337   5.308
 4104TIP3    H212256   3.981   3.405   5.176
 4105TIP3   OH212257   7.506   5.275   0.952
 4105TIP3    H112258   7.522   5.347   0.892
 4105TIP3    H212259   7.499   5.316   1.038
 4106TIP3   OH212260   6.565   5.219   4.540
 4106TIP3    H112261   6.495   5.155   4.527
 4106TIP3    H212262   6.636   5.189   4.483
 4107TIP3   OH212263   2.015   0.459   6.224
 4107TIP3    H112264   1.957   0.384   6.237
 4107TIP3    H212265   2.095   0.437   6.273
 4108TIP3   OH212266   7.859   2.378   4.114
 4108TIP3    H112267   7.851   2.381   4.209
 4108TIP3    H212268   7.884   2.287   4.095
 4109TIP3   OH212269   0.041   3.918   4.098
 4109TIP3    H112270   0.081   3.981   4.037
 4109TIP3    H212271   0.087   3.932   4.181
 4110TIP3   OH212272   6.559   3.737   4.192
 4110TIP3    H112273   6.582   3.779   4.110
 4110TIP3    H212274   6.636   3.686   4.215
 4111TIP3   OH212275   1.543   3.295   6.359
 4111TIP3    H112276   1.587   3.283   6.275
 4111TIP3    H212277   1.613   3.289   6.424
 4112TIP3   OH212278   4.736   4.809   3.409
 4112TIP3    H112279   4.691   4.726   3.425
 4112TIP3    H212280   4.714   4.863   3.485
 4113TIP3   OH212281   3.360   7.031   0.426
 4113TIP3    H112282   3.329   7.019   0.336
 4113TIP3    H212283   3.354   7.126   0.441
 4114TIP3   OH212284   2.241   4.267   3.447
 4114TIP3    H112285   2.179   4.198   3.423
 4114TIP3    H212286   2.291   4.230   3.519
 4115TIP3   OH212287   4.106   6.180   5.817
 4115TIP3    H112288   4.188   6.209   5.856
 4115TIP3    H212289   4.116   6.085   5.807
 4116TIP3   OH212290   4.607   3.023   4.101
 4116TIP3    H112291   4.625   2.930   4.107
 4116TIP3    H212292   4.632   3.046   4.011
 4117TIP3   OH212293   7.485   7.750   5.466
 4117TIP3    H112294   7.567   7.779   5.427
 4117TIP3    H212295   7.434   7.715   5.393
 4118TIP3   OH212296   6.722   3.047   4.843
 4118TIP3    H112297   6.628   3.034   4.853
 4118TIP3    H212298   6.742   3.122   4.899
 4119TIP3   OH212299   1.980   7.808   6.396
 4119TIP3    H112300   1.904   7.799   6.338
 4119TIP3    H212301   1.998   7.902   6.396
 4120TIP3   OH212302   2.697   5.879   3.906
 4120TIP3    H112303   2.691   5.886   4.001
 4120TIP3    H212304   2.615   5.837   3.880
 4121TIP3   OH212305   6.125   5.673   2.261
 4121TIP3    H112306   6.093   5.650   2.349
 4121TIP3    H212307   6.213   5.706   2.275
 4122TIP3   OH212308   0.890   6.384   4.143
 4122TIP3    H112309   0.822   6.317   4.133
 4122TIP3    H212310   0.905   6.416   4.054
 4123TIP3   OH212311   5.258   7.571   3.983
 4123TIP3    H112312   5.309   7.639   4.027
 4123TIP3    H212313   5.197   7.619   3.927
 4124TIP3   OH212314   8.086   4.964   4.098
 4124TIP3    H112315   8.071   5.053   4.130
 4124TIP3    H212316   8.180   4.951   4.108
 4125TIP3   OH212317   5.796   6.936   1.456
 4125TIP3    H112318   5.832   6.981   1.533
 4125TIP3    H212319   5.869   6.886   1.420
 4126TIP3   OH212320   8.051   2.871   2.196
 4126TIP3    H112321   8.021   2.807   2.131
 4126TIP3    H212322   7.976   2.884   2.254
 4127TIP3   OH212323   0.021   6.558   1.029
 4127TIP3    H112324  -0.021   6.477   1.000
 4127TIP3    H212325  -0.012   6.625   0.968
 4128TIP3   OH212326   2.846   0.879   1.907
 4128TIP3    H112327   2.835   0.967   1.941
 4128TIP3    H212328   2.873   0.891   1.816
 4129TIP3   OH212329   3.966   5.096   5.937
 4129TIP3    H112330   3.910   5.039   5.989
 4129TIP3    H212331   3.930   5.089   5.848
 4130TIP3   OH212332   3.364   1.523   5.189
 4130TIP3    H112333   3.437   1.467   5.163
 4130TIP3    H212334   3.403   1.609   5.202
 4131TIP3   OH212335   3.173   2.530   1.644
 4131TIP3    H112336   3.116   2.457   1.669
 4131TIP3    H212337   3.174   2.529   1.549
 4132TIP3   OH212338   7.913   1.110   4.978
 4132TIP3    H112339   7.851   1.170   5.021
 4132TIP3    H212340   7.998   1.133   5.015
 4133TIP3   OH212341   5.815   6.268   1.482
 4133TIP3    H112342   5.893   6.324   1.487
 4133TIP3    H212343   5.819   6.216   1.562
 4134TIP3   OH212344   2.077   4.834   4.983
 4134TIP3    H112345   2.042   4.745   4.990
 4134TIP3    H212346   2.165   4.822   4.947
 4135TIP3   OH212347   1.577   0.796   0.840
 4135TIP3    H112348   1.559   0.852   0.765
 4135TIP3    H212349   1.611   0.715   0.801
 4136TIP3   OH212350   1.938   6.367   4.003
 4136TIP3    H112351   1.950   6.395   3.912
 4136TIP3    H212352   2.007   6.411   4.052
 4137TIP3   OH212353   4.488   1.894   3.769
 4137TIP3    H112354   4.445   1.976   3.794
 4137TIP3    H212355   4.536   1.867   3.847
 4138TIP3   OH212356   6.558   7.536   3.641
 4138TIP3    H112357   6.465   7.529   3.621
 4138TIP3    H212358   6.592   7.596   3.574
 4139TIP3   OH212359   0.868   7.729   2.979
 4139TIP3    H112360   0.808   7.774   3.039
 4139TIP3    H212361   0.854   7.636   2.997
 4140TIP3   OH212362   2.531   4.972   1.385
 4140TIP3    H112363   2.479   4.953   1.307
 4140TIP3    H212364   2.604   4.910   1.380
 4141TIP3   OH212365   2.954   2.276   0.119
 4141TIP3    H112366   3.012   2.244   0.189
 4141TIP3    H212367   2.948   2.371   0.135
 4142TIP3   OH212368   6.014   5.662   1.033
 4142TIP3    H112369   6.026   5.752   1.002
 4142TIP3    H212370   6.067   5.609   0.973
 4143TIP3   OH212371   4.804   3.490   3.638
 4143TIP3    H112372   4.742   3.472   3.567
 4143TIP3    H212373   4.879   3.434   3.619
 4144TIP3   OH212374   1.681   5.007   5.129
 4144TIP3    H112375   1.688   5.013   5.224
 4144TIP3    H212376   1.664   5.097   5.101
 4145TIP3   OH212377   7.783   1.758   0.115
 4145TIP3    H112378   7.689   1.739   0.115
 4145TIP3    H212379   7.802   1.787   0.204
 4146TIP3   OH212380   1.885   2.945   0.687
 4146TIP3    H112381   1.815   2.971   0.628
 4146TIP3    H212382   1.849   2.958   0.775
 4147TIP3   OH212383   5.580   3.731   2.410
 4147TIP3    H112384   5.532   3.775   2.340
 4147TIP3    H212385   5.567   3.638   2.394
 4148TIP3   OH212386   4.355   3.809   5.851
 4148TIP3    H112387   4.300   3.844   5.921
 4148TIP3    H212388   4.359   3.878   5.786
 4149TIP3   OH212389   6.672   2.335   0.756
 4149TIP3    H112390   6.706   2.395   0.690
 4149TIP3    H212391   6.646   2.257   0.706
 4150TIP3   OH212392   7.308   6.814   6.219
 4150TIP3    H112393   7.393   6.854   6.201
 4150TIP3    H212394   7.316   6.725   6.186
 4151TIP3   OH212395   3.327   2.346   0.674
 4151TIP3    H112396   3.356   2.255   0.665
 4151TIP3    H212397   3.233   2.343   0.653
 4152TIP3   OH212398   4.556   0.956   5.686
 4152TIP3    H112399   4.616   0.884   5.667
 4152TIP3    H212400   4.593   1.031   5.639
 4153TIP3   OH212401   5.680   4.956   2.852
 4153TIP3    H112402   5.762   4.911   2.868
 4153TIP3    H212403   5.614   4.902   2.897
 4154TIP3   OH212404   3.485   6.013   1.230
 4154TIP3    H112405   3.463   6.073   1.301
 4154TIP3    H212406   3.567   6.047   1.194
 4155TIP3   OH212407   0.079   1.416   0.432
 4155TIP3    H112408   0.152   1.474   0.456
 4155TIP3    H212409   0.044   1.454   0.352
 4156TIP3   OH212410   6.100   2.144   5.414
 4156TIP3    H112411   6.106   2.220   5.471
 4156TIP3    H212412   6.006   2.135   5.396
 4157TIP3   OH212413   3.816   1.465   0.455
 4157TIP3    H112414   3.767   1.396   0.500
 4157TIP3    H212415   3.758   1.492   0.383
 4158TIP3   OH212416   4.662   0.357   5.726
 4158TIP3    H112417   4.747   0.399   5.733
 4158TIP3    H212418   4.604   0.409   5.781
 4159TIP3   OH212419   3.729   0.721   3.082
 4159TIP3    H112420   3.657   0.768   3.040
 4159TIP3    H212421   3.686   0.655   3.137
 4160TIP3   OH212422   0.448   4.646   5.367
 4160TIP3    H112423   0.418   4.556   5.352
 4160TIP3    H212424   0.411   4.669   5.453
 4161TIP3   OH212425   4.395   4.042   1.958
 4161TIP3    H112426   4.317   3.987   1.953
 4161TIP3    H212427   4.384   4.091   2.040
 4162TIP3   OH212428   7.619   3.406   5.352
 4162TIP3    H112429   7.637   3.450   5.435
 4162TIP3    H212430   7.691   3.343   5.342
 4163TIP3   OH212431   1.438   5.832   3.749
 4163TIP3    H112432   1.513   5.784   3.783
 4163TIP3    H212433   1.425   5.903   3.811
 4164TIP3   OH212434   5.944   5.960   2.011
 4164TIP3    H112435   6.009   6.006   2.065
 4164TIP3    H212436   5.996   5.917   1.943
 4165TIP3   OH212437   5.615   7.277   6.398
 4165TIP3    H112438   5.699   7.234   6.408
 4165TIP3    H212439   5.612   7.342   6.469
 4166TIP3   OH212440   4.656   2.483   2.662
 4166TIP3    H112441   4.623   2.548   2.724
 4166TIP3    H212442   4.612   2.402   2.686
 4167TIP3   OH212443   6.881   1.215   1.409
 4167TIP3    H112444   6.806   1.272   1.393
 4167TIP3    H212445   6.845   1.141   1.458
 4168TIP3   OH212446   3.046   2.166   4.528
 4168TIP3    H112447   3.119   2.147   4.470
 4168TIP3    H212448   3.027   2.083   4.572
 4169TIP3   OH212449   3.645   0.912   6.348
 4169TIP3    H112450   3.564   0.917   6.400
 4169TIP3    H212451   3.618   0.936   6.259
 4170TIP3   OH212452   2.041   0.361   4.825
 4170TIP3    H112453   2.108   0.292   4.819
 4170TIP3    H212454   2.072   0.418   4.896
 4171TIP3   OH212455   6.681   4.117   1.614
 4171TIP3    H112456   6.751   4.172   1.650
 4171TIP3    H212457   6.694   4.121   1.519
 4172TIP3   OH212458   0.327   6.803   3.448
 4172TIP3    H112459   0.386   6.876   3.429
 4172TIP3    H212460   0.254   6.816   3.387
 4173TIP3   OH212461   3.417   3.188   5.704
 4173TIP3    H112462   3.412   3.097   5.674
 4173TIP3    H212463   3.510   3.209   5.701
 4174TIP3   OH212464   3.962   0.780   4.959
 4174TIP3    H112465   4.020   0.849   4.926
 4174TIP3    H212466   3.917   0.820   5.034
 4175TIP3   OH212467   1.486   3.258   4.898
 4175TIP3    H112468   1.492   3.170   4.860
 4175TIP3    H212469   1.415   3.301   4.849
 4176TIP3   OH212470   3.123   0.571   1.929
 4176TIP3    H112471   3.138   0.654   1.884
 4176TIP3    H212472   3.192   0.514   1.896
 4177TIP3   OH212473   6.737   5.303   5.466
 4177TIP3    H112474   6.688   5.223   5.448
 4177TIP3    H212475   6.687   5.349   5.533
 4178TIP3   OH212476   1.063   0.070   0.911
 4178TIP3    H112477   1.113   0.096   0.833
 4178TIP3    H212478   0.984   0.124   0.908
 4179TIP3   OH212479   5.880   1.934   6.129
 4179TIP3    H112480   5.912   2.024   6.135
 4179TIP3    H212481   5.929   1.886   6.196
 4180TIP3   OH212482   2.689   4.482   0.599
 4180TIP3    H112483   2.764   4.529   0.563
 4180TIP3    H212484   2.686   4.399   0.550
 4181TIP3   OH212485   4.792   4.324   1.915
 4181TIP3    H112486   4.808   4.313   1.821
 4181TIP3    H212487   4.878   4.342   1.952
 4182TIP3   OH212488   5.999   4.148   2.954
 4182TIP3    H112489   5.914   4.113   2.983
 4182TIP3    H212490   5.998   4.136   2.859
 4183TIP3   OH212491   3.997   0.488   5.797
 4183TIP3    H112492   4.062   0.511   5.730
 4183TIP3    H212493   4.023   0.539   5.874
 4184TIP3   OH212494   0.747   3.003   0.144
 4184TIP3    H112495   0.813   2.947   0.186
 4184TIP3    H212496   0.794   3.043   0.071
 4185TIP3   OH212497   6.597   2.436   1.927
 4185TIP3    H112498   6.528   2.474   1.982
 4185TIP3    H212499   6.662   2.505   1.919
 4186TIP3   OH212500   2.957   6.419   3.747
 4186TIP3    H112501   2.982   6.472   3.823
 4186TIP3    H212502   2.878   6.460   3.714
 4187TIP3   OH212503   6.506   5.641   1.154
 4187TIP3    H112504   6.579   5.648   1.092
 4187TIP3    H212505   6.472   5.730   1.162
 4188TIP3   OH212506   2.687   6.326   2.148
 4188TIP3    H112507   2.714   6.310   2.238
 4188TIP3    H212508   2.713   6.247   2.101
 4189TIP3   OH212509   4.451   4.702   6.388
 4189TIP3    H112510   4.539   4.739   6.398
 4189TIP3    H212511   4.438   4.696   6.293
 4190TIP3   OH212512   2.722   0.739   0.210
 4190TIP3    H112513   2.733   0.646   0.192
 4190TIP3    H212514   2.681   0.742   0.296
 4191TIP3   OH212515   0.919   1.353   3.842
 4191TIP3    H112516   0.954   1.345   3.754
 4191TIP3    H212517   0.937   1.444   3.867
 4192TIP3   OH212518   6.558   4.625   2.727
 4192TIP3    H112519   6.626   4.661   2.670
 4192TIP3    H212520   6.559   4.531   2.709
 4193TIP3   OH212521   1.716   7.666   5.799
 4193TIP3    H112522   1.693   7.733   5.734
 4193TIP3    H212523   1.810   7.679   5.814
 4194TIP3   OH212524   6.523   6.918   1.839
 4194TIP3    H112525   6.496   6.939   1.928
 4194TIP3    H212526   6.557   6.829   1.844
 4195TIP3   OH212527   2.472   3.496   5.798
 4195TIP3    H112528   2.565   3.506   5.780
 4195TIP3    H212529   2.442   3.583   5.824
 4196TIP3   OH212530   0.372   0.820   5.538
 4196TIP3    H112531   0.420   0.899   5.563
 4196TIP3    H212532   0.334   0.841   5.453
 4197TIP3   OH212533   3.748   4.622   1.927
 4197TIP3    H112534   3.786   4.556   1.985
 4197TIP3    H212535   3.818   4.646   1.868
 4198TIP3   OH212536   3.795   3.914   6.142
 4198TIP3    H112537   3.853   3.964   6.084
 4198TIP3    H212538   3.721   3.973   6.157
 4199TIP3   OH212539   0.557   2.290   6.665
 4199TIP3    H112540   0.624   2.324   6.725
 4199TIP3    H212541   0.558   2.351   6.591
 4200TIP3   OH212542   2.753   7.576   4.544
 4200TIP3    H112543   2.766   7.575   4.449
 4200TIP3    H212544   2.720   7.489   4.565
 4201TIP3   OH212545   1.910   3.796   4.637
 4201TIP3    H112546   1.832   3.839   4.672
 4201TIP3    H212547   1.945   3.860   4.574
 4202TIP3   OH212548   7.930   7.565   2.346
 4202TIP3    H112549   7.986   7.583   2.422
 4202TIP3    H212550   7.975   7.607   2.273
 4203TIP3   OH212551   6.636   3.306   4.350
 4203TIP3    H112552   6.656   3.277   4.261
 4203TIP3    H212553   6.632   3.226   4.401
 4204TIP3   OH212554   0.897   3.367   3.750
 4204TIP3    H112555   0.865   3.438   3.694
 4204TIP3    H212556   0.985   3.348   3.716
 4205TIP3   OH212557   1.488   2.636   0.245
 4205TIP3    H112558   1.574   2.632   0.288
 4205TIP3    H212559   1.505   2.610   0.155
 4206TIP3   OH212560   3.383   4.951   3.406
 4206TIP3    H112561   3.427   5.032   3.432
 4206TIP3    H212562   3.454   4.888   3.392
 4207TIP3   OH212563   6.586   2.941   5.831
 4207TIP3    H112564   6.501   2.968   5.865
 4207TIP3    H212565   6.595   2.989   5.748
 4208TIP3   OH212566   6.640   2.789   4.604
 4208TIP3    H112567   6.716   2.800   4.547
 4208TIP3    H212568   6.598   2.875   4.605
 4209TIP3   OH212569   5.587   6.949   6.440
 4209TIP3    H112570   5.632   6.870   6.471
 4209TIP3    H212571   5.653   7.018   6.447
 4210TIP3   OH212572   1.749   5.944   4.315
 4210TIP3    H112573   1.834   5.907   4.291
 4210TIP3    H212574   1.750   5.950   4.410
 4211TIP3   OH212575   7.178   4.372   1.799
 4211TIP3    H112576   7.237   4.341   1.730
 4211TIP3    H212577   7.159   4.463   1.774
 4212TIP3   OH212578   4.716   0.415   2.684
 4212TIP3    H112579   4.768   0.379   2.755
 4212TIP3    H212580   4.771   0.404   2.606
 4213TIP3   OH212581   7.181   4.613   3.144
 4213TIP3    H112582   7.226   4.568   3.216
 4213TIP3    H212583   7.088   4.597   3.160
 4214TIP3   OH212584   6.593   3.605   5.555
 4214TIP3    H112585   6.547   3.655   5.623
 4214TIP3    H212586   6.663   3.559   5.602
 4215TIP3   OH212587   3.637   1.662   4.994
 4215TIP3    H112588   3.726   1.696   4.986
 4215TIP3    H212589   3.636   1.620   5.080
 4216TIP3   OH212590   7.414   7.629   4.176
 4216TIP3    H112591   7.379   7.550   4.135
 4216TIP3    H212592   7.368   7.634   4.260
 4217TIP3   OH212593   2.955   0.085   3.976
 4217TIP3    H112594   2.982   0.156   3.919
 4217TIP3    H212595   2.879   0.046   3.932
 4218TIP3   OH212596   7.650   2.220   6.257
 4218TIP3    H112597   7.567   2.266   6.270
 4218TIP3    H212598   7.706   2.284   6.213
 4219TIP3   OH212599   2.839   0.247   4.648
 4219TIP3    H112600   2.776   0.302   4.694
 4219TIP3    H212601   2.920   0.299   4.646
 4220TIP3   OH212602   8.244   4.061   3.034
 4220TIP3    H112603   8.184   4.055   3.109
 4220TIP3    H212604   8.200   4.011   2.965
 4221TIP3   OH212605   6.103   6.298   0.116
 4221TIP3    H112606   6.009   6.286   0.104
 4221TIP3    H212607   6.113   6.316   0.210
 4222TIP3   OH212608   8.019   3.261   6.374
 4222TIP3    H112609   7.948   3.208   6.409
 4222TIP3    H212610   7.981   3.347   6.359
 4223TIP3   OH212611   6.030   2.666   5.725
 4223TIP3    H112612   6.016   2.583   5.770
 4223TIP3    H212613   5.969   2.664   5.651
 4224TIP3   OH212614   5.456   6.868   5.344
 4224TIP3    H112615   5.423   6.908   5.424
 4224TIP3    H212616   5.477   6.778   5.369
 4225TIP3   OH212617   0.379   7.548   6.029
 4225TIP3    H112618   0.465   7.588   6.039
 4225TIP3    H212619   0.326   7.614   5.984
 4226TIP3   OH212620   6.262   2.111   3.777
 4226TIP3    H112621   6.209   2.190   3.779
 4226TIP3    H212622   6.202   2.042   3.749
 4227TIP3   OH212623   6.364   4.394   4.080
 4227TIP3    H112624   6.365   4.353   4.167
 4227TIP3    H212625   6.433   4.459   4.083
 4228TIP3   OH212626   5.521   3.316   1.672
 4228TIP3    H112627   5.572   3.279   1.744
 4228TIP3    H212628   5.514   3.246   1.608
 4229TIP3   OH212629   1.724   5.448   1.477
 4229TIP3    H112630   1.635   5.477   1.459
 4229TIP3    H212631   1.735   5.369   1.424
 4230TIP3   OH212632   2.791   7.589   0.355
 4230TIP3    H112633   2.854   7.612   0.287
 4230TIP3    H212634   2.794   7.662   0.417
 4231TIP3   OH212635   1.437   2.622   2.914
 4231TIP3    H112636   1.514   2.581   2.952
 4231TIP3    H212637   1.455   2.623   2.820
 4232TIP3   OH212638   3.487   5.405   2.500
 4232TIP3    H112639   3.466   5.361   2.418
 4232TIP3    H212640   3.532   5.485   2.474
 4233TIP3   OH212641   4.466   1.942   4.583
 4233TIP3    H112642   4.450   1.995   4.505
 4233TIP3    H212643   4.382   1.899   4.601
 4234TIP3   OH212644   1.050   3.793   4.836
 4234TIP3    H112645   1.048   3.756   4.748
 4234TIP3    H212646   1.031   3.886   4.823
 4235TIP3   OH212647   6.377   7.235   1.502
 4235TIP3    H112648   6.442   7.179   1.459
 4235TIP3    H212649   6.400   7.324   1.474
 4236TIP3   OH212650   3.330   3.476   0.339
 4236TIP3    H112651   3.387   3.421   0.392
 4236TIP3    H212652   3.305   3.421   0.265
 4237TIP3   OH212653   8.111   6.269   3.130
 4237TIP3    H112654   8.183   6.210   3.109
 4237TIP3    H212655   8.032   6.219   3.106
 4238TIP3   OH212656   0.571   7.621   2.409
 4238TIP3    H112657   0.646   7.667   2.373
 4238TIP3    H212658   0.522   7.687   2.458
 4239TIP3   OH212659   3.647   3.989   0.398
 4239TIP3    H112660   3.680   3.900   0.411
 4239TIP3    H212661   3.660   4.007   0.305
 4240TIP3   OH212662   4.782   0.103   5.668
 4240TIP3    H112663   4.847   0.151   5.617
 4240TIP3    H212664   4.734   0.172   5.716
 4241TIP3   OH212665   6.110   5.076   6.352
 4241TIP3    H112666   6.159   5.142   6.401
 4241TIP3    H212667   6.072   5.019   6.419
 4242TIP3   OH212668   5.577   1.272   1.792
 4242TIP3    H112669   5.515   1.207   1.760
 4242TIP3    H212670   5.563   1.275   1.887
 4243TIP3   OH212671   5.375   0.104   3.685
 4243TIP3    H112672   5.411   0.139   3.766
 4243TIP3    H212673   5.320   0.030   3.712
 4244TIP3   OH212674   6.073   5.719   4.684
 4244TIP3    H112675   6.100   5.752   4.770
 4244TIP3    H212676   6.111   5.782   4.622
 4245TIP3   OH212677   7.627   7.728   4.056
 4245TIP3    H112678   7.536   7.701   4.069
 4245TIP3    H212679   7.663   7.663   3.996
 4246TIP3   OH212680   7.802   1.272   5.883
 4246TIP3    H112681   7.815   1.346   5.941
 4246TIP3    H212682   7.861   1.204   5.916
 4247TIP3   OH212683   3.797   0.023   0.982
 4247TIP3    H112684   3.834   0.097   0.933
 4247TIP3    H212685   3.816  -0.053   0.928
 4248TIP3   OH212686   6.419   4.359   6.510
 4248TIP3    H112687   6.508   4.362   6.476
 4248TIP3    H212688   6.364   4.346   6.433
 4249TIP3   OH212689   3.112   7.121   5.249
 4249TIP3    H112690   3.104   7.197   5.307
 4249TIP3    H212691   3.106   7.045   5.308
 4250TIP3   OH212692   4.849   3.934   0.148
 4250TIP3    H112693   4.929   3.886   0.168
 4250TIP3    H212694   4.863   3.971   0.061
 4251TIP3   OH212695   4.109   3.141   4.769
 4251TIP3    H112696   4.151   3.071   4.819
 4251TIP3    H212697   4.016   3.119   4.770
 4252TIP3   OH212698   6.132   7.606   4.690
 4252TIP3    H112699   6.147   7.575   4.780
 4252TIP3    H212700   6.175   7.691   4.687
 4253TIP3   OH212701   8.228   0.422   4.615
 4253TIP3    H112702   8.237   0.337   4.658
 4253TIP3    H212703   8.219   0.401   4.522
 4254TIP3   OH212704   1.954   5.458   1.689
 4254TIP3    H112705   2.015   5.387   1.670
 4254TIP3    H212706   1.881   5.443   1.628
 4255TIP3   OH212707   5.575   2.322   1.082
 4255TIP3    H112708   5.552   2.313   1.175
 4255TIP3    H212709   5.670   2.312   1.080
 4256TIP3   OH212710   7.827   0.445   6.626
 4256TIP3    H112711   7.871   0.360   6.624
 4256TIP3    H212712   7.765   0.442   6.553
 4257TIP3   OH212713   3.265   3.319   2.360
 4257TIP3    H112714   3.271   3.224   2.361
 4257TIP3    H212715   3.356   3.349   2.367
 4258TIP3   OH212716   8.111   3.914   1.909
 4258TIP3    H112717   8.025   3.876   1.925
 4258TIP3    H212718   8.141   3.943   1.995
 4259TIP3   OH212719   6.117   7.847   2.633
 4259TIP3    H112720   6.151   7.778   2.575
 4259TIP3    H212721   6.058   7.801   2.693
 4260TIP3   OH212722   3.181   5.610   5.733
 4260TIP3    H112723   3.204   5.549   5.804
 4260TIP3    H212724   3.164   5.554   5.658
 4261TIP3   OH212725   6.773   1.973   5.073
 4261TIP3    H112726   6.681   1.991   5.091
 4261TIP3    H212727   6.798   1.908   5.139
 4262TIP3   OH212728   5.280   1.056   4.101
 4262TIP3    H112729   5.195   1.084   4.134
 4262TIP3    H212730   5.296   0.973   4.145
 4263TIP3   OH212731   7.345   0.553   1.124
 4263TIP3    H112732   7.425   0.585   1.082
 4263TIP3    H212733   7.289   0.526   1.050
 4264TIP3   OH212734   4.178   1.316   1.934
 4264TIP3    H112735   4.086   1.333   1.916
 4264TIP3    H212736   4.201   1.378   2.003
 4265TIP3   OH212737   5.044   4.158   0.490
 4265TIP3    H112738   4.984   4.084   0.496
 4265TIP3    H212739   5.028   4.195   0.403
 4266TIP3   OH212740   5.850   0.690   4.417
 4266TIP3    H112741   5.819   0.747   4.347
 4266TIP3    H212742   5.941   0.671   4.395
 4267TIP3   OH212743   3.253   0.863   1.142
 4267TIP3    H112744   3.174   0.815   1.116
 4267TIP3    H212745   3.286   0.816   1.218
 4268TIP3   OH212746   2.757   0.244   3.156
 4268TIP3    H112747   2.706   0.236   3.237
 4268TIP3    H212748   2.704   0.199   3.090
 4269TIP3   OH212749   4.101   2.954   2.213
 4269TIP3    H112750   4.123   3.033   2.263
 4269TIP3    H212751   4.173   2.943   2.151
 4270TIP3   OH212752   6.124   5.384   1.727
 4270TIP3    H112753   6.190   5.402   1.661
 4270TIP3    H212754   6.162   5.415   1.809
 4271TIP3   OH212755   5.360   4.402   6.435
 4271TIP3    H112756   5.329   4.333   6.376
 4271TIP3    H212757   5.436   4.364   6.478
 4272TIP3   OH212758   3.958   3.486   2.691
 4272TIP3    H112759   4.024   3.484   2.622
 4272TIP3    H212760   3.879   3.519   2.647
 4273TIP3   OH212761   6.456   0.338   5.279
 4273TIP3    H112762   6.378   0.294   5.243
 4273TIP3    H212763   6.490   0.277   5.344
 4274TIP3   OH212764   4.110   3.023   1.393
 4274TIP3    H112765   4.016   3.037   1.405
 4274TIP3    H212766   4.138   3.096   1.339
 4275TIP3   OH212767   4.117   7.158   0.737
 4275TIP3    H112768   4.151   7.149   0.648
 4275TIP3    H212769   4.037   7.209   0.727
 4276TIP3   OH212770   0.005   3.185   6.740
 4276TIP3    H112771   0.075   3.123   6.758
 4276TIP3    H212772   0.028   3.222   6.655
 4277TIP3   OH212773   7.771   0.120   3.509
 4277TIP3    H112774   7.836   0.187   3.487
 4277TIP3    H212775   7.713   0.164   3.572
 4278TIP3   OH212776   7.541   4.424   5.939
 4278TIP3    H112777   7.512   4.342   5.899
 4278TIP3    H212778   7.637   4.415   5.944
 4279TIP3   OH212779   0.703   5.919   4.234
 4279TIP3    H112780   0.741   5.832   4.245
 4279TIP3    H212781   0.743   5.971   4.303
 4280TIP3   OH212782   0.544   3.162   3.893
 4280TIP3    H112783   0.481   3.213   3.943
 4280TIP3    H212784   0.542   3.075   3.933
 4281TIP3   OH212785   6.069   4.353   3.977
 4281TIP3    H112786   6.085   4.259   3.988
 4281TIP3    H212787   6.156   4.393   3.986
 4282TIP3   OH212788   2.073   0.194   1.514
 4282TIP3    H112789   2.040   0.196   1.424
 4282TIP3    H212790   2.166   0.172   1.506
 4283TIP3   OH212791   4.723   7.340   4.611
 4283TIP3    H112792   4.738   7.319   4.703
 4283TIP3    H212793   4.791   7.292   4.564
 4284TIP3   OH212794   7.813   7.767   2.720
 4284TIP3    H112795   7.780   7.812   2.642
 4284TIP3    H212796   7.858   7.836   2.770
 4285TIP3   OH212797   5.595   4.520   4.961
 4285TIP3    H112798   5.646   4.458   4.909
 4285TIP3    H212799   5.524   4.467   4.998
 4286TIP3   OH212800   2.786   2.445   5.901
 4286TIP3    H112801   2.842   2.434   5.824
 4286TIP3    H212802   2.833   2.508   5.955
 4287TIP3   OH212803   8.266   6.284   5.623
 4287TIP3    H112804   8.188   6.264   5.571
 4287TIP3    H212805   8.249   6.242   5.708
 4288TIP3   OH212806   6.710   5.657   0.928
 4288TIP3    H112807   6.717   5.749   0.904
 4288TIP3    H212808   6.783   5.642   0.989
 4289TIP3   OH212809   1.529   3.811   4.028
 4289TIP3    H112810   1.471   3.798   3.953
 4289TIP3    H212811   1.610   3.845   3.990
 4290TIP3   OH212812   1.224   3.633   0.759
 4290TIP3    H112813   1.210   3.602   0.848
 4290TIP3    H212814   1.314   3.607   0.739
 4291TIP3   OH212815   4.626   3.329   2.071
 4291TIP3    H112816   4.585   3.373   2.145
 4291TIP3    H212817   4.631   3.237   2.098
 4292TIP3   OH212818   8.052   6.505   0.720
 4292TIP3    H112819   7.962   6.533   0.737
 4292TIP3    H212820   8.088   6.571   0.661
 4293TIP3   OH212821   6.048   2.800   6.375
 4293TIP3    H112822   6.004   2.879   6.404
 4293TIP3    H212823   6.117   2.831   6.316
 4294TIP3   OH212824   0.422   3.225   2.434
 4294TIP3    H112825   0.516   3.217   2.453
 4294TIP3    H212826   0.379   3.188   2.511
 4295TIP3   OH212827   4.101   2.100   6.072
 4295TIP3    H112828   4.023   2.098   6.017
 4295TIP3    H212829   4.074   2.146   6.152
 4296TIP3   OH212830   8.218   0.747   6.648
 4296TIP3    H112831   8.155   0.703   6.591
 4296TIP3    H212832   8.243   0.680   6.712
 4297TIP3   OH212833   5.125   0.544   2.018
 4297TIP3    H112834   5.039   0.510   2.043
 4297TIP3    H212835   5.154   0.594   2.094
 4298TIP3   OH212836   4.993   1.375   1.109
 4298TIP3    H112837   5.062   1.436   1.085
 4298TIP3    H212838   5.017   1.342   1.195
 4299TIP3   OH212839   2.488   5.682   5.216
 4299TIP3    H112840   2.463   5.762   5.262
 4299TIP3    H212841   2.525   5.626   5.285
 4300TIP3   OH212842   0.966   4.043   4.819
 4300TIP3    H112843   0.981   4.107   4.749
 4300TIP3    H212844   0.870   4.039   4.826
 4301TIP3   OH212845   7.445   6.400   5.173
 4301TIP3    H112846   7.355   6.422   5.199
 4301TIP3    H212847   7.474   6.337   5.239
 4302TIP3   OH212848   8.031   3.248   6.787
 4302TIP3    H112849   8.125   3.254   6.768
 4302TIP3    H212850   7.994   3.329   6.751
 4303TIP3   OH212851   6.281   5.044   0.934
 4303TIP3    H112852   6.367   5.070   0.902
 4303TIP3    H212853   6.291   4.951   0.957
 4304TIP3   OH212854   2.363   4.487   4.331
 4304TIP3    H112855   2.406   4.401   4.327
 4304TIP3    H212856   2.423   4.541   4.383
 4305TIP3   OH212857   3.400   2.586   6.510
 4305TIP3    H112858   3.472   2.559   6.567
 4305TIP3    H212859   3.357   2.657   6.558
 4306TIP3   OH212860   5.354   0.788   3.573
 4306TIP3    H112861   5.448   0.779   3.588
 4306TIP3    H212862   5.337   0.882   3.583
 4307TIP3   OH212863   7.743   2.681   4.067
 4307TIP3    H112864   7.703   2.614   4.122
 4307TIP3    H212865   7.677   2.751   4.062
 4308TIP3   OH212866   7.358   5.932   3.109
 4308TIP3    H112867   7.398   5.882   3.180
 4308TIP3    H212868   7.401   5.900   3.029
 4309TIP3   OH212869   5.917   2.846   5.085
 4309TIP3    H112870   5.838   2.837   5.030
 4309TIP3    H212871   5.989   2.854   5.022
 4310TIP3   OH212872   0.063   6.242   0.489
 4310TIP3    H112873   0.047   6.239   0.583
 4310TIP3    H212874   0.106   6.326   0.474
 4311TIP3   OH212875   8.182   5.486   2.482
 4311TIP3    H112876   8.272   5.456   2.467
 4311TIP3    H212877   8.187   5.581   2.478
 4312TIP3   OH212878   7.044   2.794   2.864
 4312TIP3    H112879   7.072   2.759   2.780
 4312TIP3    H212880   7.115   2.852   2.891
 4313TIP3   OH212881   4.291   1.422   0.485
 4313TIP3    H112882   4.199   1.409   0.509
 4313TIP3    H212883   4.305   1.362   0.412
 4314TIP3   OH212884   4.580   3.664   6.625
 4314TIP3    H112885   4.603   3.742   6.573
 4314TIP3    H212886   4.586   3.693   6.716
 4315TIP3   OH212887   5.444   6.723   0.856
 4315TIP3    H112888   5.407   6.753   0.939
 4315TIP3    H212889   5.370   6.682   0.810
 4316TIP3   OH212890   6.323   1.269   4.675
 4316TIP3    H112891   6.404   1.307   4.641
 4316TIP3    H212892   6.265   1.265   4.599
 4317TIP3   OH212893   4.882   6.415   4.126
 4317TIP3    H112894   4.928   6.336   4.154
 4317TIP3    H212895   4.835   6.389   4.047
 4318TIP3   OH212896   3.375   0.566   4.273
 4318TIP3    H112897   3.358   0.471   4.268
 4318TIP3    H212898   3.300   0.601   4.321
 4319TIP3   OH212899   7.462   5.033   4.433
 4319TIP3    H112900   7.506   5.068   4.356
 4319TIP3    H212901   7.470   5.103   4.498
 4320TIP3   OH212902   3.761   2.829   4.268
 4320TIP3    H112903   3.686   2.775   4.290
 4320TIP3    H212904   3.837   2.780   4.299
 4321TIP3   OH212905   4.922   0.628   2.864
 4321TIP3    H112906   5.004   0.586   2.836
 4321TIP3    H212907   4.937   0.722   2.849
 4322TIP3   OH212908   0.705   5.343   0.062
 4322TIP3    H112909   0.660   5.419   0.026
 4322TIP3    H212910   0.772   5.379   0.120
 4323TIP3   OH212911   5.256   0.212   6.060
 4323TIP3    H112912   5.269   0.124   6.095
 4323TIP3    H212913   5.242   0.198   5.966
 4324TIP3   OH212914   5.381   5.775   4.643
 4324TIP3    H112915   5.292   5.775   4.606
 4324TIP3    H212916   5.368   5.799   4.735
 4325TIP3   OH212917   5.120   6.618   1.167
 4325TIP3    H112918   5.120   6.711   1.143
 4325TIP3    H212919   5.213   6.597   1.181
 4326TIP3   OH212920   2.876   5.487   0.992
 4326TIP3    H112921   2.915   5.402   1.010
 4326TIP3    H212922   2.809   5.469   0.926
 4327TIP3   OH212923   1.345   6.944   4.901
 4327TIP3    H112924   1.399   7.006   4.951
 4327TIP3    H212925   1.386   6.941   4.814
 4328TIP3   OH212926   0.900   6.833   5.747
 4328TIP3    H112927   0.867   6.761   5.693
 4328TIP3    H212928   0.919   6.903   5.685
 4329TIP3   OH212929   2.545   2.078   1.436
 4329TIP3    H112930   2.476   2.139   1.463
 4329TIP3    H212931   2.511   1.992   1.460
 4330TIP3   OH212932   0.330   6.379   4.653
 4330TIP3    H112933   0.379   6.413   4.728
 4330TIP3    H212934   0.288   6.299   4.687
 4331TIP3   OH212935   2.378   0.631   5.497
 4331TIP3    H112936   2.453   0.689   5.513
 4331TIP3    H212937   2.302   0.682   5.527
 4332TIP3   OH212938   6.076   6.477   5.370
 4332TIP3    H112939   6.096   6.557   5.418
 4332TIP3    H212940   6.005   6.436   5.419
 4333TIP3   OH212941   7.376   0.438   3.087
 4333TIP3    H112942   7.328   0.435   3.171
 4333TIP3    H212943   7.357   0.525   3.052
 4334TIP3   OH212944   7.983   6.840   4.866
 4334TIP3    H112945   7.940   6.818   4.948
 4334TIP3    H212946   8.060   6.783   4.863
 4335TIP3   OH212947   3.283   0.702   0.526
 4335TIP3    H112948   3.357   0.762   0.533
 4335TIP3    H212949   3.216   0.751   0.479
 4336TIP3   OH212950   6.064   5.785   0.700
 4336TIP3    H112951   6.079   5.697   0.733
 4336TIP3    H212952   5.974   5.805   0.726
 4337TIP3   OH212953   4.157   6.103   1.625
 4337TIP3    H112954   4.157   6.198   1.624
 4337TIP3    H212955   4.230   6.080   1.683
 4338TIP3   OH212956   6.605   4.124   5.946
 4338TIP3    H112957   6.618   4.177   5.867
 4338TIP3    H212958   6.666   4.160   6.010
 4339TIP3   OH212959   4.923   3.042   3.402
 4339TIP3    H112960   4.966   2.957   3.400
 4339TIP3    H212961   4.930   3.075   3.312
 4340TIP3   OH212962   2.291   5.865   1.951
 4340TIP3    H112963   2.382   5.895   1.957
 4340TIP3    H212964   2.244   5.937   1.911
 4341TIP3   OH212965   5.490   1.035   3.697
 4341TIP3    H112966   5.411   1.084   3.720
 4341TIP3    H212967   5.491   1.035   3.601
 4342TIP3   OH212968   0.520   4.048   1.102
 4342TIP3    H112969   0.443   4.103   1.094
 4342TIP3    H212970   0.566   4.081   1.179
 4343TIP3   OH212971   5.785   3.025   3.956
 4343TIP3    H112972   5.726   3.023   4.032
 4343TIP3    H212973   5.804   3.118   3.944
 4344TIP3   OH212974   0.097   3.260   2.586
 4344TIP3    H112975   0.044   3.306   2.520
 4344TIP3    H212976   0.089   3.167   2.563
 4345TIP3   OH212977   5.270   3.981   2.009
 4345TIP3    H112978   5.208   4.051   1.989
 4345TIP3    H212979   5.319   4.013   2.085
 4346TIP3   OH212980   1.022   6.203   3.866
 4346TIP3    H112981   1.110   6.217   3.902
 4346TIP3    H212982   0.974   6.162   3.937
 4347TIP3   OH212983   6.833   3.731   5.784
 4347TIP3    H112984   6.818   3.793   5.713
 4347TIP3    H212985   6.757   3.740   5.841
 4348TIP3   OH212986   7.109   3.593   3.268
 4348TIP3    H112987   7.147   3.529   3.207
 4348TIP3    H212988   7.179   3.611   3.330
 4349TIP3   OH212989   2.485   5.589   1.247
 4349TIP3    H112990   2.567   5.638   1.246
 4349TIP3    H212991   2.419   5.652   1.219
 4350TIP3   OH212992   2.176   5.570   1.014
 4350TIP3    H112993   2.083   5.571   1.038
 4350TIP3    H212994   2.201   5.662   1.010
 4351TIP3   OH212995   2.958   7.751   3.223
 4351TIP3    H112996   2.868   7.732   3.253
 4351TIP3    H212997   2.973   7.688   3.152
 4352TIP3   OH212998   7.187   7.347  -0.030
 4352TIP3    H112999   7.246   7.306   0.033
 4352TIP3    H213000   7.223   7.435  -0.043
 4353TIP3   OH213001   6.076   3.567   2.129
 4353TIP3    H113002   6.119   3.483   2.116
 4353TIP3    H213003   6.147   3.630   2.136
 4354TIP3   OH213004   3.842   5.497   2.789
 4354TIP3    H113005   3.828   5.552   2.712
 4354TIP3    H213006   3.756   5.492   2.831
 4355TIP3   OH213007   4.351   5.415   2.345
 4355TIP3    H113008   4.373   5.409   2.438
 4355TIP3    H213009   4.435   5.424   2.301
 4356TIP3   OH213010   5.598   6.265   2.458
 4356TIP3    H113011   5.579   6.187   2.405
 4356TIP3    H213012   5.686   6.291   2.431
 4357TIP3   OH213013   5.262   2.144   2.581
 4357TIP3    H113014   5.278   2.088   2.657
 4357TIP3    H213015   5.287   2.090   2.506
 4358TIP3   OH213016   1.055   6.257   5.560
 4358TIP3    H113017   1.091   6.183   5.609
 4358TIP3    H213018   1.070   6.233   5.468
 4359TIP3   OH213019   4.712   4.696   4.037
 4359TIP3    H113020   4.640   4.683   3.975
 4359TIP3    H213021   4.691   4.777   4.082
 4360TIP3   OH213022   6.542   7.364   4.046
 4360TIP3    H113023   6.558   7.342   3.954
 4360TIP3    H213024   6.599   7.305   4.095
 4361TIP3   OH213025   5.157   5.694   2.494
 4361TIP3    H113026   5.221   5.630   2.464
 4361TIP3    H213027   5.077   5.673   2.446
 4362TIP3   OH213028   1.481   0.995   1.607
 4362TIP3    H113029   1.487   0.943   1.527
 4362TIP3    H213030   1.546   1.064   1.595
 4363TIP3   OH213031   6.888   7.808   5.355
 4363TIP3    H113032   6.798   7.802   5.324
 4363TIP3    H213033   6.895   7.895   5.394
 4364TIP3   OH213034   7.603   5.378   2.174
 4364TIP3    H113035   7.646   5.293   2.187
 4364TIP3    H213036   7.516   5.356   2.143
 4365TIP3   OH213037   3.615   2.866   2.383
 4365TIP3    H113038   3.607   2.851   2.477
 4365TIP3    H213039   3.683   2.806   2.355
 4366TIP3   OH213040   1.976   3.211   6.392
 4366TIP3    H113041   1.967   3.256   6.309
 4366TIP3    H213042   2.070   3.199   6.403
 4367TIP3   OH213043   5.711   5.366   4.038
 4367TIP3    H113044   5.640   5.361   4.101
 4367TIP3    H213045   5.726   5.276   4.010
 4368TIP3   OH213046   3.009   0.182   5.086
 4368TIP3    H113047   2.977   0.264   5.048
 4368TIP3    H213048   3.037   0.130   5.011
 4369TIP3   OH213049   0.501   4.830   1.996
 4369TIP3    H113050   0.566   4.802   1.932
 4369TIP3    H213051   0.421   4.843   1.944
 4370TIP3   OH213052   6.139   3.989   6.459
 4370TIP3    H113053   6.196   3.940   6.399
 4370TIP3    H213054   6.174   3.970   6.546
 4371TIP3   OH213055   6.788   0.663   2.333
 4371TIP3    H113056   6.765   0.682   2.424
 4371TIP3    H213057   6.883   0.675   2.330
 4372TIP3   OH213058   0.179   2.003   5.778
 4372TIP3    H113059   0.192   2.097   5.763
 4372TIP3    H213060   0.258   1.975   5.823
 4373TIP3   OH213061   7.966   5.984   5.070
 4373TIP3    H113062   7.983   5.890   5.062
 4373TIP3    H213063   7.906   6.003   4.998
 4374TIP3   OH213064   0.157   3.937   4.363
 4374TIP3    H113065   0.192   3.867   4.418
 4374TIP3    H213066   0.213   4.012   4.382
 4375TIP3   OH213067   1.710   7.306   0.027
 4375TIP3    H113068   1.778   7.346   0.081
 4375TIP3    H213069   1.740   7.217   0.013
 4376TIP3   OH213070   3.727   6.990   2.957
 4376TIP3    H113071   3.632   6.986   2.942
 4376TIP3    H213072   3.765   6.966   2.873
 4377TIP3   OH213073   6.886   3.326   0.311
 4377TIP3    H113074   6.903   3.357   0.400
 4377TIP3    H213075   6.952   3.259   0.297
 4378TIP3   OH213076   7.539   2.908   0.828
 4378TIP3    H113077   7.469   2.926   0.766
 4378TIP3    H213078   7.556   2.815   0.820
 4379TIP3   OH213079   0.895   0.544   5.457
 4379TIP3    H113080   0.862   0.624   5.416
 4379TIP3    H213081   0.828   0.522   5.522
 4380TIP3   OH213082   3.924   6.593   6.494
 4380TIP3    H113083   3.987   6.558   6.430
 4380TIP3    H213084   3.870   6.517   6.517
 4381TIP3   OH213085   3.814   6.402   3.886
 4381TIP3    H113086   3.741   6.407   3.824
 4381TIP3    H213087   3.794   6.327   3.942
 4382TIP3   OH213088   1.408   3.549   5.318
 4382TIP3    H113089   1.493   3.590   5.335
 4382TIP3    H213090   1.369   3.601   5.248
 4383TIP3   OH213091   3.371   5.390   1.398
 4383TIP3    H113092   3.303   5.396   1.331
 4383TIP3    H213093   3.380   5.480   1.431
 4384TIP3   OH213094   1.459   6.703   1.827
 4384TIP3    H113095   1.504   6.685   1.745
 4384TIP3    H213096   1.453   6.618   1.871
 4385TIP3   OH213097   0.937   1.486   2.634
 4385TIP3    H113098   0.954   1.493   2.540
 4385TIP3    H213099   1.024   1.476   2.673
 4386TIP3   OH213100   4.821   1.371   2.290
 4386TIP3    H113101   4.824   1.314   2.368
 4386TIP3    H213102   4.904   1.355   2.246
 4387TIP3   OH213103   0.663   5.493   6.090
 4387TIP3    H113104   0.718   5.486   6.013
 4387TIP3    H213105   0.719   5.533   6.156
 4388TIP3   OH213106   0.007   1.019   0.733
 4388TIP3    H113107  -0.077   1.062   0.753
 4388TIP3    H213108   0.073   1.075   0.774
 4389TIP3   OH213109   5.262   2.538   3.075
 4389TIP3    H113110   5.181   2.491   3.095
 4389TIP3    H213111   5.325   2.507   3.140
 4390TIP3   OH213112   0.353   0.329   5.619
 4390TIP3    H113113   0.338   0.361   5.708
 4390TIP3    H213114   0.404   0.399   5.577
 4391TIP3   OH213115   4.375   1.263   0.990
 4391TIP3    H113116   4.318   1.250   0.915
 4391TIP3    H213117   4.336   1.337   1.037
 4392TIP3   OH213118   2.582   7.300   1.378
 4392TIP3    H113119   2.656   7.316   1.319
 4392TIP3    H213120   2.607   7.223   1.429
 4393TIP3   OH213121   3.091   7.382   4.538
 4393TIP3    H113122   3.149   7.355   4.468
 4393TIP3    H213123   3.032   7.445   4.498
 4394TIP3   OH213124   5.741   7.724   0.720
 4394TIP3    H113125   5.656   7.680   0.725
 4394TIP3    H213126   5.719   7.815   0.703
 4395TIP3   OH213127   4.604   5.151   5.497
 4395TIP3    H113128   4.518   5.118   5.471
 4395TIP3    H213129   4.666   5.104   5.441
 4396TIP3   OH213130   2.076   6.253   3.368
 4396TIP3    H113131   2.163   6.287   3.347
 4396TIP3    H213132   2.088   6.208   3.452
 4397TIP3   OH213133   4.586   1.284   0.506
 4397TIP3    H113134   4.510   1.317   0.459
 4397TIP3    H213135   4.623   1.216   0.449
 4398TIP3   OH213136   0.025   1.433   2.266
 4398TIP3    H113137   0.051   1.484   2.189
 4398TIP3    H213138   0.095   1.368   2.276
 4399TIP3   OH213139   3.665   1.274   6.015
 4399TIP3    H113140   3.715   1.247   5.938
 4399TIP3    H213141   3.574   1.251   5.994
 4400TIP3   OH213142   2.373   0.179   6.033
 4400TIP3    H113143   2.316   0.242   5.988
 4400TIP3    H213144   2.451   0.175   5.978
 4401TIP3   OH213145   1.994   3.123   1.125
 4401TIP3    H113146   1.920   3.184   1.132
 4401TIP3    H213147   2.024   3.111   1.215
 4402TIP3   OH213148   5.182   7.627   1.103
 4402TIP3    H113149   5.132   7.548   1.081
 4402TIP3    H213150   5.240   7.641   1.028
 4403TIP3   OH213151   0.033   0.358   5.533
 4403TIP3    H113152   0.127   0.377   5.523
 4403TIP3    H213153  -0.003   0.369   5.445
 4404TIP3   OH213154   1.968   0.808   2.764
 4404TIP3    H113155   1.915   0.850   2.832
 4404TIP3    H213156   2.047   0.862   2.759
 4405TIP3   OH213157   8.332   5.574   1.618
 4405TIP3    H113158   8.245   5.540   1.597
 4405TIP3    H213159   8.360   5.619   1.538
 4406TIP3   OH213160   0.577   4.258   5.646
 4406TIP3    H113161   0.646   4.219   5.700
 4406TIP3    H213162   0.605   4.241   5.556
 4407TIP3   OH213163   1.045   1.127   3.077
 4407TIP3    H113164   1.010   1.197   3.022
 4407TIP3    H213165   1.138   1.123   3.056
 4408TIP3   OH213166   5.901   2.982   3.564
 4408TIP3    H113167   5.852   2.989   3.482
 4408TIP3    H213168   5.884   2.894   3.596
 4409TIP3   OH213169   0.980   2.781   4.530
 4409TIP3    H113170   1.058   2.733   4.502
 4409TIP3    H213171   0.934   2.720   4.588
 4410TIP3   OH213172   6.407   1.886   1.113
 4410TIP3    H113173   6.489   1.929   1.140
 4410TIP3    H213174   6.394   1.914   1.022
 4411TIP3   OH213175   7.537   3.836   2.409
 4411TIP3    H113176   7.576   3.789   2.335
 4411TIP3    H213177   7.520   3.769   2.475
 4412TIP3   OH213178   2.516   1.695   0.282
 4412TIP3    H113179   2.557   1.705   0.368
 4412TIP3    H213180   2.501   1.601   0.274
 4413TIP3   OH213181   7.906   0.246   5.322
 4413TIP3    H113182   7.876   0.160   5.292
 4413TIP3    H213183   7.867   0.257   5.408
 4414TIP3   OH213184   4.246   7.142   3.884
 4414TIP3    H113185   4.216   7.225   3.921
 4414TIP3    H213186   4.264   7.162   3.792
 4415TIP3   OH213187   2.521   0.312   4.455
 4415TIP3    H113188   2.598   0.355   4.420
 4415TIP3    H213189   2.510   0.234   4.399
 4416TIP3   OH213190   4.129  -0.057   2.893
 4416TIP3    H113191   4.157  -0.149   2.892
 4416TIP3    H213192   4.048  -0.057   2.944
 4417TIP3   OH213193   3.781   7.608   4.116
 4417TIP3    H113194   3.798   7.642   4.204
 4417TIP3    H213195   3.767   7.686   4.062
 4418TIP3   OH213196   2.327   4.292   2.301
 4418TIP3    H113197   2.244   4.319   2.339
 4418TIP3    H213198   2.380   4.372   2.298
 4419TIP3   OH213199   0.943   0.957   0.591
 4419TIP3    H113200   0.972   1.041   0.626
 4419TIP3    H213201   0.898   0.979   0.510
 4420TIP3   OH213202   2.581   4.208   5.885
 4420TIP3    H113203   2.606   4.297   5.908
 4420TIP3    H213204   2.599   4.157   5.964
 4421TIP3   OH213205   3.121   2.270   6.524
 4421TIP3    H113206   3.192   2.326   6.556
 4421TIP3    H213207   3.164   2.187   6.502
 4422TIP3   OH213208   5.224   6.975   1.797
 4422TIP3    H113209   5.220   6.964   1.702
 4422TIP3    H213210   5.311   6.943   1.821
 4423TIP3   OH213211   5.693   4.958   4.900
 4423TIP3    H113212   5.680   4.870   4.864
 4423TIP3    H213213   5.620   4.969   4.962
 4424TIP3   OH213214   0.923   4.111   3.865
 4424TIP3    H113215   0.994   4.159   3.908
 4424TIP3    H213216   0.961   4.027   3.841
 4425TIP3   OH213217   5.477   4.184   2.128
 4425TIP3    H113218   5.474   4.209   2.036
 4425TIP3    H213219   5.569   4.197   2.153
 4426TIP3   OH213220   8.159   0.327   0.874
 4426TIP3    H113221   8.140   0.399   0.814
 4426TIP3    H213222   8.080   0.319   0.928
 4427TIP3   OH213223   2.189   1.149   4.108
 4427TIP3    H113224   2.139   1.083   4.060
 4427TIP3    H213225   2.128   1.182   4.174
 4428TIP3   OH213226   1.902   5.730   1.875
 4428TIP3    H113227   1.875   5.772   1.793
 4428TIP3    H213228   1.837   5.758   1.939
 4429TIP3   OH213229   4.811   6.033   5.465
 4429TIP3    H113230   4.835   5.974   5.537
 4429TIP3    H213231   4.749   6.094   5.503
 4430TIP3   OH213232   5.827   7.556   4.633
 4430TIP3    H113233   5.810   7.464   4.653
 4430TIP3    H213234   5.920   7.568   4.653
 4431TIP3   OH213235   4.141   2.633   4.672
 4431TIP3    H113236   4.226   2.619   4.629
 4431TIP3    H213237   4.137   2.728   4.686
 4432TIP3   OH213238   1.250   1.736   3.251
 4432TIP3    H113239   1.278   1.644   3.247
 4432TIP3    H213240   1.201   1.742   3.333
 4433TIP3   OH213241   5.674   3.342   4.391
 4433TIP3    H113242   5.758   3.299   4.407
 4433TIP3    H213243   5.685   3.430   4.425
 4434TIP3   OH213244   0.032   2.194   5.063
 4434TIP3    H113245  -0.026   2.246   5.118
 4434TIP3    H213246  -0.015   2.112   5.049
 4435TIP3   OH213247   5.968   0.594   4.924
 4435TIP3    H113248   6.045   0.551   4.961
 4435TIP3    H213249   5.989   0.603   4.831
 4436TIP3   OH213250   0.547   2.544   0.710
 4436TIP3    H113251   0.602   2.584   0.778
 4436TIP3    H213252   0.601   2.549   0.631
 4437TIP3   OH213253   8.295   5.410   4.015
 4437TIP3    H113254   8.348   5.439   3.941
 4437TIP3    H213255   8.221   5.471   4.018
 4438TIP3   OH213256   7.395   0.543   5.337
 4438TIP3    H113257   7.427   0.543   5.427
 4438TIP3    H213258   7.461   0.591   5.288
 4439TIP3   OH213259   5.996   4.799   0.915
 4439TIP3    H113260   6.056   4.830   0.983
 4439TIP3    H213261   6.049   4.796   0.835
 4440TIP3   OH213262   6.466   6.415   6.418
 4440TIP3    H113263   6.424   6.363   6.349
 4440TIP3    H213264   6.393   6.447   6.471
 4441TIP3   OH213265   4.519   3.921   4.870
 4441TIP3    H113266   4.587   3.855   4.887
 4441TIP3    H213267   4.442   3.869   4.847
 4442TIP3   OH213268   2.333   3.508   3.644
 4442TIP3    H113269   2.315   3.417   3.620
 4442TIP3    H213270   2.255   3.556   3.616
 4443TIP3   OH213271   5.774   3.561   3.122
 4443TIP3    H113272   5.724   3.575   3.203
 4443TIP3    H213273   5.740   3.479   3.087
 4444TIP3   OH213274   1.578   1.276   2.288
 4444TIP3    H113275   1.484   1.269   2.273
 4444TIP3    H213276   1.585   1.305   2.379
 4445TIP3   OH213277   1.666   6.316   0.638
 4445TIP3    H113278   1.676   6.222   0.649
 4445TIP3    H213279   1.755   6.349   0.628
 4446TIP3   OH213280   6.799   2.734   5.753
 4446TIP3    H113281   6.757   2.819   5.764
 4446TIP3    H213282   6.732   2.679   5.713
 4447TIP3   OH213283   5.629   6.153   1.294
 4447TIP3    H113284   5.567   6.222   1.269
 4447TIP3    H213285   5.696   6.199   1.345
 4448TIP3   OH213286   3.721   6.020   5.285
 4448TIP3    H113287   3.639   5.971   5.281
 4448TIP3    H213288   3.710   6.079   5.359
 4449TIP3   OH213289   7.333   7.625   5.247
 4449TIP3    H113290   7.333   7.529   5.253
 4449TIP3    H213291   7.243   7.647   5.222
 4450TIP3   OH213292   7.460   0.083   6.053
 4450TIP3    H113293   7.483   0.144   5.983
 4450TIP3    H213294   7.507   0.003   6.031
 4451TIP3   OH213295   4.847   3.056   2.837
 4451TIP3    H113296   4.930   3.054   2.789
 4451TIP3    H213297   4.805   3.137   2.809
 4452TIP3   OH213298   6.942   0.062   0.879
 4452TIP3    H113299   6.940   0.027   0.790
 4452TIP3    H213300   6.852   0.090   0.896
 4453TIP3   OH213301   1.245   4.638   6.700
 4453TIP3    H113302   1.153   4.653   6.678
 4453TIP3    H213303   1.250   4.544   6.719
 4454TIP3   OH213304   1.877   7.069   1.137
 4454TIP3    H113305   1.885   7.145   1.195
 4454TIP3    H213306   1.940   7.086   1.066
 4455TIP3   OH213307   2.757   6.791   0.073
 4455TIP3    H113308   2.838   6.787   0.124
 4455TIP3    H213309   2.716   6.873   0.101
 4456TIP3   OH213310   4.457   5.519   3.957
 4456TIP3    H113311   4.532   5.467   3.986
 4456TIP3    H213312   4.495   5.605   3.938
 4457TIP3   OH213313   1.140   1.159   4.329
 4457TIP3    H113314   1.109   1.208   4.253
 4457TIP3    H213315   1.231   1.187   4.340
 4458TIP3   OH213316   1.754   7.794   4.228
 4458TIP3    H113317   1.731   7.742   4.151
 4458TIP3    H213318   1.823   7.853   4.197
 4459TIP3   OH213319   6.738   5.629   5.978
 4459TIP3    H113320   6.730   5.547   6.026
 4459TIP3    H213321   6.669   5.685   6.012
 4460TIP3   OH213322   1.983   0.802   0.242
 4460TIP3    H113323   1.906   0.759   0.204
 4460TIP3    H213324   1.968   0.895   0.229
 4461TIP3   OH213325   5.539   2.703   0.136
 4461TIP3    H113326   5.549   2.653   0.217
 4461TIP3    H213327   5.453   2.677   0.103
 4462TIP3   OH213328   3.301   3.463   3.075
 4462TIP3    H113329   3.300   3.523   3.000
 4462TIP3    H213330   3.245   3.390   3.048
 4463TIP3   OH213331   2.257   2.729   6.328
 4463TIP3    H113332   2.280   2.760   6.241
 4463TIP3    H213333   2.331   2.675   6.355
 4464TIP3   OH213334   7.147   5.011   2.101
 4464TIP3    H113335   7.238   4.984   2.099
 4464TIP3    H213336   7.144   5.084   2.163
 4465TIP3   OH213337   1.663   4.796   1.076
 4465TIP3    H113338   1.665   4.743   0.997
 4465TIP3    H213339   1.742   4.772   1.123
 4466TIP3   OH213340   2.266   1.504   0.038
 4466TIP3    H113341   2.302   1.419   0.062
 4466TIP3    H213342   2.341   1.555   0.009
 4467TIP3   OH213343   6.319   7.093   5.832
 4467TIP3    H113344   6.363   7.165   5.786
 4467TIP3    H213345   6.227   7.119   5.834
 4468TIP3   OH213346   3.722   7.328   5.295
 4468TIP3    H113347   3.774   7.317   5.375
 4468TIP3    H213348   3.653   7.262   5.303
 4469TIP3   OH213349   2.192   3.304   3.524
 4469TIP3    H113350   2.160   3.215   3.540
 4469TIP3    H213351   2.133   3.338   3.456
 4470TIP3   OH213352   2.258   6.872   1.393
 4470TIP3    H113353   2.244   6.854   1.300
 4470TIP3    H213354   2.253   6.968   1.400
 4471TIP3   OH213355   7.262   7.657   4.385
 4471TIP3    H113356   7.232   7.675   4.474
 4471TIP3    H213357   7.182   7.645   4.334
 4472TIP3   OH213358   7.432   1.527   1.546
 4472TIP3    H113359   7.372   1.459   1.513
 4472TIP3    H213360   7.381   1.573   1.613
 4473TIP3   OH213361   4.252   7.689   6.612
 4473TIP3    H113362   4.193   7.698   6.686
 4473TIP3    H213363   4.214   7.744   6.544
 4474TIP3   OH213364   3.565   7.514   4.292
 4474TIP3    H113365   3.562   7.602   4.329
 4474TIP3    H213366   3.641   7.515   4.234
 4475TIP3   OH213367   5.948   3.259   2.118
 4475TIP3    H113368   5.892   3.190   2.154
 4475TIP3    H213369   5.960   3.320   2.191
 4476TIP3   OH213370   1.094   2.165   1.767
 4476TIP3    H113371   1.095   2.229   1.697
 4476TIP3    H213372   1.013   2.182   1.815
 4477TIP3   OH213373   2.811   2.329   2.252
 4477TIP3    H113374   2.860   2.323   2.335
 4477TIP3    H213375   2.864   2.386   2.197
 4478TIP3   OH213376   7.952   7.434   1.646
 4478TIP3    H113377   8.014   7.466   1.712
 4478TIP3    H213378   7.946   7.505   1.582
 4479TIP3   OH213379   6.313   0.383   4.657
 4479TIP3    H113380   6.307   0.311   4.720
 4479TIP3    H213381   6.331   0.340   4.574
 4480TIP3   OH213382   6.905   3.291   1.004
 4480TIP3    H113383   6.883   3.206   0.967
 4480TIP3    H213384   6.876   3.286   1.095
 4481TIP3   OH213385   5.760   4.895   1.015
 4481TIP3    H113386   5.816   4.823   0.988
 4481TIP3    H213387   5.681   4.887   0.961
 4482TIP3   OH213388   1.109   5.426   3.255
 4482TIP3    H113389   1.188   5.479   3.249
 4482TIP3    H213390   1.110   5.372   3.175
 4483TIP3   OH213391   3.054   4.295   0.605
 4483TIP3    H113392   3.131   4.249   0.640
 4483TIP3    H213393   2.980   4.241   0.631
 4484TIP3   OH213394   2.001   1.631   3.379
 4484TIP3    H113395   1.925   1.669   3.423
 4484TIP3    H213396   2.039   1.571   3.443
 4485TIP3   OH213397   4.747   0.991   0.488
 4485TIP3    H113398   4.747   1.016   0.580
 4485TIP3    H213399   4.831   0.947   0.475
 4486TIP3   OH213400   0.231   1.108   5.171
 4486TIP3    H113401   0.205   1.107   5.078
 4486TIP3    H213402   0.160   1.155   5.215
 4487TIP3   OH213403   1.956   2.747   5.533
 4487TIP3    H113404   2.038   2.718   5.494
 4487TIP3    H213405   1.929   2.821   5.479
 4488TIP3   OH213406   4.233   7.569   0.039
 4488TIP3    H113407   4.186   7.528  -0.033
 4488TIP3    H213408   4.180   7.644   0.064
 4489TIP3   OH213409   0.392   5.471   2.467
 4489TIP3    H113410   0.471   5.441   2.423
 4489TIP3    H213411   0.397   5.432   2.554
 4490TIP3   OH213412   0.722   4.240   4.256
 4490TIP3    H113413   0.658   4.187   4.303
 4490TIP3    H213414   0.708   4.329   4.288
 4491TIP3   OH213415   7.195   2.085   4.905
 4491TIP3    H113416   7.285   2.107   4.930
 4491TIP3    H213417   7.144   2.098   4.985
 4492TIP3   OH213418   0.248   2.167   6.201
 4492TIP3    H113419   0.308   2.122   6.261
 4492TIP3    H213420   0.306   2.212   6.139
 4493TIP3   OH213421   1.677   6.152   0.184
 4493TIP3    H113422   1.648   6.078   0.237
 4493TIP3    H213423   1.725   6.112   0.112
 4494TIP3   OH213424   3.865   6.133   2.828
 4494TIP3    H113425   3.904   6.189   2.760
 4494TIP3    H213426   3.917   6.150   2.906
 4495TIP3   OH213427   3.140   6.014   2.731
 4495TIP3    H113428   3.228   6.014   2.693
 4495TIP3    H213429   3.155   6.029   2.825
 4496TIP3   OH213430   7.241   6.906   4.037
 4496TIP3    H113431   7.151   6.931   4.014
 4496TIP3    H213432   7.276   6.866   3.958
 4497TIP3   OH213433   0.313   2.869   6.556
 4497TIP3    H113434   0.266   2.808   6.500
 4497TIP3    H213435   0.344   2.816   6.630
 4498TIP3   OH213436   1.628   2.966   2.991
 4498TIP3    H113437   1.702   2.917   2.955
 4498TIP3    H213438   1.668   3.030   3.050
 4499TIP3   OH213439   1.901   1.460   5.611
 4499TIP3    H113440   1.859   1.383   5.573
 4499TIP3    H213441   1.877   1.458   5.704
 4500TIP3   OH213442   6.222   5.095   0.401
 4500TIP3    H113443   6.224   5.136   0.488
 4500TIP3    H213444   6.281   5.149   0.348
 4501TIP3   OH213445   1.650   4.123   5.740
 4501TIP3    H113446   1.571   4.087   5.781
 4501TIP3    H213447   1.684   4.049   5.688
 4502TIP3   OH213448   5.358   5.052   6.687
 4502TIP3    H113449   5.290   5.035   6.620
 4502TIP3    H213450   5.369   4.968   6.731
 4503TIP3   OH213451   4.122   5.331   3.877
 4503TIP3    H113452   4.054   5.308   3.814
 4503TIP3    H213453   4.181   5.390   3.829
 4504TIP3   OH213454   6.588   2.117   3.619
 4504TIP3    H113455   6.652   2.139   3.552
 4504TIP3    H213456   6.563   2.027   3.601
 4505TIP3   OH213457   0.244   1.356   4.292
 4505TIP3    H113458   0.198   1.414   4.231
 4505TIP3    H213459   0.198   1.368   4.375
 4506TIP3   OH213460   0.325   4.546   5.099
 4506TIP3    H113461   0.392   4.492   5.140
 4506TIP3    H213462   0.345   4.635   5.126
 4507TIP3   OH213463   1.742   7.286   0.354
 4507TIP3    H113464   1.723   7.192   0.344
 4507TIP3    H213465   1.834   7.289   0.378
 4508TIP3   OH213466   6.264   5.253   5.298
 4508TIP3    H113467   6.187   5.266   5.354
 4508TIP3    H213468   6.246   5.305   5.220
 4509TIP3   OH213469   7.802   3.730   5.142
 4509TIP3    H113470   7.737   3.662   5.157
 4509TIP3    H213471   7.759   3.793   5.084
 4510TIP3   OH213472   6.437   2.505   4.248
 4510TIP3    H113473   6.505   2.483   4.184
 4510TIP3    H213474   6.384   2.571   4.203
 4511TIP3   OH213475   0.495   0.975   2.265
 4511TIP3    H113476   0.448   0.910   2.318
 4511TIP3    H213477   0.511   0.931   2.181
 4512TIP3   OH213478   3.296   3.753   1.657
 4512TIP3    H113479   3.235   3.681   1.645
 4512TIP3    H213480   3.380   3.718   1.627
 4513TIP3   OH213481   5.442   2.886   1.764
 4513TIP3    H113482   5.535   2.869   1.751
 4513TIP3    H213483   5.438   2.937   1.845
 4514TIP3   OH213484   1.800   2.463   3.331
 4514TIP3    H113485   1.889   2.435   3.311
 4514TIP3    H213486   1.754   2.458   3.248
 4515TIP3   OH213487   2.490   2.786   6.559
 4515TIP3    H113488   2.444   2.830   6.630
 4515TIP3    H213489   2.495   2.852   6.490
 4516TIP3   OH213490   2.593   7.810   4.589
 4516TIP3    H113491   2.664   7.753   4.561
 4516TIP3    H213492   2.563   7.773   4.672
 4517TIP3   OH213493   7.145   7.670   4.652
 4517TIP3    H113494   7.127   7.581   4.683
 4517TIP3    H213495   7.188   7.714   4.725
 4518TIP3   OH213496   2.152   3.065   1.798
 4518TIP3    H113497   2.106   3.142   1.832
 4518TIP3    H213498   2.242   3.095   1.784
 4519TIP3   OH213499   7.984   5.065   4.625
 4519TIP3    H113500   7.994   4.999   4.695
 4519TIP3    H213501   7.987   5.014   4.544
 4520TIP3   OH213502   4.042   1.223   4.260
 4520TIP3    H113503   4.110   1.238   4.327
 4520TIP3    H213504   4.085   1.246   4.178
 4521TIP3   OH213505   4.596   2.480   0.194
 4521TIP3    H113506   4.596   2.467   0.289
 4521TIP3    H213507   4.632   2.398   0.159
 4522TIP3   OH213508   8.031   7.636   3.459
 4522TIP3    H113509   7.970   7.566   3.436
 4522TIP3    H213510   8.116   7.606   3.425
 4523TIP3   OH213511   6.855   1.553   1.127
 4523TIP3    H113512   6.922   1.562   1.195
 4523TIP3    H213513   6.873   1.625   1.066
 4524TIP3   OH213514   8.164   7.132   2.329
 4524TIP3    H113515   8.083   7.184   2.333
 4524TIP3    H213516   8.155   7.070   2.401
 4525TIP3   OH213517   5.391   1.140   6.679
 4525TIP3    H113518   5.366   1.068   6.620
 4525TIP3    H213519   5.327   1.136   6.750
 4526TIP3   OH213520   2.773   7.542   2.251
 4526TIP3    H113521   2.805   7.624   2.214
 4526TIP3    H213522   2.678   7.547   2.240
 4527TIP3   OH213523   1.199   7.405   2.270
 4527TIP3    H113524   1.277   7.363   2.234
 4527TIP3    H213525   1.195   7.490   2.226
 4528TIP3   OH213526   6.317   0.829   3.255
 4528TIP3    H113527   6.315   0.911   3.305
 4528TIP3    H213528   6.407   0.799   3.263
 4529TIP3   OH213529   0.510   5.191   2.374
 4529TIP3    H113530   0.532   5.127   2.442
 4529TIP3    H213531   0.560   5.269   2.397
 4530TIP3   OH213532   6.399   4.527   1.829
 4530TIP3    H113533   6.489   4.496   1.841
 4530TIP3    H213534   6.408   4.622   1.818
 4531TIP3   OH213535   3.919   6.312   3.442
 4531TIP3    H113536   3.827   6.308   3.467
 4531TIP3    H213537   3.966   6.322   3.525
 4532TIP3   OH213538   7.828   4.654   0.778
 4532TIP3    H113539   7.836   4.748   0.794
 4532TIP3    H213540   7.903   4.633   0.722
 4533TIP3   OH213541   7.250   1.525   5.048
 4533TIP3    H113542   7.165   1.487   5.070
 4533TIP3    H213543   7.248   1.532   4.952
 4534TIP3   OH213544   3.116   0.107   0.007
 4534TIP3    H113545   3.065   0.048  -0.048
 4534TIP3    H213546   3.074   0.192  -0.002
 4535TIP3   OH213547   3.342   7.830   2.306
 4535TIP3    H113548   3.321   7.758   2.247
 4535TIP3    H213549   3.382   7.787   2.382
 4536TIP3   OH213550   0.806   1.046   4.265
 4536TIP3    H113551   0.817   1.078   4.355
 4536TIP3    H213552   0.756   1.114   4.221
 4537TIP3   OH213553   7.510   6.373   2.757
 4537TIP3    H113554   7.456   6.432   2.703
 4537TIP3    H213555   7.534   6.426   2.833
 4538TIP3   OH213556   5.238   6.789   0.419
 4538TIP3    H113557   5.323   6.757   0.452
 4538TIP3    H213558   5.253   6.882   0.402
 4539TIP3   OH213559   5.722   5.213   3.597
 4539TIP3    H113560   5.632   5.209   3.628
 4539TIP3    H213561   5.720   5.278   3.527
 4540TIP3   OH213562   4.937   5.405   2.262
 4540TIP3    H113563   4.995   5.465   2.215
 4540TIP3    H213564   4.903   5.346   2.195
 4541TIP3   OH213565   5.070   0.771   0.222
 4541TIP3    H113566   5.150   0.729   0.189
 4541TIP3    H213567   5.040   0.827   0.150
 4542TIP3   OH213568   2.751   1.606   3.051
 4542TIP3    H113569   2.831   1.569   3.087
 4542TIP3    H213570   2.682   1.548   3.083
 4543TIP3   OH213571   1.928  -0.005   5.059
 4543TIP3    H113572   1.953   0.071   5.111
 4543TIP3    H213573   1.883  -0.063   5.121
 4544TIP3   OH213574   0.033   5.976   0.810
 4544TIP3    H113575   0.029   5.986   0.905
 4544TIP3    H213576   0.061   6.062   0.778
 4545TIP3   OH213577   2.067   3.808   3.865
 4545TIP3    H113578   2.104   3.887   3.825
 4545TIP3    H213579   2.088   3.817   3.958
 4546TIP3   OH213580   2.424   0.537   3.314
 4546TIP3    H113581   2.441   0.616   3.365
 4546TIP3    H213582   2.500   0.480   3.331
 4547TIP3   OH213583   4.605   6.553   1.351
 4547TIP3    H113584   4.593   6.503   1.432
 4547TIP3    H213585   4.546   6.628   1.361
 4548TIP3   OH213586   4.522   3.179   3.263
 4548TIP3    H113587   4.547   3.262   3.304
 4548TIP3    H213588   4.528   3.195   3.169
 4549TIP3   OH213589   4.865   5.172   2.501
 4549TIP3    H113590   4.845   5.264   2.488
 4549TIP3    H213591   4.950   5.171   2.544
 4550TIP3   OH213592   3.861   5.644   0.480
 4550TIP3    H113593   3.838   5.574   0.418
 4550TIP3    H213594   3.926   5.697   0.434
 4551TIP3   OH213595   4.929   2.603  -0.018
 4551TIP3    H113596   5.011   2.604   0.032
 4551TIP3    H213597   4.877   2.534   0.022
 4552TIP3   OH213598   3.669   3.683   6.053
 4552TIP3    H113599   3.722   3.760   6.076
 4552TIP3    H213600   3.596   3.685   6.115
 4553TIP3   OH213601   7.010   5.547   1.359
 4553TIP3    H113602   7.052   5.472   1.318
 4553TIP3    H213603   7.067   5.569   1.433
 4554TIP3   OH213604   2.346   4.881   5.912
 4554TIP3    H113605   2.276   4.936   5.876
 4554TIP3    H213606   2.325   4.793   5.882
 4555TIP3   OH213607   7.494   3.199   2.612
 4555TIP3    H113608   7.539   3.125   2.572
 4555TIP3    H213609   7.401   3.182   2.598
 4556TIP3   OH213610   5.455   3.986   1.774
 4556TIP3    H113611   5.398   3.965   1.848
 4556TIP3    H213612   5.495   3.903   1.750
 4557TIP3   OH213613   2.824   3.056   3.324
 4557TIP3    H113614   2.796   3.148   3.322
 4557TIP3    H213615   2.756   3.009   3.277
 4558TIP3   OH213616   3.988   4.709   5.605
 4558TIP3    H113617   3.923   4.775   5.580
 4558TIP3    H213618   4.057   4.759   5.648
 4559TIP3   OH213619   1.298   3.364   2.122
 4559TIP3    H113620   1.341   3.422   2.059
 4559TIP3    H213621   1.282   3.283   2.073
 4560TIP3   OH213622   0.267   0.645   5.129
 4560TIP3    H113623   0.339   0.622   5.187
 4560TIP3    H213624   0.288   0.603   5.046
 4561TIP3   OH213625   3.943   0.083   3.503
 4561TIP3    H113626   3.977   0.049   3.420
 4561TIP3    H213627   4.018   0.082   3.562
 4562TIP3   OH213628   7.186   6.799   5.517
 4562TIP3    H113629   7.173   6.844   5.433
 4562TIP3    H213630   7.265   6.746   5.504
 4563TIP3   OH213631   8.073   4.027   5.210
 4563TIP3    H113632   7.990   4.042   5.164
 4563TIP3    H213633   8.081   4.102   5.269
 4564TIP3   OH213634   1.126   1.012   5.777
 4564TIP3    H113635   1.125   1.085   5.839
 4564TIP3    H213636   1.123   1.054   5.691
 4565TIP3   OH213637   5.661   3.946   3.897
 4565TIP3    H113638   5.701   3.891   3.964
 4565TIP3    H213639   5.734   3.988   3.853
 4566TIP3   OH213640   4.261   3.638   2.853
 4566TIP3    H113641   4.298   3.639   2.942
 4566TIP3    H213642   4.280   3.550   2.821
 4567TIP3   OH213643   2.138   1.698   2.559
 4567TIP3    H113644   2.229   1.714   2.586
 4567TIP3    H213645   2.143   1.681   2.465
 4568TIP3   OH213646   0.315   0.775   6.105
 4568TIP3    H113647   0.283   0.698   6.153
 4568TIP3    H213648   0.373   0.739   6.039
 4569TIP3   OH213649   2.788   0.837   1.517
 4569TIP3    H113650   2.733   0.769   1.555
 4569TIP3    H213651   2.793   0.905   1.584
 4570TIP3   OH213652   4.674   1.840   4.024
 4570TIP3    H113653   4.738   1.863   4.091
 4570TIP3    H213654   4.626   1.766   4.062
 4571TIP3   OH213655   3.862   2.289   4.668
 4571TIP3    H113656   3.821   2.280   4.582
 4571TIP3    H213657   3.790   2.309   4.727
 4572TIP3   OH213658   1.265   5.592   4.017
 4572TIP3    H113659   1.275   5.687   4.014
 4572TIP3    H213660   1.323   5.564   4.087
 4573TIP3   OH213661   6.138   4.166   5.958
 4573TIP3    H113662   6.196   4.193   5.886
 4573TIP3    H213663   6.196   4.158   6.033
 4574TIP3   OH213664   2.470   2.095   6.743
 4574TIP3    H113665   2.436   2.062   6.826
 4574TIP3    H213666   2.416   2.052   6.677
 4575TIP3   OH213667   7.843   6.210   3.632
 4575TIP3    H113668   7.864   6.122   3.663
 4575TIP3    H213669   7.900   6.223   3.556
 4576TIP3   OH213670   5.179   0.471   3.685
 4576TIP3    H113671   5.165   0.560   3.653
 4576TIP3    H213672   5.272   0.467   3.706
 4577TIP3   OH213673   1.567   4.541   4.913
 4577TIP3    H113674   1.570   4.531   4.818
 4577TIP3    H213675   1.655   4.572   4.937
 4578TIP3   OH213676   2.924   2.614   4.513
 4578TIP3    H113677   2.876   2.697   4.503
 4578TIP3    H213678   2.972   2.623   4.595
 4579TIP3   OH213679   5.323   3.688   1.116
 4579TIP3    H113680   5.369   3.760   1.159
 4579TIP3    H213681   5.384   3.615   1.120
 4580TIP3   OH213682   6.701   5.420   0.127
 4580TIP3    H113683   6.710   5.382   0.215
 4580TIP3    H213684   6.678   5.346   0.071
 4581TIP3   OH213685   0.968   6.891   2.695
 4581TIP3    H113686   1.018   6.914   2.774
 4581TIP3    H213687   0.997   6.954   2.630
 4582TIP3   OH213688   6.197   5.982   5.451
 4582TIP3    H113689   6.185   5.889   5.466
 4582TIP3    H213690   6.110   6.013   5.426
 4583TIP3   OH213691   0.890   5.525   6.279
 4583TIP3    H113692   0.835   5.461   6.325
 4583TIP3    H213693   0.968   5.532   6.334
 4584TIP3   OH213694   0.543   1.056   1.810
 4584TIP3    H113695   0.606   1.082   1.742
 4584TIP3    H213696   0.468   1.114   1.795
 4585TIP3   OH213697   2.928   5.367   1.628
 4585TIP3    H113698   2.914   5.433   1.696
 4585TIP3    H213699   2.990   5.408   1.568
 4586TIP3   OH213700   5.565   2.577   0.373
 4586TIP3    H113701   5.618   2.499   0.387
 4586TIP3    H213702   5.617   2.648   0.410
 4587TIP3   OH213703   7.211   4.873   6.588
 4587TIP3    H113704   7.196   4.928   6.510
 4587TIP3    H213705   7.191   4.930   6.662
 4588TIP3   OH213706   4.041   0.359   1.131
 4588TIP3    H113707   4.004   0.444   1.108
 4588TIP3    H213708   4.080   0.372   1.217
 4589TIP3   OH213709   7.257   6.161   4.498
 4589TIP3    H113710   7.264   6.074   4.536
 4589TIP3    H213711   7.254   6.146   4.403
 4590TIP3   OH213712   6.832   2.682   3.114
 4590TIP3    H113713   6.762   2.679   3.178
 4590TIP3    H213714   6.813   2.759   3.059
 4591TIP3   OH213715   4.809   2.011   5.267
 4591TIP3    H113716   4.730   1.985   5.218
 4591TIP3    H213717   4.882   1.977   5.215
 4592TIP3   OH213718   6.607   1.242   5.483
 4592TIP3    H113719   6.609   1.335   5.507
 4592TIP3    H213720   6.692   1.226   5.443
 4593TIP3   OH213721   1.799   6.997   2.646
 4593TIP3    H113722   1.871   6.948   2.606
 4593TIP3    H213723   1.794   7.078   2.596
 4594TIP3   OH213724   2.973   7.553   0.699
 4594TIP3    H113725   3.061   7.565   0.663
 4594TIP3    H213726   2.947   7.641   0.726
 4595TIP3   OH213727   4.053   1.942   2.340
 4595TIP3    H113728   4.127   1.957   2.281
 4595TIP3    H213729   4.085   1.877   2.402
 4596TIP3   OH213730   5.378   0.807   5.950
 4596TIP3    H113731   5.304   0.765   5.907
 4596TIP3    H213732   5.455   0.767   5.908
 4597TIP3   OH213733   0.894   1.858   4.682
 4597TIP3    H113734   0.955   1.789   4.658
 4597TIP3    H213735   0.940   1.940   4.662
 4598TIP3   OH213736   0.875   5.202   0.379
 4598TIP3    H113737   0.865   5.148   0.458
 4598TIP3    H213738   0.969   5.208   0.366
 4599TIP3   OH213739   2.654   3.836   2.964
 4599TIP3    H113740   2.671   3.831   3.058
 4599TIP3    H213741   2.735   3.869   2.927
 4600TIP3   OH213742   2.029   4.566   5.024
 4600TIP3    H113743   2.097   4.503   5.000
 4600TIP3    H213744   2.044   4.582   5.117
 4601TIP3   OH213745   4.079   5.076   0.105
 4601TIP3    H113746   4.160   5.121   0.129
 4601TIP3    H213747   4.028   5.074   0.185
 4602TIP3   OH213748   2.528   6.996   3.213
 4602TIP3    H113749   2.506   6.963   3.126
 4602TIP3    H213750   2.459   7.060   3.232
 4603TIP3   OH213751   6.563   0.614   0.156
 4603TIP3    H113752   6.518   0.621   0.240
 4603TIP3    H213753   6.650   0.650   0.172
 4604TIP3   OH213754   7.819   6.097   0.554
 4604TIP3    H113755   7.910   6.086   0.527
 4604TIP3    H213756   7.819   6.077   0.647
 4605TIP3   OH213757   7.478   0.564   5.003
 4605TIP3    H113758   7.423   0.630   5.046
 4605TIP3    H213759   7.424   0.532   4.930
 4606TIP3   OH213760   6.244   4.691   2.258
 4606TIP3    H113761   6.337   4.710   2.248
 4606TIP3    H213762   6.202   4.731   2.182
 4607TIP3   OH213763   4.446   0.645   5.467
 4607TIP3    H113764   4.377   0.704   5.437
 4607TIP3    H213765   4.438   0.567   5.411
 4608TIP3   OH213766   5.414   3.170   5.544
 4608TIP3    H113767   5.456   3.095   5.502
 4608TIP3    H213768   5.394   3.139   5.632
 4609TIP3   OH213769   3.195   1.001   3.617
 4609TIP3    H113770   3.288   1.016   3.633
 4609TIP3    H213771   3.176   0.917   3.659
 4610TIP3   OH213772   7.748   3.642   6.428
 4610TIP3    H113773   7.769   3.646   6.521
 4610TIP3    H213774   7.707   3.727   6.409
 4611TIP3   OH213775   4.526   6.732   4.587
 4611TIP3    H113776   4.589   6.720   4.516
 4611TIP3    H213777   4.440   6.729   4.543
 4612TIP3   OH213778   1.006   7.691   0.259
 4612TIP3    H113779   1.099   7.671   0.261
 4612TIP3    H213780   1.002   7.784   0.233
 4613TIP3   OH213781   4.285   1.857   2.173
 4613TIP3    H113782   4.209   1.801   2.156
 4613TIP3    H213783   4.306   1.896   2.089
 4614TIP3   OH213784   7.372   2.793   5.801
 4614TIP3    H113785   7.361   2.830   5.713
 4614TIP3    H213786   7.316   2.847   5.856
 4615TIP3   OH213787   1.537   0.480   3.891
 4615TIP3    H113788   1.586   0.524   3.960
 4615TIP3    H213789   1.456   0.530   3.882
 4616TIP3   OH213790   3.285   3.579   2.815
 4616TIP3    H113791   3.283   3.674   2.832
 4616TIP3    H213792   3.375   3.562   2.786
 4617TIP3   OH213793   0.288   1.678   3.359
 4617TIP3    H113794   0.207   1.707   3.401
 4617TIP3    H213795   0.326   1.759   3.323
 4618TIP3   OH213796   4.938   3.168   0.072
 4618TIP3    H113797   4.992   3.109   0.125
 4618TIP3    H213798   4.872   3.111   0.032
 4619TIP3   OH213799   0.315   5.177   4.605
 4619TIP3    H113800   0.372   5.128   4.545
 4619TIP3    H213801   0.297   5.115   4.676
 4620TIP3   OH213802   4.886   2.473   5.589
 4620TIP3    H113803   4.897   2.382   5.616
 4620TIP3    H213804   4.859   2.519   5.669
 4621TIP3   OH213805   6.647   4.114   4.461
 4621TIP3    H113806   6.569   4.059   4.469
 4621TIP3    H213807   6.702   4.069   4.397
 4622TIP3   OH213808   8.060   3.542   4.460
 4622TIP3    H113809   8.037   3.553   4.368
 4622TIP3    H213810   7.986   3.579   4.508
 4623TIP3   OH213811   4.078   5.881   4.955
 4623TIP3    H113812   4.150   5.864   5.016
 4623TIP3    H213813   4.022   5.943   5.002
 4624TIP3   OH213814   7.335   0.788   3.934
 4624TIP3    H113815   7.342   0.881   3.915
 4624TIP3    H213816   7.370   0.745   3.857
 4625TIP3   OH213817   4.525   5.715   3.332
 4625TIP3    H113818   4.459   5.728   3.263
 4625TIP3    H213819   4.607   5.701   3.284
 4626TIP3   OH213820   4.468   4.322   0.344
 4626TIP3    H113821   4.396   4.315   0.406
 4626TIP3    H213822   4.542   4.278   0.386
 4627TIP3   OH213823   8.273   7.799   4.271
 4627TIP3    H113824   8.230   7.723   4.311
 4627TIP3    H213825   8.251   7.792   4.178
 4628TIP3   OH213826   3.638   5.467   0.304
 4628TIP3    H113827   3.597   5.413   0.237
 4628TIP3    H213828   3.732   5.452   0.293
 4629TIP3   OH213829   0.624   7.775   5.803
 4629TIP3    H113830   0.699   7.799   5.749
 4629TIP3    H213831   0.563   7.734   5.743
 4630TIP3   OH213832   7.553   4.619   5.594
 4630TIP3    H113833   7.500   4.693   5.627
 4630TIP3    H213834   7.639   4.657   5.579
 4631TIP3   OH213835   7.911   3.404   1.092
 4631TIP3    H113836   7.989   3.457   1.075
 4631TIP3    H213837   7.935   3.348   1.166
 4632TIP3   OH213838   7.470   0.087   4.839
 4632TIP3    H113839   7.561   0.076   4.812
 4632TIP3    H213840   7.420   0.081   4.758
 4633TIP3   OH213841   5.856   6.132   2.981
 4633TIP3    H113842   5.830   6.224   2.985
 4633TIP3    H213843   5.779   6.087   2.947
 4634TIP3   OH213844   8.028   7.794   5.315
 4634TIP3    H113845   8.107   7.813   5.264
 4634TIP3    H213846   7.985   7.723   5.267
 4635TIP3   OH213847   1.957   2.009   2.905
 4635TIP3    H113848   2.040   2.034   2.946
 4635TIP3    H213849   1.894   2.074   2.937
 4636TIP3   OH213850   6.863   1.864   2.222
 4636TIP3    H113851   6.814   1.782   2.226
 4636TIP3    H213852   6.818   1.922   2.283
 4637TIP3   OH213853   4.234   0.157   4.852
 4637TIP3    H113854   4.288   0.141   4.775
 4637TIP3    H213855   4.207   0.070   4.881
 4638TIP3   OH213856   6.054   4.925   3.797
 4638TIP3    H113857   5.983   4.861   3.805
 4638TIP3    H213858   6.102   4.919   3.879
 4639TIP3   OH213859   5.684   0.397   0.584
 4639TIP3    H113860   5.725   0.337   0.521
 4639TIP3    H213861   5.608   0.431   0.538
 4640TIP3   OH213862   5.626   1.867   2.797
 4640TIP3    H113863   5.549   1.891   2.746
 4640TIP3    H213864   5.614   1.911   2.881
 4641TIP3   OH213865   4.931   0.470   3.133
 4641TIP3    H113866   4.837   0.484   3.119
 4641TIP3    H213867   4.971   0.488   3.048
 4642TIP3   OH213868   5.438   1.006   5.010
 4642TIP3    H113869   5.456   1.089   5.054
 4642TIP3    H213870   5.450   1.025   4.917
 4643TIP3   OH213871   4.313   4.280   2.426
 4643TIP3    H113872   4.235   4.329   2.401
 4643TIP3    H213873   4.380   4.346   2.440
 4644TIP3   OH213874   7.641   6.598   5.343
 4644TIP3    H113875   7.629   6.612   5.249
 4644TIP3    H213876   7.654   6.686   5.379
 4645TIP3   OH213877   0.791   1.842   5.244
 4645TIP3    H113878   0.710   1.891   5.257
 4645TIP3    H213879   0.806   1.845   5.149
 4646TIP3   OH213880   0.851   4.305   4.738
 4646TIP3    H113881   0.760   4.275   4.734
 4646TIP3    H213882   0.849   4.391   4.696
 4647TIP3   OH213883   3.901   4.979   0.840
 4647TIP3    H113884   3.965   5.042   0.808
 4647TIP3    H213885   3.838   4.969   0.769
 4648TIP3   OH213886   6.238   4.849   1.773
 4648TIP3    H113887   6.325   4.844   1.813
 4648TIP3    H213888   6.250   4.812   1.686
 4649TIP3   OH213889   4.582   6.909   5.344
 4649TIP3    H113890   4.536   6.870   5.270
 4649TIP3    H213891   4.519   6.909   5.415
 4650TIP3   OH213892   4.276   0.384   1.900
 4650TIP3    H113893   4.198   0.406   1.950
 4650TIP3    H213894   4.262   0.425   1.814
 4651TIP3   OH213895   7.628   6.358   0.486
 4651TIP3    H113896   7.597   6.378   0.574
 4651TIP3    H213897   7.675   6.275   0.496
 4652TIP3   OH213898   5.222   6.626   6.482
 4652TIP3    H113899   5.133   6.590   6.480
 4652TIP3    H213900   5.209   6.721   6.483
 4653TIP3   OH213901   6.279   7.131   1.138
 4653TIP3    H113902   6.361   7.093   1.167
 4653TIP3    H213903   6.275   7.111   1.044
 4654TIP3   OH213904   3.529   6.257   0.493
 4654TIP3    H113905   3.512   6.196   0.421
 4654TIP3    H213906   3.461   6.323   0.485
 4655TIP3   OH213907   6.050   6.014   2.853
 4655TIP3    H113908   6.066   6.067   2.775
 4655TIP3    H213909   5.985   6.062   2.903
 4656TIP3   OH213910   7.602   0.318   1.297
 4656TIP3    H113911   7.634   0.343   1.384
 4656TIP3    H213912   7.622   0.394   1.241
 4657TIP3   OH213913   0.576   4.687   4.021
 4657TIP3    H113914   0.552   4.774   3.988
 4657TIP3    H213915   0.668   4.677   3.996
 4658TIP3   OH213916   1.888   4.334   6.126
 4658TIP3    H113917   1.895   4.389   6.204
 4658TIP3    H213918   1.956   4.268   6.136
 4659TIP3   OH213919   4.391   7.086   4.143
 4659TIP3    H113920   4.417   7.097   4.052
 4659TIP3    H213921   4.459   7.031   4.181
 4660TIP3   OH213922   1.631   7.551   3.685
 4660TIP3    H113923   1.536   7.549   3.696
 4660TIP3    H213924   1.665   7.507   3.763
 4661TIP3   OH213925   3.114   0.108   6.039
 4661TIP3    H113926   3.078   0.148   6.118
 4661TIP3    H213927   3.186   0.054   6.070
 4662TIP3   OH213928   5.344   2.682   4.111
 4662TIP3    H113929   5.342   2.623   4.187
 4662TIP3    H213930   5.252   2.697   4.091
 4663TIP3   OH213931   0.140   4.164   3.959
 4663TIP3    H113932   0.235   4.173   3.952
 4663TIP3    H213933   0.110   4.160   3.868
 4664TIP3   OH213934   1.073   6.612   5.216
 4664TIP3    H113935   0.990   6.573   5.189
 4664TIP3    H213936   1.130   6.537   5.234
 4665TIP3   OH213937   0.737   7.594   0.611
 4665TIP3    H113938   0.801   7.661   0.585
 4665TIP3    H213939   0.694   7.569   0.529
 4666TIP3   OH213940   2.354   2.959   1.197
 4666TIP3    H113941   2.447   2.972   1.182
 4666TIP3    H213942   2.315   2.955   1.109
 4667TIP3   OH213943   3.591   5.370   5.641
 4667TIP3    H113944   3.586   5.418   5.724
 4667TIP3    H213945   3.682   5.379   5.614
 4668TIP3   OH213946   5.767   2.975   3.280
 4668TIP3    H113947   5.708   3.012   3.214
 4668TIP3    H213948   5.709   2.927   3.339
 4669TIP3   OH213949   7.564   6.232   2.320
 4669TIP3    H113950   7.512   6.171   2.372
 4669TIP3    H213951   7.522   6.231   2.234
 4670TIP3   OH213952   3.694   6.890   3.436
 4670TIP3    H113953   3.722   6.803   3.464
 4670TIP3    H213954   3.724   6.896   3.345
 4671TIP3   OH213955   7.025   1.785   0.274
 4671TIP3    H113956   7.063   1.806   0.188
 4671TIP3    H213957   7.096   1.804   0.336
 4672TIP3   OH213958   1.760   5.786   4.631
 4672TIP3    H113959   1.819   5.747   4.566
 4672TIP3    H213960   1.772   5.881   4.619
 4673TIP3   OH213961   1.201   2.006   4.337
 4673TIP3    H113962   1.273   1.953   4.303
 4673TIP3    H213963   1.155   2.038   4.259
 4674TIP3   OH213964   4.427   5.565   5.034
 4674TIP3    H113965   4.402   5.590   4.945
 4674TIP3    H213966   4.393   5.476   5.044
 4675TIP3   OH213967   0.663   6.044   6.729
 4675TIP3    H113968   0.603   6.012   6.796
 4675TIP3    H213969   0.644   6.138   6.723
 4676TIP3   OH213970   2.359   2.752   0.192
 4676TIP3    H113971   2.432   2.785   0.140
 4676TIP3    H213972   2.359   2.807   0.271
 4677TIP3   OH213973   3.000   3.479   1.196
 4677TIP3    H113974   2.956   3.477   1.281
 4677TIP3    H213975   3.067   3.410   1.203
 4678TIP3   OH213976   7.477   5.167   1.796
 4678TIP3    H113977   7.407   5.198   1.853
 4678TIP3    H213978   7.545   5.233   1.803
 4679TIP3   OH213979   0.006   1.371   1.943
 4679TIP3    H113980  -0.018   1.394   1.853
 4679TIP3    H213981   0.019   1.455   1.987
 4680TIP3   OH213982   2.514   6.929   2.939
 4680TIP3    H113983   2.598   6.932   2.893
 4680TIP3    H213984   2.474   7.014   2.920
 4681TIP3   OH213985   2.244   5.047   0.946
 4681TIP3    H113986   2.172   5.002   0.991
 4681TIP3    H213987   2.231   5.026   0.854
 4682TIP3   OH213988   5.236   2.177   2.260
 4682TIP3    H113989   5.217   2.183   2.166
 4682TIP3    H213990   5.284   2.258   2.279
 4683TIP3   OH213991   0.472   6.411   5.474
 4683TIP3    H113992   0.558   6.434   5.440
 4683TIP3    H213993   0.453   6.325   5.438
 4684TIP3   OH213994   3.307   5.083   5.034
 4684TIP3    H113995   3.227   5.066   5.084
 4684TIP3    H213996   3.279   5.083   4.943
 4685TIP3   OH213997   3.575   6.565   5.894
 4685TIP3    H113998   3.588   6.567   5.989
 4685TIP3    H213999   3.619   6.643   5.862
 4686TIP3   OH214000   3.613   0.999   6.064
 4686TIP3    H114001   3.661   1.068   6.017
 4686TIP3    H214002   3.570   0.949   5.994
 4687TIP3   OH214003   7.104   7.159   4.583
 4687TIP3    H114004   7.116   7.213   4.505
 4687TIP3    H214005   7.189   7.117   4.596
 4688TIP3   OH214006   6.540   3.652   1.499
 4688TIP3    H114007   6.561   3.644   1.406
 4688TIP3    H214008   6.595   3.724   1.530
 4689TIP3   OH214009   7.891   4.177   3.849
 4689TIP3    H114010   7.974   4.214   3.879
 4689TIP3    H214011   7.836   4.173   3.927
 4690TIP3   OH214012   6.362   7.071   0.595
 4690TIP3    H114013   6.453   7.041   0.596
 4690TIP3    H214014   6.342   7.081   0.502
 4691TIP3   OH214015   4.537   4.058   5.504
 4691TIP3    H114016   4.554   3.969   5.533
 4691TIP3    H214017   4.451   4.080   5.540
 4692TIP3   OH214018   1.795   2.539   2.650
 4692TIP3    H114019   1.847   2.512   2.574
 4692TIP3    H214020   1.844   2.507   2.726
 4693TIP3   OH214021   1.860   2.301   1.425
 4693TIP3    H114022   1.889   2.342   1.343
 4693TIP3    H214023   1.940   2.286   1.474
 4694TIP3   OH214024   5.082   2.091   4.845
 4694TIP3    H114025   5.117   2.087   4.934
 4694TIP3    H214026   5.152   2.055   4.791
 4695TIP3   OH214027   6.454   3.467   0.694
 4695TIP3    H114028   6.505   3.480   0.774
 4695TIP3    H214029   6.363   3.463   0.724
 4696TIP3   OH214030   4.714   1.595   2.643
 4696TIP3    H114031   4.690   1.575   2.553
 4696TIP3    H214032   4.774   1.670   2.635
 4697TIP3   OH214033   4.473   4.507   3.671
 4697TIP3    H114034   4.488   4.472   3.583
 4697TIP3    H214035   4.451   4.599   3.657
 4698TIP3   OH214036   1.423   6.467   2.663
 4698TIP3    H114037   1.396   6.555   2.637
 4698TIP3    H214038   1.431   6.471   2.758
 4699TIP3   OH214039   6.188   4.956   4.349
 4699TIP3    H114040   6.171   4.956   4.255
 4699TIP3    H214041   6.102   4.958   4.389
 4700TIP3   OH214042   3.229   4.638   1.718
 4700TIP3    H114043   3.221   4.543   1.717
 4700TIP3    H214044   3.239   4.662   1.810
 4701TIP3   OH214045   4.926   2.079   6.456
 4701TIP3    H114046   4.921   2.072   6.361
 4701TIP3    H214047   4.839   2.107   6.483
 4702TIP3   OH214048   2.707   6.967   4.253
 4702TIP3    H114049   2.779   7.029   4.257
 4702TIP3    H214050   2.710   6.920   4.336
 4703TIP3   OH214051   4.997   1.540   2.923
 4703TIP3    H114052   4.981   1.578   3.009
 4703TIP3    H214053   5.050   1.605   2.877
 4704TIP3   OH214054   7.330   6.793   4.328
 4704TIP3    H114055   7.300   6.746   4.251
 4704TIP3    H214056   7.383   6.865   4.294
 4705TIP3   OH214057   4.987   3.010   4.357
 4705TIP3    H114058   5.079   2.984   4.361
 4705TIP3    H214059   4.939   2.931   4.382
 4706TIP3   OH214060   6.831   3.122   4.581
 4706TIP3    H114061   6.794   3.077   4.658
 4706TIP3    H214062   6.801   3.069   4.507
 4707TIP3   OH214063   1.192   4.262   4.303
 4707TIP3    H114064   1.233   4.321   4.366
 4707TIP3    H214065   1.125   4.215   4.354
 4708TIP3   OH214066   1.535   6.412   5.416
 4708TIP3    H114067   1.475   6.349   5.456
 4708TIP3    H214068   1.478   6.479   5.379
 4709TIP3   OH214069   1.891   3.223   1.490
 4709TIP3    H114070   1.799   3.245   1.478
 4709TIP3    H214071   1.891   3.129   1.507
 4710TIP3   OH214072   2.869   0.622   4.450
 4710TIP3    H114073   2.853   0.528   4.449
 4710TIP3    H214074   2.838   0.651   4.536
 4711TIP3   OH214075   8.271   6.160   6.045
 4711TIP3    H114076   8.257   6.241   5.996
 4711TIP3    H214077   8.337   6.182   6.110
 4712TIP3   OH214078   4.045   7.011   3.375
 4712TIP3    H114079   4.015   7.027   3.465
 4712TIP3    H214080   3.965   6.992   3.326
 4713TIP3   OH214081   1.433   7.196   5.345
 4713TIP3    H114082   1.359   7.138   5.326
 4713TIP3    H214083   1.394   7.284   5.346
 4714TIP3   OH214084   3.646   5.195   3.092
 4714TIP3    H114085   3.641   5.179   3.186
 4714TIP3    H214086   3.557   5.182   3.060
 4715TIP3   OH214087   7.414   6.743   2.747
 4715TIP3    H114088   7.346   6.811   2.741
 4715TIP3    H214089   7.390   6.681   2.678
 4716TIP3   OH214090   1.649   1.114   6.244
 4716TIP3    H114091   1.587   1.090   6.313
 4716TIP3    H214092   1.650   1.039   6.186
 4717TIP3   OH214093   7.502   7.382   5.893
 4717TIP3    H114094   7.543   7.331   5.823
 4717TIP3    H214095   7.478   7.465   5.852
 4718TIP3   OH214096   1.908   0.592   3.600
 4718TIP3    H114097   1.827   0.542   3.589
 4718TIP3    H214098   1.943   0.564   3.684
 4719TIP3   OH214099   8.205   2.132   4.046
 4719TIP3    H114100   8.122   2.126   3.999
 4719TIP3    H214101   8.270   2.148   3.977
 4720TIP3   OH214102   7.614   5.996   2.058
 4720TIP3    H114103   7.549   5.974   2.125
 4720TIP3    H214104   7.581   6.076   2.018
 4721TIP3   OH214105   2.633   1.677   3.632
 4721TIP3    H114106   2.722   1.654   3.659
 4721TIP3    H214107   2.644   1.712   3.544
 4722TIP3   OH214108   3.023   4.683   1.528
 4722TIP3    H114109   2.954   4.731   1.573
 4722TIP3    H214110   3.087   4.665   1.597
 4723TIP3   OH214111   6.234   2.393   6.307
 4723TIP3    H114112   6.308   2.334   6.321
 4723TIP3    H214113   6.270   2.480   6.321
 4724TIP3   OH214114   5.357   3.968   2.881
 4724TIP3    H114115   5.357   4.022   2.960
 4724TIP3    H214116   5.272   3.925   2.881
 4725TIP3   OH214117   8.278   2.442   6.591
 4725TIP3    H114118   8.264   2.465   6.683
 4725TIP3    H214119   8.273   2.346   6.590
 4726TIP3   OH214120   0.590   1.949   2.444
 4726TIP3    H114121   0.655   1.927   2.377
 4726TIP3    H214122   0.517   1.988   2.395
 4727TIP3   OH214123   4.771   4.600   5.991
 4727TIP3    H114124   4.765   4.598   6.087
 4727TIP3    H214125   4.700   4.543   5.961
 4728TIP3   OH214126   1.212   2.696   4.415
 4728TIP3    H114127   1.258   2.673   4.496
 4728TIP3    H214128   1.214   2.615   4.363
 4729TIP3   OH214129   4.375   4.951   2.107
 4729TIP3    H114130   4.366   4.861   2.139
 4729TIP3    H214131   4.450   4.948   2.049
 4730TIP3   OH214132   1.746   7.097   1.558
 4730TIP3    H114133   1.667   7.138   1.592
 4730TIP3    H214134   1.816   7.131   1.613
 4731TIP3   OH214135   4.634   6.428   2.015
 4731TIP3    H114136   4.716   6.465   2.048
 4731TIP3    H214137   4.571   6.500   2.022
 4732TIP3   OH214138   5.957   1.591   2.520
 4732TIP3    H114139   6.017   1.665   2.525
 4732TIP3    H214140   6.007   1.517   2.554
 4733TIP3   OH214141   2.987   1.889   2.691
 4733TIP3    H114142   3.073   1.856   2.664
 4733TIP3    H214143   2.995   1.904   2.785
 4734TIP3   OH214144   8.006   4.179   5.438
 4734TIP3    H114145   8.015   4.213   5.527
 4734TIP3    H214146   7.912   4.175   5.423
 4735TIP3   OH214147   3.239   1.363   3.185
 4735TIP3    H114148   3.302   1.371   3.113
 4735TIP3    H214149   3.269   1.287   3.235
 4736TIP3   OH214150   5.546   6.750   2.092
 4736TIP3    H114151   5.502   6.796   2.021
 4736TIP3    H214152   5.514   6.792   2.171
 4737TIP3   OH214153   1.129   4.078   1.883
 4737TIP3    H114154   1.124   4.160   1.932
 4737TIP3    H214155   1.191   4.096   1.813
 4738TIP3   OH214156   2.355   3.212   5.198
 4738TIP3    H114157   2.317   3.130   5.230
 4738TIP3    H214158   2.346   3.207   5.103
 4739TIP3   OH214159   5.005   4.494   5.366
 4739TIP3    H114160   4.974   4.407   5.341
 4739TIP3    H214161   5.099   4.493   5.345
 4740TIP3   OH214162   6.939   0.213   2.320
 4740TIP3    H114163   6.844   0.200   2.331
 4740TIP3    H214164   6.979   0.146   2.375
 4741TIP3   OH214165   2.555   3.444   6.729
 4741TIP3    H114166   2.589   3.392   6.802
 4741TIP3    H214167   2.608   3.523   6.730
 4742TIP3   OH214168   5.066   5.352   3.737
 4742TIP3    H114169   5.132   5.325   3.802
 4742TIP3    H214170   5.054   5.274   3.682
 4743TIP3   OH214171   5.949   5.440   6.017
 4743TIP3    H114172   5.954   5.508   6.084
 4743TIP3    H214173   5.985   5.362   6.060
 4744TIP3   OH214174   1.717   7.225   6.573
 4744TIP3    H114175   1.689   7.274   6.650
 4744TIP3    H214176   1.798   7.183   6.599
 4745TIP3   OH214177   5.882   0.398   4.218
 4745TIP3    H114178   5.928   0.395   4.303
 4745TIP3    H214179   5.935   0.458   4.165
 4746TIP3   OH214180   5.283   7.454   6.022
 4746TIP3    H114181   5.293   7.372   6.070
 4746TIP3    H214182   5.251   7.429   5.936
 4747TIP3   OH214183   0.993   6.372   4.892
 4747TIP3    H114184   0.988   6.465   4.872
 4747TIP3    H214185   0.917   6.355   4.948
 4748TIP3   OH214186   7.191   5.330   4.067
 4748TIP3    H114187   7.152   5.255   4.023
 4748TIP3    H214188   7.201   5.396   3.999
 4749TIP3   OH214189   7.399   6.524   2.291
 4749TIP3    H114190   7.315   6.569   2.284
 4749TIP3    H214191   7.445   6.547   2.211
 4750TIP3   OH214192   2.183   0.000   5.347
 4750TIP3    H114193   2.244  -0.038   5.412
 4750TIP3    H214194   2.221  -0.025   5.263
 4751TIP3   OH214195   4.017   2.286   6.538
 4751TIP3    H114196   4.047   2.376   6.530
 4751TIP3    H214197   3.957   2.287   6.612
 4752TIP3   OH214198   8.216   4.589   3.149
 4752TIP3    H114199   8.267   4.508   3.145
 4752TIP3    H214200   8.173   4.594   3.064
 4753TIP3   OH214201   6.311   2.198   2.196
 4753TIP3    H114202   6.390   2.180   2.145
 4753TIP3    H214203   6.254   2.245   2.135
 4754TIP3   OH214204   1.568   3.039   0.848
 4754TIP3    H114205   1.513   2.993   0.911
 4754TIP3    H214206   1.658   3.017   0.873
 4755TIP3   OH214207   4.154   5.158   2.850
 4755TIP3    H114208   4.059   5.172   2.853
 4755TIP3    H214209   4.165   5.078   2.799
 4756TIP3   OH214210   0.146   1.784   0.189
 4756TIP3    H114211   0.076   1.720   0.198
 4756TIP3    H214212   0.102   1.868   0.185
 4757TIP3   OH214213   0.366   0.186   2.591
 4757TIP3    H114214   0.324   0.111   2.548
 4757TIP3    H214215   0.450   0.152   2.622
 4758TIP3   OH214216   7.172   7.379   2.834
 4758TIP3    H114217   7.137   7.339   2.914
 4758TIP3    H214218   7.267   7.380   2.848
 4759TIP3   OH214219   5.294   3.989   2.440
 4759TIP3    H114220   5.262   4.079   2.440
 4759TIP3    H214221   5.269   3.955   2.526
 4760TIP3   OH214222   5.542   3.045   4.106
 4760TIP3    H114223   5.572   3.135   4.095
 4760TIP3    H214224   5.450   3.053   4.131
 4761TIP3   OH214225   1.382   4.143   4.150
 4761TIP3    H114226   1.321   4.160   4.222
 4761TIP3    H214227   1.462   4.191   4.173
 4762TIP3   OH214228   8.078   2.629   2.762
 4762TIP3    H114229   8.069   2.539   2.731
 4762TIP3    H214230   8.016   2.635   2.835
 4763TIP3   OH214231   8.294   2.835   6.562
 4763TIP3    H114232   8.269   2.847   6.654
 4763TIP3    H214233   8.347   2.755   6.562
 4764TIP3   OH214234   4.057   7.082   5.059
 4764TIP3    H114235   4.016   7.112   4.977
 4764TIP3    H214236   4.040   7.154   5.121
 4765TIP3   OH214237   8.208   5.231   3.766
 4765TIP3    H114238   8.148   5.253   3.837
 4765TIP3    H214239   8.229   5.138   3.781
 4766TIP3   OH214240   1.685   7.160   3.949
 4766TIP3    H114241   1.592   7.167   3.927
 4766TIP3    H214242   1.723   7.244   3.920
 4767TIP3   OH214243   3.984   4.006   5.945
 4767TIP3    H114244   4.011   3.965   5.863
 4767TIP3    H214245   3.942   4.088   5.919
 4768TIP3   OH214246   5.675   5.230   0.286
 4768TIP3    H114247   5.650   5.284   0.211
 4768TIP3    H214248   5.599   5.232   0.343
 4769TIP3   OH214249   5.000   4.786   1.023
 4769TIP3    H114250   5.044   4.820   0.946
 4769TIP3    H214251   4.918   4.749   0.990
 4770TIP3   OH214252   5.556   5.501   4.672
 4770TIP3    H114253   5.536   5.494   4.765
 4770TIP3    H214254   5.509   5.579   4.642
 4771TIP3   OH214255   3.195   0.250   6.686
 4771TIP3    H114256   3.273   0.269   6.635
 4771TIP3    H214257   3.222   0.261   6.777
 4772TIP3   OH214258   3.630   2.192   3.628
 4772TIP3    H114259   3.621   2.139   3.707
 4772TIP3    H214260   3.715   2.165   3.591
 4773TIP3   OH214261   7.228   4.051   5.620
 4773TIP3    H114262   7.177   4.001   5.684
 4773TIP3    H214263   7.163   4.084   5.558
 4774TIP3   OH214264   3.309   6.986   6.458
 4774TIP3    H114265   3.348   7.062   6.502
 4774TIP3    H214266   3.326   7.002   6.365
 4775TIP3   OH214267   4.991   7.432   0.993
 4775TIP3    H114268   4.898   7.445   1.009
 4775TIP3    H214269   5.006   7.471   0.907
 4776TIP3   OH214270   6.983   7.344   1.776
 4776TIP3    H114271   6.967   7.303   1.691
 4776TIP3    H214272   6.989   7.270   1.837
 4777TIP3   OH214273   2.418   4.026   0.963
 4777TIP3    H114274   2.345   3.964   0.956
 4777TIP3    H214275   2.463   4.020   0.878
 4778TIP3   OH214276   5.602   1.909   5.105
 4778TIP3    H114277   5.686   1.897   5.150
 4778TIP3    H214278   5.571   1.995   5.134
 4779TIP3   OH214279   1.075   3.858   5.184
 4779TIP3    H114280   1.156   3.824   5.145
 4779TIP3    H214281   1.053   3.795   5.253
 4780TIP3   OH214282   6.134   0.424   6.739
 4780TIP3    H114283   6.176   0.381   6.814
 4780TIP3    H214284   6.086   0.354   6.695
 4781TIP3   OH214285   5.859   5.926   6.175
 4781TIP3    H114286   5.763   5.927   6.169
 4781TIP3    H214287   5.880   6.005   6.225
 4782TIP3   OH214288   2.210   4.918   5.231
 4782TIP3    H114289   2.146   4.939   5.163
 4782TIP3    H214290   2.219   4.823   5.226
 4783TIP3   OH214291   2.525   7.689   2.913
 4783TIP3    H114292   2.503   7.626   2.982
 4783TIP3    H214293   2.446   7.695   2.859
 4784TIP3   OH214294   3.916   6.691   3.963
 4784TIP3    H114295   3.906   6.725   3.874
 4784TIP3    H214296   3.942   6.767   4.015
 4785TIP3   OH214297   3.816   3.448   3.580
 4785TIP3    H114298   3.783   3.478   3.495
 4785TIP3    H214299   3.875   3.376   3.558
 4786TIP3   OH214300   1.859   4.778   1.278
 4786TIP3    H114301   1.791   4.738   1.333
 4786TIP3    H214302   1.875   4.863   1.319
 4787TIP3   OH214303   3.379   6.185   2.771
 4787TIP3    H114304   3.408   6.095   2.759
 4787TIP3    H214305   3.328   6.205   2.692
 4788TIP3   OH214306   0.410   1.503   3.533
 4788TIP3    H114307   0.385   1.574   3.474
 4788TIP3    H214308   0.479   1.456   3.487
 4789TIP3   OH214309   2.372   5.431   2.083
 4789TIP3    H114310   2.435   5.467   2.021
 4789TIP3    H214311   2.353   5.503   2.143
 4790TIP3   OH214312   0.704   5.635   6.568
 4790TIP3    H114313   0.692   5.541   6.551
 4790TIP3    H214314   0.615   5.670   6.567
 4791TIP3   OH214315   4.135   3.351   6.175
 4791TIP3    H114316   4.103   3.274   6.127
 4791TIP3    H214317   4.117   3.424   6.116
 4792TIP3   OH214318   1.706   2.666   1.406
 4792TIP3    H114319   1.780   2.705   1.454
 4792TIP3    H214320   1.630   2.716   1.435
 4793TIP3   OH214321   8.044   2.993   5.157
 4793TIP3    H114322   7.953   2.964   5.165
 4793TIP3    H214323   8.094   2.912   5.147
 4794TIP3   OH214324   5.390   4.879   4.598
 4794TIP3    H114325   5.349   4.793   4.610
 4794TIP3    H214326   5.472   4.874   4.648
 4795TIP3   OH214327   1.914   6.430   2.595
 4795TIP3    H114328   1.847   6.423   2.663
 4795TIP3    H214329   1.951   6.518   2.606
 4796TIP3   OH214330   1.772   6.010   3.878
 4796TIP3    H114331   1.791   6.087   3.931
 4796TIP3    H214332   1.718   6.043   3.806
 4797TIP3   OH214333   7.822   4.189   2.634
 4797TIP3    H114334   7.851   4.135   2.708
 4797TIP3    H214335   7.895   4.247   2.615
 4798TIP3   OH214336   4.072   4.913   4.466
 4798TIP3    H114337   4.053   5.006   4.448
 4798TIP3    H214338   3.988   4.878   4.497
 4799TIP3   OH214339   3.381   1.079   2.385
 4799TIP3    H114340   3.325   1.146   2.425
 4799TIP3    H214341   3.330   0.998   2.393
 4800TIP3   OH214342   7.454   3.969   3.820
 4800TIP3    H114343   7.442   3.941   3.911
 4800TIP3    H214344   7.520   4.038   3.824
 4801TIP3   OH214345   7.793   3.202   5.381
 4801TIP3    H114346   7.802   3.145   5.304
 4801TIP3    H214347   7.883   3.220   5.408
 4802TIP3   OH214348   3.657   4.254   1.882
 4802TIP3    H114349   3.616   4.297   1.808
 4802TIP3    H214350   3.747   4.239   1.854
 4803TIP3   OH214351   5.984   7.143   0.832
 4803TIP3    H114352   6.076   7.118   0.842
 4803TIP3    H214353   5.956   7.166   0.921
 4804TIP3   OH214354   4.845   7.254   3.137
 4804TIP3    H114355   4.922   7.217   3.179
 4804TIP3    H214356   4.783   7.181   3.133
 4805TIP3   OH214357   4.652   3.624   2.975
 4805TIP3    H114358   4.734   3.575   2.969
 4805TIP3    H214359   4.673   3.710   2.939
 4806TIP3   OH214360   2.059   3.605   1.248
 4806TIP3    H114361   2.073   3.511   1.262
 4806TIP3    H214362   2.147   3.641   1.242
 4807TIP3   OH214363   1.758   6.467   4.219
 4807TIP3    H114364   1.775   6.459   4.125
 4807TIP3    H214365   1.682   6.524   4.225
 4808TIP3   OH214366   2.798   0.896   5.539
 4808TIP3    H114367   2.849   0.816   5.550
 4808TIP3    H214368   2.809   0.944   5.621
 4809TIP3   OH214369   1.890   2.670   2.237
 4809TIP3    H114370   1.963   2.714   2.193
 4809TIP3    H214371   1.831   2.645   2.166
 4810TIP3   OH214372   0.293   0.535   3.384
 4810TIP3    H114373   0.376   0.498   3.352
 4810TIP3    H214374   0.289   0.622   3.344
 4811TIP3   OH214375   3.359   3.770   4.192
 4811TIP3    H114376   3.450   3.744   4.208
 4811TIP3    H214377   3.308   3.692   4.214
 4812TIP3   OH214378   7.341   5.528   6.554
 4812TIP3    H114379   7.313   5.455   6.499
 4812TIP3    H214380   7.299   5.512   6.639
 4813TIP3   OH214381   6.656   4.805   5.051
 4813TIP3    H114382   6.562   4.823   5.055
 4813TIP3    H214383   6.683   4.799   5.143
 4814TIP3   OH214384   4.151   7.478   2.754
 4814TIP3    H114385   4.190   7.467   2.841
 4814TIP3    H214386   4.206   7.543   2.712
 4815TIP3   OH214387   2.260   2.192   3.802
 4815TIP3    H114388   2.336   2.227   3.848
 4815TIP3    H214389   2.287   2.105   3.774
 4816TIP3   OH214390   6.271   0.278   0.954
 4816TIP3    H114391   6.276   0.345   1.023
 4816TIP3    H214392   6.356   0.283   0.910
 4817TIP3   OH214393   6.929   3.348   6.403
 4817TIP3    H114394   6.878   3.405   6.345
 4817TIP3    H214395   6.917   3.260   6.367
 4818TIP3   OH214396   3.011   0.052   0.326
 4818TIP3    H114397   2.986  -0.018   0.265
 4818TIP3    H214398   3.098   0.028   0.356
 4819TIP3   OH214399   3.052   6.429   4.923
 4819TIP3    H114400   2.994   6.388   4.859
 4819TIP3    H214401   3.056   6.367   4.995
 4820TIP3   OH214402   7.077   1.710   5.539
 4820TIP3    H114403   7.099   1.619   5.557
 4820TIP3    H214404   7.100   1.724   5.447
 4821TIP3   OH214405   7.533   4.383   3.254
 4821TIP3    H114406   7.519   4.321   3.182
 4821TIP3    H214407   7.598   4.444   3.220
 4822TIP3   OH214408   7.935   6.005   1.945
 4822TIP3    H114409   7.902   5.943   1.879
 4822TIP3    H214410   8.030   5.998   1.938
 4823TIP3   OH214411   0.495   7.435   6.597
 4823TIP3    H114412   0.514   7.433   6.503
 4823TIP3    H214413   0.400   7.434   6.603
 4824TIP3   OH214414   2.826   1.676   1.384
 4824TIP3    H114415   2.739   1.651   1.413
 4824TIP3    H214416   2.881   1.600   1.403
 4825TIP3   OH214417   4.860   3.591   5.402
 4825TIP3    H114418   4.796   3.612   5.333
 4825TIP3    H214419   4.931   3.654   5.388
 4826TIP3   OH214420   8.254   4.991   6.314
 4826TIP3    H114421   8.209   4.941   6.382
 4826TIP3    H214422   8.337   5.017   6.355
 4827TIP3   OH214423   3.983   2.442   6.262
 4827TIP3    H114424   4.049   2.385   6.300
 4827TIP3    H214425   4.026   2.481   6.186
 4828TIP3   OH214426   0.116   2.193   1.722
 4828TIP3    H114427   0.170   2.249   1.778
 4828TIP3    H214428   0.029   2.196   1.762
 4829TIP3   OH214429   6.308   7.707   2.227
 4829TIP3    H114430   6.317   7.778   2.291
 4829TIP3    H214431   6.308   7.752   2.143
 4830TIP3   OH214432   4.127   6.082   2.985
 4830TIP3    H114433   4.216   6.093   3.017
 4830TIP3    H214434   4.104   5.992   3.008
 4831TIP3   OH214435   4.470   6.338   2.423
 4831TIP3    H114436   4.526   6.261   2.418
 4831TIP3    H214437   4.417   6.325   2.501
 4832TIP3   OH214438   7.811   0.927   5.373
 4832TIP3    H114439   7.764   0.869   5.434
 4832TIP3    H214440   7.873   0.975   5.429
 4833TIP3   OH214441   4.193   5.839   4.188
 4833TIP3    H114442   4.228   5.789   4.114
 4833TIP3    H214443   4.122   5.785   4.222
 4834TIP3   OH214444   6.076   2.023   2.895
 4834TIP3    H114445   6.067   1.939   2.940
 4834TIP3    H214446   6.044   2.088   2.958
 4835TIP3   OH214447   4.461   0.079   6.631
 4835TIP3    H114448   4.411   0.066   6.711
 4835TIP3    H214449   4.396   0.080   6.561
 4836TIP3   OH214450   4.020   1.656  -0.002
 4836TIP3    H114451   4.080   1.622  -0.068
 4836TIP3    H214452   4.062   1.636   0.081
 4837TIP3   OH214453   5.599   3.853   1.113
 4837TIP3    H114454   5.654   3.929   1.135
 4837TIP3    H214455   5.542   3.884   1.044
 4838TIP3   OH214456   1.084   1.667   5.121
 4838TIP3    H114457   1.036   1.749   5.135
 4838TIP3    H214458   1.173   1.694   5.099
 4839TIP3   OH214459   6.520   6.745   0.901
 4839TIP3    H114460   6.506   6.838   0.884
 4839TIP3    H214461   6.610   6.739   0.933
 4840TIP3   OH214462   7.970   3.723   1.429
 4840TIP3    H114463   7.880   3.700   1.451
 4840TIP3    H214464   8.018   3.716   1.511
 4841TIP3   OH214465   0.854   1.453   4.406
 4841TIP3    H114466   0.908   1.409   4.471
 4841TIP3    H214467   0.916   1.503   4.353
 4842TIP3   OH214468   3.304   7.638   0.996
 4842TIP3    H114469   3.360   7.712   1.021
 4842TIP3    H214470   3.229   7.679   0.953
 4843TIP3   OH214471   3.892   4.194   3.347
 4843TIP3    H114472   3.959   4.139   3.388
 4843TIP3    H214473   3.901   4.177   3.253
 4844TIP3   OH214474   6.417   3.739   2.450
 4844TIP3    H114475   6.458   3.826   2.448
 4844TIP3    H214476   6.386   3.729   2.540
 4845TIP3   OH214477   5.876   6.786   1.038
 4845TIP3    H114478   5.924   6.753   0.962
 4845TIP3    H214479   5.925   6.754   1.114
 4846TIP3   OH214480   1.861   6.728   4.967
 4846TIP3    H114481   1.841   6.635   4.963
 4846TIP3    H214482   1.778   6.772   4.950
 4847TIP3   OH214483   1.488   7.526   5.724
 4847TIP3    H114484   1.484   7.433   5.748
 4847TIP3    H214485   1.576   7.554   5.748
 4848TIP3   OH214486   7.870   5.811   1.669
 4848TIP3    H114487   7.838   5.762   1.744
 4848TIP3    H214488   7.819   5.778   1.595
 4849TIP3   OH214489   1.796   4.694   4.743
 4849TIP3    H114490   1.715   4.685   4.693
 4849TIP3    H214491   1.784   4.775   4.793
 4850TIP3   OH214492   4.530   7.151   4.591
 4850TIP3    H114493   4.498   7.194   4.512
 4850TIP3    H214494   4.601   7.208   4.622
 4851TIP3   OH214495   7.601   5.138   4.226
 4851TIP3    H114496   7.559   5.150   4.141
 4851TIP3    H214497   7.674   5.078   4.209
 4852TIP3   OH214498   7.025   4.235   0.241
 4852TIP3    H114499   7.099   4.260   0.297
 4852TIP3    H214500   6.949   4.237   0.300
 4853TIP3   OH214501   2.695   0.957   6.605
 4853TIP3    H114502   2.742   0.989   6.682
 4853TIP3    H214503   2.740   0.997   6.531
 4854TIP3   OH214504   6.725   0.595   1.558
 4854TIP3    H114505   6.658   0.567   1.619
 4854TIP3    H214506   6.710   0.542   1.479
 4855TIP3   OH214507   1.768   3.296   4.877
 4855TIP3    H114508   1.674   3.302   4.892
 4855TIP3    H214509   1.778   3.314   4.783
 4856TIP3   OH214510   3.155   1.102   1.967
 4856TIP3    H114511   3.104   1.041   2.020
 4856TIP3    H214512   3.222   1.048   1.925
 4857TIP3   OH214513   3.600   5.621   0.973
 4857TIP3    H114514   3.650   5.579   0.902
 4857TIP3    H214515   3.642   5.589   1.053
 4858TIP3   OH214516   2.260   3.890   1.737
 4858TIP3    H114517   2.216   3.863   1.656
 4858TIP3    H214518   2.318   3.817   1.759
 4859TIP3   OH214519   5.604   7.764   3.236
 4859TIP3    H114520   5.657   7.765   3.315
 4859TIP3    H214521   5.557   7.680   3.240
 4860TIP3   OH214522   4.832   2.098   3.203
 4860TIP3    H114523   4.741   2.093   3.233
 4860TIP3    H214524   4.882   2.054   3.271
 4861TIP3   OH214525   7.150   6.619   2.198
 4861TIP3    H114526   7.147   6.581   2.110
 4861TIP3    H214527   7.136   6.713   2.184
 4862TIP3   OH214528   3.409   5.746   6.159
 4862TIP3    H114529   3.323   5.757   6.199
 4862TIP3    H214530   3.406   5.659   6.119
 4863TIP3   OH214531   4.552   0.253   2.266
 4863TIP3    H114532   4.504   0.204   2.333
 4863TIP3    H214533   4.640   0.215   2.267
 4864TIP3   OH214534   5.864   4.694   3.149
 4864TIP3    H114535   5.930   4.625   3.136
 4864TIP3    H214536   5.784   4.646   3.173
 4865TIP3   OH214537   6.101   7.667   0.540
 4865TIP3    H114538   6.131   7.648   0.451
 4865TIP3    H214539   6.036   7.598   0.558
 4866TIP3   OH214540   4.942   5.226   4.208
 4866TIP3    H114541   4.960   5.320   4.215
 4866TIP3    H214542   5.029   5.186   4.205
 4867TIP3   OH214543   1.043   1.897   6.156
 4867TIP3    H114544   1.136   1.920   6.159
 4867TIP3    H214545   1.022   1.873   6.246
 4868TIP3   OH214546   4.899   1.502   4.520
 4868TIP3    H114547   4.833   1.463   4.463
 4868TIP3    H214548   4.930   1.429   4.573
 4869TIP3   OH214549   3.425  -0.012   3.180
 4869TIP3    H114550   3.438   0.080   3.204
 4869TIP3    H214551   3.401  -0.056   3.261
 4870TIP3   OH214552   7.011   3.276   2.882
 4870TIP3    H114553   6.974   3.363   2.897
 4870TIP3    H214554   7.089   3.292   2.829
 4871TIP3   OH214555   3.598   4.825   2.070
 4871TIP3    H114556   3.555   4.881   2.006
 4871TIP3    H214557   3.652   4.765   2.018
 4872TIP3   OH214558   2.815   0.176   0.575
 4872TIP3    H114559   2.870   0.135   0.508
 4872TIP3    H214560   2.829   0.122   0.653
 4873TIP3   OH214561   6.818   3.680   5.239
 4873TIP3    H114562   6.866   3.666   5.321
 4873TIP3    H214563   6.863   3.754   5.197
 4874TIP3   OH214564   5.086   2.278   3.720
 4874TIP3    H114565   5.000   2.314   3.742
 4874TIP3    H214566   5.130   2.347   3.670
 4875TIP3   OH214567   2.429   5.691   2.217
 4875TIP3    H114568   2.506   5.684   2.162
 4875TIP3    H214569   2.459   5.664   2.304
 4876TIP3   OH214570   7.599   0.350   3.254
 4876TIP3    H114571   7.555   0.403   3.187
 4876TIP3    H214572   7.680   0.397   3.271
 4877TIP3   OH214573   4.967   6.055   4.878
 4877TIP3    H114574   5.058   6.054   4.849
 4877TIP3    H214575   4.956   6.139   4.921
 4878TIP3   OH214576   3.773   0.852   5.158
 4878TIP3    H114577   3.751   0.763   5.186
 4878TIP3    H214578   3.701   0.877   5.100
 4879TIP3   OH214579   5.659   6.697   6.546
 4879TIP3    H114580   5.639   6.753   6.621
 4879TIP3    H214581   5.749   6.669   6.560
 4880TIP3   OH214582   2.104   4.182   1.626
 4880TIP3    H114583   2.055   4.106   1.594
 4880TIP3    H214584   2.148   4.150   1.705
 4881TIP3   OH214585   5.868   2.810   5.917
 4881TIP3    H114586   5.904   2.877   5.976
 4881TIP3    H214587   5.944   2.773   5.873
 4882TIP3   OH214588   0.377   0.631   0.724
 4882TIP3    H114589   0.388   0.724   0.745
 4882TIP3    H214590   0.436   0.586   0.785
 4883TIP3   OH214591   4.363   3.333   6.341
 4883TIP3    H114592   4.375   3.428   6.347
 4883TIP3    H214593   4.286   3.323   6.284
 4884TIP3   OH214594   1.457   0.485   5.639
 4884TIP3    H114595   1.388   0.525   5.690
 4884TIP3    H214596   1.483   0.552   5.576
 4885TIP3   OH214597   6.645   3.496   3.493
 4885TIP3    H114598   6.587   3.441   3.441
 4885TIP3    H214599   6.729   3.492   3.447
 4886TIP3   OH214600   0.230   4.927   3.178
 4886TIP3    H114601   0.147   4.963   3.145
 4886TIP3    H214602   0.245   4.973   3.260
 4887TIP3   OH214603   4.764   6.471   6.169
 4887TIP3    H114604   4.858   6.474   6.187
 4887TIP3    H214605   4.738   6.381   6.190
 4888TIP3   OH214606   3.874   1.756   6.424
 4888TIP3    H114607   3.859   1.840   6.468
 4888TIP3    H214608   3.837   1.691   6.484
 4889TIP3   OH214609   2.538   0.082   2.439
 4889TIP3    H114610   2.520   0.164   2.484
 4889TIP3    H214611   2.454   0.057   2.400
 4890TIP3   OH214612   6.632   1.465   0.117
 4890TIP3    H114613   6.704   1.499   0.065
 4890TIP3    H214614   6.553   1.491   0.069
 4891TIP3   OH214615   1.414   3.956   5.234
 4891TIP3    H114616   1.420   3.957   5.330
 4891TIP3    H214617   1.382   4.043   5.211
 4892TIP3   OH214618   3.759   2.252   3.002
 4892TIP3    H114619   3.727   2.333   3.043
 4892TIP3    H214620   3.758   2.187   3.072
 4893TIP3   OH214621   2.941   5.427   6.104
 4893TIP3    H114622   2.893   5.371   6.165
 4893TIP3    H214623   2.961   5.371   6.030
 4894TIP3   OH214624   5.214   2.041   6.398
 4894TIP3    H114625   5.266   2.120   6.384
 4894TIP3    H214626   5.123   2.071   6.398
 4895TIP3   OH214627   8.284   7.313   6.688
 4895TIP3    H114628   8.236   7.288   6.767
 4895TIP3    H214629   8.222   7.299   6.616
 4896TIP3   OH214630   0.533   4.439   1.827
 4896TIP3    H114631   0.505   4.528   1.850
 4896TIP3    H214632   0.474   4.414   1.755
 4897TIP3   OH214633   3.218   1.788   5.421
 4897TIP3    H114634   3.301   1.827   5.396
 4897TIP3    H214635   3.225   1.774   5.515
 4898TIP3   OH214636   4.465   2.643   4.170
 4898TIP3    H114637   4.472   2.677   4.081
 4898TIP3    H214638   4.391   2.582   4.167
 4899TIP3   OH214639   7.425   5.509   4.294
 4899TIP3    H114640   7.452   5.568   4.364
 4899TIP3    H214641   7.347   5.466   4.328
 4900TIP3   OH214642   8.153   0.943   1.395
 4900TIP3    H114643   8.243   0.936   1.429
 4900TIP3    H214644   8.160   1.005   1.323
 4901TIP3   OH214645   7.572   5.425   5.322
 4901TIP3    H114646   7.485   5.445   5.287
 4901TIP3    H214647   7.580   5.330   5.313
 4902TIP3   OH214648   2.003   3.953   1.542
 4902TIP3    H114649   2.025   3.868   1.578
 4902TIP3    H214650   1.980   3.936   1.451
 4903TIP3   OH214651   1.626   5.633   2.038
 4903TIP3    H114652   1.567   5.660   1.967
 4903TIP3    H214653   1.588   5.552   2.071
 4904TIP3   OH214654   1.054   0.184   1.189
 4904TIP3    H114655   1.090   0.245   1.124
 4904TIP3    H214656   1.012   0.116   1.137
 4905TIP3   OH214657   2.591   1.365   5.020
 4905TIP3    H114658   2.588   1.286   4.967
 4905TIP3    H214659   2.518   1.356   5.082
 4906TIP3   OH214660   2.123   0.108   1.002
 4906TIP3    H114661   2.029   0.122   1.012
 4906TIP3    H214662   2.145   0.149   0.919
 4907TIP3   OH214663   8.088   5.001   6.084
 4907TIP3    H114664   8.160   4.997   6.147
 4907TIP3    H214665   8.083   4.912   6.047
 4908TIP3   OH214666   4.377   1.535   3.467
 4908TIP3    H114667   4.340   1.623   3.466
 4908TIP3    H214668   4.441   1.537   3.538
 4909TIP3   OH214669   4.416   7.236   1.828
 4909TIP3    H114670   4.374   7.322   1.821
 4909TIP3    H214671   4.484   7.249   1.895
 4910TIP3   OH214672   6.261   4.496   2.932
 4910TIP3    H114673   6.255   4.427   2.998
 4910TIP3    H214674   6.339   4.547   2.958
 4911TIP3   OH214675   6.869   2.282   2.685
 4911TIP3    H114676   6.846   2.192   2.707
 4911TIP3    H214677   6.962   2.278   2.661
 4912TIP3   OH214678   1.137   1.768   0.896
 4912TIP3    H114679   1.064   1.829   0.906
 4912TIP3    H214680   1.215   1.824   0.896
 4913TIP3   OH214681   3.640   2.008   5.956
 4913TIP3    H114682   3.732   2.033   5.948
 4913TIP3    H214683   3.622   1.957   5.878
 4914TIP3   OH214684   3.496   5.337   6.490
 4914TIP3    H114685   3.436   5.280   6.537
 4914TIP3    H214686   3.505   5.297   6.403
 4915TIP3   OH214687   2.326   3.089   4.602
 4915TIP3    H114688   2.300   3.122   4.516
 4915TIP3    H214689   2.410   3.131   4.619
 4916TIP3   OH214690   5.033   1.702   5.637
 4916TIP3    H114691   5.021   1.763   5.564
 4916TIP3    H214692   4.946   1.665   5.651
 4917TIP3   OH214693   6.472   6.448   2.587
 4917TIP3    H114694   6.415   6.422   2.659
 4917TIP3    H214695   6.554   6.474   2.628
 4918TIP3   OH214696   6.836   7.483   2.480
 4918TIP3    H114697   6.870   7.567   2.513
 4918TIP3    H214698   6.784   7.448   2.552
 4919TIP3   OH214699   0.114   2.032   6.604
 4919TIP3    H114700   0.150   2.048   6.691
 4919TIP3    H214701   0.159   2.094   6.547
 4920TIP3   OH214702   1.988   6.933   6.405
 4920TIP3    H114703   2.020   6.980   6.328
 4920TIP3    H214704   2.066   6.892   6.442
 4921TIP3   OH214705   0.666   4.797   1.498
 4921TIP3    H114706   0.755   4.799   1.463
 4921TIP3    H214707   0.648   4.888   1.522
 4922TIP3   OH214708   1.564   0.130   1.029
 4922TIP3    H114709   1.487   0.108   1.082
 4922TIP3    H214710   1.638   0.117   1.088
 4923TIP3   OH214711   2.878   5.402   6.432
 4923TIP3    H114712   2.901   5.314   6.400
 4923TIP3    H214713   2.962   5.444   6.449
 4924TIP3   OH214714   6.324   3.940   6.678
 4924TIP3    H114715   6.318   3.876   6.749
 4924TIP3    H214716   6.399   3.912   6.627
 4925TIP3   OH214717   2.659   0.453   4.783
 4925TIP3    H114718   2.589   0.453   4.718
 4925TIP3    H214719   2.620   0.495   4.860
 4926TIP3   OH214720   2.973   3.146   2.003
 4926TIP3    H114721   2.971   3.170   2.096
 4926TIP3    H214722   3.026   3.067   1.999
 4927TIP3   OH214723   1.848   5.048   1.353
 4927TIP3    H114724   1.860   5.054   1.448
 4927TIP3    H214725   1.777   5.108   1.333
 4928TIP3   OH214726   7.452   6.346   0.915
 4928TIP3    H114727   7.407   6.332   0.832
 4928TIP3    H214728   7.545   6.337   0.894
 4929TIP3   OH214729   3.684   2.552   0.602
 4929TIP3    H114730   3.638   2.543   0.518
 4929TIP3    H214731   3.717   2.642   0.601
 4930TIP3   OH214732   3.714   7.728   1.832
 4930TIP3    H114733   3.741   7.797   1.892
 4930TIP3    H214734   3.667   7.773   1.762
 4931TIP3   OH214735   5.295   2.895   5.185
 4931TIP3    H114736   5.344   2.935   5.257
 4931TIP3    H214737   5.249   2.822   5.224
 4932TIP3   OH214738   0.500   7.220   1.147
 4932TIP3    H114739   0.592   7.232   1.172
 4932TIP3    H214740   0.489   7.276   1.070
 4933TIP3   OH214741   6.760   4.519   6.192
 4933TIP3    H114742   6.705   4.580   6.144
 4933TIP3    H214743   6.698   4.466   6.243
 4934TIP3   OH214744   4.353   4.086   3.065
 4934TIP3    H114745   4.389   4.175   3.074
 4934TIP3    H214746   4.395   4.036   3.135
 4935TIP3   OH214747   3.593   1.389   5.184
 4935TIP3    H114748   3.606   1.341   5.266
 4935TIP3    H214749   3.681   1.410   5.153
 4936TIP3   OH214750   7.043   2.907   5.347
 4936TIP3    H114751   7.108   2.853   5.302
 4936TIP3    H214752   6.959   2.873   5.317
 4937TIP3   OH214753   5.293   0.614   3.377
 4937TIP3    H114754   5.307   0.658   3.461
 4937TIP3    H214755   5.379   0.584   3.350
 4938TIP3   OH214756   3.533   5.601   2.252
 4938TIP3    H114757   3.576   5.563   2.176
 4938TIP3    H214758   3.599   5.658   2.291
 4939TIP3   OH214759   6.898   6.377   5.858
 4939TIP3    H114760   6.916   6.470   5.871
 4939TIP3    H214761   6.806   6.374   5.834
 4940TIP3   OH214762   0.987   7.171   6.234
 4940TIP3    H114763   0.929   7.096   6.249
 4940TIP3    H214764   0.928   7.246   6.230
 4941TIP3   OH214765   7.832   1.729   5.876
 4941TIP3    H114766   7.811   1.810   5.828
 4941TIP3    H214767   7.750   1.681   5.878
 4942TIP3   OH214768   2.923   2.360   1.822
 4942TIP3    H114769   2.871   2.289   1.859
 4942TIP3    H214770   2.951   2.327   1.737
 4943TIP3   OH214771   2.303   3.545   3.316
 4943TIP3    H114772   2.288   3.459   3.277
 4943TIP3    H214773   2.324   3.527   3.407
 4944TIP3   OH214774   3.778   4.751   5.861
 4944TIP3    H114775   3.685   4.767   5.878
 4944TIP3    H214776   3.808   4.829   5.814
 4945TIP3   OH214777   4.134   3.917   1.248
 4945TIP3    H114778   4.121   3.973   1.173
 4945TIP3    H214779   4.225   3.931   1.274
 4946TIP3   OH214780   1.725   3.998   4.182
 4946TIP3    H114781   1.686   4.008   4.095
 4946TIP3    H214782   1.811   3.960   4.166
 4947TIP3   OH214783   3.210   3.061   6.463
 4947TIP3    H114784   3.210   3.121   6.389
 4947TIP3    H214785   3.121   3.066   6.497
 4948TIP3   OH214786   4.241   7.716   5.284
 4948TIP3    H114787   4.224   7.802   5.321
 4948TIP3    H214788   4.324   7.689   5.322
 4949TIP3   OH214789   4.611   4.143   4.695
 4949TIP3    H114790   4.573   4.063   4.733
 4949TIP3    H214791   4.547   4.211   4.715
 4950TIP3   OH214792   5.545   5.859   0.912
 4950TIP3    H114793   5.607   5.820   0.974
 4950TIP3    H214794   5.464   5.870   0.963
 4951TIP3   OH214795   0.084   3.550   6.385
 4951TIP3    H114796   0.064   3.504   6.303
 4951TIP3    H214797   0.127   3.630   6.357
 4952TIP3   OH214798   1.316   6.028   3.599
 4952TIP3    H114799   1.389   5.971   3.625
 4952TIP3    H214800   1.237   5.978   3.621
 4953TIP3   OH214801   3.381   3.409   6.177
 4953TIP3    H114802   3.428   3.472   6.233
 4953TIP3    H214803   3.342   3.462   6.108
 4954TIP3   OH214804   5.241   1.373   3.095
 4954TIP3    H114805   5.322   1.327   3.119
 4954TIP3    H214806   5.188   1.370   3.175
 4955TIP3   OH214807   2.707   5.008   4.076
 4955TIP3    H114808   2.775   5.063   4.115
 4955TIP3    H214809   2.712   4.926   4.124
 4956TIP3   OH214810   3.157   7.038   3.186
 4956TIP3    H114811   3.074   7.075   3.216
 4956TIP3    H214812   3.151   7.040   3.090
 4957TIP3   OH214813   4.783   3.907   2.161
 4957TIP3    H114814   4.786   3.833   2.222
 4957TIP3    H214815   4.874   3.937   2.154
 4958TIP3   OH214816   2.523   6.166   3.936
 4958TIP3    H114817   2.576   6.101   3.889
 4958TIP3    H214818   2.588   6.226   3.974
 4959TIP3   OH214819   6.365   3.512   0.996
 4959TIP3    H114820   6.291   3.573   0.999
 4959TIP3    H214821   6.428   3.548   1.059
 4960TIP3   OH214822   5.836   7.706   3.709
 4960TIP3    H114823   5.930   7.691   3.716
 4960TIP3    H214824   5.821   7.785   3.761
 4961TIP3   OH214825   7.693   0.127   6.616
 4961TIP3    H114826   7.707   0.074   6.694
 4961TIP3    H214827   7.775   0.122   6.568
 4962TIP3   OH214828   7.492   5.467   3.317
 4962TIP3    H114829   7.585   5.444   3.313
 4962TIP3    H214830   7.456   5.408   3.384
 4963TIP3   OH214831   5.859   5.229   3.022
 4963TIP3    H114832   5.826   5.199   2.937
 4963TIP3    H214833   5.882   5.148   3.068
 4964TIP3   OH214834   6.675   0.742   4.633
 4964TIP3    H114835   6.625   0.675   4.679
 4964TIP3    H214836   6.733   0.779   4.699
 4965TIP3   OH214837   5.448   7.618   5.380
 4965TIP3    H114838   5.432   7.689   5.442
 4965TIP3    H214839   5.508   7.655   5.316
 4966TIP3   OH214840   2.783   2.201   1.540
 4966TIP3    H114841   2.782   2.157   1.626
 4966TIP3    H214842   2.714   2.157   1.490
 4967TIP3   OH214843   8.186   3.848   3.784
 4967TIP3    H114844   8.223   3.936   3.791
 4967TIP3    H214845   8.261   3.791   3.771
 4968TIP3   OH214846   8.047   2.741   1.621
 4968TIP3    H114847   7.981   2.672   1.616
 4968TIP3    H214848   8.076   2.755   1.531
 4969TIP3   OH214849   0.534   4.682   4.289
 4969TIP3    H114850   0.481   4.758   4.313
 4969TIP3    H214851   0.562   4.699   4.199
 4970TIP3   OH214852   0.344   6.311   3.963
 4970TIP3    H114853   0.376   6.400   3.975
 4970TIP3    H214854   0.352   6.269   4.049
 4971TIP3   OH214855   6.803   4.007   0.410
 4971TIP3    H114856   6.868   4.011   0.480
 4971TIP3    H214857   6.727   4.055   0.444
 4972TIP3   OH214858   6.778   5.257   1.308
 4972TIP3    H114859   6.759   5.335   1.359
 4972TIP3    H214860   6.829   5.201   1.367
 4973TIP3   OH214861   3.781   6.961   2.382
 4973TIP3    H114862   3.792   6.894   2.313
 4973TIP3    H214863   3.747   6.912   2.457
 4974TIP3   OH214864   1.755   6.818   5.620
 4974TIP3    H114865   1.729   6.861   5.702
 4974TIP3    H214866   1.711   6.869   5.551
 4975TIP3   OH214867   6.685   6.311   4.450
 4975TIP3    H114868   6.741   6.292   4.525
 4975TIP3    H214869   6.606   6.350   4.487
 4976TIP3   OH214870   4.587   3.482   0.840
 4976TIP3    H114871   4.609   3.468   0.748
 4976TIP3    H214872   4.669   3.467   0.887
 4977TIP3   OH214873   2.141   2.072   5.077
 4977TIP3    H114874   2.192   2.035   5.149
 4977TIP3    H214875   2.200   2.071   5.002
 4978TIP3   OH214876   7.356   0.946   2.878
 4978TIP3    H114877   7.435   0.915   2.834
 4978TIP3    H214878   7.327   1.021   2.826
 4979TIP3   OH214879   4.594   3.906   6.468
 4979TIP3    H114880   4.623   3.937   6.382
 4979TIP3    H214881   4.519   3.961   6.489
 4980TIP3   OH214882   2.528   0.164   3.277
 4980TIP3    H114883   2.477   0.210   3.344
 4980TIP3    H214884   2.484   0.080   3.267
 4981TIP3   OH214885   0.878   4.179   2.591
 4981TIP3    H114886   0.956   4.161   2.643
 4981TIP3    H214887   0.860   4.098   2.544
 4982TIP3   OH214888   8.045   1.839   4.036
 4982TIP3    H114889   8.074   1.846   4.127
 4982TIP3    H214890   7.963   1.790   4.041
 4983TIP3   OH214891   5.018   6.775   0.576
 4983TIP3    H114892   5.093   6.768   0.517
 4983TIP3    H214893   4.966   6.848   0.540
 4984TIP3   OH214894   3.048   7.683   6.476
 4984TIP3    H114895   3.015   7.768   6.506
 4984TIP3    H214896   3.142   7.697   6.464
 4985TIP3   OH214897   5.160   1.418   3.358
 4985TIP3    H114898   5.251   1.449   3.355
 4985TIP3    H214899   5.108   1.498   3.362
 4986TIP3   OH214900   3.999   4.136   2.441
 4986TIP3    H114901   4.066   4.068   2.448
 4986TIP3    H214902   4.012   4.190   2.519
 4987TIP3   OH214903   4.747   4.567   6.570
 4987TIP3    H114904   4.729   4.612   6.653
 4987TIP3    H214905   4.813   4.622   6.527
 4988TIP3   OH214906   4.020   5.591   6.538
 4988TIP3    H114907   3.943   5.560   6.489
 4988TIP3    H214908   4.002   5.683   6.555
 4989TIP3   OH214909   1.567   3.649   1.145
 4989TIP3    H114910   1.602   3.618   1.061
 4989TIP3    H214911   1.631   3.619   1.210
 4990TIP3   OH214912   2.052   5.660   4.899
 4990TIP3    H114913   2.019   5.570   4.893
 4990TIP3    H214914   2.112   5.668   4.825
 4991TIP3   OH214915   4.768   2.307   4.387
 4991TIP3    H114916   4.762   2.348   4.473
 4991TIP3    H214917   4.678   2.306   4.354
 4992TIP3   OH214918   5.251   3.701   5.539
 4992TIP3    H114919   5.342   3.695   5.508
 4992TIP3    H214920   5.237   3.621   5.589
 4993TIP3   OH214921   6.404   1.807   2.815
 4993TIP3    H114922   6.391   1.901   2.812
 4993TIP3    H214923   6.395   1.778   2.724
 4994TIP3   OH214924   5.333   6.644   1.585
 4994TIP3    H114925   5.250   6.609   1.615
 4994TIP3    H214926   5.317   6.737   1.571
 4995TIP3   OH214927   0.924   1.213   2.827
 4995TIP3    H114928   0.902   1.201   2.734
 4995TIP3    H214929   0.905   1.305   2.844
 4996TIP3   OH214930   3.676   1.063   3.282
 4996TIP3    H114931   3.729   0.984   3.292
 4996TIP3    H214932   3.678   1.082   3.188
 4997TIP3   OH214933   7.194   6.750   3.309
 4997TIP3    H114934   7.111   6.778   3.347
 4997TIP3    H214935   7.239   6.832   3.288
 4998TIP3   OH214936   5.163   4.835   4.190
 4998TIP3    H114937   5.117   4.793   4.117
 4998TIP3    H214938   5.254   4.808   4.181
 4999TIP3   OH214939   3.719   0.597   5.235
 4999TIP3    H114940   3.744   0.532   5.170
 4999TIP3    H214941   3.775   0.578   5.310
 5000TIP3   OH214942   6.702   7.219   5.957
 5000TIP3    H114943   6.729   7.311   5.952
 5000TIP3    H214944   6.624   7.220   6.012
 5001TIP3   OH214945   6.335   6.409   0.000
 5001TIP3    H114946   6.242   6.407   0.023
 5001TIP3    H214947   6.380   6.395   0.084
 5002TIP3   OH214948   6.624   0.240   4.637
 5002TIP3    H114949   6.613   0.294   4.715
 5002TIP3    H214950   6.592   0.153   4.663
 5003TIP3   OH214951   4.530   7.657   6.137
 5003TIP3    H114952   4.445   7.689   6.168
 5003TIP3    H214953   4.562   7.727   6.079
 5004TIP3   OH214954   4.641   0.437   5.087
 5004TIP3    H114955   4.596   0.503   5.140
 5004TIP3    H214956   4.574   0.406   5.026
 5005TIP3   OH214957   6.017   1.529   2.876
 5005TIP3    H114958   5.972   1.549   2.959
 5005TIP3    H214959   6.086   1.468   2.900
 5006TIP3   OH214960   0.665   1.078   3.430
 5006TIP3    H114961   0.720   1.086   3.352
 5006TIP3    H214962   0.588   1.031   3.400
 5007TIP3   OH214963   5.931   1.107   1.470
 5007TIP3    H114964   6.020   1.119   1.505
 5007TIP3    H214965   5.874   1.117   1.546
 5008TIP3   OH214966   2.018   1.151   0.887
 5008TIP3    H114967   2.081   1.206   0.841
 5008TIP3    H214968   1.943   1.208   0.903
 5009TIP3   OH214969   6.266   7.002   2.219
 5009TIP3    H114970   6.173   7.011   2.197
 5009TIP3    H214971   6.277   7.055   2.298
 5010TIP3   OH214972   4.962   6.136   5.260
 5010TIP3    H114973   5.042   6.084   5.254
 5010TIP3    H214974   4.906   6.087   5.321
 5011TIP3   OH214975   6.277   0.014   0.114
 5011TIP3    H114976   6.266   0.099   0.072
 5011TIP3    H214977   6.312  -0.043   0.045
 5012TIP3   OH214978   5.015   1.661   3.373
 5012TIP3    H114979   5.059   1.746   3.367
 5012TIP3    H214980   4.968   1.653   3.291
 5013TIP3   OH214981   7.568   3.384   2.841
 5013TIP3    H114982   7.482   3.352   2.815
 5013TIP3    H214983   7.618   3.386   2.760
 5014TIP3   OH214984   1.374   5.775   0.256
 5014TIP3    H114985   1.425   5.695   0.267
 5014TIP3    H214986   1.283   5.745   0.254
 5015TIP3   OH214987   5.170   7.529   6.249
 5015TIP3    H114988   5.164   7.624   6.239
 5015TIP3    H214989   5.223   7.501   6.175
 5016TIP3   OH214990   3.596   2.296   6.286
 5016TIP3    H114991   3.649   2.343   6.222
 5016TIP3    H214992   3.598   2.205   6.256
 5017TIP3   OH214993   7.830   6.173   2.148
 5017TIP3    H114994   7.774   6.107   2.107
 5017TIP3    H214995   7.908   6.177   2.093
 5018TIP3   OH214996   4.325   7.067   1.591
 5018TIP3    H114997   4.309   7.145   1.537
 5018TIP3    H214998   4.341   7.101   1.679
 5019TIP3   OH214999   5.023   0.069   3.032
 5019TIP3    H115000   5.028  -0.026   3.019
 5019TIP3    H215001   5.040   0.081   3.125
 5020TIP3   OH215002   3.089   5.612   2.962
 5020TIP3    H115003   3.162   5.571   3.008
 5020TIP3    H215004   3.021   5.622   3.029
 5021TIP3   OH215005   5.280   4.918   1.252
 5021TIP3    H115006   5.300   4.828   1.228
 5021TIP3    H215007   5.356   4.968   1.222
 5022TIP3   OH215008   6.898   6.587   5.262
 5022TIP3    H115009   6.821   6.546   5.300
 5022TIP3    H215010   6.918   6.535   5.185
 5023TIP3   OH215011   1.033   6.108   1.978
 5023TIP3    H115012   0.999   6.116   1.889
 5023TIP3    H215013   1.128   6.102   1.967
 5024TIP3   OH215014   3.549   6.299   6.532
 5024TIP3    H115015   3.556   6.204   6.542
 5024TIP3    H215016   3.456   6.314   6.513
 5025TIP3   OH215017   0.150   5.806   3.337
 5025TIP3    H115018   0.235   5.763   3.347
 5025TIP3    H215019   0.091   5.737   3.308
 5026TIP3   OH215020   2.414   5.757   4.303
 5026TIP3    H115021   2.493   5.807   4.322
 5026TIP3    H215022   2.405   5.696   4.376
 5027TIP3   OH215023   3.826   2.702   2.580
 5027TIP3    H115024   3.757   2.733   2.639
 5027TIP3    H215025   3.900   2.684   2.638
 5028TIP3   OH215026   1.159   5.034   3.013
 5028TIP3    H115027   1.064   5.019   3.015
 5028TIP3    H215028   1.177   5.080   3.095
 5029TIP3   OH215029   5.433   0.104   4.278
 5029TIP3    H115030   5.404   0.190   4.248
 5029TIP3    H215031   5.513   0.122   4.328
 5030TIP3   OH215032   1.242   1.242   1.196
 5030TIP3    H115033   1.230   1.337   1.199
 5030TIP3    H215034   1.252   1.216   1.288
 5031TIP3   OH215035   7.108   1.735   2.214
 5031TIP3    H115036   7.124   1.720   2.307
 5031TIP3    H215037   7.040   1.803   2.211
 5032TIP3   OH215038   3.095   4.080   5.226
 5032TIP3    H115039   3.052   4.032   5.296
 5032TIP3    H215040   3.110   4.168   5.262
 5033TIP3   OH215041   2.979   4.253   4.327
 5033TIP3    H115042   2.955   4.288   4.241
 5033TIP3    H215043   2.937   4.311   4.389
 5034TIP3   OH215044   7.133   4.303   3.998
 5034TIP3    H115045   7.083   4.250   3.936
 5034TIP3    H215046   7.092   4.287   4.083
 5035TIP3   OH215047   3.377   1.167   4.924
 5035TIP3    H115048   3.458   1.158   4.874
 5035TIP3    H215049   3.352   1.259   4.913
 5036TIP3   OH215050   3.574   0.802   0.880
 5036TIP3    H115051   3.584   0.769   0.969
 5036TIP3    H215052   3.635   0.751   0.827
 5037TIP3   OH215053   5.581   5.416   5.209
 5037TIP3    H115054   5.577   5.409   5.114
 5037TIP3    H215055   5.549   5.332   5.241
 5038TIP3   OH215056   0.951   7.302   0.026
 5038TIP3    H115057   0.994   7.251   0.095
 5038TIP3    H215058   0.994   7.274  -0.055
 5039TIP3   OH215059   1.227   5.671   1.086
 5039TIP3    H115060   1.274   5.719   1.153
 5039TIP3    H215061   1.295   5.644   1.024
 5040TIP3   OH215062   0.338   5.446   6.573
 5040TIP3    H115063   0.387   5.465   6.653
 5040TIP3    H215064   0.312   5.354   6.582
 5041TIP3   OH215065   8.252   0.088   0.992
 5041TIP3    H115066   8.214   0.017   0.940
 5041TIP3    H215067   8.224   0.168   0.947
 5042TIP3   OH215068   0.675   1.742   0.898
 5042TIP3    H115069   0.607   1.731   0.831
 5042TIP3    H215070   0.658   1.828   0.936
 5043TIP3   OH215071   1.842   4.300   4.051
 5043TIP3    H115072   1.915   4.273   4.106
 5043TIP3    H215073   1.847   4.396   4.051
 5044TIP3   OH215074   8.199   1.503   5.039
 5044TIP3    H115075   8.153   1.587   5.048
 5044TIP3    H215076   8.213   1.474   5.129
 5045TIP3   OH215077   7.580   5.205   2.931
 5045TIP3    H115078   7.508   5.256   2.968
 5045TIP3    H215079   7.608   5.148   3.003
 5046TIP3   OH215080   7.837   5.163   2.786
 5046TIP3    H115081   7.861   5.070   2.794
 5046TIP3    H215082   7.749   5.168   2.823
 5047TIP3   OH215083   8.094   2.045   0.839
 5047TIP3    H115084   8.147   2.037   0.918
 5047TIP3    H215085   8.074   1.955   0.814
 5048TIP3   OH215086   6.664   2.318   5.593
 5048TIP3    H115087   6.719   2.278   5.526
 5048TIP3    H215088   6.714   2.308   5.674
 5049TIP3   OH215089   1.800   6.858   2.914
 5049TIP3    H115090   1.768   6.829   2.828
 5049TIP3    H215091   1.883   6.812   2.926
 5050TIP3   OH215092   8.055   5.722   4.798
 5050TIP3    H115093   8.033   5.633   4.825
 5050TIP3    H215094   7.985   5.776   4.833
 5051TIP3   OH215095   0.566   3.774   0.274
 5051TIP3    H115096   0.571   3.782   0.369
 5051TIP3    H215097   0.478   3.741   0.258
 5052TIP3   OH215098   0.708   2.844   3.560
 5052TIP3    H115099   0.666   2.821   3.643
 5052TIP3    H215100   0.656   2.799   3.494
 5053TIP3   OH215101   7.172   5.805   0.344
 5053TIP3    H115102   7.119   5.733   0.308
 5053TIP3    H215103   7.220   5.765   0.416
 5054TIP3   OH215104   4.700   1.668   0.368
 5054TIP3    H115105   4.763   1.603   0.399
 5054TIP3    H215106   4.706   1.663   0.272
 5055TIP3   OH215107   7.219   2.659   1.408
 5055TIP3    H115108   7.315   2.657   1.406
 5055TIP3    H215109   7.193   2.568   1.424
 5056TIP3   OH215110   7.410   5.161   5.643
 5056TIP3    H115111   7.435   5.075   5.611
 5056TIP3    H215112   7.339   5.189   5.585
 5057TIP3   OH215113   6.226   0.330   5.516
 5057TIP3    H115114   6.285   0.255   5.511
 5057TIP3    H215115   6.151   0.305   5.462
 5058TIP3   OH215116   1.691   6.732   1.226
 5058TIP3    H115117   1.765   6.781   1.262
 5058TIP3    H215118   1.727   6.647   1.202
 5059TIP3   OH215119   7.311   7.125   3.410
 5059TIP3    H115120   7.333   7.098   3.321
 5059TIP3    H215121   7.235   7.183   3.400
 5060TIP3   OH215122   4.457   3.014   2.594
 5060TIP3    H115123   4.401   2.940   2.571
 5060TIP3    H215124   4.495   2.990   2.678
 5061TIP3   OH215125   5.305   1.187   5.521
 5061TIP3    H115126   5.394   1.159   5.500
 5061TIP3    H215127   5.312   1.228   5.607
 5062TIP3   OH215128   5.612   7.493   6.594
 5062TIP3    H115129   5.662   7.575   6.595
 5062TIP3    H215130   5.574   7.487   6.681
 5063TIP3   OH215131   1.474   1.749   6.722
 5063TIP3    H115132   1.534   1.785   6.787
 5063TIP3    H215133   1.492   1.655   6.723
 5064TIP3   OH215134   1.043   1.946   5.243
 5064TIP3    H115135   1.005   1.976   5.161
 5064TIP3    H215136   0.969   1.939   5.303
 5065TIP3   OH215137   2.333   0.776   2.405
 5065TIP3    H115138   2.355   0.801   2.315
 5065TIP3    H215139   2.368   0.846   2.459
 5066TIP3   OH215140   1.514   5.232   4.114
 5066TIP3    H115141   1.476   5.175   4.180
 5066TIP3    H215142   1.508   5.320   4.151
 5067TIP3   OH215143   6.711   7.217   4.195
 5067TIP3    H115144   6.674   7.130   4.210
 5067TIP3    H215145   6.771   7.230   4.268
 5068TIP3   OH215146   2.981   2.439   5.487
 5068TIP3    H115147   3.072   2.464   5.470
 5068TIP3    H215148   2.934   2.523   5.490
 5069TIP3   OH215149   3.556   0.119   6.590
 5069TIP3    H115150   3.568   0.024   6.581
 5069TIP3    H215151   3.514   0.129   6.676
 5070TIP3   OH215152   5.673   2.243   1.372
 5070TIP3    H115153   5.603   2.221   1.434
 5070TIP3    H215154   5.702   2.158   1.339
 5071TIP3   OH215155   0.701   5.955   2.250
 5071TIP3    H115156   0.769   5.891   2.271
 5071TIP3    H215157   0.694   5.951   2.155
 5072TIP3   OH215158   4.303   0.813   4.634
 5072TIP3    H115159   4.213   0.834   4.612
 5072TIP3    H215160   4.342   0.783   4.551
 5073TIP3   OH215161   6.637   5.134   6.134
 5073TIP3    H115162   6.662   5.081   6.058
 5073TIP3    H215163   6.602   5.070   6.197
 5074TIP3   OH215164   8.089   2.682   0.310
 5074TIP3    H115165   8.090   2.778   0.314
 5074TIP3    H215166   8.137   2.661   0.230
 5075TIP3   OH215167   1.502   3.346   0.558
 5075TIP3    H115168   1.461   3.277   0.610
 5075TIP3    H215169   1.433   3.376   0.499
 5076TIP3   OH215170   5.640   5.270   1.257
 5076TIP3    H115171   5.597   5.337   1.311
 5076TIP3    H215172   5.732   5.297   1.255
 5077TIP3   OH215173   2.385   0.794   1.932
 5077TIP3    H115174   2.447   0.721   1.934
 5077TIP3    H215175   2.299   0.753   1.923
 5078TIP3   OH215176   5.160   4.928   5.716
 5078TIP3    H115177   5.108   4.953   5.792
 5078TIP3    H215178   5.150   5.001   5.655
 5079TIP3   OH215179   5.277   5.464   0.824
 5079TIP3    H115180   5.313   5.481   0.911
 5079TIP3    H215181   5.233   5.545   0.801
 5080TIP3   OH215182   7.098   4.001   3.335
 5080TIP3    H115183   7.025   4.006   3.397
 5080TIP3    H215184   7.073   3.932   3.274
 5081TIP3   OH215185   7.308   3.729   3.394
 5081TIP3    H115186   7.295   3.751   3.487
 5081TIP3    H215187   7.376   3.789   3.364
 5082TIP3   OH215188   4.486   4.686   0.553
 5082TIP3    H115189   4.530   4.655   0.474
 5082TIP3    H215190   4.549   4.670   0.623
 5083TIP3   OH215191   0.510   4.813   2.279
 5083TIP3    H115192   0.488   4.723   2.301
 5083TIP3    H215193   0.495   4.818   2.184
 5084TIP3   OH215194   8.075   1.209   0.208
 5084TIP3    H115195   8.080   1.282   0.147
 5084TIP3    H215196   8.086   1.249   0.294
 5085TIP3   OH215197   6.228   2.208   0.927
 5085TIP3    H115198   6.173   2.287   0.922
 5085TIP3    H215199   6.254   2.203   1.019
 5086TIP3   OH215200   5.967   3.459   4.719
 5086TIP3    H115201   6.017   3.437   4.640
 5086TIP3    H215202   5.979   3.553   4.730
 5087TIP3   OH215203   3.426   2.142   2.884
 5087TIP3    H115204   3.399   2.177   2.969
 5087TIP3    H215205   3.441   2.219   2.830
 5088TIP3   OH215206   3.674   0.496   2.839
 5088TIP3    H115207   3.682   0.442   2.918
 5088TIP3    H215208   3.625   0.442   2.777
 5089TIP3   OH215209   3.302   7.444   4.896
 5089TIP3    H115210   3.303   7.360   4.942
 5089TIP3    H215211   3.331   7.507   4.961
 5090TIP3   OH215212   7.990   6.961   0.128
 5090TIP3    H115213   7.996   7.019   0.052
 5090TIP3    H215214   7.901   6.927   0.124
 5091TIP3   OH215215   2.931   1.109   0.312
 5091TIP3    H115216   2.960   1.132   0.224
 5091TIP3    H215217   2.902   1.193   0.350
 5092TIP3   OH215218   5.406   6.059   5.088
 5092TIP3    H115219   5.389   5.990   5.152
 5092TIP3    H215220   5.377   6.139   5.131
 5093TIP3   OH215221   1.875   4.692   2.762
 5093TIP3    H115222   1.888   4.754   2.834
 5093TIP3    H215223   1.956   4.697   2.710
 5094TIP3   OH215224   6.313   5.437   1.175
 5094TIP3    H115225   6.360   5.509   1.134
 5094TIP3    H215226   6.272   5.477   1.252
 5095TIP3   OH215227   4.142   2.294   1.245
 5095TIP3    H115228   4.216   2.326   1.194
 5095TIP3    H215229   4.123   2.366   1.306
 5096TIP3   OH215230   0.879   5.355   1.619
 5096TIP3    H115231   0.876   5.447   1.646
 5096TIP3    H215232   0.931   5.313   1.688
 5097TIP3   OH215233   0.081   1.756   3.536
 5097TIP3    H115234  -0.009   1.725   3.545
 5097TIP3    H215235   0.072   1.848   3.512
 5098TIP3   OH215236   6.013   1.011   4.496
 5098TIP3    H115237   6.032   0.961   4.417
 5098TIP3    H215238   6.002   0.945   4.564
 5099TIP3   OH215239   6.935   0.933   0.238
 5099TIP3    H115240   6.935   0.837   0.233
 5099TIP3    H215241   6.988   0.952   0.316
 5100TIP3   OH215242   1.911   5.979   2.166
 5100TIP3    H115243   1.902   6.073   2.150
 5100TIP3    H215244   1.823   5.949   2.189
 5101TIP3   OH215245   6.515   5.590   1.754
 5101TIP3    H115246   6.566   5.510   1.766
 5101TIP3    H215247   6.579   5.661   1.767
 5102TIP3   OH215248   7.771   7.025   4.140
 5102TIP3    H115249   7.704   7.071   4.192
 5102TIP3    H215250   7.854   7.053   4.178
 5103TIP3   OH215251   0.199   2.317   5.752
 5103TIP3    H115252   0.196   2.377   5.676
 5103TIP3    H215253   0.217   2.374   5.826
 5104TIP3   OH215254   5.996   5.586   0.030
 5104TIP3    H115255   5.934   5.619   0.095
 5104TIP3    H215256   5.969   5.495   0.015
 5105TIP3   OH215257   1.881   0.899   5.556
 5105TIP3    H115258   1.888   0.881   5.462
 5105TIP3    H215259   1.966   0.938   5.579
 5106TIP3   OH215260   7.226   2.301   4.053
 5106TIP3    H115261   7.245   2.245   4.128
 5106TIP3    H215262   7.308   2.347   4.035
 5107TIP3   OH215263   7.121   6.629   0.638
 5107TIP3    H115264   7.140   6.639   0.545
 5107TIP3    H215265   7.092   6.538   0.647
 5108TIP3   OH215266   1.195   0.233   3.808
 5108TIP3    H115267   1.265   0.209   3.746
 5108TIP3    H215268   1.242   0.256   3.888
 5109TIP3   OH215269   4.357   3.912   0.751
 5109TIP3    H115270   4.357   3.936   0.844
 5109TIP3    H215271   4.417   3.837   0.746
 5110TIP3   OH215272   5.377   3.325   4.368
 5110TIP3    H115273   5.471   3.321   4.351
 5110TIP3    H215274   5.367   3.290   4.457
 5111TIP3   OH215275   0.942   6.767   3.960
 5111TIP3    H115276   1.017   6.751   4.018
 5111TIP3    H215277   0.922   6.682   3.921
 5112TIP3   OH215278   4.105   0.014   6.171
 5112TIP3    H115279   4.159  -0.004   6.095
 5112TIP3    H215280   4.164   0.001   6.246
 5113TIP3   OH215281   4.602   2.754   5.039
 5113TIP3    H115282   4.533   2.701   4.998
 5113TIP3    H215283   4.559   2.838   5.058
 5114TIP3   OH215284   4.289   2.562   5.200
 5114TIP3    H115285   4.206   2.517   5.192
 5114TIP3    H215286   4.355   2.493   5.194
 5115TIP3   OH215287   1.371   7.418   1.111
 5115TIP3    H115288   1.287   7.384   1.141
 5115TIP3    H215289   1.430   7.343   1.116
 5116TIP3   OH215290   0.281   3.061   3.754
 5116TIP3    H115291   0.352   3.116   3.787
 5116TIP3    H215292   0.240   3.026   3.832
 5117TIP3   OH215293   5.893   7.602   1.460
 5117TIP3    H115294   5.888   7.533   1.394
 5117TIP3    H215295   5.817   7.657   1.443
 5118TIP3   OH215296   4.715   3.859   5.827
 5118TIP3    H115297   4.773   3.828   5.897
 5118TIP3    H215298   4.697   3.950   5.849
 5119TIP3   OH215299   0.733   1.396   0.415
 5119TIP3    H115300   0.800   1.363   0.355
 5119TIP3    H215301   0.764   1.372   0.502
 5120TIP3   OH215302   3.135   1.204   2.407
 5120TIP3    H115303   3.040   1.207   2.418
 5120TIP3    H215304   3.164   1.295   2.418
 5121TIP3   OH215305   4.908   5.570   4.969
 5121TIP3    H115306   4.998   5.560   5.001
 5121TIP3    H215307   4.910   5.529   4.882
 5122TIP3   OH215308   6.880   2.615   4.668
 5122TIP3    H115309   6.858   2.595   4.758
 5122TIP3    H215310   6.797   2.639   4.627
 5123TIP3   OH215311   1.947   2.224   0.756
 5123TIP3    H115312   1.933   2.131   0.772
 5123TIP3    H215313   2.020   2.248   0.813
 5124TIP3   OH215314   7.557   5.802   0.734
 5124TIP3    H115315   7.505   5.763   0.663
 5124TIP3    H215316   7.530   5.754   0.812
 5125TIP3   OH215317   4.505   4.977   0.580
 5125TIP3    H115318   4.489   4.892   0.622
 5125TIP3    H215319   4.560   4.957   0.504
 5126TIP3   OH215320   1.367   1.334   4.569
 5126TIP3    H115321   1.346   1.408   4.512
 5126TIP3    H215322   1.325   1.356   4.652
 5127TIP3   OH215323   8.269   7.511   5.539
 5127TIP3    H115324   8.298   7.547   5.455
 5127TIP3    H215325   8.330   7.439   5.557
 5128TIP3   OH215326   4.636   7.183   3.338
 5128TIP3    H115327   4.611   7.221   3.422
 5128TIP3    H215328   4.712   7.128   3.358
 5129TIP3   OH215329   1.103   6.955   1.885
 5129TIP3    H115330   1.090   6.971   1.792
 5129TIP3    H215331   1.016   6.935   1.919
 5130TIP3   OH215332   7.069   3.019   6.560
 5130TIP3    H115333   6.989   3.064   6.586
 5130TIP3    H215334   7.039   2.937   6.521
 5131TIP3   OH215335   7.556   4.456   4.934
 5131TIP3    H115336   7.640   4.425   4.899
 5131TIP3    H215337   7.491   4.396   4.896
 5132TIP3   OH215338   7.596   0.797   6.453
 5132TIP3    H115339   7.637   0.881   6.477
 5132TIP3    H215340   7.623   0.737   6.522
 5133TIP3   OH215341   6.202   6.160   4.683
 5133TIP3    H115342   6.242   6.152   4.596
 5133TIP3    H215343   6.108   6.154   4.667
 5134TIP3   OH215344   2.406   2.472   2.779
 5134TIP3    H115345   2.381   2.397   2.725
 5134TIP3    H215346   2.498   2.458   2.800
 5135TIP3   OH215347   3.502   3.491   0.986
 5135TIP3    H115348   3.421   3.443   0.974
 5135TIP3    H215349   3.480   3.559   1.050
 5136TIP3   OH215350   4.560   7.355   3.818
 5136TIP3    H115351   4.472   7.369   3.854
 5136TIP3    H215352   4.587   7.270   3.854
 5137TIP3   OH215353   1.028   4.376   4.937
 5137TIP3    H115354   0.980   4.383   4.854
 5137TIP3    H215355   1.116   4.408   4.916
 5138TIP3   OH215356   7.123   0.950   6.281
 5138TIP3    H115357   7.216   0.938   6.299
 5138TIP3    H215358   7.105   1.040   6.309
 5139TIP3   OH215359   7.629   0.730   3.708
 5139TIP3    H115360   7.585   0.652   3.675
 5139TIP3    H215361   7.643   0.712   3.801
 5140TIP3   OH215362   1.321   7.109   1.076
 5140TIP3    H115363   1.383   7.043   1.046
 5140TIP3    H215364   1.253   7.110   1.009
 5141TIP3   OH215365   5.015   5.260   6.047
 5141TIP3    H115366   5.024   5.316   5.971
 5141TIP3    H215367   5.095   5.276   6.098
 5142TIP3   OH215368   0.907   1.845   1.377
 5142TIP3    H115369   0.829   1.859   1.430
 5142TIP3    H215370   0.969   1.803   1.437
 5143TIP3   OH215371   3.238   4.708   3.616
 5143TIP3    H115372   3.225   4.802   3.605
 5143TIP3    H215373   3.278   4.679   3.535
 5144TIP3   OH215374   4.294   3.485   4.886
 5144TIP3    H115375   4.366   3.463   4.944
 5144TIP3    H215376   4.322   3.454   4.800
 5145TIP3   OH215377   2.987   7.678   2.659
 5145TIP3    H115378   2.967   7.660   2.568
 5145TIP3    H215379   2.904   7.709   2.696
 5146TIP3   OH215380   5.159   3.244   6.685
 5146TIP3    H115381   5.208   3.262   6.605
 5146TIP3    H215382   5.154   3.328   6.729
 5147TIP3   OH215383   6.285   6.448   2.794
 5147TIP3    H115384   6.271   6.421   2.885
 5147TIP3    H215385   6.207   6.498   2.772
 5148TIP3   OH215386   2.691   5.753   6.625
 5148TIP3    H115387   2.599   5.779   6.632
 5148TIP3    H215388   2.717   5.782   6.538
 5149TIP3   OH215389   4.535   1.608   3.709
 5149TIP3    H115390   4.477   1.673   3.747
 5149TIP3    H215391   4.545   1.541   3.777
 5150TIP3   OH215392   2.088   5.024   4.624
 5150TIP3    H115393   2.013   5.076   4.653
 5150TIP3    H215394   2.062   4.933   4.637
 5151TIP3   OH215395   6.693   4.393   6.450
 5151TIP3    H115396   6.703   4.303   6.481
 5151TIP3    H215397   6.782   4.421   6.430
 5152TIP3   OH215398   5.075   0.697   5.612
 5152TIP3    H115399   5.129   0.623   5.586
 5152TIP3    H215400   4.995   0.688   5.560
 5153TIP3   OH215401   3.868   5.584   3.223
 5153TIP3    H115402   3.932   5.517   3.201
 5153TIP3    H215403   3.863   5.582   3.319
 5154TIP3   OH215404   6.599   3.277   6.571
 5154TIP3    H115405   6.603   3.273   6.476
 5154TIP3    H215406   6.688   3.262   6.600
 5155TIP3   OH215407   3.324   5.430   2.282
 5155TIP3    H115408   3.390   5.494   2.254
 5155TIP3    H215409   3.278   5.474   2.354
 5156TIP3   OH215410   5.932   3.559   6.402
 5156TIP3    H115411   5.880   3.528   6.476
 5156TIP3    H215412   5.967   3.644   6.431
 5157TIP3   OH215413   6.103   5.273   5.757
 5157TIP3    H115414   6.182   5.295   5.707
 5157TIP3    H215415   6.096   5.342   5.823
 5158TIP3   OH215416   0.100   3.634   2.528
 5158TIP3    H115417   0.029   3.602   2.473
 5158TIP3    H215418   0.076   3.725   2.549
 5159TIP3   OH215419   8.159   1.088   5.093
 5159TIP3    H115420   8.230   1.054   5.039
 5159TIP3    H215421   8.200   1.109   5.177
 5160TIP3   OH215422   7.687   0.729   6.128
 5160TIP3    H115423   7.737   0.680   6.193
 5160TIP3    H215424   7.670   0.814   6.170
 5161TIP3   OH215425   6.880   7.482   6.483
 5161TIP3    H115426   6.947   7.414   6.486
 5161TIP3    H215427   6.808   7.442   6.435
 5162TIP3   OH215428   7.345   4.430   1.399
 5162TIP3    H115429   7.313   4.512   1.437
 5162TIP3    H215430   7.407   4.458   1.331
 5163TIP3   OH215431   3.162   1.059   5.057
 5163TIP3    H115432   3.238   1.086   5.005
 5163TIP3    H215433   3.191   0.979   5.102
 5164TIP3   OH215434   5.311   3.337   0.611
 5164TIP3    H115435   5.398   3.378   0.616
 5164TIP3    H215436   5.327   3.244   0.625
 5165TIP3   OH215437   4.272   4.292   5.364
 5165TIP3    H115438   4.212   4.355   5.405
 5165TIP3    H215439   4.218   4.214   5.349
 5166TIP3   OH215440   5.903   4.083   2.314
 5166TIP3    H115441   5.944   4.167   2.333
 5166TIP3    H215442   5.885   4.086   2.220
 5167TIP3   OH215443   0.553   3.792   4.463
 5167TIP3    H115444   0.570   3.858   4.531
 5167TIP3    H215445   0.637   3.748   4.452
 5168TIP3   OH215446   5.246   2.510   1.161
 5168TIP3    H115447   5.299   2.506   1.241
 5168TIP3    H215448   5.158   2.533   1.191
 5169TIP3   OH215449   5.473   5.318   6.123
 5169TIP3    H115450   5.527   5.298   6.200
 5169TIP3    H215451   5.435   5.234   6.098
 5170TIP3   OH215452   1.952   1.123   6.154
 5170TIP3    H115453   1.988   1.098   6.069
 5170TIP3    H215454   1.863   1.088   6.154
 5171TIP3   OH215455   1.378   5.473   1.385
 5171TIP3    H115456   1.406   5.460   1.476
 5171TIP3    H215457   1.287   5.503   1.392
 5172TIP3   OH215458   4.612   4.051   6.058
 5172TIP3    H115459   4.529   4.099   6.059
 5172TIP3    H215460   4.678   4.117   6.081
 5173TIP3   OH215461   1.039   2.343   3.815
 5173TIP3    H115462   1.066   2.399   3.888
 5173TIP3    H215463   0.993   2.270   3.855
 5174TIP3   OH215464   2.146   5.074   5.843
 5174TIP3    H115465   2.081   5.053   5.910
 5174TIP3    H215466   2.098   5.120   5.775
 5175TIP3   OH215467   6.189   3.832   0.851
 5175TIP3    H115468   6.193   3.909   0.794
 5175TIP3    H215469   6.175   3.759   0.792
 5176TIP3   OH215470  -0.069   3.394   5.705
 5176TIP3    H115471  -0.092   3.485   5.686
 5176TIP3    H215472   0.018   3.382   5.668
 5177TIP3   OH215473   8.142   2.042   1.436
 5177TIP3    H115474   8.135   2.128   1.477
 5177TIP3    H215475   8.054   2.004   1.446
 5178TIP3   OH215476   7.126   2.125   3.865
 5178TIP3    H115477   7.058   2.085   3.917
 5178TIP3    H215478   7.158   2.198   3.918
 5179TIP3   OH215479   4.815   7.132   5.105
 5179TIP3    H115480   4.725   7.107   5.127
 5179TIP3    H215481   4.840   7.073   5.034
 5180TIP3   OH215482   1.955   0.728   4.425
 5180TIP3    H115483   1.877   0.781   4.444
 5180TIP3    H215484   2.024   0.766   4.480
 5181TIP3   OH215485   2.770   2.808   6.064
 5181TIP3    H115486   2.845   2.773   6.015
 5181TIP3    H215487   2.773   2.902   6.049
 5182TIP3   OH215488   0.045   0.423   3.382
 5182TIP3    H115489   0.131   0.465   3.381
 5182TIP3    H215490   0.065   0.329   3.381
 5183TIP3   OH215491   1.629   4.341   4.692
 5183TIP3    H115492   1.572   4.353   4.616
 5183TIP3    H215493   1.645   4.247   4.696
 5184TIP3   OH215494   7.448   0.141   3.234
 5184TIP3    H115495   7.507   0.216   3.244
 5184TIP3    H215496   7.438   0.132   3.139
 5185TIP3   OH215497   2.505   3.249   4.744
 5185TIP3    H115498   2.515   3.166   4.790
 5185TIP3    H215499   2.594   3.284   4.737
 5186TIP3   OH215500   1.602   2.047   1.386
 5186TIP3    H115501   1.597   2.136   1.420
 5186TIP3    H215502   1.564   1.993   1.456
 5187TIP3   OH215503   0.013   0.959   6.482
 5187TIP3    H115504  -0.022   0.886   6.532
 5187TIP3    H215505   0.090   0.923   6.437
 5188TIP3   OH215506   1.580   6.419   5.855
 5188TIP3    H115507   1.492   6.392   5.828
 5188TIP3    H215508   1.613   6.469   5.780
 5189TIP3   OH215509   0.456   7.092   4.099
 5189TIP3    H115510   0.375   7.049   4.071
 5189TIP3    H215511   0.432   7.140   4.179
 5190TIP3   OH215512   6.261   3.257   4.311
 5190TIP3    H115513   6.318   3.333   4.299
 5190TIP3    H215514   6.202   3.260   4.236
 5191TIP3   OH215515   7.871   0.423   0.348
 5191TIP3    H115516   7.806   0.359   0.378
 5191TIP3    H215517   7.840   0.506   0.384
 5192TIP3   OH215518   7.311   6.638   4.553
 5192TIP3    H115519   7.326   6.697   4.479
 5192TIP3    H215520   7.339   6.552   4.522
 5193TIP3   OH215521   6.296   5.125   6.147
 5193TIP3    H115522   6.202   5.110   6.155
 5193TIP3    H215523   6.326   5.136   6.237
 5194TIP3   OH215524   4.959   3.070   0.520
 5194TIP3    H115525   4.888   3.031   0.470
 5194TIP3    H215526   4.920   3.146   0.562
 5195TIP3   OH215527   4.578   5.488   2.186
 5195TIP3    H115528   4.601   5.395   2.190
 5195TIP3    H215529   4.569   5.505   2.092
 5196TIP3   OH215530   1.651   1.897   3.614
 5196TIP3    H115531   1.595   1.940   3.549
 5196TIP3    H215532   1.721   1.857   3.562
 5197TIP3   OH215533   4.056   4.143   6.450
 5197TIP3    H115534   4.054   4.048   6.444
 5197TIP3    H215535   3.970   4.171   6.419
 5198TIP3   OH215536   7.053   5.193   2.285
 5198TIP3    H115537   7.096   5.270   2.321
 5198TIP3    H215538   7.040   5.135   2.360
 5199TIP3   OH215539   6.679   4.948   2.975
 5199TIP3    H115540   6.731   5.027   2.960
 5199TIP3    H215541   6.599   4.962   2.925
 5200TIP3   OH215542   0.606   4.078   1.352
 5200TIP3    H115543   0.689   4.050   1.391
 5200TIP3    H215544   0.564   4.130   1.420
 5201TIP3   OH215545   0.067   4.678   6.655
 5201TIP3    H115546   0.118   4.676   6.574
 5201TIP3    H215547   0.127   4.715   6.720
 5202TIP3   OH215548   2.266   3.854   2.722
 5202TIP3    H115549   2.231   3.940   2.744
 5202TIP3    H215550   2.205   3.819   2.657
 5203TIP3   OH215551   4.897   3.118   1.752
 5203TIP3    H115552   4.817   3.171   1.742
 5203TIP3    H215553   4.931   3.142   1.838
 5204TIP3   OH215554   6.190   6.822   1.128
 5204TIP3    H115555   6.132   6.896   1.140
 5204TIP3    H215556   6.173   6.792   1.039
 5205TIP3   OH215557   2.387   2.825   4.701
 5205TIP3    H115558   2.375   2.908   4.655
 5205TIP3    H215559   2.299   2.803   4.733
 5206TIP3   OH215560   6.135   2.433   4.908
 5206TIP3    H115561   6.177   2.448   4.993
 5206TIP3    H215562   6.057   2.382   4.930
 5207TIP3   OH215563   7.139   4.896   3.264
 5207TIP3    H115564   7.184   4.843   3.330
 5207TIP3    H215565   7.109   4.834   3.198
 5208TIP3   OH215566   6.589   6.024   4.547
 5208TIP3    H115567   6.666   6.023   4.490
 5208TIP3    H215568   6.618   6.070   4.626
 5209TIP3   OH215569   3.473   6.417   1.283
 5209TIP3    H115570   3.476   6.471   1.204
 5209TIP3    H215571   3.448   6.477   1.353
 5210TIP3   OH215572   7.633   6.828   0.456
 5210TIP3    H115573   7.654   6.750   0.508
 5210TIP3    H215574   7.642   6.901   0.517
 5211TIP3   OH215575   4.275   2.710   4.951
 5211TIP3    H115576   4.310   2.684   5.036
 5211TIP3    H215577   4.349   2.703   4.891
 5212TIP3   OH215578   7.142   1.092   3.968
 5212TIP3    H115579   7.071   1.137   4.012
 5212TIP3    H215580   7.178   1.157   3.907
 5213TIP3   OH215581   0.609   5.606   3.159
 5213TIP3    H115582   0.626   5.692   3.121
 5213TIP3    H215583   0.623   5.618   3.253
 5214TIP3   OH215584   1.192   5.766   4.414
 5214TIP3    H115585   1.139   5.741   4.490
 5214TIP3    H215586   1.283   5.754   4.443
 5215TIP3   OH215587   6.372   6.724   0.425
 5215TIP3    H115588   6.356   6.814   0.397
 5215TIP3    H215589   6.467   6.717   0.431
 5216TIP3   OH215590   7.949   4.084   6.433
 5216TIP3    H115591   7.919   4.062   6.521
 5216TIP3    H215592   7.883   4.143   6.399
 5217TIP3   OH215593   3.202   5.002   0.693
 5217TIP3    H115594   3.134   4.940   0.668
 5217TIP3    H215595   3.194   5.074   0.629
 5218TIP3   OH215596   2.603   1.590   1.741
 5218TIP3    H115597   2.551   1.669   1.757
 5218TIP3    H215598   2.690   1.612   1.774
 5219TIP3   OH215599   1.156   5.182   0.371
 5219TIP3    H115600   1.143   5.140   0.285
 5219TIP3    H215601   1.190   5.112   0.426
 5220TIP3   OH215602   0.363   2.589   4.204
 5220TIP3    H115603   0.384   2.665   4.258
 5220TIP3    H215604   0.307   2.535   4.259
 5221TIP3   OH215605   7.869   3.955   4.817
 5221TIP3    H115606   7.809   3.925   4.749
 5221TIP3    H215607   7.951   3.908   4.799
 5222TIP3   OH215608   4.910   3.960   4.327
 5222TIP3    H115609   4.846   4.012   4.375
 5222TIP3    H215610   4.904   3.991   4.236
 5223TIP3   OH215611   1.345   2.116   6.153
 5223TIP3    H115612   1.412   2.118   6.084
 5223TIP3    H215613   1.395   2.119   6.235
 5224TIP3   OH215614   1.660   3.864   3.227
 5224TIP3    H115615   1.701   3.918   3.160
 5224TIP3    H215616   1.618   3.793   3.178
 5225TIP3   OH215617   2.433   4.913   1.633
 5225TIP3    H115618   2.352   4.878   1.596
 5225TIP3    H215619   2.478   4.953   1.558
 5226TIP3   OH215620   3.108   4.354   5.792
 5226TIP3    H115621   3.155   4.404   5.726
 5226TIP3    H215622   3.161   4.363   5.871
 5227TIP3   OH215623   6.388   0.215   2.248
 5227TIP3    H115624   6.462   0.175   2.295
 5227TIP3    H215625   6.346   0.141   2.204
 5228TIP3   OH215626   8.106   6.631   3.395
 5228TIP3    H115627   8.151   6.557   3.434
 5228TIP3    H215628   8.061   6.595   3.319
 5229TIP3   OH215629   0.900   6.326   4.560
 5229TIP3    H115630   0.875   6.321   4.652
 5229TIP3    H215631   0.865   6.410   4.530
 5230TIP3   OH215632   7.768   1.708   4.416
 5230TIP3    H115633   7.685   1.661   4.425
 5230TIP3    H215634   7.745   1.787   4.366
 5231TIP3   OH215635   0.455   1.643   4.327
 5231TIP3    H115636   0.442   1.616   4.418
 5231TIP3    H215637   0.507   1.724   4.333
 5232TIP3   OH215638   1.281   4.646   2.265
 5232TIP3    H115639   1.271   4.569   2.209
 5232TIP3    H215640   1.219   4.632   2.337
 5233TIP3   OH215641   3.618   1.839   5.742
 5233TIP3    H115642   3.694   1.783   5.729
 5233TIP3    H215643   3.545   1.779   5.755
 5234TIP3   OH215644   0.460   7.737   6.214
 5234TIP3    H115645   0.425   7.766   6.298
 5234TIP3    H215646   0.543   7.695   6.235
 5235TIP3   OH215647   3.635   7.258   1.237
 5235TIP3    H115648   3.549   7.215   1.235
 5235TIP3    H215649   3.696   7.188   1.260
 5236TIP3   OH215650   4.905   1.962   3.801
 5236TIP3    H115651   4.895   1.867   3.807
 5236TIP3    H215652   4.815   1.995   3.801
 5237TIP3   OH215653   4.683   5.646   1.217
 5237TIP3    H115654   4.678   5.675   1.308
 5237TIP3    H215655   4.628   5.707   1.169
 5238TIP3   OH215656   3.455   1.541   1.870
 5238TIP3    H115657   3.502   1.481   1.929
 5238TIP3    H215658   3.363   1.516   1.878
 5239TIP3   OH215659   0.401   5.218   1.895
 5239TIP3    H115660   0.446   5.181   1.971
 5239TIP3    H215661   0.321   5.166   1.887
 5240TIP3   OH215662   7.165   0.128   2.788
 5240TIP3    H115663   7.106   0.064   2.828
 5240TIP3    H215664   7.253   0.101   2.817
 5241TIP3   OH215665   1.994   0.424   2.890
 5241TIP3    H115666   2.041   0.478   2.826
 5241TIP3    H215667   2.010   0.467   2.974
 5242TIP3   OH215668   7.641   6.456   3.984
 5242TIP3    H115669   7.705   6.519   4.016
 5242TIP3    H215670   7.665   6.442   3.892
 5243TIP3   OH215671   1.193   1.567   5.980
 5243TIP3    H115672   1.154   1.537   6.062
 5243TIP3    H215673   1.123   1.616   5.937
 5244TIP3   OH215674   7.137   2.664   0.875
 5244TIP3    H115675   7.153   2.592   0.936
 5244TIP3    H215676   7.075   2.721   0.920
 5245TIP3   OH215677   1.035   7.216   4.365
 5245TIP3    H115678   0.975   7.165   4.420
 5245TIP3    H215679   0.984   7.235   4.286
 5246TIP3   OH215680   5.239   1.803   4.519
 5246TIP3    H115681   5.178   1.748   4.570
 5246TIP3    H215682   5.305   1.830   4.583
 5247TIP3   OH215683   4.752   3.238   5.727
 5247TIP3    H115684   4.838   3.266   5.759
 5247TIP3    H215685   4.768   3.208   5.638
 5248TIP3   OH215686   6.387   5.748   2.650
 5248TIP3    H115687   6.422   5.836   2.659
 5248TIP3    H215688   6.293   5.758   2.663
 5249TIP3   OH215689   0.549   2.202   5.137
 5249TIP3    H115690   0.547   2.293   5.105
 5249TIP3    H215691   0.619   2.202   5.202
 5250TIP3   OH215692   1.807   1.366   3.270
 5250TIP3    H115693   1.778   1.393   3.357
 5250TIP3    H215694   1.805   1.446   3.218
 5251TIP3   OH215695   8.016   5.103   1.376
 5251TIP3    H115696   8.013   5.019   1.329
 5251TIP3    H215697   8.081   5.155   1.328
 5252TIP3   OH215698   7.350   0.623   5.999
 5252TIP3    H115699   7.322   0.690   5.935
 5252TIP3    H215700   7.334   0.664   6.084
 5253TIP3   OH215701   7.935   0.619   5.510
 5253TIP3    H115702   7.910   0.604   5.419
 5253TIP3    H215703   7.865   0.673   5.545
 5254TIP3   OH215704   1.917   4.092   5.528
 5254TIP3    H115705   1.880   4.170   5.487
 5254TIP3    H215706   1.897   4.020   5.468
 5255TIP3   OH215707   3.542   3.830   2.551
 5255TIP3    H115708   3.618   3.881   2.579
 5255TIP3    H215709   3.545   3.834   2.455
 5256TIP3   OH215710   7.637   0.467   6.430
 5256TIP3    H115711   7.634   0.397   6.364
 5256TIP3    H215712   7.576   0.438   6.498
 5257TIP3   OH215713   3.095   6.924   5.459
 5257TIP3    H115714   3.078   6.838   5.422
 5257TIP3    H215715   3.038   6.928   5.536
 5258TIP3   OH215716   5.144   0.248   5.491
 5258TIP3    H115717   5.108   0.311   5.429
 5258TIP3    H215718   5.223   0.290   5.525
 5259TIP3   OH215719   2.877   3.438   6.732
 5259TIP3    H115720   2.938   3.453   6.805
 5259TIP3    H215721   2.810   3.381   6.768
 5260TIP3   OH215722   4.228   4.371   3.291
 5260TIP3    H115723   4.249   4.279   3.305
 5260TIP3    H215724   4.192   4.401   3.375
 5261TIP3   OH215725   3.498   1.728   0.060
 5261TIP3    H115726   3.505   1.645   0.108
 5261TIP3    H215727   3.550   1.790   0.111
 5262TIP3   OH215728   0.252   1.402   1.799
 5262TIP3    H115729   0.240   1.489   1.763
 5262TIP3    H215730   0.290   1.417   1.886
 5263TIP3   OH215731   0.335   2.305   2.538
 5263TIP3    H115732   0.375   2.219   2.527
 5263TIP3    H215733   0.408   2.367   2.528
 5264TIP3   OH215734   1.273   7.404   5.410
 5264TIP3    H115735   1.310   7.488   5.438
 5264TIP3    H215736   1.190   7.427   5.369
 5265TIP3   OH215737   5.830   4.461   4.577
 5265TIP3    H115738   5.776   4.457   4.498
 5265TIP3    H215739   5.884   4.539   4.566
 5266TIP3   OH215740   0.556   6.773   1.922
 5266TIP3    H115741   0.630   6.725   1.885
 5266TIP3    H215742   0.567   6.764   2.017
 5267TIP3   OH215743   2.905   0.291   6.668
 5267TIP3    H115744   2.879   0.296   6.576
 5267TIP3    H215745   2.999   0.272   6.666
 5268TIP3   OH215746   2.465   1.870   3.962
 5268TIP3    H115747   2.479   1.778   3.985
 5268TIP3    H215748   2.497   1.919   4.037
 5269TIP3   OH215749   2.547   5.033   2.527
 5269TIP3    H115750   2.469   5.086   2.544
 5269TIP3    H215751   2.620   5.088   2.554
 5270TIP3   OH215752   2.806   2.190   2.023
 5270TIP3    H115753   2.715   2.216   2.039
 5270TIP3    H215754   2.840   2.167   2.110
 5271TIP3   OH215755   2.553   4.539   2.818
 5271TIP3    H115756   2.541   4.445   2.812
 5271TIP3    H215757   2.622   4.550   2.884
 5272TIP3   OH215758   7.566   4.807   4.517
 5272TIP3    H115759   7.626   4.829   4.588
 5272TIP3    H215760   7.537   4.892   4.484
 5273TIP3   OH215761   6.397   5.691   0.791
 5273TIP3    H115762   6.434   5.756   0.850
 5273TIP3    H215763   6.315   5.665   0.834
 5274TIP3   OH215764   5.264   5.480   2.836
 5274TIP3    H115765   5.258   5.559   2.890
 5274TIP3    H215766   5.176   5.469   2.799
 5275TIP3   OH215767   3.229   2.027   0.843
 5275TIP3    H115768   3.164   2.087   0.804
 5275TIP3    H215769   3.305   2.032   0.785
 5276TIP3   OH215770   1.467   2.587   6.624
 5276TIP3    H115771   1.459   2.521   6.554
 5276TIP3    H215772   1.393   2.645   6.611
 5277TIP3   OH215773   7.485   5.751   6.651
 5277TIP3    H115774   7.472   5.658   6.631
 5277TIP3    H215775   7.408   5.775   6.702
 5278TIP3   OH215776   8.265   2.943   4.844
 5278TIP3    H115777   8.311   2.971   4.923
 5278TIP3    H215778   8.205   3.016   4.825
 5279TIP3   OH215779   5.921   2.452   2.849
 5279TIP3    H115780   5.946   2.544   2.845
 5279TIP3    H215781   5.830   2.450   2.820
 5280TIP3   OH215782   3.841   2.081   0.177
 5280TIP3    H115783   3.885   2.139   0.116
 5280TIP3    H215784   3.873   2.108   0.263
 5281TIP3   OH215785   0.427   7.238   1.969
 5281TIP3    H115786   0.370   7.309   1.940
 5281TIP3    H215787   0.369   7.161   1.970
 5282TIP3   OH215788   0.535   3.899   0.507
 5282TIP3    H115789   0.457   3.955   0.500
 5282TIP3    H215790   0.608   3.961   0.509
 5283TIP3   OH215791   4.304   7.471   3.933
 5283TIP3    H115792   4.229   7.419   3.960
 5283TIP3    H215793   4.272   7.524   3.860
 5284TIP3   OH215794   6.088   1.688   1.975
 5284TIP3    H115795   6.139   1.761   1.938
 5284TIP3    H215796   5.998   1.718   1.972
 5285TIP3   OH215797   1.904   7.730   6.117
 5285TIP3    H115798   1.931   7.762   6.031
 5285TIP3    H215799   1.972   7.667   6.141
 5286TIP3   OH215800   1.799   5.575   3.384
 5286TIP3    H115801   1.765   5.662   3.406
 5286TIP3    H215802   1.868   5.592   3.320
 5287TIP3   OH215803   1.431   1.599   3.445
 5287TIP3    H115804   1.500   1.595   3.511
 5287TIP3    H215805   1.350   1.611   3.495
 5288TIP3   OH215806   3.428   5.203   5.242
 5288TIP3    H115807   3.383   5.209   5.157
 5288TIP3    H215808   3.503   5.262   5.233
 5289TIP3   OH215809   7.223   4.838   0.971
 5289TIP3    H115810   7.216   4.805   1.061
 5289TIP3    H215811   7.248   4.930   0.981
 5290TIP3   OH215812   0.506   1.232   1.201
 5290TIP3    H115813   0.511   1.323   1.173
 5290TIP3    H215814   0.545   1.183   1.128
 5291TIP3   OH215815   5.247   4.511   5.985
 5291TIP3    H115816   5.235   4.557   6.069
 5291TIP3    H215817   5.162   4.515   5.943
 5292TIP3   OH215818   4.206   3.909   6.058
 5292TIP3    H115819   4.120   3.932   6.023
 5292TIP3    H215820   4.222   3.973   6.127
 5293TIP3   OH215821   2.028   5.965   6.777
 5293TIP3    H115822   1.951   6.017   6.753
 5293TIP3    H215823   2.020   5.885   6.725
 5294TIP3   OH215824   1.169   2.084   0.444
 5294TIP3    H115825   1.194   2.013   0.384
 5294TIP3    H215826   1.251   2.110   0.485
 5295TIP3   OH215827   2.857   2.800   2.541
 5295TIP3    H115828   2.824   2.863   2.606
 5295TIP3    H215829   2.845   2.845   2.457
 5296TIP3   OH215830   2.175   0.808   0.015
 5296TIP3    H115831   2.125   0.783   0.093
 5296TIP3    H215832   2.249   0.748   0.014
 5297TIP3   OH215833   6.589   0.781   3.263
 5297TIP3    H115834   6.634   0.727   3.198
 5297TIP3    H215835   6.607   0.738   3.346
 5298TIP3   OH215836   5.652   4.716   5.634
 5298TIP3    H115837   5.577   4.770   5.609
 5298TIP3    H215838   5.724   4.751   5.582
 5299TIP3   OH215839   5.988   5.640   6.231
 5299TIP3    H115840   5.942   5.703   6.176
 5299TIP3    H215841   5.987   5.679   6.319
 5300TIP3   OH215842   0.762   3.609   0.921
 5300TIP3    H115843   0.668   3.622   0.912
 5300TIP3    H215844   0.799   3.644   0.839
 5301TIP3   OH215845   5.408   0.453   2.313
 5301TIP3    H115846   5.368   0.522   2.260
 5301TIP3    H215847   5.500   0.479   2.320
 5302TIP3   OH215848   2.124   4.144   5.095
 5302TIP3    H115849   2.133   4.050   5.075
 5302TIP3    H215850   2.071   4.178   5.023
 5303TIP3   OH215851   7.456   2.464   3.989
 5303TIP3    H115852   7.439   2.548   3.945
 5303TIP3    H215853   7.533   2.482   4.043
 5304TIP3   OH215854   0.096   5.232   2.898
 5304TIP3    H115855   0.181   5.227   2.942
 5304TIP3    H215856   0.100   5.312   2.847
 5305TIP3   OH215857   4.324   2.110   2.574
 5305TIP3    H115858   4.337   2.171   2.646
 5305TIP3    H215859   4.233   2.081   2.583
 5306TIP3   OH215860   5.336   4.072   3.116
 5306TIP3    H115861   5.274   4.036   3.180
 5306TIP3    H215862   5.306   4.162   3.102
 5307TIP3   OH215863   3.139   3.853   4.850
 5307TIP3    H115864   3.224   3.841   4.809
 5307TIP3    H215865   3.158   3.850   4.944
 5308TIP3   OH215866   1.588   6.420   6.702
 5308TIP3    H115867   1.526   6.356   6.666
 5308TIP3    H215868   1.579   6.496   6.644
 5309TIP3   OH215869   7.013   4.669   0.784
 5309TIP3    H115870   7.093   4.712   0.813
 5309TIP3    H215871   6.942   4.725   0.817
 5310TIP3   OH215872   6.498   3.284   3.402
 5310TIP3    H115873   6.443   3.215   3.438
 5310TIP3    H215874   6.502   3.265   3.309
 5311TIP3   OH215875   2.452   6.839   3.396
 5311TIP3    H115876   2.498   6.903   3.342
 5311TIP3    H215877   2.473   6.754   3.357
 5312TIP3   OH215878   4.852   4.541   5.037
 5312TIP3    H115879   4.865   4.454   4.998
 5312TIP3    H215880   4.930   4.590   5.011
 5313TIP3   OH215881   0.885   1.598   0.873
 5313TIP3    H115882   0.791   1.614   0.882
 5313TIP3    H215883   0.924   1.686   0.866
 5314TIP3   OH215884   4.927   0.200   1.211
 5314TIP3    H115885   4.911   0.271   1.147
 5314TIP3    H215886   4.841   0.181   1.248
 5315TIP3   OH215887   2.715   2.759   2.921
 5315TIP3    H115888   2.703   2.830   2.858
 5315TIP3    H215889   2.783   2.705   2.882
 5316TIP3   OH215890   7.006   6.586   4.857
 5316TIP3    H115891   6.991   6.619   4.768
 5316TIP3    H215892   6.918   6.565   4.889
 5317TIP3   OH215893   4.933   1.732   3.104
 5317TIP3    H115894   4.977   1.797   3.049
 5317TIP3    H215895   4.859   1.779   3.142
 5318TIP3   OH215896   8.378   3.863   1.096
 5318TIP3    H115897   8.344   3.809   1.024
 5318TIP3    H215898   8.322   3.840   1.170
 5319TIP3   OH215899   0.939   1.233   4.081
 5319TIP3    H115900   0.945   1.275   3.995
 5319TIP3    H215901   0.854   1.260   4.115
 5320TIP3   OH215902   7.181   2.415   2.250
 5320TIP3    H115903   7.129   2.400   2.171
 5320TIP3    H215904   7.258   2.360   2.239
 5321TIP3   OH215905   8.175   0.329   5.297
 5321TIP3    H115906   8.231   0.287   5.232
 5321TIP3    H215907   8.106   0.265   5.315
 5322TIP3   OH215908   6.574   1.888   6.096
 5322TIP3    H115909   6.576   1.794   6.114
 5322TIP3    H215910   6.664   1.910   6.073
 5323TIP3   OH215911   4.081   0.045   2.633
 5323TIP3    H115912   4.037   0.122   2.668
 5323TIP3    H215913   4.057   0.043   2.541
 5324TIP3   OH215914   6.895   7.160   5.750
 5324TIP3    H115915   6.827   7.199   5.804
 5324TIP3    H215916   6.977   7.177   5.798
 5325TIP3   OH215917   1.369   2.718   4.723
 5325TIP3    H115918   1.403   2.662   4.792
 5325TIP3    H215919   1.421   2.798   4.729
 5326TIP3   OH215920   1.670   0.335   1.707
 5326TIP3    H115921   1.671   0.426   1.736
 5326TIP3    H215922   1.711   0.337   1.620
 5327TIP3   OH215923   1.865   6.288   5.581
 5327TIP3    H115924   1.853   6.364   5.638
 5327TIP3    H215925   1.876   6.325   5.493
 5328TIP3   OH215926   2.455   3.071   6.042
 5328TIP3    H115927   2.531   3.099   5.991
 5328TIP3    H215928   2.434   3.146   6.097
 5329TIP3   OH215929   7.224   1.664   2.781
 5329TIP3    H115930   7.132   1.637   2.786
 5329TIP3    H215931   7.263   1.630   2.862
 5330TIP3   OH215932   7.642   7.553   2.765
 5330TIP3    H115933   7.693   7.489   2.814
 5330TIP3    H215934   7.703   7.623   2.745
 5331TIP3   OH215935   3.277   1.606   6.323
 5331TIP3    H115936   3.351   1.614   6.384
 5331TIP3    H215937   3.318   1.602   6.236
 5332TIP3   OH215938   7.350   6.750   3.836
 5332TIP3    H115939   7.424   6.751   3.775
 5332TIP3    H215940   7.275   6.774   3.782
 5333TIP3   OH215941   0.984   2.293   1.549
 5333TIP3    H115942   1.015   2.279   1.460
 5333TIP3    H215943   0.934   2.375   1.545
 5334TIP3   OH215944   3.644   2.506   4.462
 5334TIP3    H115945   3.654   2.418   4.424
 5334TIP3    H215946   3.728   2.522   4.506
 5335TIP3   OH215947   2.879   1.652   3.745
 5335TIP3    H115948   2.966   1.638   3.709
 5335TIP3    H215949   2.879   1.602   3.827
 5336TIP3   OH215950   7.816   3.451   0.136
 5336TIP3    H115951   7.870   3.469   0.059
 5336TIP3    H215952   7.763   3.375   0.112
 5337TIP3   OH215953   7.564   0.819   0.537
 5337TIP3    H115954   7.487   0.876   0.530
 5337TIP3    H215955   7.533   0.744   0.589
 5338TIP3   OH215956   3.169   6.070   0.480
 5338TIP3    H115957   3.087   6.032   0.511
 5338TIP3    H215958   3.237   6.017   0.521
 5339TIP3   OH215959   6.759   1.597   3.991
 5339TIP3    H115960   6.738   1.680   4.033
 5339TIP3    H215961   6.832   1.617   3.933
 5340TIP3   OH215962   4.794   0.808   3.271
 5340TIP3    H115963   4.712   0.772   3.306
 5340TIP3    H215964   4.862   0.750   3.305
 5341TIP3   OH215965   3.800   3.139   5.226
 5341TIP3    H115966   3.831   3.229   5.218
 5341TIP3    H215967   3.753   3.137   5.310
 5342TIP3   OH215968   0.839   2.590   5.356
 5342TIP3    H115969   0.917   2.536   5.364
 5342TIP3    H215970   0.793   2.578   5.439
 5343TIP3   OH215971   0.211   4.909   1.950
 5343TIP3    H115972   0.185   4.818   1.935
 5343TIP3    H215973   0.247   4.938   1.866
 5344TIP3   OH215974   1.657   3.447   1.818
 5344TIP3    H115975   1.590   3.492   1.869
 5344TIP3    H215976   1.608   3.384   1.766
 5345TIP3   OH215977   8.189   0.819   4.104
 5345TIP3    H115978   8.219   0.806   4.014
 5345TIP3    H215979   8.247   0.765   4.157
 5346TIP3   OH215980   0.369   4.900   5.764
 5346TIP3    H115981   0.397   4.926   5.852
 5346TIP3    H215982   0.281   4.938   5.755
 5347TIP3   OH215983   2.639   0.121   2.931
 5347TIP3    H115984   2.699   0.047   2.926
 5347TIP3    H215985   2.553   0.080   2.943
 5348TIP3   OH215986   6.903   3.234   6.664
 5348TIP3    H115987   6.935   3.273   6.582
 5348TIP3    H215988   6.876   3.309   6.716
 5349TIP3   OH215989   4.418   2.934   1.268
 5349TIP3    H115990   4.479   3.008   1.262
 5349TIP3    H215991   4.362   2.943   1.190
 5350TIP3   OH215992   5.607   7.197   1.796
 5350TIP3    H115993   5.634   7.271   1.741
 5350TIP3    H215994   5.659   7.207   1.876
 5351TIP3   OH215995   7.937   3.810   5.353
 5351TIP3    H115996   8.021   3.844   5.325
 5351TIP3    H215997   7.881   3.816   5.276
 5352TIP3   OH215998   4.330   3.535   1.923
 5352TIP3    H115999   4.397   3.593   1.888
 5352TIP3    H216000   4.250   3.589   1.925
 5353TIP3   OH216001   4.730   0.503   6.334
 5353TIP3    H116002   4.786   0.581   6.327
 5353TIP3    H216003   4.673   0.521   6.408
 5354TIP3   OH216004   3.367   5.368   3.519
 5354TIP3    H116005   3.368   5.443   3.460
 5354TIP3    H216006   3.280   5.331   3.510
 5355TIP3   OH216007   5.981   4.393   1.475
 5355TIP3    H116008   5.941   4.351   1.551
 5355TIP3    H216009   5.908   4.409   1.415
 5356TIP3   OH216010   7.151   1.728   1.032
 5356TIP3    H116011   7.205   1.753   0.957
 5356TIP3    H216012   7.201   1.755   1.108
 5357TIP3   OH216013   1.566   4.710   0.087
 5357TIP3    H116014   1.537   4.629   0.045
 5357TIP3    H216015   1.543   4.778   0.024
 5358TIP3   OH216016   6.052   4.700   2.840
 5358TIP3    H116017   6.010   4.619   2.867
 5358TIP3    H216018   6.142   4.676   2.820
 5359TIP3   OH216019   0.847   4.401   4.041
 5359TIP3    H116020   0.919   4.339   4.049
 5359TIP3    H216021   0.783   4.373   4.107
 5360TIP3   OH216022   0.644   5.844   3.863
 5360TIP3    H116023   0.680   5.921   3.820
 5360TIP3    H216024   0.562   5.828   3.817
 5361TIP3   OH216025   5.450   5.712   6.004
 5361TIP3    H116026   5.480   5.627   5.970
 5361TIP3    H216027   5.531   5.763   6.011
 5362TIP3   OH216028   2.391   5.831   3.059
 5362TIP3    H116029   2.469   5.787   3.026
 5362TIP3    H216030   2.320   5.770   3.040
 5363TIP3   OH216031   6.536   2.298   1.151
 5363TIP3    H116032   6.453   2.292   1.197
 5363TIP3    H216033   6.526   2.373   1.092
 5364TIP3   OH216034   2.564   6.642   3.235
 5364TIP3    H116035   2.538   6.603   3.152
 5364TIP3    H216036   2.659   6.628   3.239
 5365TIP3   OH216037   5.981   7.646   6.225
 5365TIP3    H116038   5.889   7.670   6.211
 5365TIP3    H216039   5.977   7.555   6.253
 5366TIP3   OH216040   0.641   6.288   4.146
 5366TIP3    H116041   0.638   6.376   4.183
 5366TIP3    H216042   0.551   6.256   4.152
 5367TIP3   OH216043   6.856   0.649   6.027
 5367TIP3    H116044   6.887   0.656   5.936
 5367TIP3    H216045   6.856   0.739   6.059
 5368TIP3   OH216046   1.567   1.796   0.597
 5368TIP3    H116047   1.606   1.881   0.579
 5368TIP3    H216048   1.474   1.813   0.607
 5369TIP3   OH216049   6.279   0.939   0.870
 5369TIP3    H116050   6.220   1.014   0.859
 5369TIP3    H216051   6.299   0.938   0.964
 5370TIP3   OH216052   4.774   6.073   0.240
 5370TIP3    H116053   4.767   6.066   0.335
 5370TIP3    H216054   4.789   6.166   0.224
 5371TIP3   OH216055   3.203   3.250   4.934
 5371TIP3    H116056   3.256   3.329   4.925
 5371TIP3    H216057   3.266   3.180   4.949
 5372TIP3   OH216058   5.060   5.629   0.241
 5372TIP3    H116059   5.090   5.543   0.210
 5372TIP3    H216060   5.022   5.611   0.327
 5373TIP3   OH216061   5.861   1.719   4.584
 5373TIP3    H116062   5.815   1.654   4.638
 5373TIP3    H216063   5.858   1.683   4.495
 5374TIP3   OH216064   6.303   1.637   1.020
 5374TIP3    H116065   6.258   1.658   0.938
 5374TIP3    H216066   6.347   1.719   1.044
 5375TIP3   OH216067   7.435   2.271   5.228
 5375TIP3    H116068   7.344   2.277   5.201
 5375TIP3    H216069   7.432   2.247   5.321
 5376TIP3   OH216070   1.639   5.112   4.767
 5376TIP3    H116071   1.734   5.100   4.757
 5376TIP3    H216072   1.631   5.196   4.813
 5377TIP3   OH216073   1.989   3.969   1.260
 5377TIP3    H116074   1.919   4.028   1.286
 5377TIP3    H216075   1.945   3.898   1.212
 5378TIP3   OH216076   2.532   2.875   1.658
 5378TIP3    H116077   2.550   2.961   1.621
 5378TIP3    H216078   2.496   2.893   1.745
 5379TIP3   OH216079   1.972   5.873   3.755
 5379TIP3    H116080   1.916   5.878   3.678
 5379TIP3    H216081   1.935   5.937   3.815
 5380TIP3   OH216082   4.892   5.200   0.454
 5380TIP3    H116083   4.879   5.200   0.359
 5380TIP3    H216084   4.880   5.108   0.480
 5381TIP3   OH216085   6.535   1.742   3.141
 5381TIP3    H116086   6.460   1.800   3.127
 5381TIP3    H216087   6.611   1.796   3.120
 5382TIP3   OH216088   1.628   6.567   3.004
 5382TIP3    H116089   1.617   6.565   3.099
 5382TIP3    H216090   1.548   6.608   2.971
 5383TIP3   OH216091   6.055   1.899   4.475
 5383TIP3    H116092   5.995   1.868   4.543
 5383TIP3    H216093   5.999   1.915   4.399
 5384TIP3   OH216094   6.716   2.266   4.176
 5384TIP3    H116095   6.636   2.224   4.207
 5384TIP3    H216096   6.780   2.252   4.246
 5385TIP3   OH216097   5.383   1.531   2.701
 5385TIP3    H116098   5.459   1.510   2.756
 5385TIP3    H216099   5.357   1.619   2.729
 5386TIP3   OH216100   0.853   7.691   5.493
 5386TIP3    H116101   0.830   7.608   5.533
 5386TIP3    H216102   0.803   7.693   5.411
 5387TIP3   OH216103   3.636   3.554   2.964
 5387TIP3    H116104   3.608   3.574   2.875
 5387TIP3    H216105   3.716   3.606   2.976
 5388TIP3   OH216106   7.719   3.485   5.914
 5388TIP3    H116107   7.676   3.443   5.988
 5388TIP3    H216108   7.799   3.434   5.900
 5389TIP3   OH216109   8.269   1.208   3.690
 5389TIP3    H116110   8.196   1.171   3.740
 5389TIP3    H216111   8.251   1.302   3.689
 5390TIP3   OH216112   2.652   5.393   1.496
 5390TIP3    H116113   2.666   5.418   1.405
 5390TIP3    H216114   2.739   5.369   1.528
 5391TIP3   OH216115   4.816   5.326   0.889
 5391TIP3    H116116   4.897   5.344   0.840
 5391TIP3    H216117   4.781   5.247   0.848
 5392TIP3   OH216118   5.122   5.005   6.028
 5392TIP3    H116119   5.086   5.093   6.041
 5392TIP3    H216120   5.046   4.947   6.027
 5393TIP3   OH216121   3.870   3.703   3.781
 5393TIP3    H116122   3.876   3.627   3.723
 5393TIP3    H216123   3.777   3.727   3.778
 5394TIP3   OH216124   6.869   1.203   3.837
 5394TIP3    H116125   6.832   1.262   3.903
 5394TIP3    H216126   6.961   1.227   3.833
 5395TIP3   OH216127   2.688   2.418   3.232
 5395TIP3    H116128   2.595   2.430   3.254
 5395TIP3    H216129   2.720   2.506   3.214
 5396TIP3   OH216130   2.252   2.687   2.868
 5396TIP3    H116131   2.290   2.775   2.872
 5396TIP3    H216132   2.324   2.630   2.841
 5397TIP3   OH216133   1.883   3.572   2.321
 5397TIP3    H116134   1.881   3.663   2.352
 5397TIP3    H216135   1.798   3.560   2.277
 5398TIP3   OH216136   2.699   2.430   6.433
 5398TIP3    H116137   2.730   2.350   6.391
 5398TIP3    H216138   2.685   2.491   6.360
 5399TIP3   OH216139   3.888   3.039   6.648
 5399TIP3    H116140   3.932   3.114   6.607
 5399TIP3    H216141   3.805   3.032   6.601
 5400TIP3   OH216142   3.443   5.873   1.000
 5400TIP3    H116143   3.451   5.907   1.089
 5400TIP3    H216144   3.514   5.809   0.993
 5401TIP3   OH216145   3.384   2.557   4.533
 5401TIP3    H116146   3.464   2.504   4.530
 5401TIP3    H216147   3.316   2.496   4.563
 5402TIP3   OH216148   0.623   5.459   2.906
 5402TIP3    H116149   0.684   5.386   2.907
 5402TIP3    H216150   0.629   5.497   2.994
 5403TIP3   OH216151   2.087   2.132   3.424
 5403TIP3    H116152   1.995   2.113   3.405
 5403TIP3    H216153   2.116   2.058   3.476
 5404TIP3   OH216154   4.222   2.112   4.181
 5404TIP3    H116155   4.277   2.036   4.203
 5404TIP3    H216156   4.162   2.119   4.255
 5405TIP3   OH216157   2.051   2.756   0.800
 5405TIP3    H116158   2.031   2.672   0.759
 5405TIP3    H216159   1.982   2.815   0.770
 5406TIP3   OH216160   5.122   0.154   3.524
 5406TIP3    H116161   5.158   0.226   3.472
 5406TIP3    H216162   5.198   0.100   3.544
 5407TIP3   OH216163   2.797   6.125   1.592
 5407TIP3    H116164   2.734   6.108   1.522
 5407TIP3    H216165   2.840   6.207   1.567
 5408TIP3   OH216166   2.005   5.406   3.776
 5408TIP3    H116167   2.086   5.360   3.757
 5408TIP3    H216168   2.022   5.497   3.751
 5409TIP3   OH216169   5.601   0.392   5.937
 5409TIP3    H116170   5.635   0.410   6.024
 5409TIP3    H216171   5.563   0.304   5.943
 5410TIP3   OH216172   5.917   3.656   3.477
 5410TIP3    H116173   5.991   3.708   3.509
 5410TIP3    H216174   5.951   3.567   3.470
 5411TIP3   OH216175   6.737   7.737   2.628
 5411TIP3    H116176   6.687   7.734   2.546
 5411TIP3    H216177   6.678   7.699   2.693
 5412TIP3   OH216178   0.439   3.474   1.224
 5412TIP3    H116179   0.432   3.516   1.139
 5412TIP3    H216180   0.414   3.383   1.209
 5413TIP3   OH216181   7.391   3.354   2.377
 5413TIP3    H116182   7.423   3.298   2.448
 5413TIP3    H216183   7.318   3.402   2.417
 5414TIP3   OH216184   1.043   5.675   5.482
 5414TIP3    H116185   1.020   5.637   5.397
 5414TIP3    H216186   1.066   5.766   5.462
 5415TIP3   OH216187   6.762   3.594   0.693
 5415TIP3    H116188   6.840   3.649   0.696
 5415TIP3    H216189   6.751   3.574   0.600
 5416TIP3   OH216190   1.386   3.998   5.536
 5416TIP3    H116191   1.406   4.063   5.603
 5416TIP3    H216192   1.290   3.996   5.533
 5417TIP3   OH216193   1.929   0.251   3.467
 5417TIP3    H116194   1.963   0.172   3.424
 5417TIP3    H216195   1.966   0.323   3.415
 5418TIP3   OH216196   1.394   7.197   2.799
 5418TIP3    H116197   1.446   7.118   2.787
 5418TIP3    H216198   1.371   7.223   2.710
 5419TIP3   OH216199   1.625   4.377   3.630
 5419TIP3    H116200   1.714   4.364   3.597
 5419TIP3    H216201   1.572   4.389   3.552
 5420TIP3   OH216202   2.138   0.922   1.844
 5420TIP3    H116203   2.175   0.855   1.786
 5420TIP3    H216204   2.206   0.937   1.909
 5421TIP3   OH216205   8.019   4.884   4.833
 5421TIP3    H116206   8.012   4.789   4.835
 5421TIP3    H216207   7.959   4.915   4.901
 5422TIP3   OH216208   3.608   1.162   0.920
 5422TIP3    H116209   3.520   1.147   0.955
 5422TIP3    H216210   3.616   1.257   0.913
 5423TIP3   OH216211   7.641   7.269   3.668
 5423TIP3    H116212   7.720   7.322   3.658
 5423TIP3    H216213   7.658   7.217   3.747
 5424TIP3   OH216214   5.065   1.248   5.854
 5424TIP3    H116215   5.054   1.154   5.865
 5424TIP3    H216216   5.082   1.281   5.942
 5425TIP3   OH216217   3.579   5.132   4.961
 5425TIP3    H116218   3.487   5.108   4.969
 5425TIP3    H216219   3.578   5.220   4.923
 5426TIP3   OH216220   0.032   5.619   4.884
 5426TIP3    H116221   0.093   5.624   4.810
 5426TIP3    H216222  -0.039   5.562   4.852
 5427TIP3   OH216223   7.622   1.228   0.681
 5427TIP3    H116224   7.527   1.234   0.686
 5427TIP3    H216225   7.647   1.183   0.762
 5428TIP3   OH216226   4.100   4.507   1.593
 5428TIP3    H116227   4.105   4.602   1.579
 5428TIP3    H216228   4.187   4.484   1.626
 5429TIP3   OH216229   4.638   6.132   4.136
 5429TIP3    H116230   4.658   6.195   4.205
 5429TIP3    H216231   4.723   6.099   4.108
 5430TIP3   OH216232   0.613   1.415   0.114
 5430TIP3    H116233   0.695   1.463   0.102
 5430TIP3    H216234   0.638   1.323   0.111
 5431TIP3   OH216235   4.595   6.168   3.738
 5431TIP3    H116236   4.507   6.181   3.772
 5431TIP3    H216237   4.583   6.140   3.648
 5432TIP3   OH216238   4.690   1.790   0.626
 5432TIP3    H116239   4.718   1.758   0.540
 5432TIP3    H216240   4.725   1.726   0.688
 5433TIP3   OH216241   0.844   2.256   1.913
 5433TIP3    H116242   0.826   2.349   1.897
 5433TIP3    H216243   0.805   2.238   1.999
 5434TIP3   OH216244   1.265   7.513   2.759
 5434TIP3    H116245   1.243   7.594   2.711
 5434TIP3    H216246   1.220   7.444   2.710
 5435TIP3   OH216247   2.355   4.564   3.057
 5435TIP3    H116248   2.402   4.559   2.974
 5435TIP3    H216249   2.329   4.474   3.075
 5436TIP3   OH216250   1.813   7.063   0.726
 5436TIP3    H116251   1.890   7.032   0.679
 5436TIP3    H216252   1.849   7.113   0.799
 5437TIP3   OH216253   8.023   4.018   6.157
 5437TIP3    H116254   8.087   4.087   6.141
 5437TIP3    H216255   7.998   4.028   6.249
 5438TIP3   OH216256   3.847   3.591   1.984
 5438TIP3    H116257   3.816   3.501   1.970
 5438TIP3    H216258   3.829   3.636   1.902
 5439TIP3   OH216259   7.770   4.949   4.318
 5439TIP3    H116260   7.819   4.872   4.288
 5439TIP3    H216261   7.838   5.010   4.348
 5440TIP3   OH216262   4.214   5.291   1.251
 5440TIP3    H116263   4.149   5.355   1.278
 5440TIP3    H216264   4.272   5.339   1.193
 5441TIP3   OH216265   2.415   2.483   1.453
 5441TIP3    H116266   2.495   2.510   1.408
 5441TIP3    H216267   2.344   2.512   1.396
 5442TIP3   OH216268   5.923   2.072   5.705
 5442TIP3    H116269   5.880   2.020   5.772
 5442TIP3    H216270   5.853   2.091   5.641
 5443TIP3   OH216271   2.572   5.598   1.835
 5443TIP3    H116272   2.516   5.622   1.761
 5443TIP3    H216273   2.661   5.601   1.799
 5444TIP3   OH216274   2.542   5.603   4.807
 5444TIP3    H116275   2.509   5.675   4.861
 5444TIP3    H216276   2.615   5.641   4.758
 5445TIP3   OH216277   0.938   3.398   4.260
 5445TIP3    H116278   0.878   3.467   4.288
 5445TIP3    H216279   0.913   3.380   4.169
 5446TIP3   OH216280   1.385   4.584   2.924
 5446TIP3    H116281   1.442   4.594   2.848
 5446TIP3    H216282   1.339   4.501   2.909
 5447TIP3   OH216283   4.572   4.727   2.272
 5447TIP3    H116284   4.497   4.766   2.318
 5447TIP3    H216285   4.551   4.633   2.268
 5448TIP3   OH216286   4.574   0.938   2.675
 5448TIP3    H116287   4.624   0.914   2.597
 5448TIP3    H216288   4.483   0.937   2.646
 5449TIP3   OH216289   0.720   5.517   5.343
 5449TIP3    H116290   0.629   5.489   5.338
 5449TIP3    H216291   0.717   5.612   5.333
 5450TIP3   OH216292   0.315   7.490   2.989
 5450TIP3    H116293   0.246   7.491   2.922
 5450TIP3    H216294   0.314   7.400   3.023
 5451TIP3   OH216295   6.459   1.283   3.566
 5451TIP3    H116296   6.548   1.264   3.596
 5451TIP3    H216297   6.403   1.245   3.633
 5452TIP3   OH216298   7.717   2.182   1.292
 5452TIP3    H116299   7.678   2.256   1.245
 5452TIP3    H216300   7.807   2.177   1.258
 5453TIP3   OH216301   0.527   0.526   4.717
 5453TIP3    H116302   0.602   0.539   4.660
 5453TIP3    H216303   0.462   0.483   4.661
 5454TIP3   OH216304   6.560   0.348   0.079
 5454TIP3    H116305   6.475   0.379   0.049
 5454TIP3    H216306   6.609   0.427   0.102
 5455TIP3   OH216307   4.754   2.301   4.707
 5455TIP3    H116308   4.662   2.311   4.682
 5455TIP3    H216309   4.768   2.368   4.774
 5456TIP3   OH216310   2.629   0.210   4.949
 5456TIP3    H116311   2.587   0.198   4.864
 5456TIP3    H216312   2.662   0.300   4.946
 5457TIP3   OH216313   6.011   5.368   0.230
 5457TIP3    H116314   6.095   5.350   0.189
 5457TIP3    H216315   6.012   5.316   0.310
 5458TIP3   OH216316   7.609   1.217   1.501
 5458TIP3    H116317   7.639   1.140   1.452
 5458TIP3    H216318   7.629   1.291   1.443
 5459TIP3   OH216319   7.768   0.039   1.097
 5459TIP3    H116320   7.825  -0.038   1.090
 5459TIP3    H216321   7.728   0.033   1.184
 5460TIP3   OH216322   5.025   2.275   4.280
 5460TIP3    H116323   5.029   2.180   4.282
 5460TIP3    H216324   4.940   2.297   4.318
 5461TIP3   OH216325   2.558   3.036   4.893
 5461TIP3    H116326   2.511   3.026   4.976
 5461TIP3    H216327   2.646   3.004   4.911
 5462TIP3   OH216328   7.224   3.280   0.600
 5462TIP3    H116329   7.204   3.310   0.688
 5462TIP3    H216330   7.141   3.287   0.553
 5463TIP3   OH216331   0.457   7.505   3.232
 5463TIP3    H116332   0.429   7.519   3.142
 5463TIP3    H216333   0.552   7.492   3.226
 5464TIP3   OH216334   4.527   7.499   4.077
 5464TIP3    H116335   4.569   7.419   4.109
 5464TIP3    H216336   4.454   7.469   4.023
 5465TIP3   OH216337   5.554   5.971   3.902
 5465TIP3    H116338   5.546   5.909   3.829
 5465TIP3    H216339   5.580   5.917   3.977
 5466TIP3   OH216340   2.864   0.126   6.184
 5466TIP3    H116341   2.868   0.044   6.135
 5466TIP3    H216342   2.772   0.137   6.205
 5467TIP3   OH216343   6.063   7.329   3.497
 5467TIP3    H116344   6.020   7.309   3.414
 5467TIP3    H216345   6.012   7.402   3.533
 5468TIP3   OH216346   7.706   7.117   1.560
 5468TIP3    H116347   7.688   7.137   1.468
 5468TIP3    H216348   7.691   7.022   1.567
 5469TIP3   OH216349   4.218   7.569   3.669
 5469TIP3    H116350   4.236   7.475   3.677
 5469TIP3    H216351   4.185   7.579   3.580
 5470TIP3   OH216352   7.405   5.853   3.574
 5470TIP3    H116353   7.481   5.797   3.559
 5470TIP3    H216354   7.341   5.823   3.509
 5471TIP3   OH216355   6.269   3.224   0.302
 5471TIP3    H116356   6.180   3.258   0.297
 5471TIP3    H216357   6.295   3.210   0.211
 5472TIP3   OH216358   5.155   5.224   0.954
 5472TIP3    H116359   5.103   5.245   1.031
 5472TIP3    H216360   5.175   5.309   0.914
 5473TIP3   OH216361   5.304   1.262   2.335
 5473TIP3    H116362   5.386   1.213   2.328
 5473TIP3    H216363   5.284   1.262   2.428
 5474TIP3   OH216364   0.270   3.782   0.217
 5474TIP3    H116365   0.197   3.742   0.265
 5474TIP3    H216366   0.229   3.845   0.158
 5475TIP3   OH216367   6.227   2.504   5.137
 5475TIP3    H116368   6.295   2.500   5.204
 5475TIP3    H216369   6.145   2.497   5.186
 5476TIP3   OH216370   5.214   6.062   1.851
 5476TIP3    H116371   5.141   6.119   1.877
 5476TIP3    H216372   5.272   6.119   1.800
 5477TIP3   OH216373   7.434   1.326   3.530
 5477TIP3    H116374   7.384   1.389   3.479
 5477TIP3    H216375   7.511   1.374   3.560
 5478TIP3   OH216376   7.274   5.839   6.771
 5478TIP3    H116377   7.240   5.841   6.861
 5478TIP3    H216378   7.204   5.874   6.717
 5479TIP3   OH216379   2.715   1.176   2.741
 5479TIP3    H116380   2.773   1.141   2.810
 5479TIP3    H216381   2.740   1.268   2.733
 5480TIP3   OH216382   2.960   1.412   6.202
 5480TIP3    H116383   3.003   1.443   6.282
 5480TIP3    H216384   2.910   1.488   6.171
 5481TIP3   OH216385   8.036   3.106   3.526
 5481TIP3    H116386   8.014   3.015   3.510
 5481TIP3    H216387   8.088   3.105   3.607
 5482TIP3   OH216388   4.911   1.197   1.724
 5482TIP3    H116389   4.868   1.114   1.704
 5482TIP3    H216390   5.004   1.180   1.711
 5483TIP3   OH216391   1.755   2.391   0.852
 5483TIP3    H116392   1.810   2.423   0.923
 5483TIP3    H216393   1.811   2.332   0.802
 5484TIP3   OH216394   7.115   6.744   5.032
 5484TIP3    H116395   7.196   6.755   4.983
 5484TIP3    H216396   7.073   6.667   4.992
 5485TIP3   OH216397   7.195   7.465   2.482
 5485TIP3    H116398   7.252   7.511   2.543
 5485TIP3    H216399   7.236   7.477   2.396
 5486TIP3   OH216400   4.888   7.435   2.905
 5486TIP3    H116401   4.878   7.368   2.973
 5486TIP3    H216402   4.873   7.518   2.950
 5487TIP3   OH216403   6.300   2.894   6.646
 5487TIP3    H116404   6.308   2.926   6.556
 5487TIP3    H216405   6.390   2.887   6.677
 5488TIP3   OH216406   5.135   0.018   3.273
 5488TIP3    H116407   5.095   0.052   3.353
 5488TIP3    H216408   5.128  -0.077   3.281
 5489TIP3   OH216409   2.156   7.237   2.629
 5489TIP3    H116410   2.076   7.288   2.638
 5489TIP3    H216411   2.157   7.180   2.706
 5490TIP3   OH216412   0.806   7.011   3.312
 5490TIP3    H116413   0.820   6.927   3.356
 5490TIP3    H216414   0.883   7.023   3.257
 5491TIP3   OH216415   3.451   5.204   1.638
 5491TIP3    H116416   3.473   5.275   1.697
 5491TIP3    H216417   3.398   5.144   1.691
 5492TIP3   OH216418   2.927   6.636   0.585
 5492TIP3    H116419   2.916   6.569   0.652
 5492TIP3    H216420   2.856   6.698   0.601
 5493TIP3   OH216421   4.110   3.150   0.794
 5493TIP3    H116422   4.096   3.129   0.702
 5493TIP3    H216423   4.063   3.081   0.842
 5494TIP3   OH216424   8.221   2.317   0.587
 5494TIP3    H116425   8.235   2.263   0.510
 5494TIP3    H216426   8.261   2.401   0.564
 5495TIP3   OH216427   4.995   0.741   5.106
 5495TIP3    H116428   4.934   0.781   5.169
 5495TIP3    H216429   5.009   0.653   5.139
 5496TIP3   OH216430   1.973   7.463   5.626
 5496TIP3    H116431   1.932   7.442   5.710
 5496TIP3    H216432   1.902   7.497   5.572
 5497TIP3   OH216433   5.792   6.019   4.938
 5497TIP3    H116434   5.830   6.003   4.851
 5497TIP3    H216435   5.868   6.031   4.995
 5498TIP3   OH216436   8.231   5.225   4.184
 5498TIP3    H116437   8.304   5.182   4.230
 5498TIP3    H216438   8.273   5.287   4.125
 5499TIP3   OH216439   7.772   7.384   5.767
 5499TIP3    H116440   7.725   7.423   5.694
 5499TIP3    H216441   7.863   7.411   5.753
 5500TIP3   OH216442   1.328   1.063   0.704
 5500TIP3    H116443   1.350   1.119   0.630
 5500TIP3    H216444   1.368   1.106   0.780
 5501TIP3   OH216445   3.466   1.560   5.481
 5501TIP3    H116446   3.455   1.466   5.470
 5501TIP3    H216447   3.462   1.596   5.392
 5502TIP3   OH216448   7.814   6.850   6.343
 5502TIP3    H116449   7.834   6.836   6.436
 5502TIP3    H216450   7.749   6.920   6.344
 5503TIP3   OH216451   5.750   1.363   0.640
 5503TIP3    H116452   5.810   1.312   0.585
 5503TIP3    H216453   5.719   1.301   0.706
 5504TIP3   OH216454   0.818   7.127   2.428
 5504TIP3    H116455   0.870   7.120   2.348
 5504TIP3    H216456   0.749   7.190   2.406
 5505TIP3   OH216457   6.173   6.674   2.373
 5505TIP3    H116458   6.141   6.729   2.444
 5505TIP3    H216459   6.268   6.686   2.374
 5506TIP3   OH216460   4.913   6.372   5.419
 5506TIP3    H116461   4.819   6.384   5.401
 5506TIP3    H216462   4.945   6.461   5.437
 5507TIP3   OH216463   4.215   0.452   3.452
 5507TIP3    H116464   4.272   0.446   3.375
 5507TIP3    H216465   4.233   0.539   3.488
 5508TIP3   OH216466   2.595   2.374   0.399
 5508TIP3    H116467   2.594   2.353   0.305
 5508TIP3    H216468   2.687   2.392   0.419
 5509TIP3   OH216469   4.788   6.649   0.205
 5509TIP3    H116470   4.693   6.633   0.212
 5509TIP3    H216471   4.822   6.630   0.292
 5510TIP3   OH216472   0.381   5.195   0.802
 5510TIP3    H116473   0.475   5.193   0.818
 5510TIP3    H216474   0.372   5.169   0.710
 5511TIP3   OH216475   7.311   0.328   3.670
 5511TIP3    H116476   7.287   0.241   3.639
 5511TIP3    H216477   7.321   0.318   3.765
 5512TIP3   OH216478   5.951   0.079   3.923
 5512TIP3    H116479   6.026   0.033   3.885
 5512TIP3    H216480   5.990   0.153   3.970
 5513TIP3   OH216481   1.512   2.366   4.435
 5513TIP3    H116482   1.456   2.404   4.367
 5513TIP3    H216483   1.473   2.281   4.454
 5514TIP3   OH216484   2.039   4.925   6.084
 5514TIP3    H116485   1.997   4.847   6.119
 5514TIP3    H216486   1.995   4.998   6.128
 5515TIP3   OH216487   5.242   1.983   4.059
 5515TIP3    H116488   5.268   1.988   4.152
 5515TIP3    H216489   5.193   1.901   4.053
 5516TIP3   OH216490   0.774   2.368   1.365
 5516TIP3    H116491   0.741   2.422   1.292
 5516TIP3    H216492   0.753   2.419   1.443
 5517TIP3   OH216493   6.847   7.039   5.513
 5517TIP3    H116494   6.834   7.093   5.591
 5517TIP3    H216495   6.942   7.038   5.500
 5518TIP3   OH216496   2.939   7.297   0.547
 5518TIP3    H116497   3.001   7.306   0.474
 5518TIP3    H216498   2.946   7.381   0.593
 5519TIP3   OH216499   7.315   5.528   5.246
 5519TIP3    H116500   7.221   5.530   5.230
 5519TIP3    H216501   7.348   5.609   5.207
 5520TIP3   OH216502   2.222   5.671   5.393
 5520TIP3    H116503   2.199   5.694   5.303
 5520TIP3    H216504   2.295   5.728   5.415
 5521TIP3   OH216505   1.557   5.015   0.620
 5521TIP3    H116506   1.575   4.969   0.701
 5521TIP3    H216507   1.479   5.068   0.639
 5522TIP3   OH216508   3.587   7.387   0.667
 5522TIP3    H116509   3.563   7.396   0.575
 5522TIP3    H216510   3.564   7.471   0.706
 5523TIP3   OH216511   1.628   6.563   5.642
 5523TIP3    H116512   1.682   6.641   5.630
 5523TIP3    H216513   1.639   6.514   5.561
 5524TIP3   OH216514   2.431   5.045   4.815
 5524TIP3    H116515   2.384   5.084   4.889
 5524TIP3    H216516   2.523   5.053   4.838
 5525TIP3   OH216517   1.198   5.974   5.973
 5525TIP3    H116518   1.202   6.059   5.929
 5525TIP3    H216519   1.287   5.961   6.007
 5526TIP3   OH216520   4.123   4.782   1.654
 5526TIP3    H116521   4.180   4.771   1.730
 5526TIP3    H216522   4.048   4.831   1.686
 5527TIP3   OH216523   4.294   0.190   3.182
 5527TIP3    H116524   4.328   0.278   3.169
 5527TIP3    H216525   4.364   0.144   3.229
 5528TIP3   OH216526   7.788   0.915   0.714
 5528TIP3    H116527   7.732   0.974   0.765
 5528TIP3    H216528   7.737   0.896   0.635
 5529TIP3   OH216529   4.523   6.341   4.911
 5529TIP3    H116530   4.498   6.257   4.873
 5529TIP3    H216531   4.581   6.318   4.984
 5530TIP3   OH216532   1.397   2.386   1.707
 5530TIP3    H116533   1.397   2.314   1.770
 5530TIP3    H216534   1.470   2.366   1.647
 5531TIP3   OH216535   5.110   5.370   5.805
 5531TIP3    H116536   5.131   5.456   5.841
 5531TIP3    H216537   5.077   5.388   5.717
 5532TIP3   OH216538   0.224   6.890   3.737
 5532TIP3    H116539   0.248   6.884   3.644
 5532TIP3    H216540   0.136   6.851   3.740
 5533TIP3   OH216541   3.065   4.127   3.184
 5533TIP3    H116542   2.975   4.144   3.212
 5533TIP3    H216543   3.057   4.103   3.092
 5534TIP3   OH216544   4.090   6.352   0.863
 5534TIP3    H116545   4.155   6.419   0.842
 5534TIP3    H216546   4.126   6.271   0.828
 5535TIP3   OH216547   5.885   0.741   0.352
 5535TIP3    H116548   5.837   0.665   0.387
 5535TIP3    H216549   5.975   0.710   0.342
 5536TIP3   OH216550   7.266   1.106   0.317
 5536TIP3    H116551   7.343   1.147   0.278
 5536TIP3    H216552   7.294   1.017   0.337
 5537TIP3   OH216553   6.735   7.567   3.223
 5537TIP3    H116554   6.666   7.501   3.214
 5537TIP3    H216555   6.691   7.650   3.203
 5538TIP3   OH216556   1.571   1.100   3.089
 5538TIP3    H116557   1.493   1.132   3.133
 5538TIP3    H216558   1.591   1.017   3.133
 5539TIP3   OH216559   4.536   0.798   3.866
 5539TIP3    H116560   4.529   0.731   3.798
 5539TIP3    H216561   4.495   0.876   3.827
 5540TIP3   OH216562   3.258   1.470   2.427
 5540TIP3    H116563   3.283   1.451   2.336
 5540TIP3    H216564   3.340   1.493   2.470
 5541TIP3   OH216565   7.885   7.663   0.443
 5541TIP3    H116566   7.920   7.584   0.403
 5541TIP3    H216567   7.857   7.636   0.530
 5542TIP3   OH216568   5.649   2.051   6.294
 5542TIP3    H116569   5.738   2.043   6.260
 5542TIP3    H216570   5.607   1.968   6.270
 5543TIP3   OH216571   2.687   1.950   6.615
 5543TIP3    H116572   2.629   1.985   6.682
 5543TIP3    H216573   2.636   1.956   6.534
 5544TIP3   OH216574   7.121   4.026   1.511
 5544TIP3    H116575   7.077   3.953   1.555
 5544TIP3    H216576   7.206   4.032   1.555
 5545TIP3   OH216577   2.014   4.062   2.746
 5545TIP3    H116578   2.026   4.145   2.792
 5545TIP3    H216579   1.951   4.014   2.799
 5546TIP3   OH216580   2.578   2.926   0.879
 5546TIP3    H116581   2.642   2.976   0.929
 5546TIP3    H216582   2.539   2.866   0.942
 5547TIP3   OH216583   1.469   2.889   6.432
 5547TIP3    H116584   1.505   2.801   6.423
 5547TIP3    H216585   1.466   2.923   6.343
 5548TIP3   OH216586   2.570   6.459   0.321
 5548TIP3    H116587   2.659   6.441   0.350
 5548TIP3    H216588   2.530   6.372   0.313
 5549TIP3   OH216589   6.398   5.741   2.316
 5549TIP3    H116590   6.437   5.681   2.379
 5549TIP3    H216591   6.456   5.737   2.240
 5550TIP3   OH216592   3.980   0.479   2.702
 5550TIP3    H116593   3.953   0.485   2.610
 5550TIP3    H216594   4.075   0.476   2.700
 5551TIP3   OH216595   2.596   6.844   5.883
 5551TIP3    H116596   2.550   6.879   5.958
 5551TIP3    H216597   2.616   6.921   5.829
 5552TIP3   OH216598   5.695   0.163   5.504
 5552TIP3    H116599   5.713   0.241   5.555
 5552TIP3    H216600   5.601   0.148   5.516
 5553TIP3   OH216601   6.786   2.272   5.070
 5553TIP3    H116602   6.704   2.321   5.067
 5553TIP3    H216603   6.760   2.180   5.067
 5554TIP3   OH216604   7.723   1.285   5.043
 5554TIP3    H116605   7.702   1.378   5.034
 5554TIP3    H216606   7.662   1.252   5.109
 5555TIP3   OH216607   0.177   6.494   0.457
 5555TIP3    H116608   0.208   6.579   0.426
 5555TIP3    H216609   0.172   6.503   0.552
 5556TIP3   OH216610   6.910   2.812   0.330
 5556TIP3    H116611   6.892   2.863   0.409
 5556TIP3    H216612   6.961   2.736   0.361
 5557TIP3   OH216613  -0.035   0.460   4.125
 5557TIP3    H116614  -0.007   0.435   4.037
 5557TIP3    H216615   0.026   0.529   4.151
 5558TIP3   OH216616   6.768   6.001   2.304
 5558TIP3    H116617   6.706   6.053   2.355
 5558TIP3    H216618   6.785   5.924   2.358
 5559TIP3   OH216619   6.263   4.421   1.488
 5559TIP3    H116620   6.172   4.394   1.480
 5559TIP3    H216621   6.277   4.433   1.582
 5560TIP3   OH216622   4.144   6.741   3.301
 5560TIP3    H116623   4.190   6.659   3.316
 5560TIP3    H216624   4.065   6.717   3.253
 5561TIP3   OH216625   5.181   6.031   6.360
 5561TIP3    H116626   5.243   5.971   6.318
 5561TIP3    H216627   5.176   6.001   6.450
 5562TIP3   OH216628   0.375   2.758   0.757
 5562TIP3    H116629   0.339   2.748   0.845
 5562TIP3    H216630   0.432   2.683   0.744
 5563TIP3   OH216631   0.891   3.640   3.997
 5563TIP3    H116632   0.922   3.642   4.088
 5563TIP3    H216633   0.814   3.583   3.999
 5564TIP3   OH216634   1.440   0.523   4.236
 5564TIP3    H116635   1.421   0.529   4.330
 5564TIP3    H216636   1.355   0.533   4.194
 5565TIP3   OH216637   6.768   4.233   6.135
 5565TIP3    H116638   6.846   4.229   6.191
 5565TIP3    H216639   6.754   4.327   6.121
 5566TIP3   OH216640   7.817   6.256   1.832
 5566TIP3    H116641   7.738   6.251   1.779
 5566TIP3    H216642   7.835   6.166   1.857
 5567TIP3   OH216643   4.048   6.056   2.091
 5567TIP3    H116644   4.112   6.107   2.140
 5567TIP3    H216645   3.963   6.081   2.129
 5568TIP3   OH216646   7.871   4.539   5.332
 5568TIP3    H116647   7.783   4.572   5.346
 5568TIP3    H216648   7.860   4.464   5.273
 5569TIP3   OH216649   0.994   7.262   6.598
 5569TIP3    H116650   0.979   7.252   6.692
 5569TIP3    H216651   0.907   7.256   6.559
 5570TIP3   OH216652   7.260   3.916   3.599
 5570TIP3    H116653   7.341   3.941   3.643
 5570TIP3    H216654   7.246   3.985   3.534
 5571TIP3   OH216655   2.607   1.130   3.301
 5571TIP3    H116656   2.629   1.072   3.374
 5571TIP3    H216657   2.683   1.186   3.290
 5572TIP3   OH216658   5.404   1.077   1.610
 5572TIP3    H116659   5.364   1.093   1.525
 5572TIP3    H216660   5.486   1.033   1.590
 5573TIP3   OH216661   3.589   1.475   1.635
 5573TIP3    H116662   3.530   1.514   1.699
 5573TIP3    H216663   3.619   1.394   1.676
 5574TIP3   OH216664   1.128   7.617   0.873
 5574TIP3    H116665   1.190   7.545   0.881
 5574TIP3    H216666   1.135   7.643   0.781
 5575TIP3   OH216667   4.067   1.688   2.182
 5575TIP3    H116668   3.990   1.663   2.234
 5575TIP3    H216669   4.040   1.671   2.091
 5576TIP3   OH216670   5.871   5.897   4.374
 5576TIP3    H116671   5.864   5.992   4.363
 5576TIP3    H216672   5.787   5.871   4.413
 5577TIP3   OH216673   7.610   3.478   1.052
 5577TIP3    H116674   7.641   3.565   1.027
 5577TIP3    H216675   7.686   3.436   1.093
 5578TIP3   OH216676   3.416   7.400   4.617
 5578TIP3    H116677   3.379   7.473   4.666
 5578TIP3    H216678   3.369   7.401   4.534
 5579TIP3   OH216679   3.709   4.918   4.816
 5579TIP3    H116680   3.672   4.980   4.879
 5579TIP3    H216681   3.633   4.884   4.769
 5580TIP3   OH216682   1.074   1.855   2.823
 5580TIP3    H116683   1.124   1.856   2.742
 5580TIP3    H216684   0.987   1.823   2.798
 5581TIP3   OH216685   3.586   7.398   2.513
 5581TIP3    H116686   3.624   7.483   2.493
 5581TIP3    H216687   3.658   7.347   2.550
 5582TIP3   OH216688   8.193   7.313   0.181
 5582TIP3    H116689   8.224   7.226   0.207
 5582TIP3    H216690   8.254   7.374   0.222
 5583TIP3   OH216691   3.074   1.199   4.362
 5583TIP3    H116692   2.983   1.226   4.373
 5583TIP3    H216693   3.099   1.160   4.446
 5584TIP3   OH216694   2.319   2.445   3.121
 5584TIP3    H116695   2.314   2.448   3.025
 5584TIP3    H216696   2.399   2.493   3.143
 5585TIP3   OH216697   3.706   6.324   2.435
 5585TIP3    H116698   3.799   6.303   2.426
 5585TIP3    H216699   3.662   6.260   2.378
 5586TIP3   OH216700   3.827   7.201   4.939
 5586TIP3    H116701   3.744   7.226   4.899
 5586TIP3    H216702   3.808   7.119   4.985
 5587TIP3   OH216703   6.367   6.144   4.453
 5587TIP3    H116704   6.347   6.059   4.413
 5587TIP3    H216705   6.457   6.133   4.486
 5588TIP3   OH216706   3.501   4.372   0.070
 5588TIP3    H116707   3.506   4.452   0.122
 5588TIP3    H216708   3.408   4.356   0.059
 5589TIP3   OH216709   6.834   2.526   4.930
 5589TIP3    H116710   6.797   2.571   5.006
 5589TIP3    H216711   6.789   2.442   4.928
 5590TIP3   OH216712   3.656   4.187   2.799
 5590TIP3    H116713   3.727   4.251   2.810
 5590TIP3    H216714   3.701   4.103   2.791
 5591TIP3   OH216715   5.458   3.274   1.317
 5591TIP3    H116716   5.386   3.212   1.301
 5591TIP3    H216717   5.532   3.219   1.341
 5592TIP3   OH216718   8.336   6.198   2.299
 5592TIP3    H116719   8.272   6.128   2.297
 5592TIP3    H216720   8.328   6.240   2.213
 5593TIP3   OH216721   6.661   1.527   5.776
 5593TIP3    H116722   6.571   1.549   5.754
 5593TIP3    H216723   6.655   1.442   5.821
 5594TIP3   OH216724   6.692   1.788   2.742
 5594TIP3    H116725   6.720   1.697   2.732
 5594TIP3    H216726   6.597   1.783   2.749
 5595TIP3   OH216727   8.050   1.799   6.049
 5595TIP3    H116728   7.990   1.803   5.975
 5595TIP3    H216729   8.134   1.774   6.011
 5596TIP3   OH216730   6.443   0.615   2.350
 5596TIP3    H116731   6.518   0.600   2.293
 5596TIP3    H216732   6.478   0.670   2.420
 5597TIP3   OH216733   3.397   0.764   6.273
 5597TIP3    H116734   3.329   0.720   6.222
 5597TIP3    H216735   3.437   0.695   6.326
 5598TIP3   OH216736   4.137   3.682   5.480
 5598TIP3    H116737   4.134   3.720   5.392
 5598TIP3    H216738   4.159   3.590   5.466
 5599TIP3   OH216739   4.457   4.722   3.908
 5599TIP3    H116740   4.370   4.689   3.930
 5599TIP3    H216741   4.454   4.737   3.813
 5600TIP3   OH216742   4.584   4.285   4.956
 5600TIP3    H116743   4.644   4.212   4.963
 5600TIP3    H216744   4.565   4.309   5.047
 5601TIP3   OH216745   4.215   0.227   4.179
 5601TIP3    H116746   4.252   0.216   4.267
 5601TIP3    H216747   4.183   0.317   4.177
 5602TIP3   OH216748   2.381   2.884   2.316
 5602TIP3    H116749   2.348   2.883   2.406
 5602TIP3    H216750   2.472   2.855   2.324
 5603TIP3   OH216751   0.586   6.890   5.871
 5603TIP3    H116752   0.589   6.889   5.775
 5603TIP3    H216753   0.507   6.840   5.894
 5604TIP3   OH216754   4.985   2.079   2.351
 5604TIP3    H116755   5.063   2.124   2.320
 5604TIP3    H216756   4.953   2.030   2.275
 5605TIP3   OH216757   6.063   2.020   3.472
 5605TIP3    H116758   5.985   2.073   3.488
 5605TIP3    H216759   6.136   2.082   3.480
 5606TIP3   OH216760   6.172   2.889   1.679
 5606TIP3    H116761   6.224   2.957   1.635
 5606TIP3    H216762   6.222   2.809   1.667
 5607TIP3   OH216763   0.614   2.908   2.176
 5607TIP3    H116764   0.568   2.860   2.108
 5607TIP3    H216765   0.548   2.968   2.212
 5608TIP3   OH216766   2.869   1.010   0.546
 5608TIP3    H116767   2.884   1.024   0.452
 5608TIP3    H216768   2.944   0.959   0.575
 5609TIP3   OH216769   4.769   6.795   4.026
 5609TIP3    H116770   4.827   6.849   4.081
 5609TIP3    H216771   4.752   6.717   4.079
 5610TIP3   OH216772   1.448   4.121   0.045
 5610TIP3    H116773   1.383   4.058   0.077
 5610TIP3    H216774   1.529   4.097   0.090
 5611TIP3   OH216775   0.258   1.058   3.591
 5611TIP3    H116776   0.327   1.123   3.602
 5611TIP3    H216777   0.297   0.976   3.624
 5612TIP3   OH216778   7.869   1.528   0.807
 5612TIP3    H116779   7.798   1.528   0.743
 5612TIP3    H216780   7.831   1.566   0.886
 5613TIP3   OH216781   5.092   2.970   0.169
 5613TIP3    H116782   5.165   2.977   0.230
 5613TIP3    H216783   5.026   2.920   0.216
 5614TIP3   OH216784   4.630   5.897   1.584
 5614TIP3    H116785   4.646   5.988   1.557
 5614TIP3    H216786   4.686   5.884   1.660
 5615TIP3   OH216787   7.744   1.622   1.049
 5615TIP3    H116788   7.653   1.603   1.071
 5615TIP3    H216789   7.795   1.560   1.101
 5616TIP3   OH216790   7.811   1.372   0.142
 5616TIP3    H116791   7.771   1.386   0.228
 5616TIP3    H216792   7.861   1.291   0.153
 5617TIP3   OH216793   0.989   1.354   3.572
 5617TIP3    H116794   1.070   1.343   3.523
 5617TIP3    H216795   0.921   1.360   3.504
 5618TIP3   OH216796   8.049   7.206   1.278
 5618TIP3    H116797   8.055   7.173   1.367
 5618TIP3    H216798   8.137   7.239   1.259
 5619TIP3   OH216799   1.565   1.038   4.037
 5619TIP3    H116800   1.607   1.044   3.951
 5619TIP3    H216801   1.618   0.975   4.085
 5620TIP3   OH216802   5.036   5.023   3.911
 5620TIP3    H116803   4.951   5.057   3.936
 5620TIP3    H216804   5.099   5.075   3.961
 5621TIP3   OH216805   6.535   1.366   4.543
 5621TIP3    H116806   6.590   1.328   4.612
 5621TIP3    H216807   6.575   1.451   4.524
 5622TIP3   OH216808   4.391   7.663   2.199
 5622TIP3    H116809   4.385   7.695   2.109
 5622TIP3    H216810   4.481   7.682   2.225
 5623TIP3   OH216811   0.918   3.460   5.117
 5623TIP3    H116812   0.851   3.466   5.185
 5623TIP3    H216813   0.893   3.525   5.052
 5624TIP3   OH216814   6.782   4.689   2.527
 5624TIP3    H116815   6.740   4.630   2.464
 5624TIP3    H216816   6.763   4.776   2.494
 5625TIP3   OH216817   2.950   0.422   1.326
 5625TIP3    H116818   3.005   0.487   1.370
 5625TIP3    H216819   3.003   0.343   1.323
 5626TIP3   OH216820   3.972   3.627   0.729
 5626TIP3    H116821   3.884   3.649   0.760
 5626TIP3    H216822   4.019   3.710   0.727
 5627TIP3   OH216823   6.824   6.832   6.442
 5627TIP3    H116824   6.908   6.851   6.398
 5627TIP3    H216825   6.766   6.804   6.372
 5628TIP3   OH216826   6.672   1.407   1.312
 5628TIP3    H116827   6.738   1.461   1.269
 5628TIP3    H216828   6.592   1.422   1.261
 5629TIP3   OH216829   0.684   6.183   2.696
 5629TIP3    H116830   0.667   6.192   2.602
 5629TIP3    H216831   0.597   6.185   2.737
 5630TIP3   OH216832   0.403   4.069   3.140
 5630TIP3    H116833   0.337   4.102   3.079
 5630TIP3    H216834   0.356   4.056   3.222
 5631TIP3   OH216835   7.871   3.620   3.509
 5631TIP3    H116836   7.863   3.603   3.603
 5631TIP3    H216837   7.893   3.535   3.471
 5632TIP3   OH216838   0.865   3.998   1.074
 5632TIP3    H116839   0.925   3.954   1.014
 5632TIP3    H216840   0.833   3.927   1.131
 5633TIP3   OH216841   7.306   2.949   5.143
 5633TIP3    H116842   7.352   2.938   5.060
 5633TIP3    H216843   7.279   2.861   5.167
 5634TIP3   OH216844   1.231   3.234   0.443
 5634TIP3    H116845   1.165   3.171   0.416
 5634TIP3    H216846   1.303   3.221   0.380
 5635TIP3   OH216847   5.934   1.926   3.135
 5635TIP3    H116848   5.934   1.855   3.199
 5635TIP3    H216849   5.896   2.001   3.181
 5636TIP3   OH216850   3.114   1.526   3.624
 5636TIP3    H116851   3.093   1.457   3.561
 5636TIP3    H216852   3.187   1.491   3.675
 5637TIP3   OH216853   4.237   5.939   3.861
 5637TIP3    H116854   4.219   5.865   3.919
 5637TIP3    H216855   4.276   5.899   3.783
 5638TIP3   OH216856   1.091   7.496   2.000
 5638TIP3    H116857   1.100   7.406   1.969
 5638TIP3    H216858   1.135   7.549   1.933
 5639TIP3   OH216859   1.927   7.713   6.650
 5639TIP3    H116860   1.855   7.774   6.662
 5639TIP3    H216861   1.963   7.734   6.564
 5640TIP3   OH216862   0.683   4.017   0.831
 5640TIP3    H116863   0.688   3.998   0.925
 5640TIP3    H216864   0.618   3.955   0.798
 5641TIP3   OH216865   2.680   7.523   0.673
 5641TIP3    H116866   2.742   7.548   0.605
 5641TIP3    H216867   2.677   7.598   0.733
 5642TIP3   OH216868   5.070   6.229   0.380
 5642TIP3    H116869   5.127   6.195   0.310
 5642TIP3    H216870   5.001   6.276   0.333
 5643TIP3   OH216871   3.700   7.198   3.330
 5643TIP3    H116872   3.694   7.273   3.271
 5643TIP3    H216873   3.623   7.206   3.386
 5644TIP3   OH216874   2.431   0.121   0.399
 5644TIP3    H116875   2.463   0.101   0.311
 5644TIP3    H216876   2.435   0.037   0.445
 5645TIP3   OH216877   6.424   7.584   3.322
 5645TIP3    H116878   6.419   7.544   3.409
 5645TIP3    H216879   6.363   7.657   3.326
 5646TIP3   OH216880   4.036   5.439   4.625
 5646TIP3    H116881   4.010   5.374   4.560
 5646TIP3    H216882   4.069   5.512   4.573
 5647TIP3   OH216883   0.956   6.170   3.182
 5647TIP3    H116884   0.871   6.143   3.216
 5647TIP3    H216885   0.993   6.091   3.142
 5648TIP3   OH216886   8.066   4.476   5.591
 5648TIP3    H116887   8.067   4.544   5.659
 5648TIP3    H216888   8.013   4.513   5.521
 5649TIP3   OH216889   5.320   7.667   2.520
 5649TIP3    H116890   5.349   7.752   2.554
 5649TIP3    H216891   5.228   7.660   2.546
 5650TIP3   OH216892   3.294   1.825   2.366
 5650TIP3    H116893   3.244   1.798   2.442
 5650TIP3    H216894   3.341   1.904   2.395
 5651TIP3   OH216895   2.755   7.185   5.555
 5651TIP3    H116896   2.666   7.218   5.544
 5651TIP3    H216897   2.783   7.163   5.466
 5652TIP3   OH216898   4.485   0.434   4.702
 5652TIP3    H116899   4.562   0.376   4.707
 5652TIP3    H216900   4.460   0.431   4.610
 5653TIP3   OH216901   3.955   0.696   0.355
 5653TIP3    H116902   3.944   0.742   0.271
 5653TIP3    H216903   3.899   0.618   0.348
 5654TIP3   OH216904   2.517   3.848   2.314
 5654TIP3    H116905   2.519   3.910   2.242
 5654TIP3    H216906   2.487   3.899   2.389
 5655TIP3   OH216907   0.729   2.109   1.541
 5655TIP3    H116908   0.789   2.178   1.513
 5655TIP3    H216909   0.643   2.151   1.541
 5656TIP3   OH216910   6.153   3.046   3.646
 5656TIP3    H116911   6.068   3.029   3.607
 5656TIP3    H216912   6.133   3.075   3.736
 5657TIP3   OH216913   2.702   6.347   5.002
 5657TIP3    H116914   2.658   6.421   4.959
 5657TIP3    H216915   2.765   6.316   4.937
 5658TIP3   OH216916   3.111   6.936   6.746
 5658TIP3    H116917   3.189   6.881   6.738
 5658TIP3    H216918   3.106   6.982   6.662
 5659TIP3   OH216919   3.864   2.133   2.788
 5659TIP3    H116920   3.786   2.085   2.760
 5659TIP3    H216921   3.839   2.173   2.871
 5660TIP3   OH216922   0.247   4.736   4.432
 5660TIP3    H116923   0.234   4.666   4.497
 5660TIP3    H216924   0.205   4.702   4.353
 5661TIP3   OH216925   7.276   4.165   2.941
 5661TIP3    H116926   7.331   4.236   2.908
 5661TIP3    H216927   7.335   4.114   2.997
 5662TIP3   OH216928   0.064   3.933   0.059
 5662TIP3    H116929  -0.018   3.970   0.093
 5662TIP3    H216930   0.040   3.899  -0.027
 5663TIP3   OH216931   5.573   0.586   3.228
 5663TIP3    H116932   5.531   0.522   3.171
 5663TIP3    H216933   5.662   0.595   3.192
 5664TIP3   OH216934   2.689   5.790   5.444
 5664TIP3    H116935   2.668   5.703   5.477
 5664TIP3    H216936   2.781   5.802   5.464
 5665TIP3   OH216937   6.542   3.436   5.857
 5665TIP3    H116938   6.481   3.378   5.810
 5665TIP3    H216939   6.510   3.524   5.838
 5666TIP3   OH216940   4.555   1.739   2.191
 5666TIP3    H116941   4.594   1.727   2.105
 5666TIP3    H216942   4.625   1.719   2.253
 5667TIP3   OH216943   0.499   4.149   5.266
 5667TIP3    H116944   0.439   4.117   5.332
 5667TIP3    H216945   0.585   4.149   5.309
 5668TIP3   OH216946   8.173   4.385   1.677
 5668TIP3    H116947   8.248   4.385   1.737
 5668TIP3    H216948   8.124   4.307   1.700
 5669TIP3   OH216949   1.932   6.313   6.217
 5669TIP3    H116950   1.983   6.232   6.217
 5669TIP3    H216951   1.879   6.308   6.137
 5670TIP3   OH216952   7.031   2.594   1.161
 5670TIP3    H116953   7.057   2.682   1.189
 5670TIP3    H216954   7.046   2.539   1.238
 5671TIP3   OH216955   2.870   5.029   4.659
 5671TIP3    H116956   2.928   5.001   4.729
 5671TIP3    H216957   2.915   5.002   4.579
 5672TIP3   OH216958   5.676   5.963   5.174
 5672TIP3    H116959   5.594   5.923   5.145
 5672TIP3    H216960   5.715   5.998   5.094
 5673TIP3   OH216961   1.813   1.041   1.380
 5673TIP3    H116962   1.859   1.040   1.464
 5673TIP3    H216963   1.743   1.104   1.392
 5674TIP3   OH216964   3.506   4.437   2.059
 5674TIP3    H116965   3.580   4.391   2.020
 5674TIP3    H216966   3.497   4.401   2.147
 5675TIP3   OH216967   5.587   6.234   0.350
 5675TIP3    H116968   5.638   6.164   0.309
 5675TIP3    H216969   5.651   6.288   0.396
 5676TIP3   OH216970   0.336   4.267   2.542
 5676TIP3    H116971   0.427   4.284   2.567
 5676TIP3    H216972   0.343   4.208   2.467
 5677TIP3   OH216973   3.451   1.905   1.480
 5677TIP3    H116974   3.361   1.936   1.471
 5677TIP3    H216975   3.457   1.876   1.571
 5678TIP3   OH216976   4.674   3.051   2.415
 5678TIP3    H116977   4.599   3.046   2.475
 5678TIP3    H216978   4.706   2.961   2.409
 5679TIP3   OH216979   4.630   7.110   5.902
 5679TIP3    H116980   4.643   7.043   5.834
 5679TIP3    H216981   4.713   7.113   5.948
 5680TIP3   OH216982   3.390   1.678   4.872
 5680TIP3    H116983   3.369   1.586   4.859
 5680TIP3    H216984   3.472   1.677   4.921
 5681TIP3   OH216985   6.825   4.719   2.890
 5681TIP3    H116986   6.914   4.753   2.878
 5681TIP3    H216987   6.771   4.797   2.902
 5682TIP3   OH216988   7.228   0.568   0.866
 5682TIP3    H116989   7.143   0.524   0.858
 5682TIP3    H216990   7.225   0.637   0.800
 5683TIP3   OH216991   0.240   6.237   5.461
 5683TIP3    H116992   0.157   6.263   5.500
 5683TIP3    H216993   0.276   6.173   5.522
 5684TIP3   OH216994   1.839   2.366   6.116
 5684TIP3    H116995   1.862   2.274   6.127
 5684TIP3    H216996   1.836   2.401   6.206
 5685TIP3   OH216997   2.838   6.120   3.460
 5685TIP3    H116998   2.801   6.190   3.514
 5685TIP3    H216999   2.897   6.073   3.520
 5686TIP3   OH217000   1.073   4.129   5.376
 5686TIP3    H117001   1.050   4.043   5.411
 5686TIP3    H217002   1.102   4.111   5.287
 5687TIP3   OH217003   5.182   6.954   0.707
 5687TIP3    H117004   5.130   6.894   0.654
 5687TIP3    H217005   5.118   7.013   0.747
 5688TIP3   OH217006   0.212   7.823   1.494
 5688TIP3    H117007   0.136   7.853   1.543
 5688TIP3    H217008   0.224   7.732   1.521
 5689TIP3   OH217009   6.593   6.806   1.331
 5689TIP3    H117010   6.541   6.860   1.390
 5689TIP3    H217011   6.529   6.768   1.271
 5690TIP3   OH217012   2.266   1.644   3.248
 5690TIP3    H117013   2.326   1.696   3.301
 5690TIP3    H217014   2.187   1.636   3.301
 5691TIP3   OH217015   3.341   0.480   2.453
 5691TIP3    H117016   3.271   0.525   2.500
 5691TIP3    H217017   3.409   0.464   2.518
 5692TIP3   OH217018   0.095   0.855   0.525
 5692TIP3    H117019   0.112   0.899   0.442
 5692TIP3    H217020   0.054   0.922   0.580
 5693TIP3   OH217021   1.433   5.907   6.095
 5693TIP3    H117022   1.459   5.842   6.159
 5693TIP3    H217023   1.514   5.934   6.053
 5694TIP3   OH217024   7.750   5.099   5.354
 5694TIP3    H117025   7.682   5.104   5.287
 5694TIP3    H217026   7.816   5.162   5.324
 5695TIP3   OH217027   5.893   2.011   1.599
 5695TIP3    H117028   5.823   1.952   1.571
 5695TIP3    H217029   5.972   1.956   1.595
 5696TIP3   OH217030   1.678   2.955   4.645
 5696TIP3    H117031   1.706   2.874   4.603
 5696TIP3    H217032   1.754   2.983   4.696
 5697TIP3   OH217033   0.376   3.967   3.411
 5697TIP3    H117034   0.286   3.988   3.436
 5697TIP3    H217035   0.426   3.980   3.491
 5698TIP3   OH217036   7.235   0.627   0.349
 5698TIP3    H117037   7.187   0.656   0.427
 5698TIP3    H217038   7.272   0.543   0.374
 5699TIP3   OH217039   6.460   0.655   4.421
 5699TIP3    H117040   6.446   0.560   4.414
 5699TIP3    H217041   6.413   0.680   4.500
 5700TIP3   OH217042   4.851   3.845   2.425
 5700TIP3    H117043   4.876   3.920   2.479
 5700TIP3    H217044   4.868   3.769   2.481
 5701TIP3   OH217045   2.462   2.428   3.392
 5701TIP3    H117046   2.522   2.403   3.463
 5701TIP3    H217047   2.375   2.414   3.428
 5702TIP3   OH217048   5.326   1.332   1.442
 5702TIP3    H117049   5.372   1.349   1.360
 5702TIP3    H217050   5.351   1.405   1.499
 5703TIP3   OH217051   7.862   3.675   0.705
 5703TIP3    H117052   7.868   3.768   0.684
 5703TIP3    H217053   7.778   3.666   0.751
 5704TIP3   OH217054   8.176   3.862   0.449
 5704TIP3    H117055   8.208   3.934   0.396
 5704TIP3    H217056   8.254   3.810   0.470
 5705TIP3   OH217057   2.190   6.398   5.827
 5705TIP3    H117058   2.195   6.439   5.913
 5705TIP3    H217059   2.099   6.371   5.817
 5706TIP3   OH217060   6.932   4.233   1.687
 5706TIP3    H117061   6.951   4.327   1.681
 5706TIP3    H217062   7.013   4.190   1.661
 5707TIP3   OH217063   5.392   3.756   3.446
 5707TIP3    H117064   5.304   3.751   3.408
 5707TIP3    H217065   5.393   3.837   3.496
 5708TIP3   OH217066   3.198   5.460   3.775
 5708TIP3    H117067   3.203   5.364   3.784
 5708TIP3    H217068   3.129   5.474   3.711
 5709TIP3   OH217069   7.226   3.218   5.954
 5709TIP3    H117070   7.182   3.255   5.877
 5709TIP3    H217071   7.311   3.191   5.922
 5710TIP3   OH217072   7.696   3.164   0.434
 5710TIP3    H117073   7.626   3.186   0.373
 5710TIP3    H217074   7.654   3.107   0.499
 5711TIP3   OH217075   4.982   2.855   1.685
 5711TIP3    H117076   4.947   2.937   1.721
 5711TIP3    H217077   4.995   2.874   1.592
 5712TIP3   OH217078   3.011   3.794   0.906
 5712TIP3    H117079   2.979   3.708   0.877
 5712TIP3    H217080   3.054   3.777   0.990
 5713TIP3   OH217081   7.859   4.514   0.342
 5713TIP3    H117082   7.861   4.528   0.436
 5713TIP3    H217083   7.902   4.430   0.329
 5714TIP3   OH217084   0.524   6.310   6.220
 5714TIP3    H117085   0.560   6.393   6.251
 5714TIP3    H217086   0.458   6.336   6.156
 5715TIP3   OH217087   5.943   2.280   4.061
 5715TIP3    H117088   5.945   2.256   3.969
 5715TIP3    H217089   6.035   2.293   4.085
 5716TIP3   OH217090   0.035   4.056   0.678
 5716TIP3    H117091  -0.034   4.000   0.714
 5716TIP3    H217092   0.102   4.058   0.747
 5717TIP3   OH217093   0.678   6.902   2.638
 5717TIP3    H117094   0.649   6.825   2.588
 5717TIP3    H217095   0.766   6.880   2.667
 5718TIP3   OH217096   7.938   4.743   4.206
 5718TIP3    H117097   7.871   4.701   4.152
 5718TIP3    H217098   7.989   4.795   4.144
 5719TIP3   OH217099   2.754   3.599   1.823
 5719TIP3    H117100   2.794   3.655   1.890
 5719TIP3    H217101   2.828   3.549   1.787
 5720TIP3   OH217102   6.438   0.806   2.630
 5720TIP3    H117103   6.459   0.871   2.698
 5720TIP3    H217104   6.347   0.781   2.649
 5721TIP3   OH217105   1.661   6.853   5.872
 5721TIP3    H117106   1.716   6.781   5.902
 5721TIP3    H217107   1.586   6.853   5.932
 5722TIP3   OH217108   5.759   5.779   1.044
 5722TIP3    H117109   5.814   5.721   0.992
 5722TIP3    H217110   5.821   5.836   1.090
 5723TIP3   OH217111   0.446   6.756   1.472
 5723TIP3    H117112   0.389   6.800   1.410
 5723TIP3    H217113   0.438   6.663   1.452
 5724TIP3   OH217114   3.304   0.321   0.192
 5724TIP3    H117115   3.390   0.304   0.154
 5724TIP3    H217116   3.261   0.379   0.130
 5725TIP3   OH217117   7.651   0.255   3.962
 5725TIP3    H117118   7.671   0.349   3.964
 5725TIP3    H217119   7.681   0.223   4.047
 5726TIP3   OH217120   0.992   6.705   1.426
 5726TIP3    H117121   1.076   6.744   1.452
 5726TIP3    H217122   0.926   6.766   1.459
 5727TIP3   OH217123   4.420   6.754   1.422
 5727TIP3    H117124   4.462   6.826   1.375
 5727TIP3    H217125   4.331   6.786   1.439
 5728TIP3   OH217126   6.628   3.445   2.923
 5728TIP3    H117127   6.708   3.454   2.975
 5728TIP3    H217128   6.658   3.438   2.833
 5729TIP3   OH217129   7.819   2.795   1.022
 5729TIP3    H117130   7.856   2.848   0.951
 5729TIP3    H217131   7.724   2.804   1.012
 5730TIP3   OH217132   5.073  -0.004   2.769
 5730TIP3    H117133   5.065   0.050   2.847
 5730TIP3    H217134   5.025   0.043   2.702
 5731TIP3   OH217135   7.328   0.864   6.551
 5731TIP3    H117136   7.415   0.880   6.513
 5731TIP3    H217137   7.321   0.769   6.558
 5732TIP3   OH217138   7.646   0.950   1.416
 5732TIP3    H117139   7.578   0.921   1.477
 5732TIP3    H217140   7.684   0.869   1.383
 5733TIP3   OH217141   7.548   3.212   4.972
 5733TIP3    H117142   7.496   3.282   5.012
 5733TIP3    H217143   7.483   3.153   4.934
 5734TIP3   OH217144   3.587   3.732   3.719
 5734TIP3    H117145   3.537   3.778   3.786
 5734TIP3    H217146   3.550   3.762   3.636
 5735TIP3   OH217147   0.983   1.922   5.809
 5735TIP3    H117148   0.948   1.982   5.874
 5735TIP3    H217149   1.065   1.963   5.780
 5736TIP3   OH217150   5.378   2.462   1.401
 5736TIP3    H117151   5.433   2.386   1.418
 5736TIP3    H217152   5.339   2.483   1.486
 5737TIP3   OH217153   4.750   6.999   0.860
 5737TIP3    H117154   4.725   7.091   0.853
 5737TIP3    H217155   4.708   6.956   0.786
 5738TIP3   OH217156   3.044   1.999   4.772
 5738TIP3    H117157   2.985   1.942   4.723
 5738TIP3    H217158   2.995   2.024   4.850
 5739TIP3   OH217159   5.228   4.622   3.836
 5739TIP3    H117160   5.195   4.630   3.926
 5739TIP3    H217161   5.255   4.710   3.813
 5740TIP3   OH217162   5.374   6.656   5.096
 5740TIP3    H117163   5.382   6.704   5.013
 5740TIP3    H217164   5.392   6.722   5.163
 5741TIP3   OH217165   8.143   1.889   4.303
 5741TIP3    H117166   8.117   1.833   4.376
 5741TIP3    H217167   8.238   1.880   4.298
 5742TIP3   OH217168   5.065   0.254   1.658
 5742TIP3    H117169   5.095   0.339   1.689
 5742TIP3    H217170   4.969   0.258   1.664
 5743TIP3   OH217171   1.072   3.916   5.842
 5743TIP3    H117172   1.154   3.873   5.865
 5743TIP3    H217173   1.084   4.006   5.871
 5744TIP3   OH217174   5.671   5.062   4.068
 5744TIP3    H117175   5.680   5.055   4.163
 5744TIP3    H217176   5.760   5.069   4.035
 5745TIP3   OH217177   3.097   2.744   6.731
 5745TIP3    H117178   3.025   2.737   6.668
 5745TIP3    H217179   3.079   2.676   6.796
 5746TIP3   OH217180   3.264   7.661   5.084
 5746TIP3    H117181   3.231   7.742   5.045
 5746TIP3    H217182   3.296   7.688   5.170
 5747TIP3   OH217183   7.439   1.001   6.287
 5747TIP3    H117184   7.425   1.077   6.343
 5747TIP3    H217185   7.527   1.012   6.252
 5748TIP3   OH217186   6.103   2.371   5.542
 5748TIP3    H117187   6.191   2.398   5.568
 5748TIP3    H217188   6.054   2.365   5.625
 5749TIP3   OH217189   7.818   1.861   0.354
 5749TIP3    H117190   7.761   1.822   0.420
 5749TIP3    H217191   7.862   1.932   0.400
 5750TIP3   OH217192   2.065   2.831   1.899
 5750TIP3    H117193   1.973   2.854   1.916
 5750TIP3    H217194   2.098   2.904   1.847
 5751TIP3   OH217195   1.258   3.853   6.553
 5751TIP3    H117196   1.279   3.760   6.545
 5751TIP3    H217197   1.247   3.868   6.647
 5752TIP3   OH217198   0.794   4.974   6.055
 5752TIP3    H117199   0.808   4.887   6.093
 5752TIP3    H217200   0.751   5.024   6.125
 5753TIP3   OH217201   6.841   6.208   6.195
 5753TIP3    H117202   6.796   6.254   6.265
 5753TIP3    H217203   6.782   6.136   6.170
 5754TIP3   OH217204   1.809   3.809   1.866
 5754TIP3    H117205   1.855   3.892   1.850
 5754TIP3    H217206   1.736   3.832   1.923
 5755TIP3   OH217207   5.640   7.411   5.676
 5755TIP3    H117208   5.656   7.409   5.770
 5755TIP3    H217209   5.693   7.484   5.644
 5756TIP3   OH217210   3.841   1.530   5.161
 5756TIP3    H117211   3.914   1.517   5.221
 5756TIP3    H217212   3.873   1.498   5.077
 5757TIP3   OH217213   7.718   0.066   3.242
 5757TIP3    H117214   7.623   0.077   3.255
 5757TIP3    H217215   7.757   0.098   3.323
 5758TIP3   OH217216   3.778   6.764   2.191
 5758TIP3    H117217   3.854   6.706   2.202
 5758TIP3    H217218   3.721   6.718   2.130
 5759TIP3   OH217219   6.329   6.095   1.276
 5759TIP3    H117220   6.382   6.113   1.198
 5759TIP3    H217221   6.239   6.111   1.248
 5760TIP3   OH217222   1.714   1.511   0.044
 5760TIP3    H117223   1.727   1.437   0.103
 5760TIP3    H217224   1.733   1.588   0.097
 5761TIP3   OH217225   7.758   5.764   1.928
 5761TIP3    H117226   7.711   5.846   1.943
 5761TIP3    H217227   7.731   5.707   2.000
 5762TIP3   OH217228   6.199   1.676   6.308
 5762TIP3    H117229   6.144   1.598   6.314
 5762TIP3    H217230   6.232   1.690   6.397
 5763TIP3   OH217231   1.283   0.789   4.218
 5763TIP3    H117232   1.351   0.819   4.159
 5763TIP3    H217233   1.268   0.698   4.194
 5764TIP3   OH217234   4.417   5.575   4.362
 5764TIP3    H117235   4.393   5.498   4.413
 5764TIP3    H217236   4.451   5.539   4.280
 5765TIP3   OH217237   4.449   1.408   3.009
 5765TIP3    H117238   4.465   1.498   3.038
 5765TIP3    H217239   4.487   1.404   2.921
 5766TIP3   OH217240   4.298   4.088   6.243
 5766TIP3    H117241   4.320   4.071   6.334
 5766TIP3    H217242   4.367   4.146   6.211
 5767TIP3   OH217243   4.466   7.673   1.234
 5767TIP3    H117244   4.424   7.680   1.148
 5767TIP3    H217245   4.434   7.750   1.282
 5768TIP3   OH217246   3.161   7.050   0.225
 5768TIP3    H117247   3.128   7.008   0.304
 5768TIP3    H217248   3.089   7.108   0.197
 5769TIP3   OH217249   3.015   5.384   3.174
 5769TIP3    H117250   3.107   5.380   3.201
 5769TIP3    H217251   2.989   5.475   3.188
 5770TIP3   OH217252   2.620   3.927   2.670
 5770TIP3    H117253   2.696   3.986   2.676
 5770TIP3    H217254   2.592   3.914   2.761
 5771TIP3   OH217255   3.714   2.630   3.699
 5771TIP3    H117256   3.623   2.642   3.725
 5771TIP3    H217257   3.754   2.717   3.707
 5772TIP3   OH217258   3.348   1.343   1.403
 5772TIP3    H117259   3.266   1.387   1.424
 5772TIP3    H217260   3.407   1.414   1.376
 5773TIP3   OH217261   4.753   4.502   3.675
 5773TIP3    H117262   4.663   4.522   3.700
 5773TIP3    H217263   4.750   4.411   3.646
 5774TIP3   OH217264   1.510   7.492   0.077
 5774TIP3    H117265   1.571   7.425   0.047
 5774TIP3    H217266   1.494   7.471   0.169
 5775TIP3   OH217267   6.779   2.930   3.878
 5775TIP3    H117268   6.808   3.019   3.893
 5775TIP3    H217269   6.853   2.875   3.906
 5776TIP3   OH217270   1.169   1.115   3.490
 5776TIP3    H117271   1.225   1.160   3.553
 5776TIP3    H217272   1.161   1.026   3.523
 5777TIP3   OH217273   4.258   4.543   5.943
 5777TIP3    H117274   4.278   4.551   5.850
 5777TIP3    H217275   4.190   4.608   5.959
 5778TIP3   OH217276   5.356   1.862   3.846
 5778TIP3    H117277   5.292   1.891   3.782
 5778TIP3    H217278   5.343   1.920   3.921
 5779TIP3   OH217279   6.941   6.432   2.756
 5779TIP3    H117280   7.015   6.372   2.764
 5779TIP3    H217281   6.943   6.484   2.837
 5780TIP3   OH217282   5.999   0.764   2.029
 5780TIP3    H117283   5.921   0.729   1.985
 5780TIP3    H217284   5.965   0.823   2.096
 5781TIP3   OH217285   5.329   5.516   2.381
 5781TIP3    H117286   5.373   5.557   2.307
 5781TIP3    H217287   5.361   5.426   2.381
 5782TIP3   OH217288   4.711   7.441   5.246
 5782TIP3    H117289   4.715   7.429   5.151
 5782TIP3    H217290   4.641   7.381   5.275
 5783TIP3   OH217291   6.923   0.844   3.259
 5783TIP3    H117292   6.961   0.763   3.225
 5783TIP3    H217293   6.830   0.837   3.238
 5784TIP3   OH217294   5.331   2.123   0.010
 5784TIP3    H117295   5.424   2.100   0.009
 5784TIP3    H217296   5.324   2.192   0.076
 5785TIP3   OH217297   3.975   7.481   1.980
 5785TIP3    H117298   3.923   7.503   1.903
 5785TIP3    H217299   4.000   7.566   2.017
 5786TIP3   OH217300   7.141   7.496   6.448
 5786TIP3    H117301   7.191   7.499   6.530
 5786TIP3    H217302   7.207   7.507   6.380
 5787TIP3   OH217303   4.273   7.481   1.846
 5787TIP3    H117304   4.262   7.448   1.936
 5787TIP3    H217305   4.299   7.572   1.858
 5788TIP3   OH217306   4.185   5.479   0.241
 5788TIP3    H117307   4.258   5.456   0.184
 5788TIP3    H217308   4.220   5.470   0.330
 5789TIP3   OH217309   7.343   7.546   2.254
 5789TIP3    H117310   7.360   7.540   2.159
 5789TIP3    H217311   7.427   7.526   2.294
 5790TIP3   OH217312   3.839   1.393   4.334
 5790TIP3    H117313   3.906   1.330   4.308
 5790TIP3    H217314   3.865   1.421   4.422
 5791TIP3   OH217315   7.982   2.310   3.714
 5791TIP3    H117316   8.041   2.372   3.756
 5791TIP3    H217317   7.904   2.310   3.770
 5792TIP3   OH217318   7.579   3.665   0.834
 5792TIP3    H117319   7.519   3.629   0.899
 5792TIP3    H217320   7.525   3.682   0.757
 5793TIP3   OH217321   4.770   3.769   3.431
 5793TIP3    H117322   4.701   3.811   3.380
 5793TIP3    H217323   4.732   3.755   3.518
 5794TIP3   OH217324   1.244   5.256   1.515
 5794TIP3    H117325   1.325   5.234   1.469
 5794TIP3    H217326   1.202   5.322   1.460
 5795TIP3   OH217327   4.939   0.685   3.863
 5795TIP3    H117328   4.963   0.710   3.774
 5795TIP3    H217329   4.894   0.601   3.852
 5796TIP3   OH217330   8.179   6.157   4.087
 5796TIP3    H117331   8.256   6.100   4.085
 5796TIP3    H217332   8.209   6.236   4.132
 5797TIP3   OH217333   3.879   4.348   1.564
 5797TIP3    H117334   3.809   4.400   1.523
 5797TIP3    H217335   3.954   4.407   1.565
 5798TIP3   OH217336   6.390   3.786   5.193
 5798TIP3    H117337   6.332   3.763   5.265
 5798TIP3    H217338   6.452   3.848   5.231
 5799TIP3   OH217339   1.639   0.231   3.469
 5799TIP3    H117340   1.602   0.149   3.437
 5799TIP3    H217341   1.732   0.225   3.449
 5800TIP3   OH217342   1.796   6.152   6.402
 5800TIP3    H117343   1.794   6.114   6.314
 5800TIP3    H217344   1.704   6.161   6.426
 5801TIP3   OH217345   1.246   7.495   3.931
 5801TIP3    H117346   1.204   7.531   4.010
 5801TIP3    H217347   1.340   7.505   3.948
 5802TIP3   OH217348   6.889   7.191   1.984
 5802TIP3    H117349   6.853   7.105   1.964
 5802TIP3    H217350   6.819   7.236   2.032
 5803TIP3   OH217351   5.817   3.984   0.266
 5803TIP3    H117352   5.738   4.001   0.215
 5803TIP3    H217353   5.820   3.888   0.275
 5804TIP3   OH217354   8.098   5.632   4.069
 5804TIP3    H117355   8.042   5.596   4.137
 5804TIP3    H217356   8.134   5.712   4.107
 5805TIP3   OH217357   3.030   3.604   4.760
 5805TIP3    H117358   3.051   3.671   4.826
 5805TIP3    H217359   3.030   3.522   4.809
 5806TIP3   OH217360   6.671   2.732   2.542
 5806TIP3    H117361   6.744   2.743   2.603
 5806TIP3    H217362   6.639   2.821   2.526
 5807TIP3   OH217363   5.043   2.952   5.128
 5807TIP3    H117364   5.136   2.957   5.151
 5807TIP3    H217365   5.000   3.010   5.190
 5808TIP3   OH217366   7.605   4.369   5.512
 5808TIP3    H117367   7.599   4.462   5.533
 5808TIP3    H217368   7.625   4.367   5.419
 5809TIP3   OH217369   0.991   2.966   1.868
 5809TIP3    H117370   0.934   3.027   1.821
 5809TIP3    H217371   0.961   2.969   1.958
 5810TIP3   OH217372   0.859   6.518   3.889
 5810TIP3    H117373   0.788   6.464   3.857
 5810TIP3    H217374   0.929   6.507   3.825
 5811TIP3   OH217375   6.189   6.453   0.950
 5811TIP3    H117376   6.221   6.368   0.920
 5811TIP3    H217377   6.095   6.439   0.964
 5812TIP3   OH217378   3.145   3.393   3.571
 5812TIP3    H117379   3.224   3.357   3.533
 5812TIP3    H217380   3.157   3.382   3.666
 5813TIP3   OH217381   3.212   3.650   3.807
 5813TIP3    H117382   3.145   3.589   3.838
 5813TIP3    H217383   3.291   3.625   3.856
 5814TIP3   OH217384   4.316   7.755   1.561
 5814TIP3    H117385   4.240   7.776   1.616
 5814TIP3    H217386   4.347   7.840   1.529
 5815TIP3   OH217387   3.057   2.661   0.230
 5815TIP3    H117388   3.081   2.652   0.323
 5815TIP3    H217389   2.970   2.621   0.224
 5816TIP3   OH217390   6.904   6.021   1.814
 5816TIP3    H117391   6.929   6.007   1.722
 5816TIP3    H217392   6.986   6.041   1.858
 5817TIP3   OH217393   6.620   6.477   3.037
 5817TIP3    H117394   6.617   6.384   3.060
 5817TIP3    H217395   6.530   6.500   3.016
 5818TIP3   OH217396   4.983   6.165   4.137
 5818TIP3    H117397   4.965   6.083   4.091
 5818TIP3    H217398   5.072   6.154   4.171
 5819TIP3   OH217399   4.244   4.896   5.984
 5819TIP3    H117400   4.165   4.930   6.024
 5819TIP3    H217401   4.315   4.948   6.022
 5820TIP3   OH217402   8.066   7.443   6.352
 5820TIP3    H117403   8.152   7.467   6.316
 5820TIP3    H217404   8.042   7.516   6.408
 5821TIP3   OH217405   2.678   1.487   1.115
 5821TIP3    H117406   2.711   1.437   1.041
 5821TIP3    H217407   2.676   1.578   1.083
 5822TIP3   OH217408   5.050   1.906   5.153
 5822TIP3    H117409   5.079   1.967   5.085
 5822TIP3    H217410   5.126   1.895   5.210
 5823TIP3   OH217411   5.749   5.317   6.319
 5823TIP3    H117412   5.837   5.308   6.354
 5823TIP3    H217413   5.750   5.264   6.238
 5824TIP3   OH217414   7.074   6.619   1.153
 5824TIP3    H117415   7.031   6.635   1.068
 5824TIP3    H217416   7.154   6.671   1.149
 5825TIP3   OH217417   3.967   4.656   1.091
 5825TIP3    H117418   3.935   4.566   1.099
 5825TIP3    H217419   3.888   4.709   1.083
 5826TIP3   OH217420   4.491   4.950   1.628
 5826TIP3    H117421   4.551   5.010   1.583
 5826TIP3    H217422   4.442   4.908   1.558
 5827TIP3   OH217423   6.816   6.956   1.850
 5827TIP3    H117424   6.729   6.975   1.817
 5827TIP3    H217425   6.871   6.952   1.772
 5828TIP3   OH217426   4.565   2.118   1.622
 5828TIP3    H117427   4.564   2.213   1.632
 5828TIP3    H217428   4.549   2.084   1.710
 5829TIP3   OH217429   1.026   2.733   0.945
 5829TIP3    H117430   0.983   2.777   0.872
 5829TIP3    H217431   1.042   2.802   1.009
 5830TIP3   OH217432   0.914   1.782   3.082
 5830TIP3    H117433   0.975   1.815   3.148
 5830TIP3    H217434   0.947   1.817   2.999
 5831TIP3   OH217435   6.328   2.454   3.881
 5831TIP3    H117436   6.395   2.480   3.818
 5831TIP3    H217437   6.250   2.437   3.829
 5832TIP3   OH217438   7.379   4.710   5.846
 5832TIP3    H117439   7.445   4.724   5.915
 5832TIP3    H217440   7.395   4.621   5.815
 5833TIP3   OH217441   4.896   5.681   0.019
 5833TIP3    H117442   4.810   5.699   0.055
 5833TIP3    H217443   4.951   5.661   0.094
 5834TIP3   OH217444   0.490   7.505   4.967
 5834TIP3    H117445   0.403   7.503   4.928
 5834TIP3    H217446   0.528   7.587   4.938
 5835TIP3   OH217447   6.578   6.562   5.793
 5835TIP3    H117448   6.507   6.625   5.786
 5835TIP3    H217449   6.658   6.615   5.782
 5836TIP3   OH217450   0.246   0.554   0.214
 5836TIP3    H117451   0.232   0.573   0.307
 5836TIP3    H217452   0.341   0.557   0.203
 5837TIP3   OH217453   6.411   1.018   3.452
 5837TIP3    H117454   6.504   0.996   3.460
 5837TIP3    H217455   6.408   1.112   3.469
 5838TIP3   OH217456   4.602   0.800   1.435
 5838TIP3    H117457   4.591   0.754   1.519
 5838TIP3    H217458   4.605   0.892   1.459
 5839TIP3   OH217459   5.427   7.081   3.550
 5839TIP3    H117460   5.467   7.164   3.524
 5839TIP3    H217461   5.367   7.104   3.622
 5840TIP3   OH217462   4.189   7.777   2.873
 5840TIP3    H117463   4.175   7.704   2.934
 5840TIP3    H217464   4.118   7.838   2.894
 5841TIP3   OH217465   3.672   3.657   6.507
 5841TIP3    H117466   3.578   3.652   6.527
 5841TIP3    H217467   3.712   3.593   6.567
 5842TIP3   OH217468   1.620   2.272   3.459
 5842TIP3    H117469   1.670   2.342   3.416
 5842TIP3    H217470   1.646   2.279   3.551
 5843TIP3   OH217471   3.257   6.563   6.490
 5843TIP3    H117472   3.348   6.591   6.487
 5843TIP3    H217473   3.252   6.489   6.430
 5844TIP3   OH217474   4.496   0.163   1.005
 5844TIP3    H117475   4.403   0.165   0.983
 5844TIP3    H217476   4.519   0.255   1.020
 5845TIP3   OH217477   0.018   1.545   5.800
 5845TIP3    H117478   0.028   1.525   5.706
 5845TIP3    H217479  -0.055   1.490   5.828
 5846TIP3   OH217480   3.740   7.175   6.740
 5846TIP3    H117481   3.799   7.099   6.744
 5846TIP3    H217482   3.657   7.139   6.707
 5847TIP3   OH217483   1.840   4.487   6.607
 5847TIP3    H117484   1.769   4.549   6.589
 5847TIP3    H217485   1.915   4.542   6.629
 5848TIP3   OH217486   4.528   3.314   2.454
 5848TIP3    H117487   4.568   3.376   2.515
 5848TIP3    H217488   4.601   3.261   2.422
 5849TIP3   OH217489   0.469   1.027   5.662
 5849TIP3    H117490   0.520   1.109   5.661
 5849TIP3    H217491   0.399   1.044   5.724
 5850TIP3   OH217492   0.883   0.060   5.754
 5850TIP3    H117493   0.948   0.104   5.809
 5850TIP3    H217494   0.878  -0.029   5.789
 5851TIP3   OH217495   6.962   0.421   0.863
 5851TIP3    H117496   6.879   0.412   0.909
 5851TIP3    H217497   7.018   0.354   0.902
 5852TIP3   OH217498   4.583   3.786   2.398
 5852TIP3    H117499   4.676   3.808   2.400
 5852TIP3    H217500   4.552   3.807   2.486
 5853TIP3   OH217501   1.657   1.830   6.196
 5853TIP3    H117502   1.644   1.925   6.195
 5853TIP3    H217503   1.606   1.799   6.271
 5854TIP3   OH217504   1.986   5.238   2.498
 5854TIP3    H117505   2.021   5.240   2.409
 5854TIP3    H217506   2.022   5.158   2.536
 5855TIP3   OH217507   3.042   0.918   1.678
 5855TIP3    H117508   3.072   0.919   1.587
 5855TIP3    H217509   3.092   0.848   1.719
 5856TIP3   OH217510   3.831   3.820   4.163
 5856TIP3    H117511   3.924   3.820   4.140
 5856TIP3    H217512   3.827   3.868   4.246
 5857TIP3   OH217513   7.517   3.574   0.355
 5857TIP3    H117514   7.611   3.557   0.363
 5857TIP3    H217515   7.511   3.646   0.292
 5858TIP3   OH217516   3.897   6.856   4.584
 5858TIP3    H117517   3.971   6.829   4.530
 5858TIP3    H217518   3.864   6.775   4.622
 5859TIP3   OH217519   4.685   5.897   5.255
 5859TIP3    H117520   4.612   5.957   5.271
 5859TIP3    H217521   4.754   5.926   5.314
 5860TIP3   OH217522   1.837   1.747   6.008
 5860TIP3    H117523   1.756   1.785   6.042
 5860TIP3    H217524   1.816   1.656   5.990
 5861TIP3   OH217525   1.838   2.744   3.298
 5861TIP3    H117526   1.868   2.783   3.216
 5861TIP3    H217527   1.821   2.818   3.356
 5862TIP3   OH217528   2.334   4.571   2.016
 5862TIP3    H117529   2.327   4.654   2.063
 5862TIP3    H217530   2.422   4.538   2.038
 5863TIP3   OH217531   6.667   3.647   6.045
 5863TIP3    H117532   6.605   3.575   6.050
 5863TIP3    H217533   6.612   3.726   6.041
 5864TIP3   OH217534   5.313   5.617   4.192
 5864TIP3    H117535   5.287   5.709   4.188
 5864TIP3    H217536   5.316   5.589   4.101
 5865TIP3   OH217537   5.563   1.984   2.235
 5865TIP3    H117538   5.645   1.957   2.276
 5865TIP3    H217539   5.495   1.944   2.289
 5866TIP3   OH217540   4.606   1.072   6.675
 5866TIP3    H117541   4.677   1.028   6.721
 5866TIP3    H217542   4.541   1.090   6.742
 5867TIP3   OH217543   2.920   0.371   2.933
 5867TIP3    H117544   2.932   0.466   2.926
 5867TIP3    H217545   2.885   0.345   2.848
 5868TIP3   OH217546   6.736   6.486   4.864
 5868TIP3    H117547   6.712   6.557   4.805
 5868TIP3    H217548   6.700   6.512   4.949
 5869TIP3   OH217549   3.165   5.862   3.822
 5869TIP3    H117550   3.166   5.940   3.768
 5869TIP3    H217551   3.073   5.837   3.828
 5870TIP3   OH217552   5.244   3.547   4.305
 5870TIP3    H117553   5.204   3.556   4.392
 5870TIP3    H217554   5.307   3.475   4.314
 5871TIP3   OH217555   7.071   2.061   5.153
 5871TIP3    H117556   7.109   2.053   5.240
 5871TIP3    H217557   7.015   1.983   5.144
 5872TIP3   OH217558   1.265   4.436   4.527
 5872TIP3    H117559   1.226   4.490   4.596
 5872TIP3    H217560   1.313   4.498   4.472
 5873TIP3   OH217561   5.740   3.437   0.424
 5873TIP3    H117562   5.729   3.342   0.423
 5873TIP3    H217563   5.680   3.470   0.356
 5874TIP3   OH217564   0.389   4.753   6.084
 5874TIP3    H117565   0.412   4.846   6.087
 5874TIP3    H217566   0.428   4.716   6.163
 5875TIP3   OH217567   3.161   6.666   5.347
 5875TIP3    H117568   3.085   6.686   5.292
 5875TIP3    H217569   3.186   6.577   5.321
 5876TIP3   OH217570   6.088   7.484   1.663
 5876TIP3    H117571   6.101   7.564   1.612
 5876TIP3    H217572   6.162   7.481   1.723
 5877TIP3   OH217573   6.641   7.044   6.501
 5877TIP3    H117574   6.663   6.951   6.505
 5877TIP3    H217575   6.721   7.085   6.468
 5878TIP3   OH217576   5.499   6.770   4.078
 5878TIP3    H117577   5.458   6.718   4.148
 5878TIP3    H217578   5.593   6.752   4.087
 5879TIP3   OH217579   8.149   2.841   2.596
 5879TIP3    H117580   8.140   2.780   2.523
 5879TIP3    H217581   8.125   2.790   2.673
 5880TIP3   OH217582   4.239   3.886   3.402
 5880TIP3    H117583   4.320   3.868   3.353
 5880TIP3    H217584   4.251   3.974   3.436
 5881TIP3   OH217585   3.332   7.299   0.481
 5881TIP3    H117586   3.266   7.356   0.441
 5881TIP3    H217587   3.377   7.355   0.544
 5882TIP3   OH217588   3.592   6.614   4.173
 5882TIP3    H117589   3.622   6.689   4.122
 5882TIP3    H217590   3.576   6.546   4.108
 5883TIP3   OH217591   2.778   7.376   5.878
 5883TIP3    H117592   2.716   7.399   5.809
 5883TIP3    H217593   2.840   7.318   5.835
 5884TIP3   OH217594   4.531   6.750   3.376
 5884TIP3    H117595   4.566   6.709   3.455
 5884TIP3    H217596   4.568   6.699   3.304
 5885TIP3   OH217597   6.076   2.771   0.842
 5885TIP3    H117598   6.079   2.827   0.920
 5885TIP3    H217599   5.999   2.800   0.794
 5886TIP3   OH217600   1.876   0.366   5.901
 5886TIP3    H117601   1.873   0.318   5.983
 5886TIP3    H217602   1.787   0.398   5.888
 5887TIP3   OH217603   1.964   3.845   5.355
 5887TIP3    H117604   2.049   3.885   5.333
 5887TIP3    H217605   1.961   3.767   5.300
 5888TIP3   OH217606   7.622   1.750   3.024
 5888TIP3    H117607   7.581   1.702   3.096
 5888TIP3    H217608   7.646   1.834   3.062
 5889TIP3   OH217609   2.499   1.859   3.111
 5889TIP3    H117610   2.449   1.939   3.095
 5889TIP3    H217611   2.452   1.791   3.063
 5890TIP3   OH217612   5.252   5.785   3.761
 5890TIP3    H117613   5.164   5.820   3.773
 5890TIP3    H217614   5.302   5.857   3.723
 5891TIP3   OH217615   3.275   6.575   2.202
 5891TIP3    H117616   3.350   6.576   2.261
 5891TIP3    H217617   3.250   6.483   2.197
 5892TIP3   OH217618   7.858   4.481   4.353
 5892TIP3    H117619   7.856   4.574   4.328
 5892TIP3    H217620   7.910   4.439   4.284
 5893TIP3   OH217621   1.226   6.328   4.076
 5893TIP3    H117622   1.144   6.310   4.121
 5893TIP3    H217623   1.288   6.348   4.146
 5894TIP3   OH217624   5.524   5.376   6.441
 5894TIP3    H117625   5.540   5.469   6.456
 5894TIP3    H217626   5.583   5.353   6.370
 5895TIP3   OH217627   2.424   2.582   3.824
 5895TIP3    H117628   2.336   2.563   3.791
 5895TIP3    H217629   2.470   2.498   3.817
 5896TIP3   OH217630   3.354   3.052   1.022
 5896TIP3    H117631   3.321   2.965   0.998
 5896TIP3    H217632   3.339   3.058   1.116
 5897TIP3   OH217633   1.030   3.903   3.726
 5897TIP3    H117634   1.053   3.812   3.709
 5897TIP3    H217635   1.111   3.952   3.711
 5898TIP3   OH217636   7.091   4.843   2.849
 5898TIP3    H117637   7.161   4.894   2.889
 5898TIP3    H217638   7.109   4.753   2.876
 5899TIP3   OH217639   5.181   2.756   1.839
 5899TIP3    H117640   5.128   2.799   1.773
 5899TIP3    H217641   5.270   2.786   1.822
 5900TIP3   OH217642   4.469   6.623   4.845
 5900TIP3    H117643   4.485   6.529   4.858
 5900TIP3    H217644   4.511   6.644   4.762
 5901TIP3   OH217645   7.060   2.100   1.045
 5901TIP3    H117646   7.152   2.077   1.058
 5901TIP3    H217647   7.059   2.196   1.043
 5902TIP3   OH217648   3.631   7.113   4.241
 5902TIP3    H117649   3.628   7.101   4.336
 5902TIP3    H217650   3.716   7.155   4.225
 5903TIP3   OH217651   3.498   0.314   4.754
 5903TIP3    H117652   3.573   0.360   4.716
 5903TIP3    H217653   3.496   0.344   4.845
 5904TIP3   OH217654   0.064   3.436   1.605
 5904TIP3    H117655   0.112   3.496   1.548
 5904TIP3    H217656   0.094   3.459   1.694
 5905TIP3   OH217657   7.173   7.422   6.071
 5905TIP3    H117658   7.238   7.352   6.078
 5905TIP3    H217659   7.122   7.400   5.993
 5906TIP3   OH217660   0.885   0.550   0.429
 5906TIP3    H117661   0.948   0.598   0.482
 5906TIP3    H217662   0.838   0.618   0.381
 5907TIP3   OH217663   3.219   3.030   2.369
 5907TIP3    H117664   3.306   3.028   2.329
 5907TIP3    H217665   3.211   2.945   2.412
 5908TIP3   OH217666   4.286   2.386   4.783
 5908TIP3    H117667   4.228   2.458   4.809
 5908TIP3    H217668   4.242   2.346   4.708
 5909TIP3   OH217669   1.425   2.486   0.512
 5909TIP3    H117670   1.481   2.429   0.459
 5909TIP3    H217671   1.370   2.532   0.449
 5910TIP3   OH217672   7.983   6.137   1.254
 5910TIP3    H117673   7.942   6.148   1.340
 5910TIP3    H217674   8.019   6.223   1.233
 5911TIP3   OH217675   1.390   5.307   5.315
 5911TIP3    H117676   1.307   5.318   5.362
 5911TIP3    H217677   1.456   5.300   5.384
 5912TIP3   OH217678   5.924   1.527   4.341
 5912TIP3    H117679   5.902   1.543   4.249
 5912TIP3    H217680   5.920   1.431   4.350
 5913TIP3   OH217681   5.753   2.565   1.879
 5913TIP3    H117682   5.816   2.515   1.931
 5913TIP3    H217683   5.671   2.516   1.887
 5914TIP3   OH217684   0.463   5.070   2.744
 5914TIP3    H117685   0.510   5.026   2.673
 5914TIP3    H217686   0.518   5.056   2.822
 5915TIP3   OH217687   3.471   7.166   1.677
 5915TIP3    H117688   3.414   7.179   1.601
 5915TIP3    H217689   3.415   7.186   1.752
 5916TIP3   OH217690   8.210   1.851   0.980
 5916TIP3    H117691   8.289   1.825   0.932
 5916TIP3    H217692   8.231   1.831   1.072
 5917TIP3   OH217693   4.158   5.261   4.792
 5917TIP3    H117694   4.090   5.235   4.855
 5917TIP3    H217695   4.118   5.331   4.741
 5918TIP3   OH217696   3.320   1.658   0.853
 5918TIP3    H117697   3.345   1.616   0.935
 5918TIP3    H217698   3.243   1.711   0.875
 5919TIP3   OH217699   4.412   7.174   1.181
 5919TIP3    H117700   4.475   7.245   1.173
 5919TIP3    H217701   4.387   7.153   1.091
 5920TIP3   OH217702   7.550   6.896   6.601
 5920TIP3    H117703   7.598   6.939   6.530
 5920TIP3    H217704   7.468   6.868   6.562
 5921TIP3   OH217705   0.882   6.907   5.319
 5921TIP3    H117706   0.946   6.934   5.252
 5921TIP3    H217707   0.931   6.910   5.401
 5922TIP3   OH217708   7.405   1.274   2.968
 5922TIP3    H117709   7.335   1.339   2.978
 5922TIP3    H217710   7.397   1.245   2.877
 5923TIP3   OH217711   0.089   0.507   2.308
 5923TIP3    H117712   0.171   0.532   2.351
 5923TIP3    H217713   0.109   0.424   2.264
 5924TIP3   OH217714   1.378   7.324   2.074
 5924TIP3    H117715   1.463   7.294   2.044
 5924TIP3    H217716   1.321   7.316   1.998
 5925TIP3   OH217717   1.598   1.506   6.750
 5925TIP3    H117718   1.674   1.519   6.693
 5925TIP3    H217719   1.611   1.419   6.788
 5926TIP3   OH217720   5.200   6.552   4.360
 5926TIP3    H117721   5.228   6.478   4.307
 5926TIP3    H217722   5.276   6.573   4.415
 5927TIP3   OH217723   3.190   7.277   6.338
 5927TIP3    H117724   3.131   7.311   6.405
 5927TIP3    H217725   3.146   7.198   6.306
 5928TIP3   OH217726   0.528   0.587   4.188
 5928TIP3    H117727   0.557   0.505   4.149
 5928TIP3    H217728   0.601   0.647   4.174
 5929TIP3   OH217729   6.156   7.596   5.490
 5929TIP3    H117730   6.248   7.623   5.482
 5929TIP3    H217731   6.120   7.653   5.557
 5930TIP3   OH217732   6.194   2.828   2.233
 5930TIP3    H117733   6.220   2.745   2.192
 5930TIP3    H217734   6.224   2.895   2.173
 5931TIP3   OH217735   2.665   3.222   1.779
 5931TIP3    H117736   2.733   3.289   1.768
 5931TIP3    H217737   2.712   3.139   1.770
 5932TIP3   OH217738   2.387   1.407   6.278
 5932TIP3    H117739   2.446   1.471   6.238
 5932TIP3    H217740   2.440   1.328   6.286
 5933TIP3   OH217741   4.980   4.228   5.305
 5933TIP3    H117742   5.042   4.175   5.256
 5933TIP3    H217743   4.899   4.177   5.304
 5934TIP3   OH217744   0.050   7.549   0.323
 5934TIP3    H117745   0.084   7.496   0.251
 5934TIP3    H217746  -0.016   7.606   0.282
 5935TIP3   OH217747   0.189   0.844   3.974
 5935TIP3    H117748   0.220   0.876   3.890
 5935TIP3    H217749   0.234   0.760   3.986
 5936TIP3   OH217750   4.076   5.027   3.069
 5936TIP3    H117751   4.097   5.113   3.033
 5936TIP3    H217752   4.016   4.988   3.006
 5937TIP3   OH217753   0.892   0.848   1.479
 5937TIP3    H117754   0.911   0.758   1.454
 5937TIP3    H217755   0.840   0.883   1.407
 5938TIP3   OH217756   2.007   4.422   0.675
 5938TIP3    H117757   1.994   4.333   0.707
 5938TIP3    H217758   1.919   4.459   0.668
 5939TIP3   OH217759   7.931   7.766   4.041
 5939TIP3    H117760   7.836   7.755   4.038
 5939TIP3    H217761   7.963   7.691   4.090
 5940TIP3   OH217762   2.589   6.535   5.224
 5940TIP3    H117763   2.547   6.601   5.169
 5940TIP3    H217764   2.654   6.494   5.167
 5941TIP3   OH217765   7.818   7.491   3.184
 5941TIP3    H117766   7.746   7.523   3.238
 5941TIP3    H217767   7.868   7.434   3.243
 5942TIP3   OH217768   3.981   1.682   1.917
 5942TIP3    H117769   3.889   1.691   1.941
 5942TIP3    H217770   3.989   1.593   1.885
 5943TIP3   OH217771   4.612   3.424   3.330
 5943TIP3    H117772   4.585   3.487   3.263
 5943TIP3    H217773   4.535   3.415   3.386
 5944TIP3   OH217774   0.278   1.131   3.980
 5944TIP3    H117775   0.230   1.112   3.900
 5944TIP3    H217776   0.356   1.076   3.976
 5945TIP3   OH217777   8.261   2.807   4.023
 5945TIP3    H117778   8.229   2.897   4.026
 5945TIP3    H217779   8.183   2.755   4.002
 5946TIP3   OH217780   7.211   6.301   6.601
 5946TIP3    H117781   7.151   6.238   6.562
 5946TIP3    H217782   7.157   6.349   6.665
 5947TIP3   OH217783   2.511   6.109   1.539
 5947TIP3    H117784   2.502   6.160   1.619
 5947TIP3    H217785   2.520   6.018   1.569
 5948TIP3   OH217786   7.751   7.111   5.793
 5948TIP3    H117787   7.779   7.200   5.813
 5948TIP3    H217788   7.820   7.056   5.831
 5949TIP3   OH217789   2.199   5.273   3.638
 5949TIP3    H117790   2.124   5.266   3.578
 5949TIP3    H217791   2.242   5.188   3.632
 5950TIP3   OH217792   6.557   3.239   1.877
 5950TIP3    H117793   6.554   3.312   1.815
 5950TIP3    H217794   6.520   3.275   1.958
 5951TIP3   OH217795   5.874   0.302   3.608
 5951TIP3    H117796   5.898   0.217   3.571
 5951TIP3    H217797   5.778   0.303   3.605
 5952TIP3   OH217798   4.646   5.463   3.668
 5952TIP3    H117799   4.663   5.546   3.712
 5952TIP3    H217800   4.632   5.401   3.740
 5953TIP3   OH217801   7.249   4.524   0.602
 5953TIP3    H117802   7.158   4.533   0.573
 5953TIP3    H217803   7.274   4.435   0.576
 5954TIP3   OH217804   3.095   6.396   1.043
 5954TIP3    H117805   3.183   6.359   1.055
 5954TIP3    H217806   3.038   6.335   1.089
 5955TIP3   OH217807   5.454   7.154   2.202
 5955TIP3    H117808   5.420   7.164   2.113
 5955TIP3    H217809   5.428   7.065   2.227
 5956TIP3   OH217810   5.382   6.101   2.136
 5956TIP3    H117811   5.390   6.023   2.081
 5956TIP3    H217812   5.295   6.136   2.116
 5957TIP3   OH217813   7.060   5.392   2.796
 5957TIP3    H117814   7.043   5.473   2.845
 5957TIP3    H217815   7.152   5.371   2.814
 5958TIP3   OH217816   0.286   3.399   4.338
 5958TIP3    H117817   0.252   3.395   4.428
 5958TIP3    H217818   0.290   3.492   4.319
 5959TIP3   OH217819   6.118   5.488   2.481
 5959TIP3    H117820   6.118   5.526   2.568
 5959TIP3    H217821   6.094   5.396   2.495
 5960TIP3   OH217822   3.651   5.236   3.912
 5960TIP3    H117823   3.627   5.225   4.004
 5960TIP3    H217824   3.580   5.287   3.874
 5961TIP3   OH217825   4.483   2.349   4.327
 5961TIP3    H117826   4.515   2.260   4.316
 5961TIP3    H217827   4.424   2.363   4.254
 5962TIP3   OH217828   5.357   7.030   6.590
 5962TIP3    H117829   5.442   7.028   6.545
 5962TIP3    H217830   5.363   7.106   6.649
 5963TIP3   OH217831   0.306   1.899   2.248
 5963TIP3    H117832   0.231   1.905   2.189
 5963TIP3    H217833   0.324   1.989   2.274
 5964TIP3   OH217834   1.433   1.088   6.423
 5964TIP3    H117835   1.405   1.178   6.441
 5964TIP3    H217836   1.357   1.047   6.382
 5965TIP3   OH217837   7.770   3.685   5.537
 5965TIP3    H117838   7.788   3.745   5.608
 5965TIP3    H217839   7.798   3.731   5.458
 5966TIP3   OH217840   1.889   5.091   0.710
 5966TIP3    H117841   1.811   5.147   0.712
 5966TIP3    H217842   1.950   5.132   0.771
 5967TIP3   OH217843   6.335   4.717   1.530
 5967TIP3    H117844   6.333   4.622   1.516
 5967TIP3    H217845   6.428   4.739   1.531
 5968TIP3   OH217846   4.363   6.942   1.948
 5968TIP3    H117847   4.405   6.862   1.916
 5968TIP3    H217848   4.426   7.011   1.929
 5969TIP3   OH217849   2.676   5.490   6.602
 5969TIP3    H117850   2.735   5.457   6.534
 5969TIP3    H217851   2.667   5.583   6.584
 5970TIP3   OH217852   2.523   4.571   4.877
 5970TIP3    H117853   2.610   4.608   4.868
 5970TIP3    H217854   2.536   4.489   4.924
 5971TIP3   OH217855   8.268   3.798   0.839
 5971TIP3    H117856   8.211   3.867   0.872
 5971TIP3    H217857   8.218   3.759   0.767
 5972TIP3   OH217858   4.784   1.018   3.108
 5972TIP3    H117859   4.798   0.958   3.181
 5972TIP3    H217860   4.731   0.968   3.046
 5973TIP3   OH217861   4.835   5.792   5.981
 5973TIP3    H117862   4.772   5.854   6.018
 5973TIP3    H217863   4.785   5.712   5.968
 5974TIP3   OH217864   6.128   7.055   6.324
 5974TIP3    H117865   6.153   6.974   6.280
 5974TIP3    H217866   6.173   7.051   6.408
 5975TIP3   OH217867   4.753   5.595   4.448
 5975TIP3    H117868   4.738   5.669   4.507
 5975TIP3    H217869   4.722   5.626   4.362
 5976TIP3   OH217870   1.683   7.084   3.300
 5976TIP3    H117871   1.760   7.072   3.245
 5976TIP3    H217872   1.609   7.058   3.246
 5977TIP3   OH217873   7.192   4.846   5.709
 5977TIP3    H117874   7.268   4.800   5.745
 5977TIP3    H217875   7.117   4.791   5.732
 5978TIP3   OH217876   7.036   3.056   1.648
 5978TIP3    H117877   7.125   3.058   1.613
 5978TIP3    H217878   7.040   3.105   1.729
 5979TIP3   OH217879   0.363   6.133   0.431
 5979TIP3    H117880   0.288   6.165   0.481
 5979TIP3    H217881   0.362   6.183   0.350
 5980TIP3   OH217882   5.577   4.528   0.768
 5980TIP3    H117883   5.502   4.504   0.822
 5980TIP3    H217884   5.642   4.560   0.831
 5981TIP3   OH217885   3.259   0.754   4.933
 5981TIP3    H117886   3.229   0.776   5.022
 5981TIP3    H217887   3.346   0.794   4.926
 5982TIP3   OH217888   2.117   0.009   5.837
 5982TIP3    H117889   2.118   0.085   5.779
 5982TIP3    H217890   2.179   0.031   5.907
 5983TIP3   OH217891   2.297   3.256   4.925
 5983TIP3    H117892   2.363   3.279   4.860
 5983TIP3    H217893   2.220   3.307   4.900
 5984TIP3   OH217894   5.057   7.183   6.240
 5984TIP3    H117895   5.149   7.158   6.236
 5984TIP3    H217896   5.044   7.214   6.330
 5985TIP3   OH217897   4.735   6.981   1.468
 5985TIP3    H117898   4.796   6.907   1.466
 5985TIP3    H217899   4.707   6.987   1.559
 5986TIP3   OH217900   3.870   1.771   4.950
 5986TIP3    H117901   3.855   1.864   4.931
 5986TIP3    H217902   3.947   1.770   5.007
 5987TIP3   OH217903   4.059   7.348   5.229
 5987TIP3    H117904   4.067   7.332   5.323
 5987TIP3    H217905   4.001   7.424   5.223
 5988TIP3   OH217906   6.839   4.290   0.056
 5988TIP3    H117907   6.854   4.229  -0.017
 5988TIP3    H217908   6.907   4.268   0.119
 5989TIP3   OH217909   5.200   7.051   3.061
 5989TIP3    H117910   5.186   6.956   3.061
 5989TIP3    H217911   5.187   7.077   2.970
 5990TIP3   OH217912   7.875   2.212   1.726
 5990TIP3    H117913   7.791   2.249   1.752
 5990TIP3    H217914   7.853   2.137   1.670
 5991TIP3   OH217915   6.324   5.434   1.536
 5991TIP3    H117916   6.405   5.455   1.582
 5991TIP3    H217917   6.318   5.499   1.466
 5992TIP3   OH217918   3.433   4.891   2.297
 5992TIP3    H117919   3.491   4.868   2.225
 5992TIP3    H217920   3.490   4.936   2.360
 5993TIP3   OH217921   1.344   1.237   1.899
 5993TIP3    H117922   1.283   1.311   1.895
 5993TIP3    H217923   1.422   1.268   1.852
 5994TIP3   OH217924   0.954   7.045   5.586
 5994TIP3    H117925   0.967   7.118   5.526
 5994TIP3    H217926   1.014   7.061   5.658
 5995TIP3   OH217927   4.012   3.327   4.069
 5995TIP3    H117928   4.032   3.238   4.039
 5995TIP3    H217929   3.957   3.314   4.146
 5996TIP3   OH217930   3.236   0.733   6.599
 5996TIP3    H117931   3.168   0.787   6.560
 5996TIP3    H217932   3.192   0.683   6.667
 5997TIP3   OH217933   2.804   2.080   3.412
 5997TIP3    H117934   2.878   2.034   3.373
 5997TIP3    H217935   2.779   2.027   3.487
 5998TIP3   OH217936   6.531   1.915   3.432
 5998TIP3    H117937   6.595   1.976   3.394
 5998TIP3    H217938   6.483   1.880   3.357
 5999TIP3   OH217939   5.964   4.712   5.679
 5999TIP3    H117940   6.040   4.761   5.710
 5999TIP3    H217941   5.911   4.697   5.758
 6000TIP3   OH217942   6.489   3.627   3.744
 6000TIP3    H117943   6.402   3.614   3.706
 6000TIP3    H217944   6.549   3.598   3.676
 6001TIP3   OH217945   4.878   2.915   3.697
 6001TIP3    H117946   4.928   2.964   3.632
 6001TIP3    H217947   4.902   2.824   3.682
 6002TIP3   OH217948   7.991   5.253   3.986
 6002TIP3    H117949   7.923   5.244   4.052
 6002TIP3    H217950   8.053   5.315   4.024
 6003TIP3   OH217951   3.446   2.365   0.374
 6003TIP3    H117952   3.450   2.460   0.381
 6003TIP3    H217953   3.448   2.334   0.465
 6004TIP3   OH217954   7.818   1.348   2.060
 6004TIP3    H117955   7.899   1.303   2.036
 6004TIP3    H217956   7.751   1.280   2.055
 6005TIP3   OH217957   1.804   3.815   5.809
 6005TIP3    H117958   1.747   3.848   5.740
 6005TIP3    H217959   1.885   3.792   5.764
 6006TIP3   OH217960   2.088   2.398   3.296
 6006TIP3    H117961   2.111   2.327   3.357
 6006TIP3    H217962   2.158   2.397   3.231
 6007TIP3   OH217963   3.618   2.802   6.260
 6007TIP3    H117964   3.681   2.754   6.315
 6007TIP3    H217965   3.609   2.887   6.303
 6008TIP3   OH217966   4.781   3.403   1.051
 6008TIP3    H117967   4.760   3.411   1.144
 6008TIP3    H217968   4.868   3.443   1.043
 6009TIP3   OH217969   4.493   6.939   2.449
 6009TIP3    H117970   4.452   6.861   2.487
 6009TIP3    H217971   4.436   6.963   2.376
 6010TIP3   OH217972   4.720   3.412   3.883
 6010TIP3    H117973   4.797   3.357   3.897
 6010TIP3    H217974   4.735   3.454   3.799
 6011TIP3   OH217975   1.896   3.939   2.507
 6011TIP3    H117976   1.958   3.961   2.438
 6011TIP3    H217977   1.946   3.949   2.588
 6012TIP3   OH217978   2.901   0.681   4.708
 6012TIP3    H117979   2.838   0.753   4.708
 6012TIP3    H217980   2.852   0.606   4.742
 6013TIP3   OH217981   2.364   7.645   0.733
 6013TIP3    H117982   2.410   7.726   0.757
 6013TIP3    H217983   2.422   7.602   0.671
 6014TIP3   OH217984   4.656   4.887   1.123
 6014TIP3    H117985   4.713   4.839   1.183
 6014TIP3    H217986   4.586   4.922   1.178
 6015TIP3   OH217987   7.572   0.971   2.682
 6015TIP3    H117988   7.589   1.048   2.736
 6015TIP3    H217989   7.647   0.966   2.623
 6016TIP3   OH217990   4.728   0.039   2.793
 6016TIP3    H117991   4.657   0.096   2.825
 6016TIP3    H217992   4.772   0.091   2.726
 6017TIP3   OH217993   4.493   0.481   1.611
 6017TIP3    H117994   4.399   0.497   1.623
 6017TIP3    H217995   4.525   0.461   1.699
 6018TIP3   OH217996   8.279   4.220   4.664
 6018TIP3    H117997   8.241   4.164   4.597
 6018TIP3    H217998   8.323   4.290   4.614
 6019TIP3   OH217999   4.216   0.142   5.163
 6019TIP3    H118000   4.192   0.234   5.174
 6019TIP3    H218001   4.191   0.122   5.073
 6020TIP3   OH218002   0.758   4.105   1.852
 6020TIP3    H118003   0.806   4.184   1.828
 6020TIP3    H218004   0.759   4.103   1.947
 6021TIP3   OH218005   3.358   4.602   4.644
 6021TIP3    H118006   3.300   4.599   4.721
 6021TIP3    H218007   3.402   4.687   4.651
 6022TIP3   OH218008   6.485   5.777   4.737
 6022TIP3    H118009   6.405   5.826   4.758
 6022TIP3    H218010   6.487   5.774   4.641
 6023TIP3   OH218011   4.708   4.488   2.122
 6023TIP3    H118012   4.737   4.436   2.048
 6023TIP3    H218013   4.615   4.468   2.131
 6024TIP3   OH218014   1.276   3.993   4.490
 6024TIP3    H118015   1.289   3.993   4.585
 6024TIP3    H218016   1.358   4.026   4.455
 6025TIP3   OH218017   1.900   3.762   1.095
 6025TIP3    H118018   1.954   3.703   1.147
 6025TIP3    H218019   1.889   3.718   1.011
 6026TIP3   OH218020   3.902   7.499   4.374
 6026TIP3    H118021   3.832   7.461   4.427
 6026TIP3    H218022   3.969   7.524   4.437
 6027TIP3   OH218023   2.191   4.555   4.607
 6027TIP3    H118024   2.215   4.485   4.668
 6027TIP3    H218025   2.275   4.585   4.572
 6028TIP3   OH218026   1.835   2.331   2.896
 6028TIP3    H118027   1.812   2.265   2.960
 6028TIP3    H218028   1.928   2.316   2.878
 6029TIP3   OH218029   5.919   2.382   0.535
 6029TIP3    H118030   5.844   2.354   0.484
 6029TIP3    H218031   5.995   2.351   0.486
 6030TIP3   OH218032   2.224   0.678   0.388
 6030TIP3    H118033   2.201   0.750   0.447
 6030TIP3    H218034   2.305   0.707   0.346
 6031TIP3   OH218035   6.638   6.070   3.515
 6031TIP3    H118036   6.682   6.128   3.577
 6031TIP3    H218037   6.700   6.061   3.443
 6032TIP3   OH218038   4.599   7.706   2.686
 6032TIP3    H118039   4.570   7.705   2.777
 6032TIP3    H218040   4.694   7.721   2.691
 6033TIP3   OH218041   0.609   5.594   4.296
 6033TIP3    H118042   0.641   5.603   4.206
 6033TIP3    H218043   0.525   5.639   4.296
 6034TIP3   OH218044   0.255   5.532   0.798
 6034TIP3    H118045   0.222   5.601   0.741
 6034TIP3    H218046   0.306   5.475   0.740
 6035TIP3   OH218047   3.114   6.871   2.323
 6035TIP3    H118048   3.179   6.941   2.324
 6035TIP3    H218049   3.155   6.800   2.274
 6036TIP3   OH218050   0.381   4.168   3.831
 6036TIP3    H118051   0.427   4.124   3.759
 6036TIP3    H218052   0.418   4.257   3.831
 6037TIP3   OH218053   5.642   0.267   4.203
 6037TIP3    H118054   5.626   0.242   4.294
 6037TIP3    H218055   5.735   0.289   4.200
 6038TIP3   OH218056   5.870   4.952   5.474
 6038TIP3    H118057   5.925   4.878   5.449
 6038TIP3    H218058   5.926   5.006   5.530
 6039TIP3   OH218059   5.592   4.514   6.159
 6039TIP3    H118060   5.618   4.576   6.090
 6039TIP3    H218061   5.497   4.522   6.164
 6040TIP3   OH218062   7.366   3.261   5.429
 6040TIP3    H118063   7.394   3.271   5.338
 6040TIP3    H218064   7.448   3.247   5.478
 6041TIP3   OH218065   8.191   5.380   4.407
 6041TIP3    H118066   8.275   5.408   4.371
 6041TIP3    H218067   8.160   5.313   4.347
 6042TIP3   OH218068   3.756   1.640   6.661
 6042TIP3    H118069   3.723   1.686   6.739
 6042TIP3    H218070   3.809   1.569   6.697
 6043TIP3   OH218071   2.106   6.542   5.297
 6043TIP3    H118072   2.136   6.529   5.387
 6043TIP3    H218073   2.020   6.582   5.306
 6044TIP3   OH218074   2.288   2.271   0.366
 6044TIP3    H118075   2.383   2.269   0.373
 6044TIP3    H218076   2.271   2.277   0.272
 6045TIP3   OH218077   6.662   2.798   3.319
 6045TIP3    H118078   6.710   2.832   3.394
 6045TIP3    H218079   6.569   2.807   3.343
 6046TIP3   OH218080   7.840   1.770   5.299
 6046TIP3    H118081   7.847   1.680   5.332
 6046TIP3    H218082   7.929   1.793   5.274
 6047TIP3   OH218083   1.070   3.077   5.943
 6047TIP3    H118084   0.978   3.054   5.938
 6047TIP3    H218085   1.079   3.127   6.024
 6048TIP3   OH218086   5.873   4.553   2.573
 6048TIP3    H118087   5.891   4.584   2.662
 6048TIP3    H218088   5.919   4.615   2.516
 6049TIP3   OH218089   7.722   5.189   3.347
 6049TIP3    H118090   7.739   5.183   3.441
 6049TIP3    H218091   7.731   5.282   3.327
 6050TIP3   OH218092   7.945   2.236   6.550
 6050TIP3    H118093   8.002   2.167   6.516
 6050TIP3    H218094   7.948   2.305   6.483
 6051TIP3   OH218095   1.355   6.418   2.957
 6051TIP3    H118096   1.304   6.337   2.944
 6051TIP3    H218097   1.355   6.431   3.052
 6052TIP3   OH218098   5.349   1.139   1.068
 6052TIP3    H118099   5.397   1.125   0.987
 6052TIP3    H218100   5.377   1.226   1.098
 6053TIP3   OH218101   7.088   0.118   4.387
 6053TIP3    H118102   7.120   0.203   4.357
 6053TIP3    H218103   7.018   0.139   4.448
 6054TIP3   OH218104   1.327   5.987   2.103
 6054TIP3    H118105   1.325   5.897   2.135
 6054TIP3    H218106   1.394   5.986   2.034
 6055TIP3   OH218107   4.873   6.335   0.798
 6055TIP3    H118108   4.810   6.373   0.737
 6055TIP3    H218109   4.925   6.410   0.827
 6056TIP3   OH218110   8.136   4.570   2.045
 6056TIP3    H118111   8.068   4.637   2.044
 6056TIP3    H218112   8.185   4.587   2.126
 6057TIP3   OH218113   6.611   2.222   4.805
 6057TIP3    H118114   6.682   2.255   4.750
 6057TIP3    H218115   6.531   2.253   4.763
 6058TIP3   OH218116   1.159   4.809   1.348
 6058TIP3    H118117   1.234   4.793   1.290
 6058TIP3    H218118   1.134   4.722   1.379
 6059TIP3   OH218119   2.973   1.057   1.057
 6059TIP3    H118120   2.995   0.986   0.997
 6059TIP3    H218121   2.879   1.051   1.069
 6060TIP3   OH218122   6.864   5.089   3.626
 6060TIP3    H118123   6.792   5.104   3.687
 6060TIP3    H218124   6.856   4.997   3.600
 6061TIP3   OH218125   2.359   1.624   6.453
 6061TIP3    H118126   2.382   1.550   6.396
 6061TIP3    H218127   2.433   1.630   6.514
 6062TIP3   OH218128   4.338   6.355   1.169
 6062TIP3    H118129   4.367   6.373   1.258
 6062TIP3    H218130   4.243   6.352   1.175
 6063TIP3   OH218131   1.580   5.614   6.512
 6063TIP3    H118132   1.561   5.697   6.555
 6063TIP3    H218133   1.574   5.549   6.582
 6064TIP3   OH218134   7.390   6.113   1.074
 6064TIP3    H118135   7.359   6.056   1.003
 6064TIP3    H218136   7.428   6.189   1.029
 6065TIP3   OH218137   2.591   1.762   1.236
 6065TIP3    H118138   2.540   1.743   1.314
 6065TIP3    H218139   2.682   1.755   1.265
 6066TIP3   OH218140   6.229   2.201   1.197
 6066TIP3    H118141   6.259   2.239   1.279
 6066TIP3    H218142   6.140   2.170   1.216
 6067TIP3   OH218143   8.192   3.174   4.030
 6067TIP3    H118144   8.157   3.125   4.105
 6067TIP3    H218145   8.215   3.260   4.067
 6068TIP3   OH218146   0.956   5.873   2.554
 6068TIP3    H118147   1.016   5.940   2.522
 6068TIP3    H218148   0.974   5.867   2.648
 6069TIP3   OH218149   7.820   1.462   2.666
 6069TIP3    H118150   7.738   1.439   2.709
 6069TIP3    H218151   7.824   1.405   2.589
 6070TIP3   OH218152   3.667   1.614   4.469
 6070TIP3    H118153   3.585   1.637   4.513
 6070TIP3    H218154   3.645   1.541   4.411
 6071TIP3   OH218155   5.503   6.913   1.835
 6071TIP3    H118156   5.559   6.984   1.866
 6071TIP3    H218157   5.551   6.874   1.763
 6072TIP3   OH218158   4.432   5.285   3.789
 6072TIP3    H118159   4.500   5.305   3.854
 6072TIP3    H218160   4.380   5.365   3.782
 6073TIP3   OH218161   7.144   3.130   0.361
 6073TIP3    H118162   7.158   3.102   0.270
 6073TIP3    H218163   7.205   3.202   0.373
 6074TIP3   OH218164   3.950   3.087   3.707
 6074TIP3    H118165   3.982   3.157   3.650
 6074TIP3    H218166   3.998   3.099   3.789
 6075TIP3   OH218167   7.752   2.571   4.587
 6075TIP3    H118168   7.722   2.645   4.639
 6075TIP3    H218169   7.690   2.568   4.514
 6076TIP3   OH218170   7.617   0.045   3.769
 6076TIP3    H118171   7.531   0.033   3.810
 6076TIP3    H218172   7.641   0.135   3.790
 6077TIP3   OH218173   7.163   0.560   3.693
 6077TIP3    H118174   7.204   0.477   3.669
 6077TIP3    H218175   7.122   0.590   3.611
 6078TIP3   OH218176   4.329   0.235   5.965
 6078TIP3    H118177   4.366   0.151   5.993
 6078TIP3    H218178   4.401   0.280   5.921
 6079TIP3   OH218179   0.198   2.358   4.239
 6079TIP3    H118180   0.275   2.346   4.184
 6079TIP3    H218181   0.185   2.272   4.280
 6080TIP3   OH218182   0.826   4.785   3.255
 6080TIP3    H118183   0.861   4.811   3.169
 6080TIP3    H218184   0.827   4.866   3.307
 6081TIP3   OH218185   3.925   3.017   1.888
 6081TIP3    H118186   3.919   2.960   1.965
 6081TIP3    H218187   3.947   2.958   1.817
 6082TIP3   OH218188   5.042   0.887   1.833
 6082TIP3    H118189   5.112   0.839   1.878
 6082TIP3    H218190   5.049   0.858   1.742
 6083TIP3   OH218191   0.602   2.181   2.895
 6083TIP3    H118192   0.675   2.210   2.840
 6083TIP3    H218193   0.635   2.103   2.939
 6084TIP3   OH218194   8.105   3.752   6.238
 6084TIP3    H118195   8.195   3.723   6.225
 6084TIP3    H218196   8.102   3.840   6.200
 6085TIP3   OH218197   5.776   5.607   5.587
 6085TIP3    H118198   5.847   5.662   5.553
 6085TIP3    H218199   5.817   5.521   5.602
 6086TIP3   OH218200   6.344   6.457   3.521
 6086TIP3    H118201   6.257   6.491   3.501
 6086TIP3    H218202   6.328   6.384   3.581
 6087TIP3   OH218203   5.827   4.983   2.441
 6087TIP3    H118204   5.828   4.916   2.373
 6087TIP3    H218205   5.863   4.939   2.518
 6088TIP3   OH218206   5.568   1.788   4.618
 6088TIP3    H118207   5.585   1.878   4.590
 6088TIP3    H218208   5.629   1.773   4.690
 6089TIP3   OH218209   0.555   6.174   5.327
 6089TIP3    H118210   0.629   6.123   5.359
 6089TIP3    H218211   0.559   6.165   5.232
 6090TIP3   OH218212   6.353   4.794   2.818
 6090TIP3    H118213   6.392   4.877   2.791
 6090TIP3    H218214   6.409   4.727   2.779
 6091TIP3   OH218215   3.236   6.077   4.755
 6091TIP3    H118216   3.248   5.994   4.709
 6091TIP3    H218217   3.324   6.109   4.770
 6092TIP3   OH218218   1.493   3.865   1.453
 6092TIP3    H118219   1.431   3.937   1.440
 6092TIP3    H218220   1.557   3.876   1.383
 6093TIP3   OH218221   7.485   0.870   5.626
 6093TIP3    H118222   7.510   0.780   5.645
 6093TIP3    H218223   7.483   0.875   5.530
 6094TIP3   OH218224   5.177   5.210   1.982
 6094TIP3    H118225   5.247   5.273   1.967
 6094TIP3    H218226   5.142   5.191   1.895
 6095TIP3   OH218227   1.262   2.745   1.239
 6095TIP3    H118228   1.191   2.794   1.200
 6095TIP3    H218229   1.302   2.697   1.166
 6096TIP3   OH218230   1.586   5.432   3.333
 6096TIP3    H118231   1.551   5.405   3.418
 6096TIP3    H218232   1.652   5.498   3.354
 6097TIP3   OH218233   0.043   6.872   6.148
 6097TIP3    H118234  -0.033   6.868   6.206
 6097TIP3    H218235   0.076   6.961   6.158
 6098TIP3   OH218236   8.226   7.133   0.492
 6098TIP3    H118237   8.152   7.128   0.553
 6098TIP3    H218238   8.280   7.204   0.526
 6099TIP3   OH218239   7.368   7.218   6.377
 6099TIP3    H118240   7.367   7.269   6.458
 6099TIP3    H218241   7.411   7.276   6.313
 6100TIP3   OH218242   2.642   2.131   4.921
 6100TIP3    H118243   2.646   2.160   4.830
 6100TIP3    H218244   2.590   2.198   4.965
 6101TIP3   OH218245   6.435   5.502   2.764
 6101TIP3    H118246   6.398   5.531   2.847
 6101TIP3    H218247   6.471   5.582   2.725
 6102TIP3   OH218248   0.268   5.651   2.861
 6102TIP3    H118249   0.236   5.566   2.832
 6102TIP3    H218250   0.328   5.679   2.793
 6103TIP3   OH218251   1.631   7.268   4.853
 6103TIP3    H118252   1.552   7.304   4.894
 6103TIP3    H218253   1.685   7.344   4.835
 6104TIP3   OH218254   6.221   7.205   2.397
 6104TIP3    H118255   6.306   7.218   2.440
 6104TIP3    H218256   6.157   7.233   2.463
 6105TIP3   OH218257   5.043   2.005   0.615
 6105TIP3    H118258   4.988   2.074   0.652
 6105TIP3    H218259   5.013   1.996   0.525
 6106TIP3   OH218260   0.713   5.888   4.605
 6106TIP3    H118261   0.805   5.912   4.594
 6106TIP3    H218262   0.709   5.849   4.692
 6107TIP3   OH218263   3.502   2.708   4.334
 6107TIP3    H118264   3.432   2.773   4.326
 6107TIP3    H218265   3.463   2.636   4.383
 6108TIP3   OH218266   6.969   4.266   4.589
 6108TIP3    H118267   6.990   4.358   4.575
 6108TIP3    H218268   6.880   4.255   4.554
 6109TIP3   OH218269   0.833   7.740   3.645
 6109TIP3    H118270   0.802   7.697   3.565
 6109TIP3    H218271   0.857   7.828   3.617
 6110TIP3   OH218272   4.875   0.245   5.427
 6110TIP3    H118273   4.951   0.237   5.484
 6110TIP3    H218274   4.870   0.162   5.381
 6111TIP3   OH218275   5.430   5.279   2.343
 6111TIP3    H118276   5.506   5.255   2.397
 6111TIP3    H218277   5.419   5.205   2.283
 6112TIP3   OH218278   5.206   2.323   6.310
 6112TIP3    H118279   5.209   2.343   6.216
 6112TIP3    H218280   5.131   2.373   6.343
 6113TIP3   OH218281   0.995   7.212   2.626
 6113TIP3    H118282   0.956   7.170   2.702
 6113TIP3    H218283   0.945   7.178   2.551
 6114TIP3   OH218284   0.819   0.768   1.000
 6114TIP3    H118285   0.833   0.855   0.964
 6114TIP3    H218286   0.742   0.735   0.953
 6115TIP3   OH218287   5.840   1.518   2.278
 6115TIP3    H118288   5.862   1.424   2.277
 6115TIP3    H218289   5.838   1.540   2.371
 6116TIP3   OH218290   6.068   0.518   1.804
 6116TIP3    H118291   5.985   0.566   1.808
 6116TIP3    H218292   6.128   0.571   1.856
 6117TIP3   OH218293   0.979   1.944   3.636
 6117TIP3    H118294   1.028   1.970   3.558
 6117TIP3    H218295   0.928   2.021   3.660
 6118TIP3   OH218296   2.426   0.866   4.725
 6118TIP3    H118297   2.438   0.947   4.675
 6118TIP3    H218298   2.393   0.894   4.810
 6119TIP3   OH218299   5.268   7.787   4.788
 6119TIP3    H118300   5.344   7.744   4.827
 6119TIP3    H218301   5.231   7.722   4.729
 6120TIP3   OH218302   2.971   4.488   2.649
 6120TIP3    H118303   2.915   4.478   2.572
 6120TIP3    H218304   2.937   4.565   2.694
 6121TIP3   OH218305   5.365   6.800   2.966
 6121TIP3    H118306   5.277   6.763   2.969
 6121TIP3    H218307   5.362   6.867   2.899
 6122TIP3   OH218308   2.119   0.904   0.827
 6122TIP3    H118309   2.209   0.930   0.846
 6122TIP3    H218310   2.065   0.975   0.863
 6123TIP3   OH218311   1.391   6.512   6.092
 6123TIP3    H118312   1.473   6.557   6.077
 6123TIP3    H218313   1.393   6.438   6.031
 6124TIP3   OH218314   3.609   5.037   2.459
 6124TIP3    H118315   3.540   5.103   2.473
 6124TIP3    H218316   3.646   5.023   2.546
 6125TIP3   OH218317   6.833   3.613   1.003
 6125TIP3    H118318   6.770   3.560   0.955
 6125TIP3    H218319   6.856   3.560   1.080
 6126TIP3   OH218320   2.702   2.175   4.451
 6126TIP3    H118321   2.767   2.202   4.386
 6126TIP3    H218322   2.739   2.097   4.492
 6127TIP3   OH218323   7.160   5.552   1.587
 6127TIP3    H118324   7.250   5.523   1.575
 6127TIP3    H218325   7.166   5.646   1.602
 6128TIP3   OH218326   1.981   3.326   2.439
 6128TIP3    H118327   1.977   3.413   2.400
 6128TIP3    H218328   1.957   3.340   2.531
 6129TIP3   OH218329   2.788   1.880   3.178
 6129TIP3    H118330   2.813   1.817   3.111
 6129TIP3    H218331   2.704   1.914   3.148
 6130TIP3   OH218332   2.909   2.906   1.296
 6130TIP3    H118333   2.846   2.836   1.313
 6130TIP3    H218334   2.994   2.867   1.316
 6131TIP3   OH218335   4.423   4.356   2.889
 6131TIP3    H118336   4.466   4.427   2.841
 6131TIP3    H218337   4.435   4.377   2.981
 6132TIP3   OH218338   0.344   3.678   3.859
 6132TIP3    H118339   0.364   3.741   3.929
 6132TIP3    H218340   0.401   3.604   3.878
 6133TIP3   OH218341   5.841   5.648   0.234
 6133TIP3    H118342   5.843   5.731   0.281
 6133TIP3    H218343   5.838   5.581   0.302
 6134TIP3   OH218344   6.985   0.168   5.372
 6134TIP3    H118345   7.055   0.225   5.341
 6134TIP3    H218346   6.908   0.226   5.377
 6135TIP3   OH218347   2.436   6.271   2.493
 6135TIP3    H118348   2.397   6.339   2.438
 6135TIP3    H218349   2.494   6.222   2.434
 6136TIP3   OH218350   3.129   2.904   3.628
 6136TIP3    H118351   3.218   2.938   3.621
 6136TIP3    H218352   3.072   2.977   3.603
 6137TIP3   OH218353   2.126   4.994   2.484
 6137TIP3    H118354   2.157   4.942   2.410
 6137TIP3    H218355   2.197   4.990   2.548
 6138TIP3   OH218356   5.019   6.251   1.808
 6138TIP3    H118357   4.945   6.201   1.844
 6138TIP3    H218358   5.045   6.203   1.730
 6139TIP3   OH218359   5.504   3.547   5.465
 6139TIP3    H118360   5.517   3.462   5.422
 6139TIP3    H218361   5.539   3.535   5.553
 6140TIP3   OH218362   1.159   0.162   4.795
 6140TIP3    H118363   1.189   0.100   4.728
 6140TIP3    H218364   1.166   0.114   4.877
 6141TIP3   OH218365   5.874   2.390   1.462
 6141TIP3    H118366   5.798   2.352   1.418
 6141TIP3    H218367   5.930   2.316   1.482
 6142TIP3   OH218368   6.135   4.952   4.072
 6142TIP3    H118369   6.186   4.874   4.092
 6142TIP3    H218370   6.045   4.920   4.063
 6143TIP3   OH218371   5.387   3.054   0.603
 6143TIP3    H118372   5.326   3.011   0.662
 6143TIP3    H218373   5.471   3.011   0.620
 6144TIP3   OH218374   1.440   7.681   1.095
 6144TIP3    H118375   1.369   7.745   1.104
 6144TIP3    H218376   1.398   7.596   1.111
 6145TIP3   OH218377   7.397   7.195   4.562
 6145TIP3    H118378   7.472   7.135   4.560
 6145TIP3    H218379   7.424   7.265   4.622
 6146TIP3   OH218380   2.316   5.186   2.636
 6146TIP3    H118381   2.240   5.231   2.599
 6146TIP3    H218382   2.352   5.248   2.699
 6147TIP3   OH218383   7.658   2.601   6.461
 6147TIP3    H118384   7.712   2.675   6.432
 6147TIP3    H218385   7.691   2.526   6.411
 6148TIP3   OH218386   4.723   3.116   3.854
 6148TIP3    H118387   4.793   3.060   3.820
 6148TIP3    H218388   4.730   3.196   3.803
 6149TIP3   OH218389   1.364   4.624   5.881
 6149TIP3    H118390   1.359   4.576   5.798
 6149TIP3    H218391   1.443   4.677   5.872
 6150TIP3   OH218392   4.405   3.069   6.215
 6150TIP3    H118393   4.472   3.050   6.149
 6150TIP3    H218394   4.323   3.045   6.172
 6151TIP3   OH218395   0.531   7.210   5.142
 6151TIP3    H118396   0.575   7.202   5.227
 6151TIP3    H218397   0.438   7.197   5.163
 6152TIP3   OH218398   0.244   3.634   4.746
 6152TIP3    H118399   0.230   3.595   4.832
 6152TIP3    H218400   0.192   3.714   4.747
 6153TIP3   OH218401   4.568   0.359   6.526
 6153TIP3    H118402   4.539   0.269   6.538
 6153TIP3    H218403   4.487   0.409   6.514
 6154TIP3   OH218404   3.850   0.891   6.556
 6154TIP3    H118405   3.890   0.977   6.551
 6154TIP3    H218406   3.784   0.891   6.486
 6155TIP3   OH218407   4.046   5.436   4.129
 6155TIP3    H118408   4.055   5.362   4.189
 6155TIP3    H218409   4.044   5.396   4.042
 6156TIP3   OH218410   1.832   1.398   5.905
 6156TIP3    H118411   1.807   1.306   5.900
 6156TIP3    H218412   1.825   1.419   5.999
 6157TIP3   OH218413   7.678   6.545   3.227
 6157TIP3    H118414   7.705   6.454   3.240
 6157TIP3    H218415   7.760   6.593   3.222
 6158TIP3   OH218416   5.868   2.242   0.845
 6158TIP3    H118417   5.878   2.332   0.813
 6158TIP3    H218418   5.834   2.251   0.934
 6159TIP3   OH218419   6.240   0.508   5.242
 6159TIP3    H118420   6.239   0.592   5.196
 6159TIP3    H218421   6.329   0.500   5.275
 6160TIP3   OH218422   8.245   4.795   5.668
 6160TIP3    H118423   8.256   4.758   5.581
 6160TIP3    H218424   8.168   4.751   5.704
 6161TIP3   OH218425   5.360   7.409   2.628
 6161TIP3    H118426   5.396   7.357   2.556
 6161TIP3    H218427   5.360   7.499   2.594
 6162TIP3   OH218428   3.042   7.411   6.505
 6162TIP3    H118429   3.036   7.435   6.598
 6162TIP3    H218430   3.081   7.488   6.464
 6163TIP3   OH218431   1.238   1.265   6.625
 6163TIP3    H118432   1.281   1.205   6.686
 6163TIP3    H218433   1.306   1.327   6.600
 6164TIP3   OH218434   5.799   7.370   3.769
 6164TIP3    H118435   5.869   7.304   3.775
 6164TIP3    H218436   5.829   7.429   3.700
 6165TIP3   OH218437   6.386   3.052   3.536
 6165TIP3    H118438   6.293   3.052   3.556
 6165TIP3    H218439   6.429   3.052   3.622
 6166TIP3   OH218440   2.335   7.262   6.161
 6166TIP3    H118441   2.356   7.294   6.073
 6166TIP3    H218442   2.378   7.323   6.220
 6167TIP3   OH218443   1.909   6.737   5.250
 6167TIP3    H118444   1.888   6.824   5.286
 6167TIP3    H218445   1.877   6.741   5.160
 6168TIP3   OH218446   3.674   6.384   3.021
 6168TIP3    H118447   3.726   6.318   3.066
 6168TIP3    H218448   3.583   6.362   3.043
 6169TIP3   OH218449   8.184   2.765   5.138
 6169TIP3    H118450   8.185   2.726   5.051
 6169TIP3    H218451   8.277   2.779   5.159
 6170TIP3   OH218452   3.943   6.899   5.946
 6170TIP3    H118453   3.998   6.971   5.917
 6170TIP3    H218454   3.890   6.935   6.017
 6171TIP3   OH218455   7.833   0.265   5.609
 6171TIP3    H118456   7.888   0.305   5.677
 6171TIP3    H218457   7.832   0.172   5.632
 6172TIP3   OH218458   1.003   1.116   1.544
 6172TIP3    H118459   1.019   1.194   1.598
 6172TIP3    H218460   0.923   1.136   1.496
 6173TIP3   OH218461   3.657   6.820   6.122
 6173TIP3    H118462   3.730   6.838   6.182
 6173TIP3    H218463   3.651   6.724   6.120
 6174TIP3   OH218464   5.191   3.426   3.971
 6174TIP3    H118465   5.151   3.499   4.020
 6174TIP3    H218466   5.168   3.348   4.023
 6175TIP3   OH218467   6.041   7.100   2.771
 6175TIP3    H118468   6.015   7.025   2.716
 6175TIP3    H218469   6.022   7.176   2.716
 6176TIP3   OH218470   6.102   6.898   4.986
 6176TIP3    H118471   6.138   6.985   5.006
 6176TIP3    H218472   6.172   6.837   5.010
 6177TIP3   OH218473   0.210   7.789   5.836
 6177TIP3    H118474   0.265   7.838   5.898
 6177TIP3    H218475   0.238   7.820   5.750
 6178TIP3   OH218476   8.206   3.394   0.551
 6178TIP3    H118477   8.133   3.335   0.531
 6178TIP3    H218478   8.165   3.471   0.590
 6179TIP3   OH218479   1.886   5.723   3.995
 6179TIP3    H118480   1.972   5.734   4.034
 6179TIP3    H218481   1.867   5.807   3.954
 6180TIP3   OH218482   5.469   4.831   2.986
 6180TIP3    H118483   5.410   4.765   3.022
 6180TIP3    H218484   5.460   4.906   3.044
 6181TIP3   OH218485   1.608   5.948   2.424
 6181TIP3    H118486   1.621   5.919   2.334
 6181TIP3    H218487   1.603   6.044   2.418
 6182TIP3   OH218488   6.934   6.252   3.371
 6182TIP3    H118489   6.855   6.306   3.370
 6182TIP3    H218490   7.006   6.314   3.356
 6183TIP3   OH218491   1.632   0.275   2.354
 6183TIP3    H118492   1.608   0.349   2.408
 6183TIP3    H218493   1.712   0.303   2.308
 6184TIP3   OH218494   2.120   3.066   3.433
 6184TIP3    H118495   2.117   3.114   3.350
 6184TIP3    H218496   2.185   2.998   3.419
 6185TIP3   OH218497   2.193   5.780   5.689
 6185TIP3    H118498   2.115   5.755   5.641
 6185TIP3    H218499   2.264   5.773   5.626
 6186TIP3   OH218500   4.831   2.392   3.737
 6186TIP3    H118501   4.778   2.340   3.797
 6186TIP3    H218502   4.770   2.455   3.700
 6187TIP3   OH218503   2.402   4.931   3.305
 6187TIP3    H118504   2.438   4.920   3.393
 6187TIP3    H218505   2.323   4.877   3.304
 6188TIP3   OH218506   0.397   1.436   6.332
 6188TIP3    H118507   0.400   1.369   6.263
 6188TIP3    H218508   0.489   1.454   6.352
 6189TIP3   OH218509   6.125   4.061   3.418
 6189TIP3    H118510   6.188   4.035   3.351
 6189TIP3    H218511   6.175   4.118   3.477
 6190TIP3   OH218512   0.033   0.973   6.775
 6190TIP3    H118513  -0.039   1.027   6.742
 6190TIP3    H218514   0.014   0.884   6.744
 6191TIP3   OH218515   5.159   0.427   5.748
 6191TIP3    H118516   5.175   0.436   5.843
 6191TIP3    H218517   5.234   0.375   5.717
 6192TIP3   OH218518   2.910   6.706   4.724
 6192TIP3    H118519   2.838   6.652   4.756
 6192TIP3    H218520   2.972   6.710   4.797
 6193TIP3   OH218521   8.199   5.287   0.349
 6193TIP3    H118522   8.194   5.300   0.254
 6193TIP3    H218523   8.279   5.236   0.362
 6194TIP3   OH218524   1.831   6.268   4.413
 6194TIP3    H118525   1.922   6.283   4.387
 6194TIP3    H218526   1.780   6.323   4.353
 6195TIP3   OH218527   1.310   4.491   4.934
 6195TIP3    H118528   1.395   4.528   4.912
 6195TIP3    H218529   1.295   4.518   5.025
 6196TIP3   OH218530   4.699   0.940   1.093
 6196TIP3    H118531   4.753   1.018   1.080
 6196TIP3    H218532   4.609   0.972   1.095
 6197TIP3   OH218533   4.691   0.232   4.675
 6197TIP3    H118534   4.668   0.167   4.742
 6197TIP3    H218535   4.769   0.197   4.634
 6198TIP3   OH218536   3.280   1.898   2.666
 6198TIP3    H118537   3.294   1.985   2.629
 6198TIP3    H218538   3.367   1.869   2.694
 6199TIP3   OH218539   3.519   2.875   5.233
 6199TIP3    H118540   3.595   2.910   5.187
 6199TIP3    H218541   3.551   2.855   5.321
 6200TIP3   OH218542   5.913   0.543   1.436
 6200TIP3    H118543   5.948   0.628   1.410
 6200TIP3    H218544   5.821   0.546   1.411
 6201TIP3   OH218545   3.395   4.856   0.025
 6201TIP3    H118546   3.440   4.936   0.051
 6201TIP3    H218547   3.302   4.877   0.032
 6202TIP3   OH218548   6.055   4.118   1.159
 6202TIP3    H118549   6.143   4.129   1.124
 6202TIP3    H218550   6.068   4.102   1.253
 6203TIP3   OH218551   6.034   2.662   4.279
 6203TIP3    H118552   6.067   2.661   4.189
 6203TIP3    H218553   6.027   2.755   4.300
 6204TIP3   OH218554   0.083   0.351   5.082
 6204TIP3    H118555   0.068   0.267   5.038
 6204TIP3    H218556   0.073   0.416   5.013
 6205TIP3   OH218557   6.067   3.787   5.615
 6205TIP3    H118558   6.122   3.866   5.608
 6205TIP3    H218559   5.978   3.818   5.596
 6206TIP3   OH218560   5.148   2.637   0.883
 6206TIP3    H118561   5.061   2.664   0.851
 6206TIP3    H218562   5.132   2.609   0.974
 6207TIP3   OH218563   1.548   7.556   1.470
 6207TIP3    H118564   1.642   7.550   1.491
 6207TIP3    H218565   1.545   7.608   1.389
 6208TIP3   OH218566   7.970   5.518   0.237
 6208TIP3    H118567   7.933   5.577   0.303
 6208TIP3    H218568   8.039   5.471   0.283
 6209TIP3   OH218569   5.135   7.261   4.317
 6209TIP3    H118570   5.079   7.273   4.240
 6209TIP3    H218571   5.167   7.348   4.337
 6210TIP3   OH218572   3.822   6.684   5.390
 6210TIP3    H118573   3.896   6.637   5.351
 6210TIP3    H218574   3.828   6.772   5.354
 6211TIP3   OH218575   4.445   6.375   3.409
 6211TIP3    H118576   4.370   6.357   3.465
 6211TIP3    H218577   4.412   6.368   3.320
 6212TIP3   OH218578   7.520   4.482   1.875
 6212TIP3    H118579   7.495   4.572   1.896
 6212TIP3    H218580   7.546   4.444   1.959
 6213TIP3   OH218581   6.775   2.833   0.108
 6213TIP3    H118582   6.853   2.865   0.062
 6213TIP3    H218583   6.801   2.831   0.200
 6214TIP3   OH218584   4.048   7.242   2.616
 6214TIP3    H118585   4.076   7.286   2.696
 6214TIP3    H218586   3.989   7.173   2.646
 6215TIP3   OH218587   0.104   4.517   0.541
 6215TIP3    H118588   0.070   4.486   0.625
 6215TIP3    H218589   0.179   4.461   0.523
 6216TIP3   OH218590   6.138   4.153   5.239
 6216TIP3    H118591   6.124   4.065   5.203
 6216TIP3    H218592   6.122   4.212   5.165
 6217TIP3   OH218593   6.624   4.974   6.363
 6217TIP3    H118594   6.607   4.882   6.386
 6217TIP3    H218595   6.709   4.993   6.402
 6218TIP3   OH218596   1.373   2.999   3.546
 6218TIP3    H118597   1.394   3.092   3.555
 6218TIP3    H218598   1.338   2.991   3.457
 6219TIP3   OH218599   7.061   1.408   0.107
 6219TIP3    H118600   7.122   1.449   0.169
 6219TIP3    H218601   7.025   1.333   0.155
 6220TIP3   OH218602   0.170   2.272   2.243
 6220TIP3    H118603   0.146   2.338   2.178
 6220TIP3    H218604   0.261   2.293   2.266
 6221TIP3   OH218605   5.268   2.980   3.288
 6221TIP3    H118606   5.215   2.983   3.368
 6221TIP3    H218607   5.321   3.059   3.291
 6222TIP3   OH218608   7.183   1.426   4.776
 6222TIP3    H118609   7.257   1.365   4.774
 6222TIP3    H218610   7.170   1.451   4.684
 6223TIP3   OH218611   1.411   4.264   1.113
 6223TIP3    H118612   1.391   4.182   1.158
 6223TIP3    H218613   1.351   4.328   1.151
 6224TIP3   OH218614   7.281   6.065   0.021
 6224TIP3    H118615   7.349   6.028   0.077
 6224TIP3    H218616   7.209   6.001   0.025
 6225TIP3   OH218617   1.890   4.781   5.848
 6225TIP3    H118618   1.932   4.833   5.916
 6225TIP3    H218619   1.926   4.693   5.859
 6226TIP3   OH218620   1.784   2.129   6.692
 6226TIP3    H118621   1.743   2.210   6.660
 6226TIP3    H218622   1.774   2.134   6.787
 6227TIP3   OH218623   6.775   0.576   3.604
 6227TIP3    H118624   6.761   0.632   3.680
 6227TIP3    H218625   6.801   0.492   3.642
 6228TIP3   OH218626   4.574   2.999   5.896
 6228TIP3    H118627   4.562   3.094   5.906
 6228TIP3    H218628   4.608   2.970   5.980
 6229TIP3   OH218629   0.894   1.284   0.194
 6229TIP3    H118630   0.961   1.309   0.130
 6229TIP3    H218631   0.868   1.196   0.169
 6230TIP3   OH218632   3.291   0.069   3.519
 6230TIP3    H118633   3.376   0.060   3.475
 6230TIP3    H218634   3.314   0.094   3.609
 6231TIP3   OH218635   7.872   0.837   2.827
 6231TIP3    H118636   7.837   0.894   2.896
 6231TIP3    H218637   7.887   0.896   2.753
 6232TIP3   OH218638   5.626   7.198   0.654
 6232TIP3    H118639   5.696   7.246   0.610
 6232TIP3    H218640   5.646   7.106   0.637
 6233TIP3   OH218641   7.474   2.536   5.768
 6233TIP3    H118642   7.536   2.562   5.836
 6233TIP3    H218643   7.404   2.602   5.772
 6234TIP3   OH218644   0.854   3.819   4.550
 6234TIP3    H118645   0.890   3.731   4.564
 6234TIP3    H218646   0.898   3.851   4.472
 6235TIP3   OH218647   1.259   0.024   4.014
 6235TIP3    H118648   1.315   0.102   4.018
 6235TIP3    H218649   1.254   0.003   3.920
 6236TIP3   OH218650   0.502   3.282   0.632
 6236TIP3    H118651   0.477   3.191   0.620
 6236TIP3    H218652   0.475   3.326   0.552
 6237TIP3   OH218653   7.867   3.061   3.879
 6237TIP3    H118654   7.922   3.138   3.886
 6237TIP3    H218655   7.820   3.073   3.796
 6238TIP3   OH218656   7.869   4.961   1.122
 6238TIP3    H118657   7.795   4.907   1.148
 6238TIP3    H218658   7.834   5.049   1.115
 6239TIP3   OH218659   5.417   1.405   1.187
 6239TIP3    H118660   5.508   1.417   1.159
 6239TIP3    H218661   5.368   1.470   1.137
 6240TIP3   OH218662   7.702   2.277   2.147
 6240TIP3    H118663   7.722   2.195   2.103
 6240TIP3    H218664   7.737   2.266   2.235
 6241TIP3   OH218665   7.203   0.989   2.056
 6241TIP3    H118666   7.113   0.987   2.087
 6241TIP3    H218667   7.256   1.000   2.135
 6242TIP3   OH218668   7.971   6.292   0.889
 6242TIP3    H118669   8.053   6.251   0.913
 6242TIP3    H218670   7.995   6.359   0.825
 6243TIP3   OH218671   5.157   2.169   1.968
 6243TIP3    H118672   5.212   2.112   1.916
 6243TIP3    H218673   5.154   2.251   1.919
 6244TIP3   OH218674   6.019   7.195   3.804
 6244TIP3    H118675   6.094   7.163   3.754
 6244TIP3    H218676   6.031   7.157   3.892
 6245TIP3   OH218677   1.760   4.646   5.063
 6245TIP3    H118678   1.845   4.629   5.022
 6245TIP3    H218679   1.781   4.666   5.154
 6246TIP3   OH218680   0.362   4.962   1.723
 6246TIP3    H118681   0.449   4.988   1.692
 6246TIP3    H218682   0.318   4.930   1.644
 6247TIP3   OH218683   5.743   0.512   6.404
 6247TIP3    H118684   5.698   0.471   6.478
 6247TIP3    H218685   5.690   0.588   6.383
 6248TIP3   OH218686   6.183   3.187   6.299
 6248TIP3    H118687   6.149   3.097   6.300
 6248TIP3    H218688   6.105   3.242   6.295
 6249TIP3   OH218689   6.553   5.427   0.789
 6249TIP3    H118690   6.505   5.506   0.764
 6249TIP3    H218691   6.629   5.459   0.837
 6250TIP3   OH218692   6.296   1.847   1.846
 6250TIP3    H118693   6.379   1.896   1.844
 6250TIP3    H218694   6.315   1.765   1.802
 6251TIP3   OH218695   0.164   5.301   3.641
 6251TIP3    H118696   0.076   5.281   3.672
 6251TIP3    H218697   0.199   5.217   3.611
 6252TIP3   OH218698   2.401   3.625   1.263
 6252TIP3    H118699   2.377   3.553   1.321
 6252TIP3    H218700   2.435   3.693   1.321
 6253TIP3   OH218701   3.471   1.165   5.863
 6253TIP3    H118702   3.510   1.112   5.794
 6253TIP3    H218703   3.384   1.127   5.876
 6254TIP3   OH218704   4.845   6.760   3.126
 6254TIP3    H118705   4.763   6.807   3.132
 6254TIP3    H218706   4.881   6.784   3.040
 6255TIP3   OH218707   3.029   4.233   3.543
 6255TIP3    H118708   3.104   4.290   3.523
 6255TIP3    H218709   2.959   4.266   3.488
 6256TIP3   OH218710   7.639   3.479   3.833
 6256TIP3    H118711   7.604   3.487   3.744
 6256TIP3    H218712   7.686   3.561   3.848
 6257TIP3   OH218713   2.087   3.687   3.611
 6257TIP3    H118714   2.082   3.710   3.704
 6257TIP3    H218715   1.997   3.696   3.579
 6258TIP3   OH218716   6.045   6.526   5.090
 6258TIP3    H118717   6.054   6.515   5.184
 6258TIP3    H218718   6.134   6.514   5.056
 6259TIP3   OH218719   6.903   6.604   3.718
 6259TIP3    H118720   6.905   6.576   3.809
 6259TIP3    H218721   6.923   6.525   3.668
 6260TIP3   OH218722   3.957   1.428   0.185
 6260TIP3    H118723   3.936   1.339   0.212
 6260TIP3    H218724   3.905   1.442   0.105
 6261TIP3   OH218725   2.161   2.444   6.026
 6261TIP3    H118726   2.254   2.449   6.005
 6261TIP3    H218727   2.158   2.425   6.120
 6262TIP3   OH218728   0.798   1.458   2.231
 6262TIP3    H118729   0.728   1.456   2.296
 6262TIP3    H218730   0.752   1.448   2.147
 6263TIP3   OH218731   7.069   7.320   0.433
 6263TIP3    H118732   7.051   7.388   0.369
 6263TIP3    H218733   7.018   7.244   0.403
 6264TIP3   OH218734   7.247   7.704   6.079
 6264TIP3    H118735   7.268   7.615   6.105
 6264TIP3    H218736   7.212   7.745   6.159
 6265TIP3   OH218737   0.208   7.656   0.804
 6265TIP3    H118738   0.261   7.620   0.734
 6265TIP3    H218739   0.177   7.580   0.853
 6266TIP3   OH218740   5.289   5.442   1.591
 6266TIP3    H118741   5.377   5.446   1.556
 6266TIP3    H218742   5.237   5.499   1.533
 6267TIP3   OH218743   3.091   4.008   0.782
 6267TIP3    H118744   3.064   3.932   0.834
 6267TIP3    H218745   3.010   4.042   0.745
 6268TIP3   OH218746   5.045   7.695   2.516
 6268TIP3    H118747   4.962   7.648   2.523
 6268TIP3    H218748   5.024   7.776   2.470
 6269TIP3   OH218749   2.724   4.467   3.409
 6269TIP3    H118750   2.795   4.515   3.368
 6269TIP3    H218751   2.646   4.520   3.392
 6270TIP3   OH218752   1.549   1.040   5.834
 6270TIP3    H118753   1.495   1.045   5.914
 6270TIP3    H218754   1.520   0.959   5.791
 6271TIP3   OH218755   6.749   4.839   4.178
 6271TIP3    H118756   6.842   4.828   4.159
 6271TIP3    H218757   6.704   4.793   4.108
 6272TIP3   OH218758   7.315   5.067   6.150
 6272TIP3    H118759   7.296   5.053   6.057
 6272TIP3    H218760   7.363   5.149   6.152
 6273TIP3   OH218761   1.009   7.097   3.974
 6273TIP3    H118762   1.007   7.001   3.967
 6273TIP3    H218763   1.102   7.118   3.983
 6274TIP3   OH218764   6.932   7.552   1.989
 6274TIP3    H118765   6.900   7.502   2.064
 6274TIP3    H218766   6.947   7.486   1.921
 6275TIP3   OH218767   1.559   2.782   2.474
 6275TIP3    H118768   1.631   2.845   2.479
 6275TIP3    H218769   1.561   2.750   2.384
 6276TIP3   OH218770   3.026   2.436   3.425
 6276TIP3    H118771   3.013   2.527   3.452
 6276TIP3    H218772   2.967   2.386   3.482
 6277TIP3   OH218773   7.352   1.317   0.658
 6277TIP3    H118774   7.282   1.255   0.638
 6277TIP3    H218775   7.316   1.373   0.727
 6278TIP3   OH218776   2.366   5.209   1.587
 6278TIP3    H118777   2.423   5.241   1.517
 6278TIP3    H218778   2.421   5.208   1.665
 6279TIP3   OH218779   2.317   4.641   0.973
 6279TIP3    H118780   2.250   4.617   0.909
 6279TIP3    H218781   2.281   4.615   1.057
 6280TIP3   OH218782   2.669   5.201   3.887
 6280TIP3    H118783   2.647   5.121   3.934
 6280TIP3    H218784   2.602   5.264   3.912
 6281TIP3   OH218785   6.246   3.102   1.521
 6281TIP3    H118786   6.191   3.124   1.446
 6281TIP3    H218787   6.335   3.124   1.493
 6282TIP3   OH218788   4.313   7.371   6.419
 6282TIP3    H118789   4.366   7.304   6.462
 6282TIP3    H218790   4.269   7.416   6.491
 6283TIP3   OH218791   2.861   1.157   1.752
 6283TIP3    H118792   2.944   1.111   1.744
 6283TIP3    H218793   2.878   1.227   1.815
 6284TIP3   OH218794   4.529   6.965   3.210
 6284TIP3    H118795   4.530   6.896   3.276
 6284TIP3    H218796   4.581   7.036   3.248
 6285TIP3   OH218797   4.048   2.241   5.376
 6285TIP3    H118798   3.964   2.204   5.349
 6285TIP3    H218799   4.086   2.275   5.295
 6286TIP3   OH218800   5.872   0.426   2.082
 6286TIP3    H118801   5.848   0.507   2.038
 6286TIP3    H218802   5.968   0.426   2.083
 6287TIP3   OH218803   1.100   6.654   0.269
 6287TIP3    H118804   1.010   6.624   0.254
 6287TIP3    H218805   1.135   6.593   0.334
 6288TIP3   OH218806   4.343   6.838   0.583
 6288TIP3    H118807   4.402   6.913   0.574
 6288TIP3    H218808   4.330   6.829   0.677
 6289TIP3   OH218809   6.817   1.069   0.725
 6289TIP3    H118810   6.820   1.165   0.718
 6289TIP3    H218811   6.768   1.042   0.648
 6290TIP3   OH218812   0.802   6.776   3.727
 6290TIP3    H118813   0.867   6.789   3.797
 6290TIP3    H218814   0.738   6.716   3.765
 6291TIP3   OH218815   3.028   7.637   3.974
 6291TIP3    H118816   3.091   7.703   4.006
 6291TIP3    H218817   2.966   7.687   3.921
 6292TIP3   OH218818   7.700   2.014   3.289
 6292TIP3    H118819   7.767   1.947   3.300
 6292TIP3    H218820   7.661   2.024   3.377
 6293TIP3   OH218821   1.708   2.233   5.316
 6293TIP3    H118822   1.758   2.289   5.256
 6293TIP3    H218823   1.718   2.275   5.401
 6294TIP3   OH218824   4.497   3.091   1.584
 6294TIP3    H118825   4.541   3.007   1.566
 6294TIP3    H218826   4.563   3.157   1.562
 6295TIP3   OH218827   2.954   6.430   0.784
 6295TIP3    H118828   3.007   6.433   0.863
 6295TIP3    H218829   3.011   6.389   0.719
 6296TIP3   OH218830   5.585   1.112   4.080
 6296TIP3    H118831   5.536   1.041   4.039
 6296TIP3    H218832   5.541   1.192   4.051
 6297TIP3   OH218833   7.150   5.964   5.373
 6297TIP3    H118834   7.234   5.939   5.334
 6297TIP3    H218835   7.125   6.044   5.326
 6298TIP3   OH218836   3.385   0.128   1.369
 6298TIP3    H118837   3.415   0.037   1.369
 6298TIP3    H218838   3.421   0.165   1.449
 6299TIP3   OH218839   3.835   1.259   4.954
 6299TIP3    H118840   3.878   1.294   4.876
 6299TIP3    H218841   3.749   1.300   4.955
 6300TIP3   OH218842   1.767   6.382   1.838
 6300TIP3    H118843   1.813   6.351   1.917
 6300TIP3    H218844   1.817   6.345   1.765
 6301TIP3   OH218845   4.470   6.351   0.414
 6301TIP3    H118846   4.432   6.426   0.461
 6301TIP3    H218847   4.424   6.350   0.330
 6302TIP3   OH218848   5.251   2.041   5.044
 6302TIP3    H118849   5.335   2.086   5.033
 6302TIP3    H218850   5.275   1.948   5.050
 6303TIP3   OH218851   2.353   0.751   4.319
 6303TIP3    H118852   2.262   0.743   4.291
 6303TIP3    H218853   2.367   0.846   4.327
 6304TIP3   OH218854   0.509   1.529   6.012
 6304TIP3    H118855   0.424   1.558   5.979
 6304TIP3    H218856   0.509   1.434   5.996
 6305TIP3   OH218857   3.795   5.821   1.356
 6305TIP3    H118858   3.861   5.889   1.344
 6305TIP3    H218859   3.819   5.753   1.293
 6306TIP3   OH218860   7.690  -0.039   4.554
 6306TIP3    H118861   7.653   0.001   4.475
 6306TIP3    H218862   7.649   0.008   4.627
 6307TIP3   OH218863   5.306   0.370   1.074
 6307TIP3    H118864   5.273   0.423   1.147
 6307TIP3    H218865   5.232   0.363   1.014
 6308TIP3   OH218866   3.483   6.385   6.211
 6308TIP3    H118867   3.556   6.330   6.241
 6308TIP3    H218868   3.406   6.350   6.255
 6309TIP3   OH218869   3.656   1.494   5.791
 6309TIP3    H118870   3.682   1.444   5.714
 6309TIP3    H218871   3.657   1.431   5.863
 6310TIP3   OH218872   5.064   6.012   5.919
 6310TIP3    H118873   5.039   5.923   5.943
 6310TIP3    H218874   5.159   6.009   5.911
 6311TIP3   OH218875   3.915   6.220   6.031
 6311TIP3    H118876   3.964   6.202   5.951
 6311TIP3    H218877   3.824   6.201   6.008
 6312TIP3   OH218878   0.889   5.018   2.250
 6312TIP3    H118879   0.874   5.030   2.156
 6312TIP3    H218880   0.843   4.937   2.272
 6313TIP3   OH218881   5.392   4.162   4.870
 6313TIP3    H118882   5.431   4.075   4.861
 6313TIP3    H218883   5.298   4.145   4.869
 6314TIP3   OH218884   7.763   3.795   4.181
 6314TIP3    H118885   7.832   3.730   4.197
 6314TIP3    H218886   7.694   3.772   4.242
 6315TIP3   OH218887   3.391   4.870   4.402
 6315TIP3    H118888   3.325   4.803   4.385
 6315TIP3    H218889   3.368   4.943   4.344
 6316TIP3   OH218890   5.132   3.314   2.292
 6316TIP3    H118891   5.170   3.226   2.297
 6316TIP3    H218892   5.182   3.358   2.223
 6317TIP3   OH218893   2.499   7.298   0.474
 6317TIP3    H118894   2.588   7.275   0.447
 6317TIP3    H218895   2.488   7.257   0.560
 6318TIP3   OH218896   0.555   6.885   0.807
 6318TIP3    H118897   0.534   6.977   0.794
 6318TIP3    H218898   0.573   6.877   0.901
 6319TIP3   OH218899   0.494   5.191   3.849
 6319TIP3    H118900   0.511   5.206   3.756
 6319TIP3    H218901   0.502   5.277   3.889
 6320TIP3   OH218902   5.699   5.565   4.323
 6320TIP3    H118903   5.788   5.542   4.351
 6320TIP3    H218904   5.676   5.640   4.378
 6321TIP3   OH218905   7.320   7.477   0.517
 6321TIP3    H118906   7.369   7.497   0.597
 6321TIP3    H218907   7.231   7.458   0.547
 6322TIP3   OH218908   6.364   6.053   6.496
 6322TIP3    H118909   6.431   6.092   6.552
 6322TIP3    H218910   6.282   6.092   6.526
 6323TIP3   OH218911   5.107   5.253   1.688
 6323TIP3    H118912   5.147   5.340   1.694
 6323TIP3    H218913   5.151   5.212   1.613
 6324TIP3   OH218914   3.303   4.268   3.750
 6324TIP3    H118915   3.215   4.287   3.717
 6324TIP3    H218916   3.291   4.191   3.806
 6325TIP3   OH218917   7.020   5.902   0.654
 6325TIP3    H118918   7.029   5.981   0.707
 6325TIP3    H218919   7.089   5.844   0.686
 6326TIP3   OH218920   0.110   5.964   5.186
 6326TIP3    H118921   0.058   5.894   5.146
 6326TIP3    H218922   0.106   5.946   5.280
 6327TIP3   OH218923   6.363   1.256   1.074
 6327TIP3    H118924   6.391   1.196   1.143
 6327TIP3    H218925   6.432   1.323   1.070
 6328TIP3   OH218926   2.939   3.325   1.743
 6328TIP3    H118927   2.950   3.260   1.812
 6328TIP3    H218928   2.994   3.398   1.771
 6329TIP3   OH218929   4.038   1.270   5.482
 6329TIP3    H118930   4.108   1.221   5.440
 6329TIP3    H218931   4.005   1.329   5.414
 6330TIP3   OH218932   2.732   4.549   4.282
 6330TIP3    H118933   2.693   4.517   4.201
 6330TIP3    H218934   2.733   4.473   4.340
 6331TIP3   OH218935   6.783   2.122   5.448
 6331TIP3    H118936   6.690   2.106   5.464
 6331TIP3    H218937   6.811   2.048   5.393
 6332TIP3   OH218938   1.231   5.712   2.132
 6332TIP3    H118939   1.270   5.699   2.219
 6332TIP3    H218940   1.183   5.631   2.115
 6333TIP3   OH218941   6.268   2.974   5.239
 6333TIP3    H118942   6.238   3.006   5.324
 6333TIP3    H218943   6.232   3.037   5.176
 6334TIP3   OH218944   2.246   2.242   2.135
 6334TIP3    H118945   2.274   2.321   2.089
 6334TIP3    H218946   2.228   2.271   2.224
 6335TIP3   OH218947   3.581   7.793   1.618
 6335TIP3    H118948   3.506   7.736   1.599
 6335TIP3    H218949   3.640   7.780   1.544
 6336TIP3   OH218950   0.852   3.703   6.172
 6336TIP3    H118951   0.833   3.763   6.100
 6336TIP3    H218952   0.898   3.758   6.237
 6337TIP3   OH218953   2.047   3.635   4.415
 6337TIP3    H118954   1.963   3.598   4.387
 6337TIP3    H218955   2.032   3.660   4.506
 6338TIP3   OH218956   1.892   7.372   3.032
 6338TIP3    H118957   1.861   7.307   2.970
 6338TIP3    H218958   1.884   7.456   2.986
 6339TIP3   OH218959   5.304   2.756   6.032
 6339TIP3    H118960   5.212   2.738   6.016
 6339TIP3    H218961   5.348   2.672   6.019
 6340TIP3   OH218962   7.188   2.959   6.259
 6340TIP3    H118963   7.277   2.957   6.294
 6340TIP3    H218964   7.182   2.879   6.206
 6341TIP3   OH218965   2.496   1.103   6.427
 6341TIP3    H118966   2.461   1.015   6.440
 6341TIP3    H218967   2.556   1.117   6.500
 6342TIP3   OH218968   7.103   0.075   3.994
 6342TIP3    H118969   7.063   0.155   4.028
 6342TIP3    H218970   7.113   0.091   3.900
 6343TIP3   OH218971   0.874   3.953   1.488
 6343TIP3    H118972   0.961   3.989   1.477
 6343TIP3    H218973   0.872   3.875   1.432
 6344TIP3   OH218974   0.601   6.147   2.431
 6344TIP3    H118975   0.633   6.067   2.389
 6344TIP3    H218976   0.509   6.130   2.449
 6345TIP3   OH218977   4.793   6.169   4.632
 6345TIP3    H118978   4.766   6.095   4.687
 6345TIP3    H218979   4.881   6.190   4.662
 6346TIP3   OH218980   1.180   2.761   3.584
 6346TIP3    H118981   1.094   2.738   3.549
 6346TIP3    H218982   1.163   2.831   3.646
 6347TIP3   OH218983   6.522   5.093   2.265
 6347TIP3    H118984   6.593   5.092   2.330
 6347TIP3    H218985   6.444   5.114   2.316
 6348TIP3   OH218986   0.807   1.596   4.134
 6348TIP3    H118987   0.773   1.523   4.186
 6348TIP3    H218988   0.746   1.602   4.060
 6349TIP3   OH218989   3.015   2.626   0.499
 6349TIP3    H118990   2.926   2.654   0.476
 6349TIP3    H218991   3.042   2.687   0.567
 6350TIP3   OH218992   1.819   0.216   6.133
 6350TIP3    H118993   1.731   0.211   6.096
 6350TIP3    H218994   1.832   0.130   6.174
 6351TIP3   OH218995   8.172   7.497   0.537
 6351TIP3    H118996   8.223   7.529   0.463
 6351TIP3    H218997   8.117   7.428   0.501
 6352TIP3   OH218998   6.842   6.538   3.974
 6352TIP3    H118999   6.770   6.600   3.960
 6352TIP3    H219000   6.897   6.580   4.040
 6353TIP3   OH219001   5.884   4.901   6.646
 6353TIP3    H119002   5.879   4.851   6.565
 6353TIP3    H219003   5.806   4.875   6.696
 6354TIP3   OH219004   3.684   2.006   6.219
 6354TIP3    H119005   3.690   2.021   6.125
 6354TIP3    H219006   3.647   1.918   6.227
 6355TIP3   OH219007   4.538   0.145   5.110
 6355TIP3    H119008   4.596   0.136   5.035
 6355TIP3    H219009   4.480   0.218   5.088
 6356TIP3   OH219010   4.887   1.005   3.439
 6356TIP3    H119011   4.954   1.069   3.418
 6356TIP3    H219012   4.863   0.966   3.355
 6357TIP3   OH219013   0.615   1.613   1.698
 6357TIP3    H119014   0.670   1.687   1.675
 6357TIP3    H219015   0.529   1.651   1.715
 6358TIP3   OH219016   7.424   0.562   2.351
 6358TIP3    H119017   7.485   0.492   2.372
 6358TIP3    H219018   7.396   0.544   2.261
 6359TIP3   OH219019   4.495   1.427   2.754
 6359TIP3    H119020   4.564   1.490   2.734
 6359TIP3    H219021   4.503   1.359   2.688
 6360TIP3   OH219022   5.812   1.666   6.360
 6360TIP3    H119023   5.877   1.736   6.356
 6360TIP3    H219024   5.845   1.599   6.300
 6361TIP3   OH219025   6.569   3.350   1.141
 6361TIP3    H119026   6.477   3.360   1.118
 6361TIP3    H219027   6.615   3.349   1.057
 6362TIP3   OH219028   5.029   3.976   3.012
 6362TIP3    H119029   5.058   4.022   3.090
 6362TIP3    H219030   4.993   3.893   3.044
 6363TIP3   OH219031   4.307   0.878   2.546
 6363TIP3    H119032   4.268   0.791   2.541
 6363TIP3    H219033   4.252   0.926   2.607
 6364TIP3   OH219034   4.940   1.010   4.293
 6364TIP3    H119035   4.936   0.969   4.207
 6364TIP3    H219036   4.860   1.063   4.298
 6365TIP3   OH219037   1.593   3.997   2.931
 6365TIP3    H119038   1.673   3.994   2.878
 6365TIP3    H219039   1.557   3.908   2.924
 6366TIP3   OH219040   2.289   4.810   5.574
 6366TIP3    H119041   2.285   4.858   5.491
 6366TIP3    H219042   2.373   4.836   5.613
 6367TIP3   OH219043   1.924   0.001   1.774
 6367TIP3    H119044   1.883  -0.018   1.858
 6367TIP3    H219045   1.981   0.075   1.790
 6368TIP3   OH219046   4.693   1.178   4.304
 6368TIP3    H119047   4.660   1.152   4.390
 6368TIP3    H219048   4.703   1.273   4.310
 6369TIP3   OH219049   2.068   5.683   6.139
 6369TIP3    H119050   2.075   5.778   6.135
 6369TIP3    H219051   2.071   5.654   6.048
 6370TIP3   OH219052   4.276   6.118   3.530
 6370TIP3    H119053   4.242   6.182   3.593
 6370TIP3    H219054   4.202   6.060   3.512
 6371TIP3   OH219055   3.071   5.347   2.490
 6371TIP3    H119056   3.117   5.430   2.500
 6371TIP3    H219057   3.018   5.358   2.411
 6372TIP3   OH219058   7.958   0.295   3.457
 6372TIP3    H119059   7.980   0.387   3.441
 6372TIP3    H219060   8.042   0.250   3.454
 6373TIP3   OH219061   6.313   5.072   4.934
 6373TIP3    H119062   6.359   5.147   4.895
 6373TIP3    H219063   6.251   5.044   4.868
 6374TIP3   OH219064   7.452   1.418   4.119
 6374TIP3    H119065   7.477   1.437   4.209
 6374TIP3    H219066   7.408   1.333   4.124
 6375TIP3   OH219067   0.671   6.426   2.458
 6375TIP3    H119068   0.683   6.341   2.415
 6375TIP3    H219069   0.742   6.431   2.522
 6376TIP3   OH219070   0.985   6.668   3.191
 6376TIP3    H119071   0.936   6.671   3.273
 6376TIP3    H219072   1.017   6.578   3.186
 6377TIP3   OH219073   5.586   1.512   5.802
 6377TIP3    H119074   5.578   1.605   5.821
 6377TIP3    H219075   5.496   1.479   5.803
 6378TIP3   OH219076   7.398   0.774   3.461
 6378TIP3    H119077   7.486   0.786   3.423
 6378TIP3    H219078   7.370   0.689   3.428
 6379TIP3   OH219079   0.819   3.890   5.970
 6379TIP3    H119080   0.828   3.966   6.027
 6379TIP3    H219081   0.908   3.875   5.936
 6380TIP3   OH219082   4.856   4.701   5.474
 6380TIP3    H119083   4.903   4.632   5.427
 6380TIP3    H219084   4.829   4.660   5.556
 6381TIP3   OH219085   7.434   2.769   4.046
 6381TIP3    H119086   7.369   2.771   4.116
 6381TIP3    H219087   7.397   2.825   3.978
 6382TIP3   OH219088   4.812   1.794   4.548
 6382TIP3    H119089   4.818   1.789   4.643
 6382TIP3    H219090   4.842   1.708   4.517
 6383TIP3   OH219091   0.124   2.033   3.490
 6383TIP3    H119092   0.211   2.023   3.528
 6383TIP3    H219093   0.094   2.119   3.521
 6384TIP3   OH219094   0.768   2.200   0.429
 6384TIP3    H119095   0.682   2.168   0.404
 6384TIP3    H219096   0.822   2.122   0.436
 6385TIP3   OH219097   1.635   4.571   1.876
 6385TIP3    H119098   1.603   4.548   1.963
 6385TIP3    H219099   1.696   4.643   1.891
 6386TIP3   OH219100   7.322   1.818   2.479
 6386TIP3    H119101   7.344   1.820   2.572
 6386TIP3    H219102   7.348   1.903   2.446
 6387TIP3   OH219103   6.430   3.432   4.497
 6387TIP3    H119104   6.501   3.402   4.441
 6387TIP3    H219105   6.472   3.457   4.579
 6388TIP3   OH219106   6.468   7.660   4.946
 6388TIP3    H119107   6.533   7.633   5.012
 6388TIP3    H219108   6.516   7.656   4.863
 6389TIP3   OH219109   3.666   5.259   1.422
 6389TIP3    H119110   3.733   5.226   1.482
 6389TIP3    H219111   3.713   5.275   1.341
 6390TIP3   OH219112   1.178   3.382   3.653
 6390TIP3    H119113   1.270   3.395   3.675
 6390TIP3    H219114   1.178   3.307   3.593
 6391TIP3   OH219115   8.092   1.374   3.420
 6391TIP3    H119116   8.081   1.417   3.335
 6391TIP3    H219117   8.161   1.309   3.405
 6392TIP3   OH219118   1.356   3.621   1.472
 6392TIP3    H119119   1.344   3.600   1.379
 6392TIP3    H219120   1.396   3.708   1.472
 6393TIP3   OH219121   2.050   5.164   3.313
 6393TIP3    H119122   1.978   5.209   3.357
 6393TIP3    H219123   2.106   5.234   3.282
 6394TIP3   OH219124   1.595   1.449   2.539
 6394TIP3    H119125   1.660   1.499   2.588
 6394TIP3    H219126   1.578   1.372   2.594
 6395TIP3   OH219127   5.163   7.342   3.395
 6395TIP3    H119128   5.148   7.389   3.313
 6395TIP3    H219129   5.147   7.408   3.463
 6396TIP3   OH219130   6.684   2.363   6.496
 6396TIP3    H119131   6.697   2.374   6.590
 6396TIP3    H219132   6.747   2.423   6.456
 6397TIP3   OH219133   6.176   1.112   5.592
 6397TIP3    H119134   6.129   1.032   5.570
 6397TIP3    H219135   6.252   1.113   5.533
 6398TIP3   OH219136   3.166   7.469   1.858
 6398TIP3    H119137   3.080   7.471   1.814
 6398TIP3    H219138   3.166   7.546   1.914
 6399TIP3   OH219139   8.214   7.554   1.175
 6399TIP3    H119140   8.250   7.467   1.193
 6399TIP3    H219141   8.161   7.542   1.096
 6400TIP3   OH219142   7.087   3.380   0.811
 6400TIP3    H119143   7.043   3.341   0.887
 6400TIP3    H219144   7.152   3.439   0.849
 6401TIP3   OH219145   6.649   4.321   2.110
 6401TIP3    H119146   6.661   4.366   2.027
 6401TIP3    H219147   6.566   4.274   2.100
 6402TIP3   OH219148   0.305   5.619   3.199
 6402TIP3    H119149   0.388   5.584   3.166
 6402TIP3    H219150   0.283   5.562   3.272
 6403TIP3   OH219151   1.398   0.913   6.038
 6403TIP3    H119152   1.435   0.890   6.123
 6403TIP3    H219153   1.305   0.928   6.055
 6404TIP3   OH219154   5.772   1.110   4.747
 6404TIP3    H119155   5.749   1.156   4.666
 6404TIP3    H219156   5.833   1.169   4.791
 6405TIP3   OH219157   6.903   5.980   3.361
 6405TIP3    H119158   6.897   6.075   3.366
 6405TIP3    H219159   6.880   5.959   3.271
 6406TIP3   OH219160   6.478   4.996   2.664
 6406TIP3    H119161   6.438   4.934   2.603
 6406TIP3    H219162   6.546   5.040   2.613
 6407TIP3   OH219163   2.097   1.472   3.573
 6407TIP3    H119164   2.154   1.398   3.593
 6407TIP3    H219165   2.110   1.532   3.646
 6408TIP3   OH219166   6.154   6.564   4.476
 6408TIP3    H119167   6.199   6.512   4.409
 6408TIP3    H219168   6.182   6.653   4.460
 6409TIP3   OH219169   0.826   0.771   5.321
 6409TIP3    H119170   0.741   0.808   5.345
 6409TIP3    H219171   0.879   0.847   5.297
 6410TIP3   OH219172   6.481   3.597   6.362
 6410TIP3    H119173   6.571   3.616   6.389
 6410TIP3    H219174   6.474   3.502   6.368
 6411TIP3   OH219175   4.583   0.692   1.118
 6411TIP3    H119176   4.641   0.762   1.087
 6411TIP3    H219177   4.497   0.715   1.084
 6412TIP3   OH219178   7.271   1.690   3.711
 6412TIP3    H119179   7.284   1.641   3.793
 6412TIP3    H219180   7.357   1.689   3.669
 6413TIP3   OH219181   3.392   6.493   0.163
 6413TIP3    H119182   3.445   6.424   0.123
 6413TIP3    H219183   3.311   6.450   0.189
 6414TIP3   OH219184   4.332   7.387   5.207
 6414TIP3    H119185   4.371   7.315   5.257
 6414TIP3    H219186   4.242   7.393   5.240
 6415TIP3   OH219187   4.733   4.200   2.854
 6415TIP3    H119188   4.681   4.155   2.788
 6415TIP3    H219189   4.714   4.154   2.935
 6416TIP3   OH219190   0.349   5.466   0.524
 6416TIP3    H119191   0.360   5.500   0.435
 6416TIP3    H219192   0.426   5.409   0.537
 6417TIP3   OH219193   3.377   5.601   3.387
 6417TIP3    H119194   3.354   5.630   3.475
 6417TIP3    H219195   3.455   5.651   3.365
 6418TIP3   OH219196   5.817   0.134   1.789
 6418TIP3    H119197   5.727   0.167   1.796
 6418TIP3    H219198   5.842   0.154   1.698
 6419TIP3   OH219199   8.262   2.379   1.009
 6419TIP3    H119200   8.188   2.346   0.958
 6419TIP3    H219201   8.322   2.415   0.944
 6420TIP3   OH219202   2.092   0.346   3.284
 6420TIP3    H119203   2.163   0.300   3.329
 6420TIP3    H219204   2.120   0.351   3.193
 6421TIP3   OH219205   1.727   3.448   0.672
 6421TIP3    H119206   1.744   3.528   0.623
 6421TIP3    H219207   1.655   3.406   0.626
 6422TIP3   OH219208   3.698   4.123   1.497
 6422TIP3    H119209   3.760   4.186   1.533
 6422TIP3    H219210   3.751   4.045   1.480
 6423TIP3   OH219211   5.156   7.386   3.097
 6423TIP3    H119212   5.154   7.408   3.004
 6423TIP3    H219213   5.125   7.466   3.140
 6424TIP3   OH219214   3.753   1.806   2.044
 6424TIP3    H119215   3.694   1.732   2.061
 6424TIP3    H219216   3.765   1.847   2.129
 6425TIP3   OH219217   0.170   1.663   0.761
 6425TIP3    H119218   0.078   1.643   0.742
 6425TIP3    H219219   0.219   1.625   0.688
 6426TIP3   OH219220   7.714   5.361   2.472
 6426TIP3    H119221   7.668   5.396   2.396
 6426TIP3    H219222   7.802   5.398   2.465
 6427TIP3   OH219223   5.296   0.869   1.920
 6427TIP3    H119224   5.380   0.879   1.964
 6427TIP3    H219225   5.231   0.899   1.984
 6428TIP3   OH219226   1.348   0.843   5.723
 6428TIP3    H119227   1.332   0.759   5.766
 6428TIP3    H219228   1.280   0.901   5.758
 6429TIP3   OH219229   7.255   0.845   5.808
 6429TIP3    H119230   7.272   0.919   5.866
 6429TIP3    H219231   7.332   0.841   5.751
 6430TIP3   OH219232   1.611   4.148   3.947
 6430TIP3    H119233   1.687   4.190   3.986
 6430TIP3    H219234   1.539   4.164   4.009
 6431TIP3   OH219235   6.872   3.313   5.457
 6431TIP3    H119236   6.950   3.258   5.458
 6431TIP3    H219237   6.873   3.358   5.542
 6432TIP3   OH219238   3.049   1.651   5.219
 6432TIP3    H119239   3.137   1.632   5.187
 6432TIP3    H219240   2.993   1.586   5.177
 6433TIP3   OH219241   1.831   5.863   1.295
 6433TIP3    H119242   1.919   5.827   1.296
 6433TIP3    H219243   1.832   5.928   1.225
 6434TIP3   OH219244   5.248   0.337   3.342
 6434TIP3    H119245   5.249   0.431   3.359
 6434TIP3    H219246   5.224   0.330   3.250
 6435TIP3   OH219247   1.611   5.289   4.431
 6435TIP3    H119248   1.516   5.290   4.444
 6435TIP3    H219249   1.633   5.380   4.412
 6436TIP3   OH219250   6.148   5.878   4.458
 6436TIP3    H119251   6.063   5.889   4.414
 6436TIP3    H219252   6.208   5.857   4.387
 6437TIP3   OH219253   3.694   6.559   6.139
 6437TIP3    H119254   3.649   6.478   6.163
 6437TIP3    H219255   3.785   6.544   6.164
 6438TIP3   OH219256   5.926   7.100   4.070
 6438TIP3    H119257   5.886   7.019   4.103
 6438TIP3    H219258   5.912   7.164   4.140
 6439TIP3   OH219259   2.714   0.786   5.298
 6439TIP3    H119260   2.749   0.824   5.378
 6439TIP3    H219261   2.619   0.799   5.304
 6440TIP3   OH219262   5.606   1.543   0.993
 6440TIP3    H119263   5.616   1.625   1.041
 6440TIP3    H219264   5.536   1.561   0.929
 6441TIP3   OH219265   3.075   0.410   3.178
 6441TIP3    H119266   3.140   0.449   3.120
 6441TIP3    H219267   3.125   0.369   3.247
 6442TIP3   OH219268   5.490   1.230   0.375
 6442TIP3    H119269   5.451   1.211   0.289
 6442TIP3    H219270   5.481   1.325   0.385
 6443TIP3   OH219271   2.249   7.394   5.253
 6443TIP3    H119272   2.317   7.327   5.249
 6443TIP3    H219273   2.292   7.468   5.296
 6444TIP3   OH219274   0.150   1.808   4.376
 6444TIP3    H119275   0.192   1.843   4.298
 6444TIP3    H219276   0.175   1.868   4.446
 6445TIP3   OH219277   1.637   4.991   2.110
 6445TIP3    H119278   1.558   5.042   2.128
 6445TIP3    H219279   1.690   4.999   2.190
 6446TIP3   OH219280   1.591   2.952   5.592
 6446TIP3    H119281   1.521   2.966   5.656
 6446TIP3    H219282   1.659   3.014   5.617
 6447TIP3   OH219283   2.020   7.484   4.044
 6447TIP3    H119284   2.006   7.576   4.018
 6447TIP3    H219285   2.113   7.468   4.027
 6448TIP3   OH219286   1.726   2.301   0.551
 6448TIP3    H119287   1.693   2.223   0.506
 6448TIP3    H219288   1.806   2.271   0.594
 6449TIP3   OH219289   6.433   1.308   6.697
 6449TIP3    H119290   6.366   1.366   6.734
 6449TIP3    H219291   6.468   1.357   6.622
 6450TIP3   OH219292   1.413   5.151   2.176
 6450TIP3    H119293   1.442   5.184   2.261
 6450TIP3    H219294   1.326   5.115   2.193
 6451TIP3   OH219295   2.293   7.029   0.530
 6451TIP3    H119296   2.336   7.040   0.445
 6451TIP3    H219297   2.320   6.942   0.559
 6452TIP3   OH219298   0.612   1.996   0.995
 6452TIP3    H119299   0.605   2.008   1.090
 6452TIP3    H219300   0.643   2.080   0.963
 6453TIP3   OH219301   7.149   1.950   3.649
 6453TIP3    H119302   7.221   1.888   3.663
 6453TIP3    H219303   7.157   2.012   3.722
 6454TIP3   OH219304   7.830   3.835   1.909
 6454TIP3    H119305   7.798   3.883   1.832
 6454TIP3    H219306   7.774   3.757   1.913
 6455TIP3   OH219307   6.564   1.268   0.306
 6455TIP3    H119308   6.592   1.336   0.245
 6455TIP3    H219309   6.583   1.186   0.261
 6456TIP3   OH219310   3.298   6.228   1.643
 6456TIP3    H119311   3.359   6.290   1.683
 6456TIP3    H219312   3.330   6.142   1.671
 6457TIP3   OH219313   2.875   5.232   1.318
 6457TIP3    H119314   2.780   5.219   1.313
 6457TIP3    H219315   2.906   5.212   1.230
 6458TIP3   OH219316   2.299   0.458   4.508
 6458TIP3    H119317   2.322   0.542   4.467
 6458TIP3    H219318   2.376   0.403   4.494
 6459TIP3   OH219319   1.305   3.733   5.098
 6459TIP3    H119320   1.332   3.698   5.013
 6459TIP3    H219321   1.364   3.807   5.113
 6460TIP3   OH219322   0.627   7.725   4.898
 6460TIP3    H119323   0.687   7.754   4.966
 6460TIP3    H219324   0.653   7.775   4.820
 6461TIP3   OH219325   6.089   4.477   2.214
 6461TIP3    H119326   6.144   4.436   2.148
 6461TIP3    H219327   6.131   4.562   2.231
 6462TIP3   OH219328   4.348   6.109   0.549
 6462TIP3    H119329   4.373   6.190   0.505
 6462TIP3    H219330   4.408   6.043   0.514
 6463TIP3   OH219331   4.843   3.897   5.578
 6463TIP3    H119332   4.908   3.826   5.575
 6463TIP3    H219333   4.779   3.868   5.642
 6464TIP3   OH219334   5.259   6.553   0.754
 6464TIP3    H119335   5.205   6.557   0.675
 6464TIP3    H219336   5.203   6.514   0.820
 6465TIP3   OH219337   7.800   6.704   1.722
 6465TIP3    H119338   7.806   6.798   1.741
 6465TIP3    H219339   7.891   6.676   1.714
 6466TIP3   OH219340   7.018   6.868   3.474
 6466TIP3    H119341   7.011   6.896   3.565
 6466TIP3    H219342   7.010   6.949   3.424
 6467TIP3   OH219343   5.959   7.670   2.199
 6467TIP3    H119344   5.999   7.756   2.185
 6467TIP3    H219345   6.033   7.611   2.213
 6468TIP3   OH219346   7.843   5.921   0.798
 6468TIP3    H119347   7.917   5.901   0.740
 6468TIP3    H219348   7.853   5.860   0.871
 6469TIP3   OH219349   3.835   7.173   5.496
 6469TIP3    H119350   3.891   7.099   5.520
 6469TIP3    H219351   3.773   7.180   5.569
 6470TIP3   OH219352   4.757   7.551   6.379
 6470TIP3    H119353   4.705   7.577   6.303
 6470TIP3    H219354   4.802   7.631   6.406
 6471TIP3   OH219355   5.324   6.777   6.801
 6471TIP3    H119356   5.318   6.813   6.713
 6471TIP3    H219357   5.372   6.843   6.851
 6472TIP3   OH219358   4.143   0.728   1.563
 6472TIP3    H119359   4.166   0.804   1.511
 6472TIP3    H219360   4.049   0.716   1.549
 6473TIP3   OH219361   1.156   3.686   4.575
 6473TIP3    H119362   1.227   3.622   4.576
 6473TIP3    H219363   1.197   3.766   4.542
 6474TIP3   OH219364   4.977   4.142   2.155
 6474TIP3    H119365   5.039   4.073   2.178
 6474TIP3    H219366   4.920   4.150   2.231
 6475TIP3   OH219367   4.378   1.178   5.747
 6475TIP3    H119368   4.442   1.246   5.725
 6475TIP3    H219369   4.431   1.103   5.773
 6476TIP3   OH219370   5.672   4.639   0.266
 6476TIP3    H119371   5.736   4.704   0.295
 6476TIP3    H219372   5.641   4.598   0.346
 6477TIP3   OH219373   5.113   6.529   1.679
 6477TIP3    H119374   5.047   6.512   1.611
 6477TIP3    H219375   5.109   6.451   1.735
 6478TIP3   OH219376   2.266   0.386   5.604
 6478TIP3    H119377   2.279   0.480   5.591
 6478TIP3    H219378   2.355   0.350   5.604
 6479TIP3   OH219379   0.656   5.893   2.788
 6479TIP3    H119380   0.635   5.842   2.710
 6479TIP3    H219381   0.674   5.981   2.756
 6480TIP3   OH219382   6.631   5.988   0.287
 6480TIP3    H119383   6.682   5.934   0.346
 6480TIP3    H219384   6.690   6.059   0.262
 6481TIP3   OH219385   3.776   1.635   5.510
 6481TIP3    H119386   3.816   1.572   5.570
 6481TIP3    H219387   3.703   1.587   5.471
 6482TIP3   OH219388   3.399   0.457   4.972
 6482TIP3    H119389   3.363   0.433   5.057
 6482TIP3    H219390   3.323   0.488   4.921
 6483TIP3   OH219391   4.334   6.571   0.536
 6483TIP3    H119392   4.257   6.537   0.581
 6483TIP3    H219393   4.333   6.665   0.553
 6484TIP3   OH219394   1.684   0.585   0.699
 6484TIP3    H119395   1.699   0.495   0.671
 6484TIP3    H219396   1.692   0.636   0.618
 6485TIP3   OH219397   4.460   2.174   6.296
 6485TIP3    H119398   4.516   2.219   6.233
 6485TIP3    H219399   4.433   2.094   6.251
 6486TIP3   OH219400   3.019   0.605   5.309
 6486TIP3    H119401   2.999   0.580   5.400
 6486TIP3    H219402   3.018   0.700   5.309
 6487TIP3   OH219403   4.662   5.033   5.981
 6487TIP3    H119404   4.657   4.986   5.898
 6487TIP3    H219405   4.572   5.033   6.014
 6488TIP3   OH219406   0.147   4.934   6.056
 6488TIP3    H119407   0.223   4.974   6.099
 6488TIP3    H219408   0.072   4.963   6.107
 6489TIP3   OH219409   3.745   1.027   2.110
 6489TIP3    H119410   3.703   1.095   2.058
 6489TIP3    H219411   3.697   1.027   2.193
 6490TIP3   OH219412   8.072   2.417   6.381
 6490TIP3    H119413   8.108   2.446   6.465
 6490TIP3    H219414   8.148   2.412   6.323
 6491TIP3   OH219415   7.718   2.549   2.072
 6491TIP3    H119416   7.626   2.543   2.046
 6491TIP3    H219417   7.739   2.462   2.106
 6492TIP3   OH219418   0.849   6.429   6.679
 6492TIP3    H119419   0.769   6.386   6.709
 6492TIP3    H219420   0.853   6.408   6.586
 6493TIP3   OH219421   4.622   7.809   6.770
 6493TIP3    H119422   4.600   7.745   6.703
 6493TIP3    H219423   4.675   7.875   6.724
 6494TIP3   OH219424   3.368   4.403   0.585
 6494TIP3    H119425   3.364   4.486   0.632
 6494TIP3    H219426   3.333   4.339   0.647
 6495TIP3   OH219427   3.726   2.122   2.498
 6495TIP3    H119428   3.816   2.137   2.470
 6495TIP3    H219429   3.680   2.203   2.476
 6496TIP3   OH219430   3.231   7.816   2.664
 6496TIP3    H119431   3.148   7.773   2.684
 6496TIP3    H219432   3.280   7.751   2.614
 6497TIP3   OH219433   0.429   6.156   1.904
 6497TIP3    H119434   0.487   6.083   1.883
 6497TIP3    H219435   0.444   6.219   1.834
 6498TIP3   OH219436   2.737   2.086   0.333
 6498TIP3    H119437   2.717   2.083   0.240
 6498TIP3    H219438   2.661   2.046   0.375
 6499TIP3   OH219439   1.430   0.402   0.991
 6499TIP3    H119440   1.474   0.340   0.933
 6499TIP3    H219441   1.347   0.360   1.013
 6500TIP3   OH219442   0.254   6.686   6.087
 6500TIP3    H119443   0.214   6.762   6.130
 6500TIP3    H219444   0.342   6.680   6.125
 6501TIP3   OH219445   6.362   7.113   5.383
 6501TIP3    H119446   6.393   7.200   5.356
 6501TIP3    H219447   6.441   7.065   5.405
 6502TIP3   OH219448   4.134   2.292   0.694
 6502TIP3    H119449   4.045   2.328   0.688
 6502TIP3    H219450   4.126   2.222   0.759
 6503TIP3   OH219451   5.021   2.797   2.261
 6503TIP3    H119452   5.078   2.820   2.187
 6503TIP3    H219453   4.954   2.741   2.222
 6504TIP3   OH219454   5.237   2.667   5.298
 6504TIP3    H119455   5.294   2.608   5.249
 6504TIP3    H219456   5.158   2.616   5.314
 6505TIP3   OH219457   2.298   5.486   2.399
 6505TIP3    H119458   2.270   5.490   2.491
 6505TIP3    H219459   2.393   5.479   2.404
 6506TIP3   OH219460   5.004   3.289   5.799
 6506TIP3    H119461   5.021   3.370   5.847
 6506TIP3    H219462   5.086   3.240   5.804
 6507TIP3   OH219463   4.103   1.660   6.315
 6507TIP3    H119464   4.142   1.700   6.393
 6507TIP3    H219465   4.009   1.674   6.325
 6508TIP3   OH219466   1.289   1.159   2.875
 6508TIP3    H119467   1.245   1.220   2.816
 6508TIP3    H219468   1.362   1.209   2.911
 6509TIP3   OH219469   2.611   6.577   6.077
 6509TIP3    H119470   2.645   6.631   6.005
 6509TIP3    H219471   2.561   6.638   6.131
 6510TIP3   OH219472   2.881   5.383   5.742
 6510TIP3    H119473   2.973   5.366   5.761
 6510TIP3    H219474   2.882   5.422   5.654
 6511TIP3   OH219475   5.722   3.516   3.890
 6511TIP3    H119476   5.743   3.584   3.826
 6511TIP3    H219477   5.629   3.498   3.877
 6512TIP3   OH219478   4.293   6.693   4.467
 6512TIP3    H119479   4.266   6.604   4.447
 6512TIP3    H219480   4.276   6.742   4.387
 6513TIP3   OH219481   2.695   0.988   1.103
 6513TIP3    H119482   2.609   1.029   1.094
 6513TIP3    H219483   2.685   0.901   1.064
 6514TIP3   OH219484   1.693   5.953   5.945
 6514TIP3    H119485   1.754   5.962   5.872
 6514TIP3    H219486   1.713   5.868   5.983
 6515TIP3   OH219487   5.007   6.418   6.546
 6515TIP3    H119488   4.998   6.477   6.620
 6515TIP3    H219489   4.923   6.372   6.541
 6516TIP3   OH219490   8.161   4.574   6.313
 6516TIP3    H119491   8.222   4.606   6.246
 6516TIP3    H219492   8.168   4.639   6.383
 6517TIP3   OH219493   1.620   0.425   5.978
 6517TIP3    H119494   1.606   0.519   5.988
 6517TIP3    H219495   1.544   0.385   6.020
 6518TIP3   OH219496   5.236   1.053   6.017
 6518TIP3    H119497   5.293   0.999   5.962
 6518TIP3    H219498   5.151   1.008   6.014
 6519TIP3   OH219499   2.206   7.543   2.702
 6519TIP3    H119500   2.124   7.574   2.664
 6519TIP3    H219501   2.250   7.622   2.732
 6520TIP3   OH219502   2.916   5.921   5.840
 6520TIP3    H119503   2.838   5.969   5.870
 6520TIP3    H219504   2.900   5.830   5.865
 6521TIP3   OH219505   7.107   6.118   6.338
 6521TIP3    H119506   7.195   6.087   6.359
 6521TIP3    H219507   7.051   6.042   6.354
 6522TIP3   OH219508   2.008   4.289   0.352
 6522TIP3    H119509   1.932   4.238   0.379
 6522TIP3    H219510   2.025   4.348   0.426
 6523TIP3   OH219511   1.953   3.551   4.737
 6523TIP3    H119512   1.947   3.638   4.697
 6523TIP3    H219513   1.995   3.497   4.670
 6524TIP3   OH219514   7.272   6.364   4.878
 6524TIP3    H119515   7.196   6.327   4.834
 6524TIP3    H219516   7.286   6.307   4.954
 6525TIP3   OH219517   0.259   1.597   1.244
 6525TIP3    H119518   0.275   1.692   1.245
 6525TIP3    H219519   0.283   1.570   1.155
 6526TIP3   OH219520   4.975   1.245   3.136
 6526TIP3    H119521   4.900   1.185   3.134
 6526TIP3    H219522   4.937   1.331   3.156
 6527TIP3   OH219523   0.154   3.394   4.610
 6527TIP3    H119524   0.210   3.467   4.636
 6527TIP3    H219525   0.146   3.341   4.689
 6528TIP3   OH219526   6.914   7.031  -0.019
 6528TIP3    H119527   6.917   7.091   0.055
 6528TIP3    H219528   6.835   6.979  -0.005
 6529TIP3   OH219529   7.858   3.729   6.671
 6529TIP3    H119530   7.873   3.757   6.761
 6529TIP3    H219531   7.928   3.771   6.621
 6530TIP3   OH219532   1.339   5.178   6.411
 6530TIP3    H119533   1.344   5.161   6.505
 6530TIP3    H219534   1.245   5.178   6.391
 6531TIP3   OH219535   6.355   6.025   0.314
 6531TIP3    H119536   6.444   5.996   0.296
 6531TIP3    H219537   6.338   5.995   0.403
 6532TIP3   OH219538   0.231   4.070   2.375
 6532TIP3    H119539   0.156   4.054   2.433
 6532TIP3    H219540   0.290   3.996   2.391
 6533TIP3   OH219541   3.591   1.483   2.264
 6533TIP3    H119542   3.569   1.433   2.343
 6533TIP3    H219543   3.581   1.420   2.192
 6534TIP3   OH219544   4.383   5.814   4.805
 6534TIP3    H119545   4.430   5.801   4.723
 6534TIP3    H219546   4.299   5.770   4.791
 6535TIP3   OH219547   2.520   3.099   0.672
 6535TIP3    H119548   2.582   3.165   0.704
 6535TIP3    H219549   2.539   3.021   0.724
 6536TIP3   OH219550   1.012   6.174   1.095
 6536TIP3    H119551   1.033   6.239   1.028
 6536TIP3    H219552   1.043   6.091   1.059
 6537TIP3   OH219553   1.906   3.721   2.679
 6537TIP3    H119554   1.893   3.793   2.741
 6537TIP3    H219555   1.947   3.763   2.603
 6538TIP3   OH219556   2.784   1.028   3.015
 6538TIP3    H119557   2.746   1.113   3.036
 6538TIP3    H219558   2.870   1.049   2.979
 6539TIP3   OH219559   0.897   3.963   0.502
 6539TIP3    H119560   0.982   3.934   0.537
 6539TIP3    H219561   0.872   4.036   0.559
 6540TIP3   OH219562   0.398   6.199   1.285
 6540TIP3    H119563   0.346   6.166   1.212
 6540TIP3    H219564   0.347   6.175   1.363
 6541TIP3   OH219565   0.199   1.398   4.982
 6541TIP3    H119566   0.157   1.467   5.033
 6541TIP3    H219567   0.131   1.332   4.969
 6542TIP3   OH219568   2.475   4.751   0.064
 6542TIP3    H119569   2.475   4.772   0.157
 6542TIP3    H219570   2.542   4.684   0.054
 6543TIP3   OH219571   7.404   1.435   5.466
 6543TIP3    H119572   7.465   1.500   5.502
 6543TIP3    H219573   7.329   1.437   5.525
 6544TIP3   OH219574   0.211   4.688   2.710
 6544TIP3    H119575   0.222   4.772   2.755
 6544TIP3    H219576   0.294   4.642   2.725
 6545TIP3   OH219577   3.877   3.483   5.788
 6545TIP3    H119578   3.950   3.537   5.820
 6545TIP3    H219579   3.904   3.457   5.700
 6546TIP3   OH219580   1.647   4.854   4.399
 6546TIP3    H119581   1.694   4.793   4.342
 6546TIP3    H219582   1.708   4.926   4.412
 6547TIP3   OH219583   1.477   5.257   5.064
 6547TIP3    H119584   1.567   5.288   5.073
 6547TIP3    H219585   1.439   5.266   5.151
 6548TIP3   OH219586   4.091   2.547   0.908
 6548TIP3    H119587   4.074   2.455   0.890
 6548TIP3    H219588   4.017   2.575   0.962
 6549TIP3   OH219589   6.587   2.940   1.488
 6549TIP3    H119590   6.658   2.993   1.524
 6549TIP3    H219591   6.537   3.001   1.433
 6550TIP3   OH219592   7.278   1.508   4.380
 6550TIP3    H119593   7.233   1.423   4.388
 6550TIP3    H219594   7.297   1.533   4.470
 6551TIP3   OH219595   1.302   0.780   0.653
 6551TIP3    H119596   1.249   0.775   0.733
 6551TIP3    H219597   1.320   0.873   0.642
 6552TIP3   OH219598   4.380   4.080   6.494
 6552TIP3    H119599   4.372   4.175   6.506
 6552TIP3    H219600   4.352   4.044   6.579
 6553TIP3   OH219601   1.167   0.541   1.452
 6553TIP3    H119602   1.194   0.553   1.361
 6553TIP3    H219603   1.205   0.457   1.478
 6554TIP3   OH219604   7.051   1.928   2.493
 6554TIP3    H119605   7.118   1.896   2.553
 6554TIP3    H219606   6.984   1.860   2.493
 6555TIP3   OH219607   0.344   4.290   4.954
 6555TIP3    H119608   0.263   4.297   5.005
 6555TIP3    H219609   0.390   4.216   4.993
 6556TIP3   OH219610   6.373   5.029   1.564
 6556TIP3    H119611   6.336   4.941   1.553
 6556TIP3    H219612   6.301   5.088   1.545
 6557TIP3   OH219613   3.190   6.518   2.679
 6557TIP3    H119614   3.247   6.594   2.671
 6557TIP3    H219615   3.101   6.554   2.677
 6558TIP3   OH219616   5.093   2.746   4.106
 6558TIP3    H119617   5.007   2.742   4.064
 6558TIP3    H219618   5.083   2.696   4.187
 6559TIP3   OH219619   3.808   1.195   3.716
 6559TIP3    H119620   3.824   1.235   3.631
 6559TIP3    H219621   3.807   1.100   3.699
 6560TIP3   OH219622   4.135   3.187   4.382
 6560TIP3    H119623   4.199   3.146   4.441
 6560TIP3    H219624   4.189   3.239   4.322
 6561TIP3   OH219625   8.222   0.724   4.575
 6561TIP3    H119626   8.230   0.632   4.600
 6561TIP3    H219627   8.141   0.752   4.616
 6562TIP3   OH219628   3.867   0.765   1.517
 6562TIP3    H119629   3.837   0.690   1.569
 6562TIP3    H219630   3.786   0.810   1.492
 6563TIP3   OH219631   5.845   4.741   3.748
 6563TIP3    H119632   5.769   4.691   3.718
 6563TIP3    H219633   5.847   4.818   3.691
 6564TIP3   OH219634   2.331   3.449   4.683
 6564TIP3    H119635   2.368   3.510   4.747
 6564TIP3    H219636   2.388   3.372   4.688
 6565TIP3   OH219637   6.326   6.778   4.449
 6565TIP3    H119638   6.409   6.796   4.494
 6565TIP3    H219639   6.285   6.864   4.438
 6566TIP3   OH219640   7.501   6.123   3.573
 6566TIP3    H119641   7.468   6.035   3.588
 6566TIP3    H219642   7.564   6.114   3.501
 6567TIP3   OH219643   6.806   5.475   2.982
 6567TIP3    H119644   6.795   5.494   3.075
 6567TIP3    H219645   6.895   5.504   2.962
 6568TIP3   OH219646   1.883   4.333   2.001
 6568TIP3    H119647   1.860   4.361   1.912
 6568TIP3    H219648   1.949   4.396   2.029
 6569TIP3   OH219649   2.881   6.791   6.217
 6569TIP3    H119650   2.851   6.700   6.217
 6569TIP3    H219651   2.971   6.786   6.248
 6570TIP3   OH219652   7.735   0.102   1.656
 6570TIP3    H119653   7.739   0.143   1.569
 6570TIP3    H219654   7.754   0.010   1.640
 6571TIP3   OH219655   1.724   5.190   0.481
 6571TIP3    H119656   1.812   5.181   0.518
 6571TIP3    H219657   1.668   5.141   0.541
 6572TIP3   OH219658   4.474   0.447   4.392
 6572TIP3    H119659   4.386   0.479   4.414
 6572TIP3    H219660   4.465   0.351   4.393
 6573TIP3   OH219661   3.548   0.247   1.569
 6573TIP3    H119662   3.489   0.225   1.641
 6573TIP3    H219663   3.633   0.259   1.610
 6574TIP3   OH219664   2.253   5.365   3.248
 6574TIP3    H119665   2.273   5.277   3.217
 6574TIP3    H219666   2.244   5.417   3.168
 6575TIP3   OH219667   1.596   2.585   3.708
 6575TIP3    H119668   1.507   2.552   3.724
 6575TIP3    H219669   1.590   2.628   3.623
 6576TIP3   OH219670   0.470   5.774   6.350
 6576TIP3    H119671   0.538   5.840   6.340
 6576TIP3    H219672   0.463   5.761   6.445
 6577TIP3   OH219673   7.721   1.763   0.616
 6577TIP3    H119674   7.681   1.676   0.620
 6577TIP3    H219675   7.656   1.821   0.656
 6578TIP3   OH219676   4.985   7.275   3.799
 6578TIP3    H119677   5.023   7.335   3.734
 6578TIP3    H219678   4.916   7.229   3.752
 6579TIP3   OH219679   7.796   4.050   6.672
 6579TIP3    H119680   7.734   4.110   6.712
 6579TIP3    H219681   7.773   3.964   6.707
 6580TIP3   OH219682   3.568   4.170   4.402
 6580TIP3    H119683   3.494   4.122   4.365
 6580TIP3    H219684   3.544   4.262   4.390
 6581TIP3   OH219685   5.174   3.010   6.377
 6581TIP3    H119686   5.255   2.965   6.400
 6581TIP3    H219687   5.110   2.979   6.441
 6582TIP3   OH219688   7.041   5.731   3.778
 6582TIP3    H119689   7.073   5.816   3.809
 6582TIP3    H219690   6.988   5.752   3.701
 6583TIP3   OH219691   4.862   6.066   0.907
 6583TIP3    H119692   4.874   6.157   0.879
 6583TIP3    H219693   4.939   6.020   0.874
 6584TIP3   OH219694   7.774   5.942   5.800
 6584TIP3    H119695   7.840   6.003   5.833
 6584TIP3    H219696   7.691   5.974   5.837
 6585TIP3   OH219697   7.735   1.943   3.707
 6585TIP3    H119698   7.658   1.937   3.650
 6585TIP3    H219699   7.805   1.902   3.656
 6586TIP3   OH219700   1.620   0.818   0.551
 6586TIP3    H119701   1.543   0.854   0.507
 6586TIP3    H219702   1.673   0.781   0.480
 6587TIP3   OH219703   8.116   4.762   0.357
 6587TIP3    H119704   8.104   4.737   0.265
 6587TIP3    H219705   8.209   4.783   0.364
 6588TIP3   OH219706   3.878   4.915   5.366
 6588TIP3    H119707   3.812   4.861   5.409
 6588TIP3    H219708   3.831   4.959   5.296
 6589TIP3   OH219709   5.948   6.005   6.697
 6589TIP3    H119710   5.879   6.062   6.732
 6589TIP3    H219711   5.960   5.939   6.765
 6590TIP3   OH219712   0.369   7.745   5.341
 6590TIP3    H119713   0.370   7.665   5.290
 6590TIP3    H219714   0.417   7.724   5.421
 6591TIP3   OH219715   7.663   6.544   0.290
 6591TIP3    H119716   7.598   6.516   0.225
 6591TIP3    H219717   7.663   6.474   0.355
 6592TIP3   OH219718   4.694   5.801   1.876
 6592TIP3    H119719   4.716   5.712   1.901
 6592TIP3    H219720   4.605   5.815   1.910
 6593TIP3   OH219721   6.968   0.217   3.112
 6593TIP3    H119722   6.883   0.206   3.068
 6593TIP3    H219723   7.012   0.285   3.061
 6594TIP3   OH219724   7.312   1.426   0.258
 6594TIP3    H119725   7.369   1.460   0.326
 6594TIP3    H219726   7.361   1.352   0.220
 6595TIP3   OH219727   2.678   1.820   2.918
 6595TIP3    H119728   2.668   1.731   2.951
 6595TIP3    H219729   2.621   1.873   2.975
 6596TIP3   OH219730   1.839   5.685   0.838
 6596TIP3    H119731   1.878   5.644   0.760
 6596TIP3    H219732   1.851   5.620   0.907
 6597TIP3   OH219733   2.061   6.334   3.059
 6597TIP3    H119734   2.120   6.271   3.018
 6597TIP3    H219735   2.029   6.289   3.137
 6598TIP3   OH219736   1.145   7.756   3.035
 6598TIP3    H119737   1.057   7.758   2.998
 6598TIP3    H219738   1.147   7.827   3.099
 6599TIP3   OH219739   1.121   7.123   0.565
 6599TIP3    H119740   1.050   7.187   0.562
 6599TIP3    H219741   1.087   7.045   0.521
 6600TIP3   OH219742   2.655   0.586   3.048
 6600TIP3    H119743   2.674   0.594   3.142
 6600TIP3    H219744   2.608   0.503   3.040
 6601TIP3   OH219745   7.082   1.108   0.109
 6601TIP3    H119746   7.030   1.034   0.140
 6601TIP3    H219747   7.143   1.126   0.181
 6602TIP3   OH219748   4.981   5.281   3.019
 6602TIP3    H119749   5.024   5.266   2.935
 6602TIP3    H219750   4.991   5.375   3.034
 6603TIP3   OH219751   3.135   6.327   0.586
 6603TIP3    H119752   3.125   6.248   0.532
 6603TIP3    H219753   3.206   6.376   0.543
 6604TIP3   OH219754   4.514   2.352   5.953
 6604TIP3    H119755   4.584   2.330   6.014
 6604TIP3    H219756   4.514   2.447   5.949
 6605TIP3   OH219757   1.277   7.574   0.325
 6605TIP3    H119758   1.218   7.525   0.384
 6605TIP3    H219759   1.362   7.533   0.337
 6606TIP3   OH219760   3.801   1.635   0.781
 6606TIP3    H119761   3.716   1.625   0.739
 6606TIP3    H219762   3.787   1.602   0.870
 6607TIP3   OH219763   5.508   3.393   2.885
 6607TIP3    H119764   5.585   3.366   2.935
 6607TIP3    H219765   5.434   3.356   2.932
 6608TIP3   OH219766   0.352   6.846   2.657
 6608TIP3    H119767   0.420   6.907   2.627
 6608TIP3    H219768   0.398   6.785   2.714
 6609TIP3   OH219769   7.013   6.613   5.593
 6609TIP3    H119770   6.932   6.657   5.618
 6609TIP3    H219771   7.072   6.684   5.567
 6610TIP3   OH219772   4.653   2.785   2.992
 6610TIP3    H119773   4.701   2.792   2.909
 6610TIP3    H219774   4.715   2.743   3.052
 6611TIP3   OH219775   3.849   7.216   0.958
 6611TIP3    H119776   3.830   7.213   0.864
 6611TIP3    H219777   3.762   7.219   1.000
 6612TIP3   OH219778   4.744   3.835   2.845
 6612TIP3    H119779   4.817   3.789   2.803
 6612TIP3    H219780   4.780   3.871   2.925
 6613TIP3   OH219781   6.019   1.118   2.835
 6613TIP3    H119782   6.014   1.200   2.787
 6613TIP3    H219783   5.935   1.112   2.880
 6614TIP3   OH219784   0.694   7.344   3.727
 6614TIP3    H119785   0.652   7.349   3.813
 6614TIP3    H219786   0.694   7.251   3.705
 6615TIP3   OH219787   2.026   4.983   1.982
 6615TIP3    H119788   2.089   5.023   1.922
 6615TIP3    H219789   1.993   5.057   2.034
 6616TIP3   OH219790   4.528   7.470   0.310
 6616TIP3    H119791   4.508   7.379   0.291
 6616TIP3    H219792   4.606   7.467   0.365
 6617TIP3   OH219793   0.553   2.137   3.409
 6617TIP3    H119794   0.591   2.224   3.424
 6617TIP3    H219795   0.629   2.080   3.397
 6618TIP3   OH219796   1.555   6.769   4.607
 6618TIP3    H119797   1.491   6.839   4.592
 6618TIP3    H219798   1.631   6.814   4.644
 6619TIP3   OH219799   2.079   6.970   0.690
 6619TIP3    H119800   2.116   6.885   0.714
 6619TIP3    H219801   2.132   6.998   0.615
 6620TIP3   OH219802   3.059   6.424   2.924
 6620TIP3    H119803   3.115   6.370   2.980
 6620TIP3    H219804   3.109   6.436   2.844
 6621TIP3   OH219805   1.088   4.088   0.885
 6621TIP3    H119806   1.100   4.182   0.896
 6621TIP3    H219807   1.173   4.056   0.854
 6622TIP3   OH219808   3.023   5.265   0.427
 6622TIP3    H119809   3.065   5.305   0.351
 6622TIP3    H219810   3.040   5.172   0.419
 6623TIP3   OH219811   4.379   0.748   5.768
 6623TIP3    H119812   4.378   0.811   5.840
 6623TIP3    H219813   4.444   0.784   5.707
 6624TIP3   OH219814   0.305   3.056   2.658
 6624TIP3    H119815   0.269   3.089   2.740
 6624TIP3    H219816   0.228   3.028   2.608
 6625TIP3   OH219817   0.283   1.004   5.911
 6625TIP3    H119818   0.293   0.935   5.977
 6625TIP3    H219819   0.216   0.970   5.851
 6626TIP3   OH219820   5.651   4.113   2.903
 6626TIP3    H119821   5.649   4.111   2.808
 6626TIP3    H219822   5.567   4.076   2.931
 6627TIP3   OH219823   7.520   3.150   0.209
 6627TIP3    H119824   7.579   3.170   0.136
 6627TIP3    H219825   7.458   3.223   0.210
 6628TIP3   OH219826   3.521   4.466   4.824
 6628TIP3    H119827   3.474   4.413   4.889
 6628TIP3    H219828   3.460   4.471   4.750
 6629TIP3   OH219829   3.693   3.363   1.907
 6629TIP3    H119830   3.683   3.284   1.961
 6629TIP3    H219831   3.604   3.397   1.897
 6630TIP3   OH219832   0.158   2.864   0.129
 6630TIP3    H119833   0.219   2.828   0.194
 6630TIP3    H219834   0.213   2.915   0.070
 6631TIP3   OH219835   0.870   2.331   0.143
 6631TIP3    H119836   0.863   2.397   0.213
 6631TIP3    H219837   0.780   2.319   0.112
 6632TIP3   OH219838   3.045   1.331   1.915
 6632TIP3    H119839   3.111   1.392   1.946
 6632TIP3    H219840   3.084   1.244   1.929
 6633TIP3   OH219841   5.907   7.327   0.655
 6633TIP3    H119842   5.923   7.403   0.711
 6633TIP3    H219843   5.907   7.253   0.715
 6634TIP3   OH219844   3.672   6.359   5.749
 6634TIP3    H119845   3.650   6.448   5.775
 6634TIP3    H219846   3.767   6.360   5.735
 6635TIP3   OH219847   2.372   5.889   3.324
 6635TIP3    H119848   2.413   5.852   3.247
 6635TIP3    H219849   2.394   5.982   3.320
 6636TIP3   OH219850   4.043   7.748   2.087
 6636TIP3    H119851   4.070   7.731   2.177
 6636TIP3    H219852   4.024   7.841   2.084
 6637TIP3   OH219853   2.442   0.792   0.309
 6637TIP3    H119854   2.455   0.878   0.269
 6637TIP3    H219855   2.459   0.806   0.402
 6638TIP3   OH219856   1.018   7.168   3.707
 6638TIP3    H119857   0.940   7.124   3.674
 6638TIP3    H219858   1.018   7.150   3.801
 6639TIP3   OH219859   1.638   3.886   5.610
 6639TIP3    H119860   1.543   3.893   5.606
 6639TIP3    H219861   1.666   3.890   5.518
 6640TIP3   OH219862   5.113   1.501   4.917
 6640TIP3    H119863   5.166   1.532   4.990
 6640TIP3    H219864   5.115   1.405   4.926
 6641TIP3   OH219865   0.570   6.722   0.599
 6641TIP3    H119866   0.537   6.788   0.659
 6641TIP3    H219867   0.548   6.639   0.639
 6642TIP3   OH219868   8.161   0.331   1.940
 6642TIP3    H119869   8.113   0.411   1.962
 6642TIP3    H219870   8.111   0.293   1.868
 6643TIP3   OH219871   5.322   0.137   3.120
 6643TIP3    H119872   5.259   0.098   3.182
 6643TIP3    H219873   5.277   0.135   3.036
 6644TIP3   OH219874   4.875   7.232   5.690
 6644TIP3    H119875   4.905   7.256   5.603
 6644TIP3    H219876   4.876   7.137   5.691
 6645TIP3   OH219877   1.099   5.037   5.787
 6645TIP3    H119878   1.073   5.128   5.805
 6645TIP3    H219879   1.193   5.043   5.770
 6646TIP3   OH219880   4.909   3.467   3.283
 6646TIP3    H119881   4.885   3.390   3.231
 6646TIP3    H219882   4.827   3.496   3.323
 6647TIP3   OH219883   6.790   0.403   1.091
 6647TIP3    H119884   6.819   0.342   1.158
 6647TIP3    H219885   6.818   0.489   1.123
 6648TIP3   OH219886   6.188   2.412   1.693
 6648TIP3    H119887   6.132   2.485   1.719
 6648TIP3    H219888   6.133   2.360   1.634
 6649TIP3   OH219889   3.681   4.320   3.046
 6649TIP3    H119890   3.673   4.299   2.953
 6649TIP3    H219891   3.771   4.296   3.069
 6650TIP3   OH219892   3.467   5.382   0.104
 6650TIP3    H119893   3.464   5.457   0.045
 6650TIP3    H219894   3.390   5.392   0.160
 6651TIP3   OH219895   1.276   1.901   0.274
 6651TIP3    H119896   1.240   1.893   0.185
 6651TIP3    H219897   1.367   1.873   0.265
 6652TIP3   OH219898   1.021   0.190   5.938
 6652TIP3    H119899   1.070   0.253   5.992
 6652TIP3    H219900   1.028   0.107   5.985
 6653TIP3   OH219901   2.045   6.079   5.612
 6653TIP3    H119902   2.066   6.084   5.519
 6653TIP3    H219903   1.989   6.154   5.628
 6654TIP3   OH219904   1.914   6.981   3.913
 6654TIP3    H119905   1.875   6.918   3.973
 6654TIP3    H219906   1.843   7.042   3.892
 6655TIP3   OH219907   6.534   1.693   5.158
 6655TIP3    H119908   6.510   1.711   5.249
 6655TIP3    H219909   6.454   1.659   5.118
 6656TIP3   OH219910   6.677   2.712   0.734
 6656TIP3    H119911   6.682   2.798   0.694
 6656TIP3    H219912   6.587   2.704   0.764
 6657TIP3   OH219913   3.813   3.841   6.631
 6657TIP3    H119914   3.893   3.856   6.581
 6657TIP3    H219915   3.773   3.763   6.592
 6658TIP3   OH219916   0.438   0.760   1.260
 6658TIP3    H119917   0.359   0.706   1.263
 6658TIP3    H219918   0.481   0.746   1.344
 6659TIP3   OH219919   0.447   5.817   4.325
 6659TIP3    H119920   0.367   5.867   4.342
 6659TIP3    H219921   0.513   5.884   4.304
 6660TIP3   OH219922   4.587   4.862   1.915
 6660TIP3    H119923   4.664   4.816   1.950
 6660TIP3    H219924   4.595   4.853   1.820
 6661TIP3   OH219925   4.476   2.373   5.230
 6661TIP3    H119926   4.560   2.345   5.266
 6661TIP3    H219927   4.464   2.319   5.152
 6662TIP3   OH219928   2.707   6.233   2.693
 6662TIP3    H119929   2.634   6.206   2.637
 6662TIP3    H219930   2.747   6.151   2.722
 6663TIP3   OH219931   8.306   2.770   2.919
 6663TIP3    H119932   8.272   2.859   2.906
 6663TIP3    H219933   8.233   2.713   2.898
 6664TIP3   OH219934   2.173   3.840   6.242
 6664TIP3    H119935   2.182   3.899   6.167
 6664TIP3    H219936   2.083   3.809   6.237
 6665TIP3   OH219937   7.129   4.880   0.476
 6665TIP3    H119938   7.182   4.854   0.551
 6665TIP3    H219939   7.105   4.798   0.433
 6666TIP3   OH219940   4.910   3.106   4.661
 6666TIP3    H119941   4.883   3.156   4.584
 6666TIP3    H219942   4.839   3.043   4.674
 6667TIP3   OH219943   7.298   3.598   2.856
 6667TIP3    H119944   7.237   3.562   2.919
 6667TIP3    H219945   7.335   3.675   2.899
 6668TIP3   OH219946   6.279   0.680   1.916
 6668TIP3    H119947   6.373   0.664   1.928
 6668TIP3    H219948   6.275   0.763   1.868
 6669TIP3   OH219949   2.807   7.557   6.343
 6669TIP3    H119950   2.799   7.556   6.247
 6669TIP3    H219951   2.900   7.539   6.359
 6670TIP3   OH219952   0.466   7.399   0.935
 6670TIP3    H119953   0.489   7.491   0.944
 6670TIP3    H219954   0.532   7.363   0.875
 6671TIP3   OH219955   0.235   6.401   1.040
 6671TIP3    H119956   0.301   6.471   1.038
 6671TIP3    H219957   0.151   6.446   1.037
 6672TIP3   OH219958   2.619   0.779   4.046
 6672TIP3    H119959   2.604   0.687   4.064
 6672TIP3    H219960   2.586   0.792   3.957
 6673TIP3   OH219961   1.721   7.719   1.136
 6673TIP3    H119962   1.718   7.792   1.075
 6673TIP3    H219963   1.632   7.686   1.140
 6674TIP3   OH219964   2.111   4.727   3.983
 6674TIP3    H119965   2.084   4.799   3.925
 6674TIP3    H219966   2.078   4.648   3.940
 6675TIP3   OH219967   3.053   4.983   0.396
 6675TIP3    H119968   3.149   4.985   0.390
 6675TIP3    H219969   3.024   4.963   0.307
 6676TIP3   OH219970   1.934   4.362   5.635
 6676TIP3    H119971   1.895   4.283   5.671
 6676TIP3    H219972   2.021   4.336   5.607
 6677TIP3   OH219973   0.557   6.217   5.882
 6677TIP3    H119974   0.564   6.308   5.913
 6677TIP3    H219975   0.463   6.201   5.877
 6678TIP3   OH219976   1.181   4.637   3.179
 6678TIP3    H119977   1.266   4.673   3.154
 6678TIP3    H219978   1.132   4.711   3.213
 6679TIP3   OH219979   4.630   0.356   6.110
 6679TIP3    H119980   4.663   0.403   6.187
 6679TIP3    H219981   4.570   0.418   6.069
 6680TIP3   OH219982   4.123   6.224   6.593
 6680TIP3    H119983   4.056   6.195   6.531
 6680TIP3    H219984   4.080   6.220   6.679
 6681TIP3   OH219985   6.306   2.854   2.479
 6681TIP3    H119986   6.239   2.902   2.528
 6681TIP3    H219987   6.266   2.837   2.394
 6682TIP3   OH219988   1.662   4.753   1.460
 6682TIP3    H119989   1.608   4.829   1.481
 6682TIP3    H219990   1.619   4.679   1.503
 6683TIP3   OH219991   0.685   0.167   0.318
 6683TIP3    H119992   0.769   0.137   0.282
 6683TIP3    H219993   0.622   0.101   0.289
 6684TIP3   OH219994   4.983   4.473   4.140
 6684TIP3    H119995   4.944   4.469   4.228
 6684TIP3    H219996   4.933   4.411   4.088
 6685TIP3   OH219997   3.016   5.628   4.548
 6685TIP3    H119998   3.112   5.633   4.553
 6685TIP3    H219999   2.998   5.534   4.554
 6686TIP3   OH220000   5.080   7.577   0.219
 6686TIP3    H120001   5.068   7.602   0.127
 6686TIP3    H220002   5.121   7.653   0.260
 6687TIP3   OH220003   2.856   6.515   0.338
 6687TIP3    H120004   2.890   6.548   0.421
 6687TIP3    H220005   2.891   6.575   0.272
 6688TIP3   OH220006   1.480   1.740   2.271
 6688TIP3    H120007   1.526   1.668   2.227
 6688TIP3    H220008   1.508   1.819   2.224
 6689TIP3   OH220009   6.059   0.996   3.786
 6689TIP3    H120010   6.116   1.072   3.775
 6689TIP3    H220011   5.970   1.032   3.784
 6690TIP3   OH220012   0.915   7.345   5.923
 6690TIP3    H120013   0.990   7.289   5.909
 6690TIP3    H220014   0.926   7.380   6.012
 6691TIP3   OH220015   7.042   2.380   0.978
 6691TIP3    H120016   7.025   2.397   0.885
 6691TIP3    H220017   7.015   2.460   1.022
 6692TIP3   OH220018   4.451   0.499   5.857
 6692TIP3    H120019   4.421   0.494   5.948
 6692TIP3    H220020   4.420   0.584   5.826
 6693TIP3   OH220021   0.741   7.449   4.839
 6693TIP3    H120022   0.803   7.382   4.866
 6693TIP3    H220023   0.672   7.446   4.905
 6694TIP3   OH220024   4.701   6.281   5.140
 6694TIP3    H120025   4.772   6.217   5.133
 6694TIP3    H220026   4.707   6.315   5.229
 6695TIP3   OH220027   6.492   0.699   6.370
 6695TIP3    H120028   6.558   0.672   6.435
 6695TIP3    H220029   6.512   0.647   6.292
 6696TIP3   OH220030   5.466   1.746   5.826
 6696TIP3    H120031   5.424   1.781   5.747
 6696TIP3    H220032   5.400   1.689   5.864
 6697TIP3   OH220033   3.447   2.357   2.714
 6697TIP3    H120034   3.537   2.374   2.687
 6697TIP3    H220035   3.395   2.368   2.634
 6698TIP3   OH220036   1.479   7.778   0.241
 6698TIP3    H120037   1.537   7.717   0.196
 6698TIP3    H220038   1.406   7.724   0.271
 6699TIP3   OH220039   5.610   6.671   6.182
 6699TIP3    H120040   5.572   6.645   6.265
 6699TIP3    H220041   5.701   6.694   6.202
 6700TIP3   OH220042   3.664   4.610   4.122
 6700TIP3    H120043   3.640   4.522   4.095
 6700TIP3    H220044   3.626   4.667   4.056
 6701TIP3   OH220045   0.919   2.511   6.507
 6701TIP3    H120046   0.912   2.602   6.479
 6701TIP3    H220047   0.971   2.514   6.588
 6702TIP3   OH220048   4.971   7.254   4.071
 6702TIP3    H120049   4.893   7.304   4.096
 6702TIP3    H220050   4.989   7.283   3.981
 6703TIP3   OH220051   1.491   7.190   6.184
 6703TIP3    H120052   1.528   7.164   6.269
 6703TIP3    H220053   1.414   7.241   6.206
 6704TIP3   OH220054   0.123   6.984   6.558
 6704TIP3    H120055   0.179   7.035   6.617
 6704TIP3    H220056   0.173   6.906   6.538
 6705TIP3   OH220057   5.992   0.101   0.150
 6705TIP3    H120058   6.009   0.126   0.059
 6705TIP3    H220059   5.969   0.183   0.193
 6706TIP3   OH220060   2.981   1.900   1.414
 6706TIP3    H120061   2.978   1.932   1.505
 6706TIP3    H220062   2.919   1.827   1.413
 6707TIP3   OH220063   5.745   3.606   2.773
 6707TIP3    H120064   5.778   3.681   2.724
 6707TIP3    H220065   5.698   3.644   2.847
 6708TIP3   OH220066   4.734   5.115   1.897
 6708TIP3    H120067   4.680   5.037   1.890
 6708TIP3    H220068   4.746   5.145   1.807
 6709TIP3   OH220069   6.909   5.593   4.715
 6709TIP3    H120070   6.837   5.560   4.769
 6709TIP3    H220071   6.910   5.687   4.731
 6710TIP3   OH220072   0.038   1.115   0.145
 6710TIP3    H120073   0.102   1.175   0.106
 6710TIP3    H220074  -0.045   1.162   0.137
 6711TIP3   OH220075   7.521   4.134   2.724
 6711TIP3    H120076   7.602   4.121   2.675
 6711TIP3    H220077   7.540   4.207   2.783
 6712TIP3   OH220078   0.274   6.024   2.302
 6712TIP3    H120079   0.272   6.022   2.398
 6712TIP3    H220080   0.220   6.100   2.279
 6713TIP3   OH220081   7.026   1.487   4.519
 6713TIP3    H120082   7.049   1.401   4.482
 6713TIP3    H220083   6.957   1.520   4.462
 6714TIP3   OH220084   6.914   6.512   3.068
 6714TIP3    H120085   6.951   6.478   3.150
 6714TIP3    H220086   6.819   6.502   3.079
 6715TIP3   OH220087   3.785   2.193   6.775
 6715TIP3    H120088   3.786   2.116   6.718
 6715TIP3    H220089   3.836   2.167   6.851
 6716TIP3   OH220090   5.110   1.097   0.324
 6716TIP3    H120091   5.074   1.008   0.334
 6716TIP3    H220092   5.183   1.100   0.386
 6717TIP3   OH220093   5.539   7.776   3.860
 6717TIP3    H120094   5.564   7.802   3.772
 6717TIP3    H220095   5.594   7.700   3.879
 6718TIP3   OH220096   7.091   6.203   4.722
 6718TIP3    H120097   7.102   6.116   4.759
 6718TIP3    H220098   7.106   6.191   4.628
 6719TIP3   OH220099   2.552   4.694   5.241
 6719TIP3    H120100   2.602   4.776   5.249
 6719TIP3    H220101   2.608   4.636   5.190
 6720TIP3   OH220102   2.368   7.667   4.748
 6720TIP3    H120103   2.367   7.629   4.661
 6720TIP3    H220104   2.422   7.608   4.800
 6721TIP3   OH220105   1.980   7.643   1.003
 6721TIP3    H120106   1.986   7.716   0.942
 6721TIP3    H220107   2.051   7.583   0.976
 6722TIP3   OH220108   0.217   7.444   4.349
 6722TIP3    H120109   0.193   7.416   4.437
 6722TIP3    H220110   0.296   7.394   4.329
 6723TIP3   OH220111   4.174   6.640   1.138
 6723TIP3    H120112   4.097   6.613   1.089
 6723TIP3    H220113   4.248   6.616   1.082
 6724TIP3   OH220114   3.468   1.740   2.184
 6724TIP3    H120115   3.418   1.774   2.258
 6724TIP3    H220116   3.476   1.646   2.201
 6725TIP3   OH220117   6.957   2.258   3.383
 6725TIP3    H120118   6.980   2.266   3.476
 6725TIP3    H220119   7.039   2.272   3.336
 6726TIP3   OH220120   6.709   6.493   5.505
 6726TIP3    H120121   6.697   6.580   5.541
 6726TIP3    H220122   6.696   6.434   5.579
 6727TIP3   OH220123   7.712   1.218   0.414
 6727TIP3    H120124   7.668   1.301   0.396
 6727TIP3    H220125   7.697   1.203   0.507
 6728TIP3   OH220126   4.262   7.419   4.264
 6728TIP3    H120127   4.183   7.455   4.225
 6728TIP3    H220128   4.309   7.495   4.299
 6729TIP3   OH220129   4.247   7.522   0.395
 6729TIP3    H120130   4.330   7.496   0.354
 6729TIP3    H220131   4.244   7.617   0.385
 6730TIP3   OH220132   4.171   7.101   4.762
 6730TIP3    H120133   4.169   7.011   4.727
 6730TIP3    H220134   4.258   7.109   4.800
 6731TIP3   OH220135   5.705   2.561   0.773
 6731TIP3    H120136   5.722   2.523   0.687
 6731TIP3    H220137   5.792   2.570   0.813
 6732TIP3   OH220138   1.871   2.819   4.006
 6732TIP3    H120139   1.795   2.761   3.995
 6732TIP3    H220140   1.930   2.796   3.935
 6733TIP3   OH220141   3.542   7.090   3.525
 6733TIP3    H120142   3.601   7.028   3.484
 6733TIP3    H220143   3.469   7.100   3.463
 6734TIP3   OH220144   7.473   3.408   6.359
 6734TIP3    H120145   7.479   3.472   6.430
 6734TIP3    H220146   7.387   3.368   6.369
 6735TIP3   OH220147   6.947   6.340   5.499
 6735TIP3    H120148   6.862   6.382   5.511
 6735TIP3    H220149   7.010   6.410   5.518
 6736TIP3   OH220150   1.478   2.788   3.182
 6736TIP3    H120151   1.529   2.858   3.142
 6736TIP3    H220152   1.430   2.750   3.109
 6737TIP3   OH220153   1.925   5.931   0.816
 6737TIP3    H120154   1.909   5.836   0.817
 6737TIP3    H220155   1.952   5.950   0.726
 6738TIP3   OH220156   2.230   4.569   3.427
 6738TIP3    H120157   2.268   4.484   3.451
 6738TIP3    H220158   2.204   4.608   3.510
 6739TIP3   OH220159   0.525   5.904   0.366
 6739TIP3    H120160   0.591   5.967   0.338
 6739TIP3    H220161   0.464   5.956   0.419
 6740TIP3   OH220162   1.800   1.432   3.548
 6740TIP3    H120163   1.751   1.395   3.621
 6740TIP3    H220164   1.889   1.444   3.582
 6741TIP3   OH220165   4.061   7.352   3.981
 6741TIP3    H120166   3.996   7.290   4.013
 6741TIP3    H220167   4.053   7.429   4.038
 6742TIP3   OH220168   7.678   2.588   2.771
 6742TIP3    H120169   7.650   2.665   2.820
 6742TIP3    H220170   7.597   2.537   2.759
 6743TIP3   OH220171   6.866   7.136   0.329
 6743TIP3    H120172   6.906   7.195   0.265
 6743TIP3    H220173   6.773   7.133   0.303
 6744TIP3   OH220174   5.174   4.710   2.181
 6744TIP3    H120175   5.230   4.764   2.125
 6744TIP3    H220176   5.212   4.622   2.175
 6745TIP3   OH220177   4.179   6.709   5.417
 6745TIP3    H120178   4.154   6.709   5.509
 6745TIP3    H220179   4.100   6.684   5.370
 6746TIP3   OH220180   7.547   4.344   6.717
 6746TIP3    H120181   7.553   4.440   6.712
 6746TIP3    H220182   7.455   4.327   6.740
 6747TIP3   OH220183   1.307   2.942   5.883
 6747TIP3    H120184   1.286   2.869   5.825
 6747TIP3    H220185   1.224   2.988   5.894
 6748TIP3   OH220186   1.386   2.157   1.888
 6748TIP3    H120187   1.294   2.156   1.864
 6748TIP3    H220188   1.413   2.065   1.884
 6749TIP3   OH220189   4.026   7.276   6.336
 6749TIP3    H120190   4.046   7.201   6.279
 6749TIP3    H220191   4.045   7.245   6.424
 6750TIP3   OH220192   5.562   2.772   2.576
 6750TIP3    H120193   5.585   2.687   2.540
 6750TIP3    H220194   5.627   2.787   2.645
 6751TIP3   OH220195   6.582   4.240   2.605
 6751TIP3    H120196   6.527   4.279   2.674
 6751TIP3    H220197   6.523   4.230   2.530
 6752TIP3   OH220198   7.806   4.413   3.748
 6752TIP3    H120199   7.818   4.318   3.753
 6752TIP3    H220200   7.719   4.429   3.785
 6753TIP3   OH220201   6.946   3.552   2.758
 6753TIP3    H120202   6.910   3.481   2.705
 6753TIP3    H220203   7.003   3.600   2.697
 6754TIP3   OH220204   2.091   0.873   3.540
 6754TIP3    H120205   2.144   0.901   3.466
 6754TIP3    H220206   2.144   0.807   3.585
 6755TIP3   OH220207   2.462   0.920   5.009
 6755TIP3    H120208   2.552   0.912   5.039
 6755TIP3    H220209   2.446   1.014   5.005
 6756TIP3   OH220210   3.911   1.438   1.284
 6756TIP3    H120211   3.908   1.421   1.378
 6756TIP3    H220212   3.953   1.360   1.247
 6757TIP3   OH220213   5.805   5.209   5.395
 6757TIP3    H120214   5.784   5.259   5.474
 6757TIP3    H220215   5.813   5.119   5.425
 6758TIP3   OH220216   1.839   7.331   4.193
 6758TIP3    H120217   1.754   7.370   4.170
 6758TIP3    H220218   1.903   7.389   4.151
 6759TIP3   OH220219   5.403   6.856   2.300
 6759TIP3    H120220   5.324   6.829   2.253
 6759TIP3    H220221   5.398   6.811   2.384
 6760TIP3   OH220222   3.938   0.572   6.375
 6760TIP3    H120223   3.981   0.494   6.338
 6760TIP3    H220224   3.870   0.594   6.312
 6761TIP3   OH220225   1.859   3.861   0.770
 6761TIP3    H120226   1.839   3.935   0.714
 6761TIP3    H220227   1.907   3.800   0.714
 6762TIP3   OH220228   4.049   0.886   3.074
 6762TIP3    H120229   4.022   0.868   3.165
 6762TIP3    H220230   4.055   0.799   3.034
 6763TIP3   OH220231   8.231   7.278   2.958
 6763TIP3    H120232   8.167   7.223   2.912
 6763TIP3    H220233   8.310   7.223   2.964
 6764TIP3   OH220234   1.866   3.891   2.921
 6764TIP3    H120235   1.940   3.872   2.979
 6764TIP3    H220236   1.806   3.817   2.934
 6765TIP3   OH220237   6.560   2.395   3.341
 6765TIP3    H120238   6.565   2.303   3.316
 6765TIP3    H220239   6.639   2.434   3.302
 6766TIP3   OH220240   1.934   0.654   6.791
 6766TIP3    H120241   1.893   0.684   6.710
 6766TIP3    H220242   1.982   0.575   6.766
 6767TIP3   OH220243   0.623   1.280   5.265
 6767TIP3    H120244   0.584   1.345   5.208
 6767TIP3    H220245   0.548   1.245   5.315
 6768TIP3   OH220246   0.466   2.093   2.642
 6768TIP3    H120247   0.509   2.033   2.580
 6768TIP3    H220248   0.536   2.120   2.701
 6769TIP3   OH220249   4.894   6.926   0.187
 6769TIP3    H120250   4.910   6.947   0.279
 6769TIP3    H220251   4.875   6.832   0.187
 6770TIP3   OH220252   0.471   2.121   2.011
 6770TIP3    H120253   0.471   2.038   1.964
 6770TIP3    H220254   0.412   2.177   1.961
 6771TIP3   OH220255   3.367   4.472   1.513
 6771TIP3    H120256   3.369   4.432   1.426
 6771TIP3    H220257   3.298   4.425   1.559
 6772TIP3   OH220258   5.102   1.195   3.479
 6772TIP3    H120259   5.095   1.195   3.575
 6772TIP3    H220260   5.134   1.282   3.457
 6773TIP3   OH220261   0.323   4.073   0.771
 6773TIP3    H120262   0.276   4.074   0.854
 6773TIP3    H220263   0.382   4.148   0.775
 6774TIP3   OH220264   3.867   7.007   6.190
 6774TIP3    H120265   3.854   7.042   6.277
 6774TIP3    H220266   3.960   7.023   6.171
 6775TIP3   OH220267   3.694   4.256   2.198
 6775TIP3    H120268   3.672   4.332   2.252
 6775TIP3    H220269   3.783   4.274   2.166
 6776TIP3   OH220270   1.856   7.397   0.716
 6776TIP3    H120271   1.899   7.318   0.749
 6776TIP3    H220272   1.875   7.397   0.623
 6777TIP3   OH220273   4.956   5.498   4.297
 6777TIP3    H120274   4.964   5.591   4.275
 6777TIP3    H220275   4.892   5.497   4.368
 6778TIP3   OH220276   3.617   4.190   0.937
 6778TIP3    H120277   3.664   4.210   1.018
 6778TIP3    H220278   3.536   4.148   0.967
 6779TIP3   OH220279   0.127   6.321   6.276
 6779TIP3    H120280   0.125   6.411   6.308
 6779TIP3    H220281   0.068   6.274   6.334
 6780TIP3   OH220282   2.869   7.256   6.344
 6780TIP3    H120283   2.887   7.327   6.406
 6780TIP3    H220284   2.857   7.301   6.260
 6781TIP3   OH220285   0.860   6.302   1.257
 6781TIP3    H120286   0.893   6.246   1.187
 6781TIP3    H220287   0.935   6.356   1.281
 6782TIP3   OH220288   6.849   5.378   1.081
 6782TIP3    H120289   6.847   5.471   1.102
 6782TIP3    H220290   6.804   5.336   1.154
 6783TIP3   OH220291   6.037   5.396   1.442
 6783TIP3    H120292   5.987   5.476   1.426
 6783TIP3    H220293   6.090   5.415   1.519
 6784TIP3   OH220294   0.600   1.984   5.647
 6784TIP3    H120295   0.545   1.922   5.695
 6784TIP3    H220296   0.584   1.964   5.555
 6785TIP3   OH220297   4.019   1.634   3.466
 6785TIP3    H120298   3.960   1.708   3.480
 6785TIP3    H220299   3.992   1.598   3.382
 6786TIP3   OH220300   1.841   0.120   4.213
 6786TIP3    H120301   1.865   0.028   4.200
 6786TIP3    H220302   1.901   0.168   4.156
 6787TIP3   OH220303   1.602   0.245   5.214
 6787TIP3    H120304   1.661   0.287   5.151
 6787TIP3    H220305   1.660   0.205   5.278
 6788TIP3   OH220306   6.213   4.168   2.437
 6788TIP3    H120307   6.289   4.215   2.404
 6788TIP3    H220308   6.160   4.236   2.480
 6789TIP3   OH220309   6.457   0.148   3.673
 6789TIP3    H120310   6.505   0.186   3.746
 6789TIP3    H220311   6.512   0.165   3.596
 6790TIP3   OH220312   2.970   2.706   5.237
 6790TIP3    H120313   3.026   2.704   5.315
 6790TIP3    H220314   2.998   2.631   5.185
 6791TIP3   OH220315   5.338   0.590   4.422
 6791TIP3    H120316   5.393   0.581   4.500
 6791TIP3    H220317   5.341   0.504   4.381
 6792TIP3   OH220318   4.992   3.507   5.117
 6792TIP3    H120319   5.060   3.469   5.174
 6792TIP3    H220320   5.016   3.599   5.111
 6793TIP3   OH220321   2.185   6.474   5.554
 6793TIP3    H120322   2.246   6.401   5.564
 6793TIP3    H220323   2.123   6.463   5.626
 6794TIP3   OH220324   1.221   6.513   2.068
 6794TIP3    H120325   1.136   6.470   2.074
 6794TIP3    H220326   1.285   6.442   2.071
 6795TIP3   OH220327   3.055   7.776   0.873
 6795TIP3    H120328   3.005   7.808   0.948
 6795TIP3    H220329   3.128   7.837   0.865
 6796TIP3   OH220330   0.426   1.823   5.764
 6796TIP3    H120331   0.465   1.754   5.711
 6796TIP3    H220332   0.370   1.777   5.826
 6797TIP3   OH220333   1.769   2.124   3.073
 6797TIP3    H120334   1.799   2.095   3.159
 6797TIP3    H220335   1.675   2.107   3.074
 6798TIP3   OH220336   1.991   6.902   2.490
 6798TIP3    H120337   2.010   6.942   2.405
 6798TIP3    H220338   2.076   6.892   2.532
 6799TIP3   OH220339   5.593   6.909   1.280
 6799TIP3    H120340   5.540   6.982   1.314
 6799TIP3    H220341   5.670   6.907   1.337
 6800TIP3   OH220342   7.046   6.146   3.032
 6800TIP3    H120343   6.973   6.088   3.052
 6800TIP3    H220344   7.079   6.115   2.948
 6801TIP3   OH220345   6.524   0.174   1.044
 6801TIP3    H120346   6.477   0.178   1.127
 6801TIP3    H220347   6.530   0.265   1.015
 6802TIP3   OH220348   1.372   0.102   1.215
 6802TIP3    H120349   1.296   0.055   1.181
 6802TIP3    H220350   1.383   0.069   1.304
 6803TIP3   OH220351   6.559   4.289   0.161
 6803TIP3    H120352   6.630   4.238   0.123
 6803TIP3    H220353   6.601   4.371   0.188
 6804TIP3   OH220354   1.086   7.723   5.710
 6804TIP3    H120355   1.012   7.777   5.739
 6804TIP3    H220356   1.154   7.737   5.776
 6805TIP3   OH220357   4.871   3.715   4.452
 6805TIP3    H120358   4.883   3.773   4.377
 6805TIP3    H220359   4.796   3.660   4.428
 6806TIP3   OH220360   7.422   0.876   0.828
 6806TIP3    H120361   7.357   0.924   0.878
 6806TIP3    H220362   7.400   0.894   0.737
 6807TIP3   OH220363   7.487   0.309   5.890
 6807TIP3    H120364   7.552   0.374   5.917
 6807TIP3    H220365   7.529   0.261   5.819
 6808TIP3   OH220366   5.137   0.714   2.631
 6808TIP3    H120367   5.171   0.775   2.566
 6808TIP3    H220368   5.131   0.766   2.711
 6809TIP3   OH220369   8.219   6.284   1.041
 6809TIP3    H120370   8.166   6.317   1.113
 6809TIP3    H220371   8.296   6.246   1.084
 6810TIP3   OH220372   2.600   2.259   2.728
 6810TIP3    H120373   2.693   2.235   2.729
 6810TIP3    H220374   2.579   2.268   2.635
 6811TIP3   OH220375   5.403   5.813   5.258
 6811TIP3    H120376   5.375   5.846   5.343
 6811TIP3    H220377   5.454   5.734   5.278
 6812TIP3   OH220378   4.605   3.771   6.132
 6812TIP3    H120379   4.617   3.856   6.089
 6812TIP3    H220380   4.652   3.779   6.215
 6813TIP3   OH220381   5.458   7.020   3.852
 6813TIP3    H120382   5.550   7.013   3.826
 6813TIP3    H220383   5.424   7.092   3.799
 6814TIP3   OH220384   5.646   7.770   1.442
 6814TIP3    H120385   5.643   7.791   1.349
 6814TIP3    H220386   5.560   7.795   1.475
 6815TIP3   OH220387   6.875   6.325   2.061
 6815TIP3    H120388   6.878   6.346   1.968
 6815TIP3    H220389   6.796   6.368   2.093
 6816TIP3   OH220390   5.186   7.537   5.343
 6816TIP3    H120391   5.267   7.582   5.366
 6816TIP3    H220392   5.208   7.485   5.265
 6817TIP3   OH220393   0.855   6.796   0.730
 6817TIP3    H120394   0.763   6.786   0.707
 6817TIP3    H220395   0.886   6.868   0.675
 6818TIP3   OH220396   3.649   5.362   5.170
 6818TIP3    H120397   3.584   5.402   5.112
 6818TIP3    H220398   3.732   5.374   5.124
 6819TIP3   OH220399   3.766   1.366   5.578
 6819TIP3    H120400   3.722   1.323   5.506
 6819TIP3    H220401   3.852   1.325   5.582
 6820TIP3   OH220402   4.339   7.142   2.709
 6820TIP3    H120403   4.278   7.116   2.778
 6820TIP3    H220404   4.366   7.231   2.732
 6821TIP3   OH220405   6.363   4.300   3.829
 6821TIP3    H120406   6.424   4.227   3.824
 6821TIP3    H220407   6.367   4.328   3.920
 6822TIP3   OH220408   1.650   4.776   3.661
 6822TIP3    H120409   1.567   4.731   3.644
 6822TIP3    H220410   1.660   4.838   3.590
 6823TIP3   OH220411   5.210   4.006   5.656
 6823TIP3    H120412   5.180   4.084   5.609
 6823TIP3    H220413   5.173   3.933   5.607
 6824TIP3   OH220414   4.812   3.005   2.069
 6824TIP3    H120415   4.896   2.964   2.089
 6824TIP3    H220416   4.810   3.085   2.122
 6825TIP3   OH220417   7.823   6.250   0.166
 6825TIP3    H120418   7.822   6.328   0.110
 6825TIP3    H220419   7.837   6.178   0.105
 6826TIP3   OH220420   1.204   3.309   2.406
 6826TIP3    H120421   1.154   3.236   2.371
 6826TIP3    H220422   1.251   3.345   2.331
 6827TIP3   OH220423   1.110   5.351   2.975
 6827TIP3    H120424   1.083   5.361   2.884
 6827TIP3    H220425   1.169   5.425   2.991
 6828TIP3   OH220426   2.944   5.233   1.020
 6828TIP3    H120427   3.031   5.210   0.986
 6828TIP3    H220428   2.884   5.175   0.972
 6829TIP3   OH220429   3.789   3.161   0.834
 6829TIP3    H120430   3.811   3.068   0.839
 6829TIP3    H220431   3.827   3.190   0.751
 6830TIP3   OH220432   2.444   6.391   5.690
 6830TIP3    H120433   2.370   6.391   5.750
 6830TIP3    H220434   2.520   6.408   5.746
 6831TIP3   OH220435   0.539   3.210   1.414
 6831TIP3    H120436   0.480   3.177   1.345
 6831TIP3    H220437   0.488   3.279   1.456
 6832TIP3   OH220438   0.542   7.705   6.666
 6832TIP3    H120439   0.520   7.616   6.637
 6832TIP3    H220440   0.638   7.707   6.666
 6833TIP3   OH220441   4.866   3.194   4.115
 6833TIP3    H120442   4.774   3.172   4.131
 6833TIP3    H220443   4.882   3.165   4.025
 6834TIP3   OH220444   7.631   2.870   2.923
 6834TIP3    H120445   7.726   2.881   2.927
 6834TIP3    H220446   7.602   2.935   2.859
 6835TIP3   OH220447   5.908   7.172   1.092
 6835TIP3    H120448   5.962   7.136   1.163
 6835TIP3    H220449   5.821   7.134   1.106
 6836TIP3   OH220450   1.239   4.865   2.086
 6836TIP3    H120451   1.209   4.935   2.144
 6836TIP3    H220452   1.242   4.788   2.142
 6837TIP3   OH220453   3.441   1.620   5.726
 6837TIP3    H120454   3.449   1.601   5.633
 6837TIP3    H220455   3.506   1.564   5.769
 6838TIP3   OH220456   7.253   4.277   5.815
 6838TIP3    H120457   7.247   4.226   5.734
 6838TIP3    H220458   7.236   4.368   5.787
 6839TIP3   OH220459   3.273   1.665   3.037
 6839TIP3    H120460   3.308   1.709   3.115
 6839TIP3    H220461   3.192   1.712   3.019
 6840TIP3   OH220462   5.847   3.738   3.753
 6840TIP3    H120463   5.938   3.744   3.724
 6840TIP3    H220464   5.797   3.774   3.680
 6841TIP3   OH220465   2.427   0.428   6.726
 6841TIP3    H120466   2.444   0.342   6.688
 6841TIP3    H220467   2.515   0.464   6.744
 6842TIP3   OH220468   0.783   6.785   0.429
 6842TIP3    H120469   0.719   6.771   0.499
 6842TIP3    H220470   0.803   6.697   0.397
 6843TIP3   OH220471   1.568   6.567   0.004
 6843TIP3    H120472   1.644   6.510  -0.010
 6843TIP3    H220473   1.604   6.646   0.045
 6844TIP3   OH220474   2.247   4.535   6.074
 6844TIP3    H120475   2.254   4.578   5.989
 6844TIP3    H220476   2.237   4.442   6.054
 6845TIP3   OH220477   2.726   7.541   1.620
 6845TIP3    H120478   2.636   7.532   1.590
 6845TIP3    H220479   2.752   7.629   1.592
 6846TIP3   OH220480   2.412   1.330   5.228
 6846TIP3    H120481   2.419   1.379   5.309
 6846TIP3    H220482   2.371   1.247   5.253
 6847TIP3   OH220483   3.026   1.801   4.028
 6847TIP3    H120484   2.933   1.804   4.008
 6847TIP3    H220485   3.062   1.881   3.989
 6848TIP3   OH220486   7.684   2.980   6.207
 6848TIP3    H120487   7.658   2.944   6.122
 6848TIP3    H220488   7.694   3.074   6.191
 6849TIP3   OH220489   6.612   7.680   1.816
 6849TIP3    H120490   6.702   7.713   1.815
 6849TIP3    H220491   6.600   7.646   1.905
 6850TIP3   OH220492   5.165   2.235   0.766
 6850TIP3    H120493   5.097   2.287   0.724
 6850TIP3    H220494   5.240   2.294   0.774
 6851TIP3   OH220495   1.782   7.607   2.230
 6851TIP3    H120496   1.723   7.667   2.184
 6851TIP3    H220497   1.726   7.563   2.294
 6852TIP3   OH220498   8.116   5.575   0.486
 6852TIP3    H120499   8.149   5.640   0.548
 6852TIP3    H220500   8.170   5.498   0.502
 6853TIP3   OH220501   1.133   6.843   1.037
 6853TIP3    H120502   1.129   6.924   0.985
 6853TIP3    H220503   1.222   6.811   1.026
 6854TIP3   OH220504   4.095   2.266   3.130
 6854TIP3    H120505   4.032   2.327   3.168
 6854TIP3    H220506   4.062   2.179   3.153
 6855TIP3   OH220507   4.734   1.810   3.276
 6855TIP3    H120508   4.689   1.894   3.270
 6855TIP3    H220509   4.778   1.813   3.362
 6856TIP3   OH220510   7.186   4.441   2.076
 6856TIP3    H120511   7.216   4.429   1.986
 6856TIP3    H220512   7.094   4.465   2.068
 6857TIP3   OH220513   6.378   7.520   2.660
 6857TIP3    H120514   6.387   7.548   2.752
 6857TIP3    H220515   6.456   7.468   2.643
 6858TIP3   OH220516   0.373   6.564   5.690
 6858TIP3    H120517   0.390   6.495   5.626
 6858TIP3    H220518   0.278   6.575   5.689
 6859TIP3   OH220519   6.695   5.835   1.529
 6859TIP3    H120520   6.632   5.830   1.601
 6859TIP3    H220521   6.758   5.765   1.548
 6860TIP3   OH220522   3.908   4.384   0.622
 6860TIP3    H120523   3.826   4.427   0.645
 6860TIP3    H220524   3.882   4.312   0.564
 6861TIP3   OH220525   5.543   0.286   1.216
 6861TIP3    H120526   5.607   0.347   1.177
 6861TIP3    H220527   5.458   0.321   1.190
 6862TIP3   OH220528   2.783   0.258   4.101
 6862TIP3    H120529   2.846   0.187   4.108
 6862TIP3    H220530   2.783   0.282   4.008
 6863TIP3   OH220531   2.598   3.934   1.749
 6863TIP3    H120532   2.571   3.895   1.831
 6863TIP3    H220533   2.681   3.889   1.728
 6864TIP3   OH220534   4.148   5.439   5.500
 6864TIP3    H120535   4.156   5.408   5.410
 6864TIP3    H220536   4.129   5.532   5.492
 6865TIP3   OH220537   4.324   6.545   2.054
 6865TIP3    H120538   4.301   6.575   1.966
 6865TIP3    H220539   4.381   6.613   2.089
 6866TIP3   OH220540   1.040   0.287   4.156
 6866TIP3    H120541   1.090   0.263   4.234
 6866TIP3    H220542   1.043   0.210   4.100
 6867TIP3   OH220543   7.761   5.749   1.384
 6867TIP3    H120544   7.785   5.778   1.296
 6867TIP3    H220545   7.669   5.772   1.393
 6868TIP3   OH220546   5.505   2.229   3.360
 6868TIP3    H120547   5.556   2.257   3.435
 6868TIP3    H220548   5.477   2.311   3.318
 6869TIP3   OH220549   0.856   0.761   6.328
 6869TIP3    H120550   0.922   0.731   6.390
 6869TIP3    H220551   0.816   0.837   6.370
 6870TIP3   OH220552   6.374   1.018   4.812
 6870TIP3    H120553   6.365   1.094   4.754
 6870TIP3    H220554   6.453   1.037   4.864
 6871TIP3   OH220555   6.809   7.736   0.747
 6871TIP3    H120556   6.745   7.698   0.687
 6871TIP3    H220557   6.797   7.831   0.739
 6872TIP3   OH220558   3.709   7.255   5.998
 6872TIP3    H120559   3.655   7.320   6.044
 6872TIP3    H220560   3.798   7.276   6.023
 6873TIP3   OH220561   3.700   0.884   2.660
 6873TIP3    H120562   3.604   0.880   2.664
 6873TIP3    H220563   3.722   0.964   2.709
 6874TIP3   OH220564   0.016   5.722   2.299
 6874TIP3    H120565   0.099   5.692   2.262
 6874TIP3    H220566  -0.045   5.719   2.226
 6875TIP3   OH220567   3.484   6.798   0.506
 6875TIP3    H120568   3.460   6.881   0.463
 6875TIP3    H220569   3.470   6.814   0.599
 6876TIP3   OH220570   5.329   1.159   6.237
 6876TIP3    H120571   5.282   1.129   6.160
 6876TIP3    H220572   5.267   1.149   6.309
 6877TIP3   OH220573   4.085   6.759   0.460
 6877TIP3    H120574   4.176   6.778   0.440
 6877TIP3    H220575   4.057   6.831   0.518
 6878TIP3   OH220576   0.233   1.221   2.326
 6878TIP3    H120577   0.283   1.166   2.386
 6878TIP3    H220578   0.281   1.217   2.243
 6879TIP3   OH220579   6.934   7.590   0.944
 6879TIP3    H120580   7.023   7.612   0.917
 6879TIP3    H220581   6.878   7.653   0.899
 6880TIP3   OH220582   3.145   2.766   5.429
 6880TIP3    H120583   3.155   2.838   5.492
 6880TIP3    H220584   3.195   2.794   5.352
 6881TIP3   OH220585   4.082   4.846   6.191
 6881TIP3    H120586   4.048   4.781   6.130
 6881TIP3    H220587   4.039   4.826   6.274
 6882TIP3   OH220588   7.409   7.659   5.840
 6882TIP3    H120589   7.343   7.685   5.905
 6882TIP3    H220590   7.486   7.713   5.862
 6883TIP3   OH220591   7.987   7.353   0.371
 6883TIP3    H120592   8.032   7.317   0.295
 6883TIP3    H220593   7.895   7.331   0.356
 6884TIP3   OH220594   4.432   0.049   5.634
 6884TIP3    H120595   4.489   0.035   5.559
 6884TIP3    H220596   4.354   0.092   5.598
 6885TIP3   OH220597   7.256   4.671   0.148
 6885TIP3    H120598   7.216   4.667   0.235
 6885TIP3    H220599   7.189   4.635   0.089
 6886TIP3   OH220600   6.840   0.993   5.296
 6886TIP3    H120601   6.895   1.069   5.275
 6886TIP3    H220602   6.751   1.023   5.277
 6887TIP3   OH220603   5.255   4.131   4.530
 6887TIP3    H120604   5.213   4.170   4.454
 6887TIP3    H220605   5.345   4.114   4.502
 6888TIP3   OH220606   7.355   5.081   3.706
 6888TIP3    H120607   7.324   5.119   3.623
 6888TIP3    H220608   7.279   5.034   3.741
 6889TIP3   OH220609   4.620   2.808   2.094
 6889TIP3    H120610   4.612   2.805   2.189
 6889TIP3    H220611   4.670   2.887   2.076
 6890TIP3   OH220612   7.614   2.766   4.713
 6890TIP3    H120613   7.539   2.805   4.667
 6890TIP3    H220614   7.577   2.733   4.795
 6891TIP3   OH220615   7.005   4.044   6.082
 6891TIP3    H120616   7.068   4.010   6.019
 6891TIP3    H220617   6.929   4.070   6.029
 6892TIP3   OH220618   5.985   5.401   2.764
 6892TIP3    H120619   5.951   5.488   2.779
 6892TIP3    H220620   6.033   5.379   2.845
 6893TIP3   OH220621   0.747   4.524   4.327
 6893TIP3    H120622   0.814   4.585   4.295
 6893TIP3    H220623   0.665   4.574   4.324
 6894TIP3   OH220624   3.241   0.446   1.141
 6894TIP3    H120625   3.149   0.466   1.158
 6894TIP3    H220626   3.256   0.478   1.052
 6895TIP3   OH220627   3.337   0.880   3.323
 6895TIP3    H120628   3.265   0.822   3.302
 6895TIP3    H220629   3.388   0.834   3.389
 6896TIP3   OH220630   4.125   0.857   3.610
 6896TIP3    H120631   4.123   0.880   3.703
 6896TIP3    H220632   4.147   0.939   3.565
 6897TIP3   OH220633   2.068   4.541   1.997
 6897TIP3    H120634   2.049   4.603   1.927
 6897TIP3    H220635   2.163   4.530   1.994
 6898TIP3   OH220636   2.710   4.413   2.091
 6898TIP3    H120637   2.795   4.422   2.048
 6898TIP3    H220638   2.675   4.502   2.093
 6899TIP3   OH220639   1.693   0.600   4.521
 6899TIP3    H120640   1.743   0.586   4.601
 6899TIP3    H220641   1.671   0.693   4.522
 6900TIP3   OH220642   6.429   2.038   0.081
 6900TIP3    H120643   6.351   2.060   0.031
 6900TIP3    H220644   6.416   2.080   0.166
 6901TIP3   OH220645   7.451   2.830   1.693
 6901TIP3    H120646   7.475   2.799   1.606
 6901TIP3    H220647   7.387   2.767   1.725
 6902TIP3   OH220648   5.254   7.754   3.753
 6902TIP3    H120649   5.215   7.836   3.784
 6902TIP3    H220650   5.344   7.758   3.784
 6903TIP3   OH220651   6.176   0.624   2.251
 6903TIP3    H120652   6.152   0.649   2.162
 6903TIP3    H220653   6.272   0.628   2.252
 6904TIP3   OH220654   4.487   0.945   6.346
 6904TIP3    H120655   4.419   0.989   6.294
 6904TIP3    H220656   4.467   0.968   6.436
 6905TIP3   OH220657   2.938   2.595   2.888
 6905TIP3    H120658   2.914   2.503   2.894
 6905TIP3    H220659   2.989   2.601   2.807
 6906TIP3   OH220660   3.160   0.906   5.444
 6906TIP3    H120661   3.159   0.844   5.518
 6906TIP3    H220662   3.145   0.991   5.484
 6907TIP3   OH220663   5.653   2.564   2.411
 6907TIP3    H120664   5.646   2.617   2.332
 6907TIP3    H220665   5.640   2.474   2.381
 6908TIP3   OH220666   0.987   4.378   0.155
 6908TIP3    H120667   1.070   4.333   0.137
 6908TIP3    H220668   1.012   4.449   0.215
 6909TIP3   OH220669   7.768   1.872   0.931
 6909TIP3    H120670   7.818   1.845   0.854
 6909TIP3    H220671   7.783   1.803   0.995
 6910TIP3   OH220672   4.700   4.896   3.140
 6910TIP3    H120673   4.722   4.844   3.217
 6910TIP3    H220674   4.684   4.984   3.175
 6911TIP3   OH220675   2.190   6.292   5.110
 6911TIP3    H120676   2.169   6.382   5.133
 6911TIP3    H220677   2.230   6.298   5.023
 6912TIP3   OH220678   3.944   5.229   1.136
 6912TIP3    H120679   3.910   5.314   1.109
 6912TIP3    H220680   4.005   5.248   1.206
 6913TIP3   OH220681   2.737   3.835   3.239
 6913TIP3    H120682   2.713   3.830   3.332
 6913TIP3    H220683   2.832   3.826   3.239
 6914TIP3   OH220684   5.742   6.014   0.225
 6914TIP3    H120685   5.728   5.940   0.283
 6914TIP3    H220686   5.724   5.979   0.137
 6915TIP3   OH220687   6.115   6.368   2.424
 6915TIP3    H120688   6.147   6.347   2.511
 6915TIP3    H220689   6.057   6.443   2.437
 6916TIP3   OH220690   5.309   3.212   2.989
 6916TIP3    H120691   5.365   3.190   3.063
 6916TIP3    H220692   5.274   3.128   2.959
 6917TIP3   OH220693   6.203   4.394   1.986
 6917TIP3    H120694   6.271   4.449   1.946
 6917TIP3    H220695   6.179   4.331   1.919
 6918TIP3   OH220696   4.013   0.231   4.534
 6918TIP3    H120697   4.014   0.137   4.550
 6918TIP3    H220698   3.971   0.241   4.448
 6919TIP3   OH220699   4.089   2.523   2.595
 6919TIP3    H120700   4.073   2.574   2.516
 6919TIP3    H220701   4.060   2.580   2.666
 6920TIP3   OH220702   2.253   5.907   1.508
 6920TIP3    H120703   2.319   5.909   1.578
 6920TIP3    H220704   2.225   5.998   1.500
 6921TIP3   OH220705   0.475   1.214   6.197
 6921TIP3    H120706   0.381   1.198   6.203
 6921TIP3    H220707   0.515   1.136   6.236
 6922TIP3   OH220708   7.305   0.940   0.569
 6922TIP3    H120709   7.248   1.006   0.530
 6922TIP3    H220710   7.254   0.859   0.565
 6923TIP3   OH220711   4.577   3.145   0.385
 6923TIP3    H120712   4.509   3.083   0.360
 6923TIP3    H220713   4.552   3.227   0.342
 6924TIP3   OH220714   8.071   6.762   0.539
 6924TIP3    H120715   8.048   6.855   0.533
 6924TIP3    H220716   8.047   6.726   0.453
 6925TIP3   OH220717   4.613   7.625   3.759
 6925TIP3    H120718   4.589   7.538   3.791
 6925TIP3    H220719   4.687   7.651   3.814
 6926TIP3   OH220720   5.883   0.218   2.802
 6926TIP3    H120721   5.917   0.296   2.758
 6926TIP3    H220722   5.932   0.145   2.764
 6927TIP3   OH220723   2.426   7.155   4.589
 6927TIP3    H120724   2.416   7.100   4.667
 6927TIP3    H220725   2.337   7.166   4.557
 6928TIP3   OH220726   3.835   4.424   1.223
 6928TIP3    H120727   3.778   4.349   1.203
 6928TIP3    H220728   3.796   4.463   1.301
 6929TIP3   OH220729   6.729   2.031   2.390
 6929TIP3    H120730   6.761   2.044   2.479
 6929TIP3    H220731   6.660   2.097   2.379
 6930TIP3   OH220732   4.795   7.241   0.395
 6930TIP3    H120733   4.796   7.334   0.419
 6930TIP3    H220734   4.785   7.242   0.300
 6931TIP3   OH220735   3.270   5.578   4.517
 6931TIP3    H120736   3.330   5.590   4.444
 6931TIP3    H220737   3.290   5.490   4.549
 6932TIP3   OH220738   2.121   2.239   2.902
 6932TIP3    H120739   2.143   2.195   2.984
 6932TIP3    H220740   2.170   2.191   2.835
 6933TIP3   OH220741   8.017   2.598   6.593
 6933TIP3    H120742   7.984   2.670   6.539
 6933TIP3    H220743   8.085   2.638   6.646
 6934TIP3   OH220744   1.107   3.335   5.290
 6934TIP3    H120745   1.156   3.394   5.348
 6934TIP3    H220746   1.074   3.392   5.221
 6935TIP3   OH220747   0.357   3.092   1.255
 6935TIP3    H120748   0.398   3.015   1.214
 6935TIP3    H220749   0.264   3.068   1.262
 6936TIP3   OH220750   5.591   1.873   4.330
 6936TIP3    H120751   5.525   1.832   4.386
 6936TIP3    H220752   5.554   1.958   4.307
 6937TIP3   OH220753   7.054   0.779   2.702
 6937TIP3    H120754   7.117   0.752   2.636
 6937TIP3    H220755   6.999   0.843   2.658
 6938TIP3   OH220756   3.616   2.464  -0.015
 6938TIP3    H120757   3.607   2.478   0.079
 6938TIP3    H220758   3.568   2.384  -0.033
 6939TIP3   OH220759   2.088   0.504   1.102
 6939TIP3    H120760   2.182   0.511   1.086
 6939TIP3    H220761   2.051   0.474   1.019
 6940TIP3   OH220762   4.720   2.505   6.381
 6940TIP3    H120763   4.676   2.445   6.322
 6940TIP3    H220764   4.679   2.590   6.363
 6941TIP3   OH220765   4.669   1.445   6.350
 6941TIP3    H120766   4.756   1.450   6.309
 6941TIP3    H220767   4.682   1.389   6.426
 6942TIP3   OH220768   8.180   1.273   4.418
 6942TIP3    H120769   8.136   1.261   4.503
 6942TIP3    H220770   8.144   1.203   4.363
 6943TIP3   OH220771   2.608   4.045   1.164
 6943TIP3    H120772   2.695   4.050   1.126
 6943TIP3    H220773   2.549   4.039   1.089
 6944TIP3   OH220774   4.100   1.026   0.895
 6944TIP3    H120775   4.012   0.992   0.914
 6944TIP3    H220776   4.159   0.956   0.923
 6945TIP3   OH220777   5.493   3.416   0.845
 6945TIP3    H120778   5.520   3.443   0.932
 6945TIP3    H220779   5.571   3.375   0.807
 6946TIP3   OH220780   4.975   5.180   4.540
 6946TIP3    H120781   5.057   5.144   4.507
 6946TIP3    H220782   4.907   5.136   4.488
 6947TIP3   OH220783   6.525   4.815   0.031
 6947TIP3    H120784   6.540   4.777  -0.055
 6947TIP3    H220785   6.602   4.869   0.048
 6948TIP3   OH220786   0.017   4.712   3.843
 6948TIP3    H120787   0.014   4.715   3.747
 6948TIP3    H220788  -0.040   4.639   3.867
 6949TIP3   OH220789   0.714   3.486   0.472
 6949TIP3    H120790   0.779   3.504   0.404
 6949TIP3    H220791   0.637   3.456   0.424
 6950TIP3   OH220792   1.402   0.727   0.061
 6950TIP3    H120793   1.376   0.652   0.113
 6950TIP3    H220794   1.320   0.771   0.039
 6951TIP3   OH220795   1.714   6.820   1.722
 6951TIP3    H120796   1.723   6.911   1.752
 6951TIP3    H220797   1.787   6.808   1.661
 6952TIP3   OH220798   3.330   2.170   3.139
 6952TIP3    H120799   3.338   2.096   3.199
 6952TIP3    H220800   3.275   2.233   3.185
 6953TIP3   OH220801   1.954   2.943   6.037
 6953TIP3    H120802   2.008   3.016   6.007
 6953TIP3    H220803   2.016   2.871   6.049
 6954TIP3   OH220804   0.408   4.390   3.053
 6954TIP3    H120805   0.364   4.307   3.030
 6954TIP3    H220806   0.363   4.420   3.131
 6955TIP3   OH220807   4.060   4.982   2.264
 6955TIP3    H120808   4.083   4.937   2.182
 6955TIP3    H220809   3.970   5.012   2.251
 6956TIP3   OH220810   1.152   3.570   3.929
 6956TIP3    H120811   1.065   3.607   3.918
 6956TIP3    H220812   1.211   3.637   3.895
 6957TIP3   OH220813   1.866   0.400   2.308
 6957TIP3    H120814   1.934   0.335   2.290
 6957TIP3    H220815   1.876   0.465   2.238
 6958TIP3   OH220816   6.498   3.449   4.768
 6958TIP3    H120817   6.483   3.490   4.853
 6958TIP3    H220818   6.508   3.356   4.788
 6959TIP3   OH220819   0.075   5.656   3.042
 6959TIP3    H120820   0.118   5.601   3.108
 6959TIP3    H220821   0.147   5.696   2.993
 6960TIP3   OH220822  -0.027   4.314   2.294
 6960TIP3    H120823   0.045   4.359   2.339
 6960TIP3    H220824   0.005   4.303   2.205
 6961TIP3   OH220825   7.314   3.508   2.137
 6961TIP3    H120826   7.313   3.552   2.222
 6961TIP3    H220827   7.368   3.430   2.151
 6962TIP3   OH220828   4.349   4.036   2.551
 6962TIP3    H120829   4.328   4.045   2.643
 6962TIP3    H220830   4.343   4.124   2.515
 6963TIP3   OH220831   5.959   2.494   0.810
 6963TIP3    H120832   5.972   2.467   0.719
 6963TIP3    H220833   6.038   2.545   0.831
 6964TIP3   OH220834   6.495   5.998   0.732
 6964TIP3    H120835   6.557   5.929   0.756
 6964TIP3    H220836   6.547   6.078   0.733
 6965TIP3   OH220837   6.385   5.721   3.864
 6965TIP3    H120838   6.447   5.740   3.934
 6965TIP3    H220839   6.345   5.637   3.890
 6966TIP3   OH220840   1.307   4.813   6.379
 6966TIP3    H120841   1.296   4.806   6.474
 6966TIP3    H220842   1.397   4.840   6.367
 6967TIP3   OH220843   1.052   6.101   5.312
 6967TIP3    H120844   0.982   6.037   5.305
 6967TIP3    H220845   1.125   6.062   5.263
 6968TIP3   OH220846   8.202   5.290   0.070
 6968TIP3    H120847   8.133   5.329   0.016
 6968TIP3    H220848   8.224   5.208   0.025
 6969TIP3   OH220849   0.150   1.326   0.037
 6969TIP3    H120850   0.114   1.399  -0.013
 6969TIP3    H220851   0.235   1.357   0.068
 6970TIP3   OH220852   6.866   6.648   1.376
 6970TIP3    H120853   6.935   6.624   1.313
 6970TIP3    H220854   6.810   6.708   1.328
 6971TIP3   OH220855   1.015   0.158   5.185
 6971TIP3    H120856   0.927   0.132   5.158
 6971TIP3    H220857   1.072   0.118   5.119
 6972TIP3   OH220858   3.627   4.146   6.113
 6972TIP3    H120859   3.605   4.212   6.179
 6972TIP3    H220860   3.621   4.193   6.030
 6973TIP3   OH220861   5.450   1.376   6.422
 6973TIP3    H120862   5.537   1.341   6.402
 6973TIP3    H220863   5.391   1.328   6.364
 6974TIP3   OH220864   4.534   1.484   0.672
 6974TIP3    H120865   4.616   1.501   0.718
 6974TIP3    H220866   4.547   1.398   0.631
 6975TIP3   OH220867   0.621   5.295   1.559
 6975TIP3    H120868   0.623   5.291   1.464
 6975TIP3    H220869   0.712   5.315   1.584
 6976TIP3   OH220870   1.483   1.236   4.896
 6976TIP3    H120871   1.415   1.286   4.851
 6976TIP3    H220872   1.449   1.147   4.900
 6977TIP3   OH220873   2.275   5.955   0.621
 6977TIP3    H120874   2.311   5.953   0.532
 6977TIP3    H220875   2.203   6.018   0.616
 6978TIP3   OH220876   2.903   6.069   6.458
 6978TIP3    H120877   2.887   6.119   6.538
 6978TIP3    H220878   2.815   6.051   6.423
 6979TIP3   OH220879   3.456   0.046   2.393
 6979TIP3    H120880   3.403   0.121   2.418
 6979TIP3    H220881   3.468   0.056   2.298
 6980TIP3   OH220882   4.161   5.636   5.947
 6980TIP3    H120883   4.171   5.567   5.881
 6980TIP3    H220884   4.204   5.601   6.025
 6981TIP3   OH220885   1.594   7.610   1.774
 6981TIP3    H120886   1.670   7.666   1.759
 6981TIP3    H220887   1.557   7.595   1.687
 6982TIP3   OH220888   1.980   7.429   0.413
 6982TIP3    H120889   2.041   7.471   0.352
 6982TIP3    H220890   2.035   7.371   0.466
 6983TIP3   OH220891   7.828   5.906   4.815
 6983TIP3    H120892   7.744   5.953   4.816
 6983TIP3    H220893   7.848   5.895   4.722
 6984TIP3   OH220894   2.134   6.462   4.146
 6984TIP3    H120895   2.136   6.555   4.171
 6984TIP3    H220896   2.224   6.441   4.121
 6985TIP3   OH220897   3.710   4.871   5.574
 6985TIP3    H120898   3.648   4.840   5.640
 6985TIP3    H220899   3.670   4.951   5.540
 6986TIP3   OH220900   1.348   2.162   5.105
 6986TIP3    H120901   1.435   2.139   5.137
 6986TIP3    H220902   1.343   2.257   5.115
 6987TIP3   OH220903   0.342   2.988   1.950
 6987TIP3    H120904   0.252   2.971   1.920
 6987TIP3    H220905   0.383   2.902   1.954
 6988TIP3   OH220906   7.118   3.718   2.636
 6988TIP3    H120907   7.128   3.795   2.580
 6988TIP3    H220908   7.179   3.734   2.708
 6989TIP3   OH220909   2.771   7.608   3.646
 6989TIP3    H120910   2.861   7.617   3.678
 6989TIP3    H220911   2.772   7.528   3.594
 6990TIP3   OH220912   2.158   6.505   6.094
 6990TIP3    H120913   2.193   6.577   6.148
 6990TIP3    H220914   2.096   6.461   6.151
 6991TIP3   OH220915   3.435   3.310   1.681
 6991TIP3    H120916   3.363   3.264   1.638
 6991TIP3    H220917   3.480   3.242   1.731
 6992TIP3   OH220918   6.782   6.007   5.679
 6992TIP3    H120919   6.745   6.007   5.591
 6992TIP3    H220920   6.802   5.915   5.696
 6993TIP3   OH220921   4.530   5.888   4.071
 6993TIP3    H120922   4.545   5.963   4.129
 6993TIP3    H220923   4.439   5.863   4.087
 6994TIP3   OH220924   5.564   0.220   2.319
 6994TIP3    H120925   5.528   0.304   2.292
 6994TIP3    H220926   5.512   0.155   2.271
 6995TIP3   OH220927   7.091   2.933   0.561
 6995TIP3    H120928   7.130   2.863   0.509
 6995TIP3    H220929   7.084   3.007   0.501
 6996TIP3   OH220930   5.552   0.884   3.895
 6996TIP3    H120931   5.516   0.943   3.828
 6996TIP3    H220932   5.478   0.832   3.924
 6997TIP3   OH220933   1.084   1.011   5.496
 6997TIP3    H120934   1.058   0.999   5.405
 6997TIP3    H220935   1.152   0.945   5.511
 6998TIP3   OH220936   2.954   6.643   2.708
 6998TIP3    H120937   2.870   6.664   2.750
 6998TIP3    H220938   2.992   6.729   2.687
 6999TIP3   OH220939   6.669   6.191   0.795
 6999TIP3    H120940   6.728   6.248   0.843
 6999TIP3    H220941   6.712   6.179   0.710
 7000TIP3   OH220942   0.093   2.083   2.029
 7000TIP3    H120943   0.050   2.139   1.965
 7000TIP3    H220944   0.092   2.134   2.110
 7001TIP3   OH220945   2.394   1.298   2.908
 7001TIP3    H120946   2.305   1.330   2.895
 7001TIP3    H220947   2.390   1.205   2.886
 7002TIP3   OH220948   7.781   5.221   0.992
 7002TIP3    H120949   7.696   5.257   1.017
 7002TIP3    H220950   7.806   5.272   0.914
 7003TIP3   OH220951   5.593   0.217   1.470
 7003TIP3    H120952   5.570   0.303   1.505
 7003TIP3    H220953   5.569   0.222   1.378
 7004TIP3   OH220954   4.165   0.628   5.642
 7004TIP3    H120955   4.208   0.610   5.559
 7004TIP3    H220956   4.229   0.678   5.693
 7005TIP3   OH220957   6.639   6.665   6.297
 7005TIP3    H120958   6.622   6.637   6.387
 7005TIP3    H220959   6.643   6.584   6.247
 7006TIP3   OH220960   5.388   4.707   5.855
 7006TIP3    H120961   5.445   4.747   5.922
 7006TIP3    H220962   5.378   4.616   5.883
 7007TIP3   OH220963   5.768   5.426   2.343
 7007TIP3    H120964   5.842   5.428   2.403
 7007TIP3    H220965   5.725   5.342   2.362
 7008TIP3   OH220966   5.559   0.127   6.157
 7008TIP3    H120967   5.554   0.107   6.064
 7008TIP3    H220968   5.647   0.099   6.183
 7009TIP3   OH220969   1.922   5.717   0.149
 7009TIP3    H120970   1.962   5.715   0.062
 7009TIP3    H220971   1.974   5.656   0.201
 7010TIP3   OH220972   2.881   1.352   1.381
 7010TIP3    H120973   2.930   1.276   1.350
 7010TIP3    H220974   2.792   1.320   1.394
 7011TIP3   OH220975   2.314   0.487   6.083
 7011TIP3    H120976   2.219   0.490   6.076
 7011TIP3    H220977   2.344   0.462   5.996
 7012TIP3   OH220978   5.415   6.334   0.575
 7012TIP3    H120979   5.343   6.392   0.552
 7012TIP3    H220980   5.487   6.392   0.598
 7013TIP3   OH220981   1.284   5.164   3.989
 7013TIP3    H120982   1.213   5.224   3.966
 7013TIP3    H220983   1.355   5.222   4.019
 7014TIP3   OH220984   4.124   6.192   4.854
 7014TIP3    H120985   4.041   6.148   4.840
 7014TIP3    H220986   4.141   6.239   4.772
 7015TIP3   OH220987   2.292   1.798   0.722
 7015TIP3    H120988   2.378   1.756   0.715
 7015TIP3    H220989   2.308   1.890   0.701
 7016TIP3   OH220990   4.631   5.624   5.215
 7016TIP3    H120991   4.632   5.720   5.220
 7016TIP3    H220992   4.558   5.604   5.156
 7017TIP3   OH220993   0.014   7.461   2.259
 7017TIP3    H120994   0.025   7.406   2.337
 7017TIP3    H220995   0.072   7.535   2.273
 7018TIP3   OH220996   6.596   6.520   5.115
 7018TIP3    H120997   6.605   6.456   5.185
 7018TIP3    H220998   6.578   6.603   5.161
 7019TIP3   OH220999   5.174   0.290   1.381
 7019TIP3    H121000   5.116   0.264   1.452
 7019TIP3    H221001   5.208   0.208   1.346
 7020TIP3   OH221002   5.856   6.969   6.094
 7020TIP3    H121003   5.777   6.979   6.042
 7020TIP3    H221004   5.923   6.942   6.032
 7021TIP3   OH221005   7.996   4.332   0.225
 7021TIP3    H121006   8.081   4.369   0.250
 7021TIP3    H221007   8.016   4.272   0.153
 7022TIP3   OH221008   6.977   4.711   5.032
 7022TIP3    H121009   7.012   4.781   5.087
 7022TIP3    H221010   6.895   4.685   5.075
 7023TIP3   OH221011   0.347   2.450   6.268
 7023TIP3    H121012   0.280   2.416   6.208
 7023TIP3    H221013   0.345   2.545   6.255
 7024TIP3   OH221014   3.934   2.145   6.294
 7024TIP3    H121015   3.928   2.198   6.373
 7024TIP3    H221016   3.850   2.098   6.290
 7025TIP3   OH221017   3.641   0.900   4.590
 7025TIP3    H121018   3.562   0.926   4.638
 7025TIP3    H221019   3.674   0.981   4.552
 7026TIP3   OH221020   6.229   4.229   5.484
 7026TIP3    H121021   6.181   4.173   5.422
 7026TIP3    H221022   6.162   4.258   5.546
 7027TIP3   OH221023   6.939   4.475   2.238
 7027TIP3    H121024   7.002   4.493   2.308
 7027TIP3    H221025   6.854   4.472   2.283
 7028TIP3   OH221026   5.025   3.895   2.758
 7028TIP3    H121027   4.997   3.959   2.692
 7028TIP3    H221028   5.025   3.943   2.840
 7029TIP3   OH221029   4.038   2.570   6.595
 7029TIP3    H121030   4.030   2.665   6.608
 7029TIP3    H221031   3.949   2.541   6.574
 7030TIP3   OH221032   2.738   3.370   1.027
 7030TIP3    H121033   2.817   3.330   1.064
 7030TIP3    H221034   2.680   3.382   1.103
 7031TIP3   OH221035   4.419   6.446   5.557
 7031TIP3    H121036   4.395   6.498   5.634
 7031TIP3    H221037   4.436   6.511   5.488
 7032TIP3   OH221038   7.612   5.242   3.669
 7032TIP3    H121039   7.531   5.239   3.720
 7032TIP3    H221040   7.674   5.289   3.726
 7033TIP3   OH221041   5.670   0.028   5.257
 7033TIP3    H121042   5.723   0.092   5.209
 7033TIP3    H221043   5.693   0.042   5.349
 7034TIP3   OH221044   2.692   4.362   6.564
 7034TIP3    H121045   2.601   4.333   6.555
 7034TIP3    H221046   2.690   4.424   6.636
 7035TIP3   OH221047   2.146   6.075   2.555
 7035TIP3    H121048   2.127   6.050   2.645
 7035TIP3    H221049   2.068   6.051   2.506
 7036TIP3   OH221050   5.923   6.563   2.400
 7036TIP3    H121051   5.998   6.615   2.370
 7036TIP3    H221052   5.853   6.627   2.409
 7037TIP3   OH221053   2.789   5.357   3.006
 7037TIP3    H121054   2.864   5.359   3.065
 7037TIP3    H221055   2.713   5.346   3.064
 7038TIP3   OH221056   7.123   1.656   4.190
 7038TIP3    H121057   7.042   1.615   4.220
 7038TIP3    H221058   7.193   1.608   4.234
 7039TIP3   OH221059   5.379   2.418   0.919
 7039TIP3    H121060   5.313   2.462   0.972
 7039TIP3    H221061   5.445   2.390   0.982
 7040TIP3   OH221062   0.487   0.271   0.130
 7040TIP3    H121063   0.562   0.280   0.071
 7040TIP3    H221064   0.519   0.214   0.200
 7041TIP3   OH221065   1.815   1.212   2.061
 7041TIP3    H121066   1.797   1.159   1.983
 7041TIP3    H221067   1.898   1.178   2.094
 7042TIP3   OH221068   1.963   4.402   1.512
 7042TIP3    H121069   2.003   4.323   1.549
 7042TIP3    H221070   1.904   4.369   1.445
 7043TIP3   OH221071   6.293   4.545   4.513
 7043TIP3    H121072   6.325   4.467   4.467
 7043TIP3    H221073   6.198   4.542   4.503
 7044TIP3   OH221074   2.668   4.464   4.017
 7044TIP3    H121075   2.736   4.446   3.952
 7044TIP3    H221076   2.594   4.410   3.990
 7045TIP3   OH221077   2.036   6.512   3.736
 7045TIP3    H121078   2.080   6.530   3.653
 7045TIP3    H221079   2.054   6.590   3.789
 7046TIP3   OH221080   4.222   3.007   5.038
 7046TIP3    H121081   4.171   2.974   5.112
 7046TIP3    H221082   4.298   2.948   5.034
 7047TIP3   OH221083   0.310   7.458   3.462
 7047TIP3    H121084   0.342   7.368   3.456
 7047TIP3    H221085   0.362   7.506   3.397
 7048TIP3   OH221086   5.162   0.627   4.117
 7048TIP3    H121087   5.250   0.598   4.094
 7048TIP3    H221088   5.104   0.572   4.065
 7049TIP3   OH221089   6.724   2.667   2.027
 7049TIP3    H121090   6.734   2.761   2.012
 7049TIP3    H221091   6.806   2.640   2.068
 7050TIP3   OH221092   7.255   1.499   5.689
 7050TIP3    H121093   7.261   1.573   5.750
 7050TIP3    H221094   7.233   1.424   5.745
 7051TIP3   OH221095   6.683   0.772   4.336
 7051TIP3    H121096   6.736   0.817   4.401
 7051TIP3    H221097   6.605   0.744   4.384
 7052TIP3   OH221098   2.662   5.983   2.828
 7052TIP3    H121099   2.651   5.904   2.882
 7052TIP3    H221100   2.740   6.026   2.864
 7053TIP3   OH221101   6.342   1.362   6.336
 7053TIP3    H121102   6.262   1.390   6.381
 7053TIP3    H221103   6.413   1.390   6.394
 7054TIP3   OH221104   0.308   1.841   1.039
 7054TIP3    H121105   0.383   1.824   1.097
 7054TIP3    H221106   0.335   1.805   0.955
 7055TIP3   OH221107   5.004   6.965   5.859
 7055TIP3    H121108   4.956   6.933   5.782
 7055TIP3    H221109   4.984   6.902   5.928
 7056TIP3   OH221110   0.477   3.863   4.047
 7056TIP3    H121111   0.499   3.950   4.014
 7056TIP3    H221112   0.562   3.823   4.068
 7057TIP3   OH221113   3.204   3.735   5.778
 7057TIP3    H121114   3.181   3.825   5.757
 7057TIP3    H221115   3.132   3.703   5.832
 7058TIP3   OH221116   2.491   4.877   0.331
 7058TIP3    H121117   2.509   4.824   0.408
 7058TIP3    H221118   2.396   4.891   0.332
 7059TIP3   OH221119   1.735   0.012   4.871
 7059TIP3    H121120   1.793   0.006   4.947
 7059TIP3    H221121   1.763   0.092   4.826
 7060TIP3   OH221122   4.345   6.331   0.175
 7060TIP3    H121123   4.265   6.280   0.182
 7060TIP3    H221124   4.316   6.418   0.147
 7061TIP3   OH221125   4.862   3.191   6.670
 7061TIP3    H121126   4.864   3.243   6.590
 7061TIP3    H221127   4.952   3.192   6.702
 7062TIP3   OH221128   3.711   3.076   6.443
 7062TIP3    H121129   3.618   3.068   6.423
 7062TIP3    H221130   3.731   3.169   6.432
 7063TIP3   OH221131   0.675   7.404   2.726
 7063TIP3    H121132   0.648   7.332   2.669
 7063TIP3    H221133   0.654   7.483   2.677
 7064TIP3   OH221134   2.595   0.597   4.314
 7064TIP3    H121135   2.623   0.586   4.405
 7064TIP3    H221136   2.523   0.661   4.319
 7065TIP3   OH221137   7.970   2.634   4.423
 7065TIP3    H121138   7.912   2.574   4.469
 7065TIP3    H221139   8.030   2.666   4.491
 7066TIP3   OH221140   2.393   5.469   3.661
 7066TIP3    H121141   2.361   5.517   3.585
 7066TIP3    H221142   2.343   5.388   3.662
 7067TIP3   OH221143   2.373   7.669   5.709
 7067TIP3    H121144   2.335   7.704   5.791
 7067TIP3    H221145   2.297   7.646   5.656
 7068TIP3   OH221146   6.954   0.674   6.328
 7068TIP3    H121147   6.969   0.734   6.401
 7068TIP3    H221148   6.942   0.732   6.252
 7069TIP3   OH221149   1.697   4.983   5.402
 7069TIP3    H121150   1.695   4.934   5.484
 7069TIP3    H221151   1.777   5.036   5.408
 7070TIP3   OH221152   6.128   4.588   5.071
 7070TIP3    H121153   6.041   4.624   5.057
 7070TIP3    H221154   6.177   4.610   4.992
 7071TIP3   OH221155   2.329   2.805   6.076
 7071TIP3    H121156   2.342   2.771   5.987
 7071TIP3    H221157   2.361   2.896   6.071
 7072TIP3   OH221158   5.150   0.371   4.636
 7072TIP3    H121159   5.184   0.308   4.572
 7072TIP3    H221160   5.159   0.456   4.592
 7073TIP3   OH221161   8.281   1.771   3.888
 7073TIP3    H121162   8.195   1.811   3.900
 7073TIP3    H221163   8.325   1.784   3.972
 7074TIP3   OH221164   0.420   0.158   6.144
 7074TIP3    H121165   0.379   0.226   6.197
 7074TIP3    H221166   0.400   0.077   6.189
 7075TIP3   OH221167   1.565   1.855   0.252
 7075TIP3    H121168   1.567   1.916   0.178
 7075TIP3    H221169   1.640   1.797   0.237
 7076TIP3   OH221170   8.010   5.506   1.153
 7076TIP3    H121171   8.054   5.475   1.074
 7076TIP3    H221172   7.984   5.427   1.200
 7077TIP3   OH221173   3.419   1.832   3.595
 7077TIP3    H121174   3.448   1.819   3.505
 7077TIP3    H221175   3.385   1.921   3.597
 7078TIP3   OH221176   5.926   7.252   3.292
 7078TIP3    H121177   5.834   7.227   3.302
 7078TIP3    H221178   5.949   7.223   3.204
 7079TIP3   OH221179   4.379   0.451   3.207
 7079TIP3    H121180   4.341   0.483   3.125
 7079TIP3    H221181   4.466   0.490   3.210
 7080TIP3   OH221182   0.724   1.854   1.601
 7080TIP3    H121183   0.816   1.857   1.628
 7080TIP3    H221184   0.701   1.946   1.588
 7081TIP3   OH221185   4.641   6.388   2.854
 7081TIP3    H121186   4.724   6.411   2.896
 7081TIP3    H221187   4.602   6.472   2.832
 7082TIP3   OH221188   6.304   6.683   3.320
 7082TIP3    H121189   6.336   6.620   3.256
 7082TIP3    H221190   6.381   6.705   3.373
 7083TIP3   OH221191   7.596   1.474   0.336
 7083TIP3    H121192   7.615   1.519   0.254
 7083TIP3    H221193   7.548   1.539   0.388
 7084TIP3   OH221194   5.003   0.630   4.845
 7084TIP3    H121195   4.994   0.661   4.936
 7084TIP3    H221196   4.958   0.545   4.845
 7085TIP3   OH221197   7.650   4.946   6.200
 7085TIP3    H121198   7.738   4.985   6.202
 7085TIP3    H221199   7.602   4.998   6.136
 7086TIP3   OH221200   6.180   7.750   5.213
 7086TIP3    H121201   6.197   7.797   5.295
 7086TIP3    H221202   6.219   7.805   5.145
 7087TIP3   OH221203   1.847   6.765   4.081
 7087TIP3    H121204   1.790   6.764   4.157
 7087TIP3    H221205   1.936   6.770   4.117
 7088TIP3   OH221206   0.012   2.849   3.332
 7088TIP3    H121207   0.091   2.801   3.305
 7088TIP3    H221208  -0.060   2.802   3.290
 7089TIP3   OH221209   7.745   1.161   4.725
 7089TIP3    H121210   7.816   1.119   4.676
 7089TIP3    H221211   7.773   1.155   4.816
 7090TIP3   OH221212   2.461   2.925   1.934
 7090TIP3    H121213   2.427   3.015   1.939
 7090TIP3    H221214   2.552   2.933   1.962
 7091TIP3   OH221215   3.745   1.013   0.048
 7091TIP3    H121216   3.678   0.988   0.111
 7091TIP3    H221217   3.701   1.010  -0.037
 7092TIP3   OH221218   3.732   3.601   2.477
 7092TIP3    H121219   3.783   3.567   2.403
 7092TIP3    H221220   3.752   3.695   2.479
 7093TIP3   OH221221   7.076   1.829   5.778
 7093TIP3    H121222   7.085   1.773   5.701
 7093TIP3    H221223   7.121   1.910   5.755
 7094TIP3   OH221224   4.724   4.067   3.073
 7094TIP3    H121225   4.805   4.061   3.124
 7094TIP3    H221226   4.656   4.032   3.131
 7095TIP3   OH221227  -0.069   1.527   1.695
 7095TIP3    H121228  -0.039   1.618   1.696
 7095TIP3    H221229   0.000   1.480   1.649
 7096TIP3   OH221230   1.244   5.983   3.100
 7096TIP3    H121231   1.284   5.978   3.186
 7096TIP3    H221232   1.314   5.961   3.039
 7097TIP3   OH221233   5.934   1.300   0.243
 7097TIP3    H121234   5.891   1.253   0.314
 7097TIP3    H221235   5.905   1.390   0.252
 7098TIP3   OH221236   5.008   1.407   0.691
 7098TIP3    H121237   5.066   1.351   0.743
 7098TIP3    H221238   5.036   1.496   0.711
 7099TIP3   OH221239   5.373   7.203   0.541
 7099TIP3    H121240   5.461   7.180   0.568
 7099TIP3    H221241   5.326   7.119   0.538
 7100TIP3   OH221242   7.274   2.098   4.468
 7100TIP3    H121243   7.266   2.149   4.549
 7100TIP3    H221244   7.362   2.061   4.473
 7101TIP3   OH221245   4.240   1.807   4.610
 7101TIP3    H121246   4.167   1.768   4.658
 7101TIP3    H221247   4.257   1.746   4.539
 7102TIP3   OH221248   4.895   5.736   3.547
 7102TIP3    H121249   4.800   5.743   3.552
 7102TIP3    H221250   4.927   5.784   3.624
 7103TIP3   OH221251   1.140   2.263   3.222
 7103TIP3    H121252   1.076   2.309   3.276
 7103TIP3    H221253   1.212   2.244   3.282
 7104TIP3   OH221254   2.650   7.103   5.808
 7104TIP3    H121255   2.658   7.168   5.877
 7104TIP3    H221256   2.696   7.142   5.733
 7105TIP3   OH221257   4.787   0.943   6.428
 7105TIP3    H121258   4.693   0.949   6.445
 7105TIP3    H221259   4.794   0.884   6.353
 7106TIP3   OH221260   1.868   4.435   4.755
 7106TIP3    H121261   1.869   4.529   4.777
 7106TIP3    H221262   1.776   4.415   4.743
 7107TIP3   OH221263   6.685   2.846   4.179
 7107TIP3    H121264   6.706   2.753   4.167
 7107TIP3    H221265   6.605   2.859   4.128
 7108TIP3   OH221266   2.321   7.729   6.184
 7108TIP3    H121267   2.304   7.777   6.265
 7108TIP3    H221268   2.416   7.730   6.174
 7109TIP3   OH221269   2.858   4.503   5.448
 7109TIP3    H121270   2.881   4.463   5.532
 7109TIP3    H221271   2.777   4.459   5.422
 7110TIP3   OH221272   3.352   2.401   6.314
 7110TIP3    H121273   3.350   2.448   6.398
 7110TIP3    H221274   3.441   2.365   6.309
 7111TIP3   OH221275   4.139   4.861   2.739
 7111TIP3    H121276   4.224   4.858   2.696
 7111TIP3    H221277   4.158   4.839   2.831
 7112TIP3   OH221278   6.939   7.318   1.517
 7112TIP3    H121279   6.852   7.289   1.491
 7112TIP3    H221280   6.948   7.405   1.478
 7113TIP3   OH221281   2.776   0.715   6.295
 7113TIP3    H121282   2.715   0.770   6.247
 7113TIP3    H221283   2.722   0.646   6.333
 7114TIP3   OH221284   1.758   3.614   0.134
 7114TIP3    H121285   1.811   3.625   0.055
 7114TIP3    H221286   1.807   3.551   0.187
 7115TIP3   OH221287   3.103   2.046   2.925
 7115TIP3    H121288   3.076   2.098   3.001
 7115TIP3    H221289   3.199   2.044   2.930
 7116TIP3   OH221290   6.618   5.107   1.693
 7116TIP3    H121291   6.686   5.042   1.674
 7116TIP3    H221292   6.548   5.086   1.631
 7117TIP3   OH221293   0.799   2.267   6.431
 7117TIP3    H121294   0.802   2.358   6.462
 7117TIP3    H221295   0.883   2.230   6.459
 7118TIP3   OH221296   2.874   0.117   1.113
 7118TIP3    H121297   2.950   0.163   1.078
 7118TIP3    H221298   2.910   0.048   1.167
 7119TIP3   OH221299   0.255   2.429   0.435
 7119TIP3    H121300   0.275   2.436   0.528
 7119TIP3    H221301   0.183   2.491   0.421
 7120TIP3   OH221302   7.831   3.959   0.626
 7120TIP3    H121303   7.762   3.983   0.688
 7120TIP3    H221304   7.807   4.004   0.545
 7121TIP3   OH221305   7.160   3.055   1.988
 7121TIP3    H121306   7.149   3.146   1.958
 7121TIP3    H221307   7.246   3.055   2.031
 7122TIP3   OH221308   3.825   4.559   5.291
 7122TIP3    H121309   3.753   4.621   5.285
 7122TIP3    H221310   3.791   4.488   5.346
 7123TIP3   OH221311   0.909   0.529   4.276
 7123TIP3    H121312   0.914   0.444   4.232
 7123TIP3    H221313   0.966   0.585   4.223
 7124TIP3   OH221314   0.592   4.312   2.286
 7124TIP3    H121315   0.571   4.221   2.310
 7124TIP3    H221316   0.675   4.330   2.331
 7125TIP3   OH221317   3.135   1.182   6.356
 7125TIP3    H121318   3.175   1.181   6.443
 7125TIP3    H221319   3.202   1.147   6.298
 7126TIP3   OH221320   8.149   2.589   3.329
 7126TIP3    H121321   8.196   2.549   3.256
 7126TIP3    H221322   8.124   2.516   3.385
 7127TIP3   OH221323   5.119   4.208   3.844
 7127TIP3    H121324   5.093   4.142   3.779
 7127TIP3    H221325   5.096   4.292   3.803
 7128TIP3   OH221326   4.707   3.330   1.788
 7128TIP3    H121327   4.718   3.354   1.880
 7128TIP3    H221328   4.614   3.345   1.770
 7129TIP3   OH221329   7.464   7.264   1.040
 7129TIP3    H121330   7.436   7.240   1.128
 7129TIP3    H221331   7.383   7.281   0.992
 7130TIP3   OH221332   3.383   2.309   4.150
 7130TIP3    H121333   3.361   2.220   4.123
 7130TIP3    H221334   3.345   2.365   4.082
 7131TIP3   OH221335   3.271   3.845   2.674
 7131TIP3    H121336   3.349   3.810   2.631
 7131TIP3    H221337   3.299   3.929   2.709
 7132TIP3   OH221338   7.805   2.095   5.049
 7132TIP3    H121339   7.780   2.049   4.969
 7132TIP3    H221340   7.900   2.110   5.040
 7133TIP3   OH221341   2.383   2.572   0.681
 7133TIP3    H121342   2.321   2.549   0.612
 7133TIP3    H221343   2.336   2.555   0.762
 7134TIP3   OH221344   3.200   3.780   1.938
 7134TIP3    H121345   3.283   3.785   1.986
 7134TIP3    H221346   3.212   3.839   1.864
 7135TIP3   OH221347   2.558   4.151   0.698
 7135TIP3    H121348   2.503   4.229   0.703
 7135TIP3    H221349   2.522   4.100   0.626
 7136TIP3   OH221350   2.654   4.407   0.853
 7136TIP3    H121351   2.663   4.461   0.775
 7136TIP3    H221352   2.605   4.330   0.823
 7137TIP3   OH221353   1.630   5.208   3.880
 7137TIP3    H121354   1.600   5.238   3.966
 7137TIP3    H221355   1.637   5.113   3.889
 7138TIP3   OH221356   6.866   3.635   4.093
 7138TIP3    H121357   6.914   3.713   4.063
 7138TIP3    H221358   6.913   3.607   4.172
 7139TIP3   OH221359   0.158   7.785   2.248
 7139TIP3    H121360   0.226   7.845   2.215
 7139TIP3    H221361   0.207   7.710   2.282
 7140TIP3   OH221362   8.199   6.782   0.251
 7140TIP3    H121363   8.186   6.687   0.249
 7140TIP3    H221364   8.114   6.818   0.227
 7141TIP3   OH221365   1.688   7.574   2.899
 7141TIP3    H121366   1.627   7.631   2.853
 7141TIP3    H221367   1.754   7.634   2.935
 7142TIP3   OH221368   0.809   6.956   6.557
 7142TIP3    H121369   0.891   6.966   6.605
 7142TIP3    H221370   0.794   7.043   6.518
 7143TIP3   OH221371   1.885   1.589   4.935
 7143TIP3    H121372   1.899   1.619   4.845
 7143TIP3    H221373   1.921   1.659   4.989
 7144TIP3   OH221374   7.660   6.886   1.949
 7144TIP3    H121375   7.669   6.921   2.038
 7144TIP3    H221376   7.732   6.926   1.900
 7145TIP3   OH221377   4.582   5.347   4.542
 7145TIP3    H121378   4.634   5.397   4.480
 7145TIP3    H221379   4.527   5.291   4.488
 7146TIP3   OH221380   5.258   6.884   4.027
 7146TIP3    H121381   5.229   6.798   4.058
 7146TIP3    H221382   5.205   6.947   4.077
 7147TIP3   OH221383   2.162   3.090   1.360
 7147TIP3    H121384   2.132   3.035   1.432
 7147TIP3    H221385   2.243   3.048   1.330
 7148TIP3   OH221386   6.996   3.364   2.020
 7148TIP3    H121387   7.068   3.356   1.957
 7148TIP3    H221388   6.999   3.456   2.047
 7149TIP3   OH221389   4.931   1.884   2.136
 7149TIP3    H121390   4.856   1.935   2.104
 7149TIP3    H221391   4.941   1.814   2.072
 7150TIP3   OH221392   7.845   6.664   3.962
 7150TIP3    H121393   7.941   6.668   3.960
 7150TIP3    H221394   7.819   6.673   3.870
 7151TIP3   OH221395   3.389   3.697   6.604
 7151TIP3    H121396   3.307   3.709   6.650
 7151TIP3    H221397   3.399   3.778   6.552
 7152TIP3   OH221398   7.363   6.159   0.312
 7152TIP3    H121399   7.451   6.194   0.297
 7152TIP3    H221400   7.307   6.209   0.252
 7153TIP3   OH221401   0.460   3.366   3.090
 7153TIP3    H121402   0.437   3.279   3.057
 7153TIP3    H221403   0.416   3.427   3.031
 7154TIP3   OH221404   6.464   5.089   4.005
 7154TIP3    H121405   6.441   5.180   3.992
 7154TIP3    H221406   6.420   5.042   3.934
 7155TIP3   OH221407   4.548   2.070   5.533
 7155TIP3    H121408   4.584   2.125   5.603
 7155TIP3    H221409   4.563   2.120   5.453
 7156TIP3   OH221410   6.806   3.493   1.243
 7156TIP3    H121411   6.730   3.437   1.228
 7156TIP3    H221412   6.855   3.449   1.312
 7157TIP3   OH221413   0.771   3.335   5.966
 7157TIP3    H121414   0.769   3.302   6.055
 7157TIP3    H221415   0.856   3.378   5.958
 7158TIP3   OH221416   2.753   7.056   0.986
 7158TIP3    H121417   2.814   7.110   0.935
 7158TIP3    H221418   2.810   7.000   1.040
 7159TIP3   OH221419   6.207   3.111   2.892
 7159TIP3    H121420   6.164   3.193   2.916
 7159TIP3    H221421   6.136   3.053   2.865
 7160TIP3   OH221422   8.264   6.969   4.792
 7160TIP3    H121423   8.296   7.038   4.850
 7160TIP3    H221424   8.257   6.892   4.849
 7161TIP3   OH221425   1.122   7.639   0.597
 7161TIP3    H121426   1.179   7.715   0.588
 7161TIP3    H221427   1.057   7.649   0.528
 7162TIP3   OH221428   3.608   2.024   1.850
 7162TIP3    H121429   3.564   1.945   1.818
 7162TIP3    H221430   3.683   1.992   1.899
 7163TIP3   OH221431   5.101   7.225   1.650
 7163TIP3    H121432   5.012   7.249   1.626
 7163TIP3    H221433   5.092   7.189   1.739
 7164TIP3   OH221434   0.345   5.966   0.775
 7164TIP3    H121435   0.286   5.894   0.753
 7164TIP3    H221436   0.433   5.929   0.765
 7165TIP3   OH221437   8.201   4.517   4.073
 7165TIP3    H121438   8.112   4.522   4.108
 7165TIP3    H221439   8.238   4.437   4.111
 7166TIP3   OH221440   2.788   6.894   3.697
 7166TIP3    H121441   2.815   6.917   3.786
 7166TIP3    H221442   2.848   6.942   3.640
 7167TIP3   OH221443   7.485   4.368   2.491
 7167TIP3    H121444   7.507   4.424   2.416
 7167TIP3    H221445   7.504   4.279   2.460
 7168TIP3   OH221446   2.675   7.098   1.583
 7168TIP3    H121447   2.637   7.010   1.585
 7168TIP3    H221448   2.725   7.104   1.665
 7169TIP3   OH221449   0.059   2.571   0.810
 7169TIP3    H121450   0.139   2.562   0.758
 7169TIP3    H221451  -0.007   2.598   0.746
 7170TIP3   OH221452   8.132   7.493   2.025
 7170TIP3    H121453   8.061   7.435   1.999
 7170TIP3    H221454   8.134   7.489   2.120
 7171TIP3   OH221455   1.675   0.591   1.745
 7171TIP3    H121456   1.654   0.641   1.824
 7171TIP3    H221457   1.752   0.636   1.708
 7172TIP3   OH221458   6.737   2.558   0.131
 7172TIP3    H121459   6.747   2.654   0.128
 7172TIP3    H221460   6.822   2.527   0.161
 7173TIP3   OH221461   6.292   5.506   1.910
 7173TIP3    H121462   6.345   5.456   1.972
 7173TIP3    H221463   6.355   5.536   1.844
 7174TIP3   OH221464   2.629   4.050   0.248
 7174TIP3    H121465   2.648   4.125   0.191
 7174TIP3    H221466   2.572   3.994   0.196
 7175TIP3   OH221467   8.118   5.886   1.605
 7175TIP3    H121468   8.029   5.862   1.630
 7175TIP3    H221469   8.166   5.890   1.688
 7176TIP3   OH221470   5.209   1.328   2.612
 7176TIP3    H121471   5.188   1.294   2.699
 7176TIP3    H221472   5.273   1.397   2.628
 7177TIP3   OH221473   2.264   1.131   5.362
 7177TIP3    H121474   2.247   1.042   5.330
 7177TIP3    H221475   2.218   1.135   5.445
 7178TIP3   OH221476   5.365   2.464   0.532
 7178TIP3    H121477   5.431   2.500   0.472
 7178TIP3    H221478   5.404   2.383   0.564
 7179TIP3   OH221479   7.793   7.092   6.191
 7179TIP3    H121480   7.851   7.070   6.118
 7179TIP3    H221481   7.821   7.179   6.219
 7180TIP3   OH221482   1.229   0.833   1.237
 7180TIP3    H121483   1.324   0.828   1.224
 7180TIP3    H221484   1.202   0.912   1.190
 7181TIP3   OH221485   2.030   6.093   1.284
 7181TIP3    H121486   1.988   6.096   1.370
 7181TIP3    H221487   2.102   6.156   1.291
 7182TIP3   OH221488   7.276   3.940   0.581
 7182TIP3    H121489   7.345   3.957   0.646
 7182TIP3    H221490   7.307   3.863   0.533
 7183TIP3   OH221491   4.316   7.234   3.634
 7183TIP3    H121492   4.304   7.181   3.555
 7183TIP3    H221493   4.382   7.298   3.610
 7184TIP3   OH221494   6.288   5.693   5.406
 7184TIP3    H121495   6.324   5.737   5.329
 7184TIP3    H221496   6.363   5.649   5.446
 7185TIP3   OH221497   7.650   7.588   1.519
 7185TIP3    H121498   7.569   7.638   1.522
 7185TIP3    H221499   7.650   7.537   1.600
 7186TIP3   OH221500   2.875   4.951   3.401
 7186TIP3    H121501   2.846   4.937   3.491
 7186TIP3    H221502   2.878   5.046   3.391
 7187TIP3   OH221503   2.907   1.374   2.181
 7187TIP3    H121504   2.940   1.355   2.093
 7187TIP3    H221505   2.813   1.356   2.176
 7188TIP3   OH221506   6.821   3.958   4.252
 7188TIP3    H121507   6.821   3.930   4.161
 7188TIP3    H221508   6.872   3.893   4.299
 7189TIP3   OH221509   5.380   1.110   4.756
 7189TIP3    H121510   5.358   1.047   4.688
 7189TIP3    H221511   5.408   1.188   4.709
 7190TIP3   OH221512   0.685   3.600   4.173
 7190TIP3    H121513   0.665   3.547   4.249
 7190TIP3    H221514   0.741   3.670   4.207
 7191TIP3   OH221515   4.174   3.506   3.206
 7191TIP3    H121516   4.246   3.563   3.180
 7191TIP3    H221517   4.198   3.474   3.293
 7192TIP3   OH221518   7.978   7.148   0.630
 7192TIP3    H121519   7.928   7.113   0.556
 7192TIP3    H221520   7.962   7.086   0.701
 7193TIP3   OH221521   3.177   5.534   2.067
 7193TIP3    H121522   3.202   5.483   2.144
 7193TIP3    H221523   3.094   5.575   2.091
 7194TIP3   OH221524   3.966   5.595   3.494
 7194TIP3    H121525   3.937   5.682   3.468
 7194TIP3    H221526   4.052   5.585   3.455
 7195TIP3   OH221527   1.048   0.812   4.033
 7195TIP3    H121528   1.023   0.904   4.033
 7195TIP3    H221529   1.127   0.809   4.087
 7196TIP3   OH221530   1.564   4.955   6.383
 7196TIP3    H121531   1.531   4.983   6.469
 7196TIP3    H221532   1.531   5.021   6.322
 7197TIP3   OH221533   3.517   5.877   5.384
 7197TIP3    H121534   3.449   5.839   5.329
 7197TIP3    H221535   3.495   5.848   5.473
 7198TIP3   OH221536   4.970   7.000   2.520
 7198TIP3    H121537   4.952   7.064   2.450
 7198TIP3    H221538   4.895   7.007   2.579
 7199TIP3   OH221539   4.084   3.612   6.070
 7199TIP3    H121540   4.156   3.635   6.127
 7199TIP3    H221541   4.006   3.648   6.112
 7200TIP3   OH221542   0.196   6.747   5.122
 7200TIP3    H121543   0.195   6.683   5.193
 7200TIP3    H221544   0.113   6.794   5.130
 7201TIP3   OH221545   4.847   6.953   5.352
 7201TIP3    H121546   4.753   6.943   5.337
 7201TIP3    H221547   4.855   7.035   5.401
 7202TIP3   OH221548   4.653   4.181   0.797
 7202TIP3    H121549   4.621   4.091   0.806
 7202TIP3    H221550   4.583   4.226   0.750
 7203TIP3   OH221551   0.420   0.372   4.438
 7203TIP3    H121552   0.499   0.405   4.396
 7203TIP3    H221553   0.357   0.444   4.430
 7204TIP3   OH221554   1.143   2.756   3.037
 7204TIP3    H121555   1.189   2.822   2.985
 7204TIP3    H221556   1.186   2.759   3.123
 7205TIP3   OH221557   7.973   5.996   3.034
 7205TIP3    H121558   8.011   6.036   2.956
 7205TIP3    H221559   8.043   5.941   3.069
 7206TIP3   OH221560   6.126   7.271   4.788
 7206TIP3    H121561   6.119   7.215   4.866
 7206TIP3    H221562   6.159   7.354   4.822
 7207TIP3   OH221563   8.067   5.985   6.139
 7207TIP3    H121564   8.060   5.901   6.092
 7207TIP3    H221565   8.151   6.021   6.111
 7208TIP3   OH221566   5.913   5.320   1.920
 7208TIP3    H121567   5.961   5.379   1.977
 7208TIP3    H221568   5.887   5.374   1.845
 7209TIP3   OH221569   1.093   4.924   6.065
 7209TIP3    H121570   1.069   4.995   6.006
 7209TIP3    H221571   1.188   4.922   6.064
 7210TIP3   OH221572   4.293   3.378   4.247
 7210TIP3    H121573   4.293   3.465   4.208
 7210TIP3    H221574   4.315   3.319   4.174
 7211TIP3   OH221575   6.602   3.229   5.636
 7211TIP3    H121576   6.509   3.247   5.622
 7211TIP3    H221577   6.644   3.314   5.620
 7212TIP3   OH221578   6.881   7.785   1.842
 7212TIP3    H121579   6.904   7.698   1.874
 7212TIP3    H221580   6.964   7.824   1.814
 7213TIP3   OH221581   6.742   5.352   2.494
 7213TIP3    H121582   6.672   5.317   2.550
 7213TIP3    H221583   6.697   5.380   2.414
 7214TIP3   OH221584   1.732   5.970  -0.033
 7214TIP3    H121585   1.819   6.003  -0.057
 7214TIP3    H221586   1.742   5.875  -0.033
 7215TIP3   OH221587   5.867   1.532   4.083
 7215TIP3    H121588   5.794   1.593   4.093
 7215TIP3    H221589   5.840   1.475   4.011
 7216TIP3   OH221590   5.262   0.797   1.639
 7216TIP3    H121591   5.311   0.873   1.606
 7216TIP3    H221592   5.305   0.776   1.722
 7217TIP3   OH221593   0.554   7.169   2.609
 7217TIP3    H121594   0.527   7.172   2.701
 7217TIP3    H221595   0.609   7.091   2.603
 7218TIP3   OH221596   2.103   6.801   4.219
 7218TIP3    H121597   2.192   6.790   4.253
 7218TIP3    H221598   2.091   6.896   4.214
 7219TIP3   OH221599   1.219   5.160   0.730
 7219TIP3    H121600   1.246   5.104   0.802
 7219TIP3    H221601   1.203   5.099   0.657
 7220TIP3   OH221602   3.998   0.197   5.529
 7220TIP3    H121603   3.913   0.160   5.553
 7220TIP3    H221604   4.050   0.191   5.609
 7221TIP3   OH221605   2.426   1.493   3.719
 7221TIP3    H121606   2.512   1.535   3.712
 7221TIP3    H221607   2.429   1.447   3.803
 7222TIP3   OH221608   1.678   2.856   0.516
 7222TIP3    H121609   1.707   2.768   0.542
 7222TIP3    H221610   1.586   2.859   0.541
 7223TIP3   OH221611   5.959   7.674   4.026
 7223TIP3    H121612   5.869   7.681   3.993
 7223TIP3    H221613   5.995   7.597   3.981
 7224TIP3   OH221614   6.493   5.222   3.626
 7224TIP3    H121615   6.570   5.266   3.590
 7224TIP3    H221616   6.425   5.289   3.626
 7225TIP3   OH221617   0.247   4.453   3.283
 7225TIP3    H121618   0.170   4.397   3.288
 7225TIP3    H221619   0.302   4.425   3.356
 7226TIP3   OH221620   0.947   3.705   4.274
 7226TIP3    H121621   0.942   3.799   4.292
 7226TIP3    H221622   1.041   3.686   4.274
 7227TIP3   OH221623   7.194   5.720   0.779
 7227TIP3    H121624   7.203   5.630   0.747
 7227TIP3    H221625   7.136   5.714   0.854
 7228TIP3   OH221626   1.936   4.426   2.748
 7228TIP3    H121627   1.869   4.361   2.770
 7228TIP3    H221628   1.886   4.500   2.714
 7229TIP3   OH221629   1.774   7.214   2.486
 7229TIP3    H121630   1.793   7.166   2.405
 7229TIP3    H221631   1.684   7.245   2.475
 7230TIP3   OH221632   6.100   2.221   4.549
 7230TIP3    H121633   6.156   2.291   4.515
 7230TIP3    H221634   6.063   2.181   4.471
 7231TIP3   OH221635   6.890   0.925   6.122
 7231TIP3    H121636   6.822   0.980   6.162
 7231TIP3    H221637   6.968   0.944   6.173
 7232TIP3   OH221638   2.240   6.803   2.290
 7232TIP3    H121639   2.224   6.795   2.384
 7232TIP3    H221640   2.324   6.850   2.284
 7233TIP3   OH221641   3.008   6.732   0.216
 7233TIP3    H121642   3.073   6.796   0.245
 7233TIP3    H221643   3.052   6.683   0.146
 7234TIP3   OH221644   3.988   2.944   0.943
 7234TIP3    H121645   4.043   2.867   0.956
 7234TIP3    H221646   3.997   2.993   1.025
 7235TIP3   OH221647   7.968   1.185   2.808
 7235TIP3    H121648   8.023   1.157   2.735
 7235TIP3    H221649   8.020   1.248   2.856
 7236TIP3   OH221650   4.117   5.412   6.769
 7236TIP3    H121651   4.097   5.468   6.694
 7236TIP3    H221652   4.161   5.471   6.831
 7237TIP3   OH221653   7.899   6.853   2.927
 7237TIP3    H121654   7.946   6.835   2.845
 7237TIP3    H221655   7.814   6.887   2.899
 7238TIP3   OH221656   6.969   1.225   4.147
 7238TIP3    H121657   6.883   1.261   4.125
 7238TIP3    H221658   6.952   1.136   4.176
 7239TIP3   OH221659   4.110   3.664   1.984
 7239TIP3    H121660   4.028   3.624   1.956
 7239TIP3    H221661   4.084   3.730   2.049
 7240TIP3   OH221662   3.359   6.469   4.261
 7240TIP3    H121663   3.411   6.403   4.307
 7240TIP3    H221664   3.423   6.521   4.213
 7241TIP3   OH221665   3.551   1.221   3.837
 7241TIP3    H121666   3.636   1.211   3.795
 7241TIP3    H221667   3.539   1.139   3.886
 7242TIP3   OH221668   0.796   3.754   1.192
 7242TIP3    H121669   0.786   3.684   1.258
 7242TIP3    H221670   0.781   3.710   1.109
 7243TIP3   OH221671   8.151   6.188   1.617
 7243TIP3    H121672   8.110   6.101   1.624
 7243TIP3    H221673   8.086   6.241   1.572
 7244TIP3   OH221674   6.050   6.917   1.642
 7244TIP3    H121675   6.091   7.003   1.629
 7244TIP3    H221676   5.989   6.931   1.714
 7245TIP3   OH221677   6.196   7.462   5.851
 7245TIP3    H121678   6.109   7.500   5.839
 7245TIP3    H221679   6.194   7.381   5.800
 7246TIP3   OH221680   0.427   5.788   3.725
 7246TIP3    H121681   0.402   5.713   3.672
 7246TIP3    H221682   0.344   5.826   3.754
 7247TIP3   OH221683   5.559   3.330   6.283
 7247TIP3    H121684   5.512   3.279   6.217
 7247TIP3    H221685   5.640   3.358   6.239
 7248TIP3   OH221686   0.417   2.062   6.659
 7248TIP3    H121687   0.473   2.140   6.658
 7248TIP3    H221688   0.352   2.080   6.727
 7249TIP3   OH221689   0.748   3.373   1.631
 7249TIP3    H121690   0.679   3.395   1.694
 7249TIP3    H221691   0.719   3.412   1.549
 7250TIP3   OH221692   5.852   4.288   5.865
 7250TIP3    H121693   5.792   4.259   5.933
 7250TIP3    H221694   5.939   4.266   5.898
 7251TIP3   OH221695   2.531   2.040   4.185
 7251TIP3    H121696   2.622   2.066   4.172
 7251TIP3    H221697   2.497   2.103   4.247
 7252TIP3   OH221698   7.127   1.338   3.830
 7252TIP3    H121699   7.167   1.422   3.853
 7252TIP3    H221700   7.058   1.360   3.767
 7253TIP3   OH221701   6.720   0.694   2.590
 7253TIP3    H121702   6.767   0.777   2.578
 7253TIP3    H221703   6.627   0.718   2.588
 7254TIP3   OH221704   5.727   0.497   4.584
 7254TIP3    H121705   5.633   0.507   4.601
 7254TIP3    H221706   5.748   0.569   4.525
 7255TIP3   OH221707   3.627   1.688   6.258
 7255TIP3    H121708   3.576   1.643   6.325
 7255TIP3    H221709   3.709   1.711   6.301
 7256TIP3   OH221710   6.649   5.359   1.798
 7256TIP3    H121711   6.739   5.384   1.775
 7256TIP3    H221712   6.641   5.268   1.770
 7257TIP3   OH221713   8.183   7.778   6.501
 7257TIP3    H121714   8.225   7.767   6.416
 7257TIP3    H221715   8.100   7.731   6.493
 7258TIP3   OH221716   5.726   2.851   1.794
 7258TIP3    H121717   5.741   2.760   1.822
 7258TIP3    H221718   5.812   2.891   1.796
 7259TIP3   OH221719   7.800   7.106   5.498
 7259TIP3    H121720   7.785   7.071   5.585
 7259TIP3    H221721   7.715   7.142   5.471
 7260TIP3   OH221722   4.272   3.040   3.317
 7260TIP3    H121723   4.361   3.064   3.293
 7260TIP3    H221724   4.219   3.115   3.291
 7261TIP3   OH221725   3.690   6.072   1.667
 7261TIP3    H121726   3.695   6.144   1.604
 7261TIP3    H221727   3.661   5.997   1.616
 7262TIP3   OH221728   3.064   2.945   6.041
 7262TIP3    H121729   2.992   2.985   6.090
 7262TIP3    H221730   3.034   2.943   5.950
 7263TIP3   OH221731   1.451   5.966   5.443
 7263TIP3    H121732   1.406   5.925   5.369
 7263TIP3    H221733   1.405   5.934   5.520
 7264TIP3   OH221734   4.795   1.901   4.279
 7264TIP3    H121735   4.788   1.849   4.359
 7264TIP3    H221736   4.884   1.936   4.282
 7265TIP3   OH221737   2.500   4.503   2.331
 7265TIP3    H121738   2.472   4.593   2.349
 7265TIP3    H221739   2.581   4.493   2.381
 7266TIP3   OH221740   4.648   2.316   1.068
 7266TIP3    H121741   4.599   2.372   1.128
 7266TIP3    H221742   4.729   2.295   1.115
 7267TIP3   OH221743   3.371   1.122   1.050
 7267TIP3    H121744   3.326   1.038   1.057
 7267TIP3    H221745   3.303   1.183   1.020
 7268TIP3   OH221746   0.873   2.308   2.301
 7268TIP3    H121747   0.900   2.264   2.382
 7268TIP3    H221748   0.812   2.247   2.260
 7269TIP3   OH221749   5.723   4.559   3.548
 7269TIP3    H121750   5.779   4.484   3.533
 7269TIP3    H221751   5.672   4.568   3.468
 7270TIP3   OH221752   1.354   5.198   0.091
 7270TIP3    H121753   1.381   5.257   0.020
 7270TIP3    H221754   1.414   5.123   0.084
 7271TIP3   OH221755   5.007   2.646   6.124
 7271TIP3    H121756   5.001   2.660   6.219
 7271TIP3    H221757   4.977   2.556   6.112
 7272TIP3   OH221758   1.997   1.156   5.221
 7272TIP3    H121759   2.090   1.175   5.225
 7272TIP3    H221760   1.963   1.187   5.305
 7273TIP3   OH221761   8.330   4.364   0.775
 7273TIP3    H121762   8.264   4.392   0.838
 7273TIP3    H221763   8.330   4.269   0.780
 7274TIP3   OH221764   2.801   2.845   4.469
 7274TIP3    H121765   2.710   2.843   4.437
 7274TIP3    H221766   2.803   2.918   4.530
 7275TIP3   OH221767   4.348   6.185   2.613
 7275TIP3    H121768   4.272   6.125   2.613
 7275TIP3    H221769   4.415   6.138   2.662
 7276TIP3   OH221770   7.974   7.145   2.070
 7276TIP3    H121771   8.046   7.163   2.131
 7276TIP3    H221772   7.914   7.089   2.120
 7277TIP3   OH221773   5.595   3.774   5.341
 7277TIP3    H121774   5.557   3.701   5.390
 7277TIP3    H221775   5.656   3.732   5.280
 7278TIP3   OH221776   2.717   4.190   4.132
 7278TIP3    H121777   2.796   4.238   4.106
 7278TIP3    H221778   2.727   4.104   4.092
 7279TIP3   OH221779   3.023   1.925   0.439
 7279TIP3    H121780   3.045   1.832   0.448
 7279TIP3    H221781   3.103   1.965   0.405
 7280TIP3   OH221782   3.405   2.105   2.457
 7280TIP3    H121783   3.369   2.190   2.479
 7280TIP3    H221784   3.463   2.122   2.382
 7281TIP3   OH221785   1.493   3.287   5.431
 7281TIP3    H121786   1.454   3.355   5.376
 7281TIP3    H221787   1.436   3.283   5.508
 7282TIP3   OH221788   3.108   3.548   0.501
 7282TIP3    H121789   3.177   3.510   0.447
 7282TIP3    H221790   3.062   3.608   0.442
 7283TIP3   OH221791   0.327   4.117   5.683
 7283TIP3    H121792   0.380   4.039   5.667
 7283TIP3    H221793   0.388   4.190   5.668
 7284TIP3   OH221794   5.470   4.309   4.638
 7284TIP3    H121795   5.510   4.224   4.620
 7284TIP3    H221796   5.441   4.304   4.729
 7285TIP3   OH221797   2.228   6.915   2.588
 7285TIP3    H121798   2.289   6.965   2.534
 7285TIP3    H221799   2.254   6.936   2.678
 7286TIP3   OH221800   4.332   5.722   3.131
 7286TIP3    H121801   4.250   5.761   3.102
 7286TIP3    H221802   4.371   5.686   3.051
 7287TIP3   OH221803   0.020   7.084   4.085
 7287TIP3    H121804   0.009   7.067   4.179
 7287TIP3    H221805   0.044   7.177   4.080
 7288TIP3   OH221806   6.121   0.990   0.148
 7288TIP3    H121807   6.169   0.909   0.162
 7288TIP3    H221808   6.060   0.970   0.077
 7289TIP3   OH221809   5.763   2.825   0.954
 7289TIP3    H121810   5.668   2.815   0.954
 7289TIP3    H221811   5.796   2.743   0.991
 7290TIP3   OH221812   3.136   4.254   6.184
 7290TIP3    H121813   3.076   4.211   6.123
 7290TIP3    H221814   3.206   4.288   6.129
 7291TIP3   OH221815   5.486   2.940   3.090
 7291TIP3    H121816   5.466   2.981   3.173
 7291TIP3    H221817   5.400   2.927   3.048
 7292TIP3   OH221818   2.178   4.020   5.444
 7292TIP3    H121819   2.190   4.024   5.539
 7292TIP3    H221820   2.129   4.099   5.423
 7293TIP3   OH221821   4.727   2.798   3.297
 7293TIP3    H121822   4.662   2.728   3.288
 7293TIP3    H221823   4.681   2.877   3.268
 7294TIP3   OH221824   4.768   6.502   1.136
 7294TIP3    H121825   4.718   6.511   1.217
 7294TIP3    H221826   4.802   6.590   1.119
 7295TIP3   OH221827   0.002   1.653   4.739
 7295TIP3    H121828  -0.051   1.724   4.700
 7295TIP3    H221829   0.045   1.694   4.814
 7296TIP3   OH221830   5.981   2.056   1.275
 7296TIP3    H121831   6.039   1.985   1.249
 7296TIP3    H221832   5.893   2.017   1.273
 7297TIP3   OH221833   0.088   7.135   0.259
 7297TIP3    H121834   0.046   7.086   0.330
 7297TIP3    H221835   0.179   7.144   0.286
 7298TIP3   OH221836   2.406   7.304   5.905
 7298TIP3    H121837   2.459   7.328   5.830
 7298TIP3    H221838   2.319   7.339   5.886
 7299TIP3   OH221839   6.746   2.222   2.034
 7299TIP3    H121840   6.750   2.255   2.123
 7299TIP3    H221841   6.692   2.286   1.987
 7300TIP3   OH221842   8.094   4.673   2.888
 7300TIP3    H121843   8.029   4.641   2.826
 7300TIP3    H221844   8.139   4.745   2.843
 7301TIP3   OH221845   1.774   3.894   3.895
 7301TIP3    H121846   1.779   3.989   3.891
 7301TIP3    H221847   1.865   3.865   3.889
 7302TIP3   OH221848   1.054   7.141   3.267
 7302TIP3    H121849   1.061   7.217   3.324
 7302TIP3    H221850   1.144   7.122   3.240
 7303TIP3   OH221851   5.843   5.872   2.298
 7303TIP3    H121852   5.764   5.901   2.252
 7303TIP3    H221853   5.887   5.815   2.235
 7304TIP3   OH221854   7.172   3.996   1.801
 7304TIP3    H121855   7.111   4.033   1.864
 7304TIP3    H221856   7.253   4.046   1.814
 7305TIP3   OH221857   0.693   3.904   2.102
 7305TIP3    H121858   0.767   3.941   2.151
 7305TIP3    H221859   0.693   3.811   2.124
 7306TIP3   OH221860   4.532   5.607   5.484
 7306TIP3    H121861   4.454   5.655   5.511
 7306TIP3    H221862   4.538   5.621   5.390
 7307TIP3   OH221863   5.764   0.654   2.667
 7307TIP3    H121864   5.828   0.605   2.615
 7307TIP3    H221865   5.726   0.717   2.607
 7308TIP3   OH221866   4.623   0.882   2.933
 7308TIP3    H121867   4.563   0.932   2.878
 7308TIP3    H221868   4.606   0.791   2.911
 7309TIP3   OH221869   5.792   2.037   0.352
 7309TIP3    H121870   5.799   2.132   0.365
 7309TIP3    H221871   5.863   2.000   0.405
 7310TIP3   OH221872   5.191   2.722   3.656
 7310TIP3    H121873   5.160   2.705   3.744
 7310TIP3    H221874   5.157   2.650   3.603
 7311TIP3   OH221875   4.182   2.087   6.584
 7311TIP3    H121876   4.113   2.152   6.580
 7311TIP3    H221877   4.199   2.064   6.493
 7312TIP3   OH221878   4.687   5.058   1.477
 7312TIP3    H121879   4.661   5.119   1.407
 7312TIP3    H221880   4.733   5.114   1.541
 7313TIP3   OH221881   5.025   3.529   1.965
 7313TIP3    H121882   4.978   3.552   1.885
 7313TIP3    H221883   4.957   3.502   2.026
 7314TIP3   OH221884   7.843   0.584   4.579
 7314TIP3    H121885   7.783   0.640   4.530
 7314TIP3    H221886   7.901   0.646   4.625
 7315TIP3   OH221887   6.153   4.911   5.163
 7315TIP3    H121888   6.075   4.894   5.215
 7315TIP3    H221889   6.131   4.988   5.111
 7316TIP3   OH221890   4.394   3.239   5.281
 7316TIP3    H121891   4.419   3.301   5.349
 7316TIP3    H221892   4.300   3.252   5.270
 7317TIP3   OH221893   5.077   6.654   4.129
 7317TIP3    H121894   5.100   6.633   4.219
 7317TIP3    H221895   5.012   6.588   4.105
 7318TIP3   OH221896   4.128   7.183   6.574
 7318TIP3    H121897   4.207   7.184   6.520
 7318TIP3    H221898   4.143   7.249   6.641
 7319TIP3   OH221899   6.083   7.232   5.748
 7319TIP3    H121900   6.036   7.154   5.717
 7319TIP3    H221901   6.029   7.305   5.720
 7320TIP3   OH221902   0.847   6.989   0.984
 7320TIP3    H121903   0.812   6.912   1.029
 7320TIP3    H221904   0.879   6.955   0.901
 7321TIP3   OH221905   1.952   1.641   0.441
 7321TIP3    H121906   2.030   1.615   0.490
 7321TIP3    H221907   1.879   1.618   0.499
 7322TIP3   OH221908   2.586   6.277   4.277
 7322TIP3    H121909   2.662   6.238   4.321
 7322TIP3    H221910   2.622   6.318   4.199
 7323TIP3   OH221911   7.124   7.544   4.053
 7323TIP3    H121912   7.089   7.517   3.968
 7323TIP3    H221913   7.187   7.476   4.076
 7324TIP3   OH221914   7.943   2.491   0.441
 7324TIP3    H121915   7.974   2.566   0.390
 7324TIP3    H221916   7.940   2.419   0.378
 7325TIP3   OH221917   0.632   1.454   1.080
 7325TIP3    H121918   0.585   1.500   1.010
 7325TIP3    H221919   0.664   1.524   1.138
 7326TIP3   OH221920   3.082   3.903   2.506
 7326TIP3    H121921   3.147   3.871   2.568
 7326TIP3    H221922   3.133   3.935   2.431
 7327TIP3   OH221923   3.925   6.662   0.972
 7327TIP3    H121924   3.925   6.646   0.877
 7327TIP3    H221925   3.935   6.756   0.981
 7328TIP3   OH221926   5.649   3.444   3.598
 7328TIP3    H121927   5.630   3.355   3.568
 7328TIP3    H221928   5.744   3.452   3.588
 7329TIP3   OH221929   8.104   2.021   2.462
 7329TIP3    H121930   8.074   1.976   2.383
 7329TIP3    H221931   8.199   2.030   2.450
 7330TIP3   OH221932   3.391   0.957   6.513
 7330TIP3    H121933   3.377   1.008   6.592
 7330TIP3    H221934   3.347   0.873   6.530
 7331TIP3   OH221935   1.837   0.492   3.259
 7331TIP3    H121936   1.769   0.486   3.326
 7331TIP3    H221937   1.914   0.453   3.300
 7332TIP3   OH221938   5.520   2.074   1.977
 7332TIP3    H121939   5.543   1.999   1.922
 7332TIP3    H221940   5.529   2.042   2.067
 7333TIP3   OH221941   6.826   6.290   4.676
 7333TIP3    H121942   6.917   6.266   4.696
 7333TIP3    H221943   6.802   6.351   4.746
 7334TIP3   OH221944   0.233   1.962   3.020
 7334TIP3    H121945   0.240   1.901   2.947
 7334TIP3    H221946   0.153   1.936   3.066
 7335TIP3   OH221947   5.280   3.394   4.798
 7335TIP3    H121948   5.258   3.376   4.706
 7335TIP3    H221949   5.341   3.468   4.794
 7336TIP3   OH221950   7.087   5.663   1.888
 7336TIP3    H121951   7.030   5.601   1.935
 7336TIP3    H221952   7.098   5.625   1.801
 7337TIP3   OH221953   5.900   0.588   3.524
 7337TIP3    H121954   5.960   0.638   3.579
 7337TIP3    H221955   5.878   0.510   3.575
 7338TIP3   OH221956   0.762   5.986   5.419
 7338TIP3    H121957   0.711   6.001   5.498
 7338TIP3    H221958   0.721   5.909   5.379
 7339TIP3   OH221959   1.823   7.364   5.215
 7339TIP3    H121960   1.848   7.295   5.154
 7339TIP3    H221961   1.820   7.320   5.300
 7340TIP3   OH221962   6.980   1.568   3.349
 7340TIP3    H121963   6.895   1.595   3.314
 7340TIP3    H221964   7.016   1.511   3.281
 7341TIP3   OH221965   4.880   7.774   0.849
 7341TIP3    H121966   4.798   7.736   0.881
 7341TIP3    H221967   4.918   7.818   0.925
 7342TIP3   OH221968   1.027   6.262   1.742
 7342TIP3    H121969   1.102   6.319   1.725
 7342TIP3    H221970   0.959   6.322   1.773
 7343TIP3   OH221971   4.683   7.001   1.746
 7343TIP3    H121972   4.719   7.031   1.830
 7343TIP3    H221973   4.644   6.916   1.766
 7344TIP3   OH221974   0.888   7.722   5.955
 7344TIP3    H121975   0.904   7.647   5.897
 7344TIP3    H221976   0.856   7.791   5.897
 7345TIP3   OH221977   7.071   6.067   0.274
 7345TIP3    H121978   7.157   6.107   0.260
 7345TIP3    H221979   7.087   5.993   0.332
 7346TIP3   OH221980   6.599   4.538   5.109
 7346TIP3    H121981   6.603   4.482   5.031
 7346TIP3    H221982   6.607   4.627   5.074
 7347TIP3   OH221983   8.060   2.261   2.957
 7347TIP3    H121984   8.052   2.261   2.862
 7347TIP3    H221985   7.972   2.241   2.989
 7348TIP3   OH221986   5.353   0.231   2.815
 7348TIP3    H121987   5.373   0.299   2.751
 7348TIP3    H221988   5.403   0.154   2.785
 7349TIP3   OH221989   3.453   7.633   3.137
 7349TIP3    H121990   3.524   7.623   3.200
 7349TIP3    H221991   3.485   7.698   3.074
 7350TIP3   OH221992   3.546   3.413   2.507
 7350TIP3    H121993   3.613   3.480   2.495
 7350TIP3    H221994   3.583   3.334   2.467
 7351TIP3   OH221995   4.717   1.978   6.059
 7351TIP3    H121996   4.811   1.992   6.070
 7351TIP3    H221997   4.708   1.944   5.970
 7352TIP3   OH221998   5.906   1.182   3.121
 7352TIP3    H121999   5.950   1.265   3.140
 7352TIP3    H222000   5.955   1.116   3.171
 7353TIP3   OH222001   5.555   4.875   3.597
 7353TIP3    H122002   5.492   4.947   3.606
 7353TIP3    H222003   5.641   4.918   3.598
 7354TIP3   OH222004   2.647   4.474   5.684
 7354TIP3    H122005   2.627   4.420   5.760
 7354TIP3    H222006   2.666   4.561   5.720
 7355TIP3   OH222007   3.330   1.317   6.053
 7355TIP3    H122008   3.361   1.250   6.115
 7355TIP3    H222009   3.243   1.287   6.027
 7356TIP3   OH222010   3.143   0.625   3.935
 7356TIP3    H122011   3.109   0.561   3.998
 7356TIP3    H222012   3.073   0.689   3.927
 7357TIP3   OH222013   2.575   4.205   4.586
 7357TIP3    H122014   2.526   4.208   4.669
 7357TIP3    H222015   2.608   4.116   4.581
 7358TIP3   OH222016   5.320   7.841   1.211
 7358TIP3    H122017   5.393   7.853   1.150
 7358TIP3    H222018   5.281   7.758   1.185
 7359TIP3   OH222019   7.150   4.519   1.153
 7359TIP3    H122020   7.152   4.474   1.069
 7359TIP3    H222021   7.068   4.490   1.193
 7360TIP3   OH222022   1.098   7.173   5.776
 7360TIP3    H122023   1.174   7.223   5.747
 7360TIP3    H222024   1.136   7.092   5.812
 7361TIP3   OH222025   1.313   2.665   6.030
 7361TIP3    H122026   1.274   2.580   6.008
 7361TIP3    H222027   1.375   2.682   5.958
 7362TIP3   OH222028   3.575   6.978   6.624
 7362TIP3    H122029   3.625   6.927   6.560
 7362TIP3    H222030   3.539   7.051   6.573
 7363TIP3   OH222031   6.814   1.882   3.191
 7363TIP3    H122032   6.849   1.967   3.165
 7363TIP3    H222033   6.865   1.856   3.268
 7364TIP3   OH222034   3.168   5.712   2.720
 7364TIP3    H122035   3.201   5.798   2.746
 7364TIP3    H222036   3.133   5.674   2.800
 7365TIP3   OH222037   4.911   0.477   5.768
 7365TIP3    H122038   5.003   0.457   5.751
 7365TIP3    H222039   4.911   0.567   5.800
 7366TIP3   OH222040   7.263   2.133   0.521
 7366TIP3    H122041   7.252   2.149   0.427
 7366TIP3    H222042   7.252   2.038   0.531
 7367TIP3   OH222043   3.581   4.418   2.385
 7367TIP3    H122044   3.547   4.334   2.416
 7367TIP3    H222045   3.546   4.481   2.449
 7368TIP3   OH222046   2.924   3.124   4.112
 7368TIP3    H122047   2.938   3.124   4.018
 7368TIP3    H222048   2.829   3.111   4.122
 7369TIP3   OH222049   5.552   7.763   4.393
 7369TIP3    H122050   5.504   7.689   4.431
 7369TIP3    H222051   5.597   7.803   4.467
 7370TIP3   OH222052   5.937   1.909   1.007
 7370TIP3    H122053   6.009   1.966   1.033
 7370TIP3    H222054   5.870   1.968   0.972
 7371TIP3   OH222055   7.963   4.992   0.433
 7371TIP3    H122056   8.000   4.919   0.383
 7371TIP3    H222057   7.869   4.986   0.417
 7372TIP3   OH222058   3.189   3.222   0.661
 7372TIP3    H122059   3.276   3.196   0.690
 7372TIP3    H222060   3.175   3.174   0.580
 7373TIP3   OH222061   4.115   0.118   1.848
 7373TIP3    H122062   4.177   0.190   1.844
 7373TIP3    H222063   4.073   0.127   1.934
 7374TIP3   OH222064   1.595   5.592   1.730
 7374TIP3    H122065   1.677   5.638   1.713
 7374TIP3    H222066   1.620   5.500   1.734
 7375TIP3   OH222067   3.917   6.112   1.209
 7375TIP3    H122068   3.943   6.181   1.271
 7375TIP3    H222069   3.848   6.153   1.156
 7376TIP3   OH222070   4.428   2.067   0.253
 7376TIP3    H122071   4.392   2.155   0.248
 7376TIP3    H222072   4.381   2.026   0.326
 7377TIP3   OH222073   5.240   1.922   1.918
 7377TIP3    H122074   5.160   1.900   1.965
 7377TIP3    H222075   5.310   1.879   1.967
 7378TIP3   OH222076   7.195   4.035   4.282
 7378TIP3    H122077   7.249   4.078   4.348
 7378TIP3    H222078   7.149   3.966   4.330
 7379TIP3   OH222079   0.363   4.429   4.254
 7379TIP3    H122080   0.436   4.488   4.275
 7379TIP3    H222081   0.331   4.460   4.170
 7380TIP3   OH222082   2.282   2.986   0.372
 7380TIP3    H122083   2.273   2.938   0.454
 7380TIP3    H222084   2.357   3.043   0.386
 7381TIP3   OH222085   5.871   2.219   6.129
 7381TIP3    H122086   5.966   2.215   6.119
 7381TIP3    H222087   5.857   2.261   6.214
 7382TIP3   OH222088   1.201   2.498   1.393
 7382TIP3    H122089   1.244   2.581   1.369
 7382TIP3    H222090   1.109   2.522   1.403
 7383TIP3   OH222091   0.561   6.709   4.632
 7383TIP3    H122092   0.560   6.634   4.691
 7383TIP3    H222093   0.598   6.780   4.686
 7384TIP3   OH222094   5.964   6.860   2.619
 7384TIP3    H122095   5.880   6.835   2.658
 7384TIP3    H222096   6.030   6.810   2.668
 7385TIP3   OH222097   7.103   2.778   4.569
 7385TIP3    H122098   7.094   2.871   4.589
 7385TIP3    H222099   7.030   2.736   4.614
 7386TIP3   OH222100   3.026   0.023   3.540
 7386TIP3    H122101   3.105   0.077   3.534
 7386TIP3    H222102   3.026  -0.030   3.461
 7387TIP3   OH222103   5.786   5.661   5.893
 7387TIP3    H122104   5.814   5.574   5.921
 7387TIP3    H222105   5.854   5.691   5.834
 7388TIP3   OH222106   7.195   3.763   5.608
 7388TIP3    H122107   7.249   3.836   5.576
 7388TIP3    H222108   7.248   3.685   5.592
 7389TIP3   OH222109   3.123   7.560   5.746
 7389TIP3    H122110   3.100   7.470   5.721
 7389TIP3    H222111   3.209   7.573   5.706
 7390TIP3   OH222112   6.956   3.971   6.355
 7390TIP3    H122113   6.991   3.981   6.266
 7390TIP3    H222114   7.032   3.951   6.409
 7391TIP3   OH222115   4.430   5.053   6.133
 7391TIP3    H122116   4.362   5.118   6.116
 7391TIP3    H222117   4.413   5.023   6.222
 7392TIP3   OH222118   5.726   6.303   5.135
 7392TIP3    H122119   5.787   6.319   5.063
 7392TIP3    H222120   5.651   6.359   5.115
 7393TIP3   OH222121   6.411   0.903   6.189
 7393TIP3    H122122   6.418   0.820   6.236
 7393TIP3    H222123   6.449   0.886   6.103
 7394TIP3   OH222124   7.748   2.065   6.691
 7394TIP3    H122125   7.763   2.062   6.597
 7394TIP3    H222126   7.653   2.060   6.701
 7395TIP3   OH222127   7.787   0.605   3.473
 7395TIP3    H122128   7.708   0.578   3.520
 7395TIP3    H222129   7.841   0.647   3.540
 7396TIP3   OH222130   4.453   6.724   1.127
 7396TIP3    H122131   4.367   6.754   1.158
 7396TIP3    H222132   4.512   6.797   1.145
 7397TIP3   OH222133   5.351   2.840   1.515
 7397TIP3    H122134   5.410   2.791   1.459
 7397TIP3    H222135   5.401   2.853   1.596
 7398TIP3   OH222136   4.569   4.796   2.872
 7398TIP3    H122137   4.622   4.822   2.948
 7398TIP3    H222138   4.632   4.757   2.811
 7399TIP3   OH222139   6.330   7.390   6.098
 7399TIP3    H122140   6.319   7.427   6.010
 7399TIP3    H222141   6.242   7.363   6.124
 7400TIP3   OH222142   2.280   7.262   2.389
 7400TIP3    H122143   2.188   7.272   2.410
 7400TIP3    H222144   2.315   7.352   2.388
 7401TIP3   OH222145   2.987   1.618   2.266
 7401TIP3    H122146   3.017   1.593   2.353
 7401TIP3    H222147   2.972   1.535   2.221
 7402TIP3   OH222148   4.435   1.980   1.872
 7402TIP3    H122149   4.361   1.919   1.881
 7402TIP3    H222150   4.395   2.067   1.877
 7403TIP3   OH222151   4.164   1.462   3.222
 7403TIP3    H122152   4.184   1.556   3.222
 7403TIP3    H222153   4.248   1.419   3.236
 7404TIP3   OH222154   6.031   3.277   2.593
 7404TIP3    H122155   6.125   3.268   2.608
 7404TIP3    H222156   5.999   3.326   2.669
 7405TIP3   OH222157   1.441   2.311   0.726
 7405TIP3    H122158   1.535   2.294   0.718
 7405TIP3    H222159   1.423   2.376   0.658
 7406TIP3   OH222160   6.575   0.960   2.845
 7406TIP3    H122161   6.523   0.996   2.917
 7406TIP3    H222162   6.629   0.893   2.887
 7407TIP3   OH222163   4.185   6.120   0.774
 7407TIP3    H122164   4.262   6.095   0.825
 7407TIP3    H222165   4.208   6.100   0.684
 7408TIP3   OH222166   4.685   1.087  -0.002
 7408TIP3    H122167   4.732   1.089  -0.085
 7408TIP3    H222168   4.752   1.103   0.064
 7409TIP3   OH222169   2.191   6.622   1.505
 7409TIP3    H122170   2.247   6.699   1.515
 7409TIP3    H222171   2.250   6.547   1.516
 7410TIP3   OH222172   5.265   4.446   5.496
 7410TIP3    H122173   5.325   4.391   5.545
 7410TIP3    H222174   5.294   4.438   5.405
 7411TIP3   OH222175   3.336   7.340   6.107
 7411TIP3    H122176   3.346   7.273   6.039
 7411TIP3    H222177   3.286   7.298   6.176
 7412TIP3   OH222178   7.033   6.731   1.591
 7412TIP3    H122179   7.001   6.817   1.565
 7412TIP3    H222180   6.978   6.669   1.543
 7413TIP3   OH222181   3.980   4.654   6.043
 7413TIP3    H122182   3.918   4.698   5.985
 7413TIP3    H222183   3.977   4.563   6.016
 7414TIP3   OH222184   2.002   3.965   4.456
 7414TIP3    H122185   2.052   4.044   4.479
 7414TIP3    H222186   1.998   3.967   4.361
 7415TIP3   OH222187   0.300   7.237   3.091
 7415TIP3    H122188   0.373   7.214   3.149
 7415TIP3    H222189   0.260   7.154   3.067
 7416TIP3   OH222190   0.723   4.177   5.425
 7416TIP3    H122191   0.777   4.119   5.479
 7416TIP3    H222192   0.777   4.255   5.411
 7417TIP3   OH222193   6.159   3.110   1.248
 7417TIP3    H122194   6.065   3.123   1.257
 7417TIP3    H222195   6.182   3.158   1.168
 7418TIP3   OH222196   3.977   2.304   0.991
 7418TIP3    H122197   3.956   2.319   1.083
 7418TIP3    H222198   4.025   2.222   0.990
 7419TIP3   OH222199   5.938   0.770   2.837
 7419TIP3    H122200   5.941   0.725   2.921
 7419TIP3    H222201   5.880   0.717   2.783
 7420TIP3   OH222202   3.321   0.749   5.754
 7420TIP3    H122203   3.334   0.766   5.847
 7420TIP3    H222204   3.226   0.749   5.742
 7421TIP3   OH222205   5.521   0.577   0.367
 7421TIP3    H122206   5.582   0.572   0.294
 7421TIP3    H222207   5.514   0.671   0.386
 7422TIP3   OH222208   0.947   2.686   3.243
 7422TIP3    H122209   0.983   2.674   3.331
 7422TIP3    H222210   1.024   2.688   3.186
 7423TIP3   OH222211   0.463   0.944   3.290
 7423TIP3    H122212   0.380   0.898   3.305
 7423TIP3    H222213   0.527   0.873   3.280
 7424TIP3   OH222214   7.289   1.981   6.413
 7424TIP3    H122215   7.218   2.029   6.456
 7424TIP3    H222216   7.262   1.890   6.416
 7425TIP3   OH222217   7.735   3.733   6.026
 7425TIP3    H122218   7.728   3.648   5.983
 7425TIP3    H222219   7.665   3.733   6.091
 7426TIP3   OH222220   8.101   6.928   4.535
 7426TIP3    H122221   8.022   6.876   4.546
 7426TIP3    H222222   8.129   6.950   4.624
 7427TIP3   OH222223   2.072   3.685   1.623
 7427TIP3    H122224   2.022   3.621   1.674
 7427TIP3    H222225   2.125   3.631   1.564
 7428TIP3   OH222226   0.508   4.556   1.522
 7428TIP3    H122227   0.414   4.556   1.506
 7428TIP3    H222228   0.532   4.649   1.523
 7429TIP3   OH222229   3.623   7.780   6.343
 7429TIP3    H122230   3.610   7.702   6.396
 7429TIP3    H222231   3.558   7.772   6.273
 7430TIP3   OH222232   7.241   2.309   3.360
 7430TIP3    H122233   7.275   2.368   3.426
 7430TIP3    H222234   7.248   2.358   3.278
 7431TIP3   OH222235   3.867   1.029   5.367
 7431TIP3    H122236   3.839   0.963   5.303
 7431TIP3    H222237   3.930   1.082   5.319
 7432TIP3   OH222238   6.712   1.637   2.153
 7432TIP3    H122239   6.734   1.565   2.093
 7432TIP3    H222240   6.685   1.592   2.234
 7433TIP3   OH222241   4.733   5.958   4.823
 7433TIP3    H122242   4.817   5.985   4.862
 7433TIP3    H222243   4.720   5.869   4.855
 7434TIP3   OH222244   1.044   1.696   3.477
 7434TIP3    H122245   0.953   1.667   3.479
 7434TIP3    H222246   1.042   1.781   3.520
 7435TIP3   OH222247   8.080   0.943   2.243
 7435TIP3    H122248   8.030   1.021   2.219
 7435TIP3    H222249   8.165   0.977   2.271
 7436TIP3   OH222250   6.237   7.498   4.933
 7436TIP3    H122251   6.313   7.555   4.942
 7436TIP3    H222252   6.217   7.469   5.022
 7437TIP3   OH222253   4.217   0.446   4.472
 7437TIP3    H122254   4.141   0.502   4.456
 7437TIP3    H222255   4.180   0.364   4.505
 7438TIP3   OH222256   6.268   4.858   6.657
 7438TIP3    H122257   6.253   4.788   6.594
 7438TIP3    H222258   6.258   4.816   6.743
 7439TIP3   OH222259   5.707   5.637   2.138
 7439TIP3    H122260   5.743   5.581   2.207
 7439TIP3    H222261   5.675   5.576   2.072
 7440TIP3   OH222262   0.421   4.020   5.030
 7440TIP3    H122263   0.464   4.039   5.113
 7440TIP3    H222264   0.335   3.986   5.054
 7441TIP3   OH222265   3.810   0.575   1.160
 7441TIP3    H122266   3.733   0.527   1.192
 7441TIP3    H222267   3.774   0.641   1.101
 7442TIP3   OH222268   6.742   2.256   2.990
 7442TIP3    H122269   6.691   2.313   2.932
 7442TIP3    H222270   6.774   2.315   3.059
 7443TIP3   OH222271   7.131   0.237   0.974
 7443TIP3    H122272   7.068   0.165   0.968
 7443TIP3    H222273   7.211   0.202   0.935
 7444TIP3   OH222274   6.304   0.860   4.063
 7444TIP3    H122275   6.388   0.816   4.077
 7444TIP3    H222276   6.308   0.937   4.119
 7445TIP3   OH222277   6.315   5.876   6.016
 7445TIP3    H122278   6.223   5.900   6.004
 7445TIP3    H222279   6.363   5.957   6.003
 7446TIP3   OH222280   4.960   2.368   0.626
 7446TIP3    H122281   4.917   2.333   0.548
 7446TIP3    H222282   4.888   2.396   0.683
 7447TIP3   OH222283   0.649   3.973   4.648
 7447TIP3    H122284   0.729   3.929   4.619
 7447TIP3    H222285   0.662   3.989   4.741
 7448TIP3   OH222286   4.536   6.644   3.063
 7448TIP3    H122287   4.441   6.656   3.066
 7448TIP3    H222288   4.565   6.696   2.989
 7449TIP3   OH222289   3.704   5.922   2.459
 7449TIP3    H122290   3.704   5.886   2.370
 7449TIP3    H222291   3.692   6.016   2.447
 7450TIP3   OH222292   7.613   7.082   6.388
 7450TIP3    H122293   7.649   7.079   6.300
 7450TIP3    H222294   7.525   7.119   6.377
 7451TIP3   OH222295   0.262   7.239   5.251
 7451TIP3    H122296   0.221   7.177   5.191
 7451TIP3    H222297   0.194   7.261   5.314
 7452TIP3   OH222298   0.312   2.359   3.454
 7452TIP3    H122299   0.404   2.381   3.469
 7452TIP3    H222300   0.314   2.295   3.383
 7453TIP3   OH222301   0.650   6.297   1.484
 7453TIP3    H122302   0.697   6.301   1.400
 7453TIP3    H222303   0.682   6.217   1.525
 7454TIP3   OH222304   2.235   7.531   1.175
 7454TIP3    H122305   2.249   7.615   1.132
 7454TIP3    H222306   2.235   7.467   1.103
 7455TIP3   OH222307   5.908   6.027   5.602
 7455TIP3    H122308   5.820   6.000   5.577
 7455TIP3    H222309   5.928   6.100   5.543
 7456TIP3   OH222310   8.115   0.052   5.157
 7456TIP3    H122311   8.060   0.033   5.233
 7456TIP3    H222312   8.069   0.124   5.112
 7457TIP3   OH222313   1.214   2.050   5.809
 7457TIP3    H122314   1.250   2.004   5.884
 7457TIP3    H222315   1.270   2.127   5.799
 7458TIP3   OH222316   2.928   4.692   5.651
 7458TIP3    H122317   3.005   4.639   5.671
 7458TIP3    H222318   2.961   4.766   5.600
 7459TIP3   OH222319   6.285   6.162   1.707
 7459TIP3    H122320   6.368   6.117   1.694
 7459TIP3    H222321   6.271   6.161   1.802
 7460TIP3   OH222322   3.968   0.325   4.782
 7460TIP3    H122323   4.025   0.266   4.831
 7460TIP3    H222324   3.991   0.311   4.690
 7461TIP3   OH222325   5.929   3.286   6.284
 7461TIP3    H122326   5.929   3.363   6.340
 7461TIP3    H222327   5.863   3.306   6.217
 7462TIP3   OH222328   0.623   2.282   4.649
 7462TIP3    H122329   0.700   2.330   4.677
 7462TIP3    H222330   0.619   2.206   4.707
 7463TIP3   OH222331   2.215   3.211   4.376
 7463TIP3    H122332   2.146   3.192   4.313
 7463TIP3    H222333   2.272   3.274   4.331
 7464TIP3   OH222334   1.940   1.703   1.353
 7464TIP3    H122335   1.881   1.751   1.294
 7464TIP3    H222336   1.893   1.699   1.436
 7465TIP3   OH222337   5.104   2.223   5.432
 7465TIP3    H122338   5.135   2.306   5.468
 7465TIP3    H222339   5.059   2.246   5.351
 7466TIP3   OH222340   7.637   2.372   4.881
 7466TIP3    H122341   7.726   2.382   4.847
 7466TIP3    H222342   7.624   2.450   4.936
 7467TIP3   OH222343   0.076   3.440   3.065
 7467TIP3    H122344   0.139   3.461   3.135
 7467TIP3    H222345   0.121   3.467   2.985
 7468TIP3   OH222346   7.858   6.529   4.824
 7468TIP3    H122347   7.882   6.580   4.901
 7468TIP3    H222348   7.778   6.570   4.792
 7469TIP3   OH222349   2.046   0.875   2.447
 7469TIP3    H122350   2.053   0.799   2.506
 7469TIP3    H222351   2.135   0.887   2.414
 7470TIP3   OH222352   2.234   1.510   0.971
 7470TIP3    H122353   2.293   1.441   1.001
 7470TIP3    H222354   2.177   1.527   1.046
 7471TIP3   OH222355   3.477   2.809   1.284
 7471TIP3    H122356   3.531   2.886   1.302
 7471TIP3    H222357   3.508   2.744   1.348
 7472TIP3   OH222358   2.543   6.599   0.552
 7472TIP3    H122359   2.638   6.584   0.551
 7472TIP3    H222360   2.509   6.544   0.482
 7473TIP3   OH222361   0.892   0.997   4.652
 7473TIP3    H122362   0.860   0.980   4.740
 7473TIP3    H222363   0.844   1.075   4.623
 7474TIP3   OH222364   4.489   2.759   3.907
 7474TIP3    H122365   4.419   2.822   3.890
 7474TIP3    H222366   4.535   2.751   3.823
 7475TIP3   OH222367   5.659   5.566   3.853
 7475TIP3    H122368   5.740   5.577   3.803
 7475TIP3    H222369   5.682   5.505   3.923
 7476TIP3   OH222370   3.408   4.926   1.054
 7476TIP3    H122371   3.415   4.950   0.961
 7476TIP3    H222372   3.494   4.891   1.077
 7477TIP3   OH222373   2.004   5.169   2.791
 7477TIP3    H122374   1.992   5.241   2.852
 7477TIP3    H222375   2.091   5.135   2.809
 7478TIP3   OH222376   4.314   1.226   0.280
 7478TIP3    H122377   4.240   1.164   0.285
 7478TIP3    H222378   4.391   1.172   0.299
 7479TIP3   OH222379   7.986   6.495   1.499
 7479TIP3    H122380   7.896   6.468   1.515
 7479TIP3    H222381   8.009   6.551   1.573
 7480TIP3   OH222382   4.008   4.128   4.242
 7480TIP3    H122383   4.020   4.055   4.302
 7480TIP3    H222384   4.053   4.202   4.284
 7481TIP3   OH222385   3.966   5.904   2.329
 7481TIP3    H122386   4.032   5.843   2.294
 7481TIP3    H222387   3.898   5.847   2.365
 7482TIP3   OH222388   6.020   6.270   4.478
 7482TIP3    H122389   6.091   6.318   4.436
 7482TIP3    H222390   5.987   6.212   4.409
 7483TIP3   OH222391   5.805   0.497   5.123
 7483TIP3    H122392   5.877   0.492   5.185
 7483TIP3    H222393   5.836   0.557   5.055
 7484TIP3   OH222394   4.010   6.621   2.735
 7484TIP3    H122395   3.945   6.560   2.769
 7484TIP3    H222396   4.072   6.633   2.807
 7485TIP3   OH222397   7.004   0.432   2.172
 7485TIP3    H122398   7.028   0.498   2.238
 7485TIP3    H222399   6.988   0.352   2.222
 7486TIP3   OH222400   2.574   5.742   2.494
 7486TIP3    H122401   2.584   5.680   2.566
 7486TIP3    H222402   2.635   5.712   2.427
 7487TIP3   OH222403   1.508   4.027   6.119
 7487TIP3    H122404   1.544   4.104   6.075
 7487TIP3    H222405   1.568   3.956   6.096
 7488TIP3   OH222406   7.715   5.501   4.640
 7488TIP3    H122407   7.646   5.436   4.627
 7488TIP3    H222408   7.791   5.465   4.595
 7489TIP3   OH222409   5.761   1.892   5.863
 7489TIP3    H122410   5.676   1.851   5.877
 7489TIP3    H222411   5.794   1.909   5.952
 7490TIP3   OH222412   2.378   3.876   3.525
 7490TIP3    H122413   2.284   3.867   3.511
 7490TIP3    H222414   2.394   3.838   3.611
 7491TIP3   OH222415   1.330   4.994   3.476
 7491TIP3    H122416   1.316   4.984   3.570
 7491TIP3    H222417   1.421   5.021   3.467
 7492TIP3   OH222418   3.867   1.827   0.975
 7492TIP3    H122419   3.880   1.848   0.883
 7492TIP3    H222420   3.952   1.793   1.004
 7493TIP3   OH222421   5.384   3.526   1.440
 7493TIP3    H122422   5.306   3.491   1.398
 7493TIP3    H222423   5.441   3.450   1.453
 7494TIP3   OH222424   0.248   3.402   0.762
 7494TIP3    H122425   0.301   3.361   0.829
 7494TIP3    H222426   0.256   3.496   0.778
 7495TIP3   OH222427   2.123   1.700   2.270
 7495TIP3    H122428   2.148   1.621   2.221
 7495TIP3    H222429   2.043   1.730   2.226
 7496TIP3   OH222430   3.162   2.193   5.741
 7496TIP3    H122431   3.235   2.217   5.684
 7496TIP3    H222432   3.201   2.136   5.807
 7497TIP3   OH222433   6.510   4.633   3.050
 7497TIP3    H122434   6.483   4.708   2.996
 7497TIP3    H222435   6.604   4.625   3.034
 7498TIP3   OH222436   1.165   5.399   5.502
 7498TIP3    H122437   1.077   5.363   5.503
 7498TIP3    H222438   1.158   5.481   5.552
 7499TIP3   OH222439   3.134   5.960   2.145
 7499TIP3    H122440   3.070   5.891   2.137
 7499TIP3    H222441   3.143   5.996   2.057
 7500TIP3   OH222442   3.798   0.403   0.905
 7500TIP3    H122443   3.768   0.413   0.995
 7500TIP3    H222444   3.740   0.336   0.868
 7501TIP3   OH222445   8.008   5.972   6.512
 7501TIP3    H122446   8.028   5.994   6.603
 7501TIP3    H222447   8.092   5.977   6.467
 7502TIP3   OH222448   0.518   0.586   2.126
 7502TIP3    H122449   0.481   0.564   2.041
 7502TIP3    H222450   0.446   0.626   2.174
 7503TIP3   OH222451   7.578   7.447   4.312
 7503TIP3    H122452   7.548   7.506   4.243
 7503TIP3    H222453   7.603   7.504   4.384
 7504TIP3   OH222454   2.210   6.643   2.515
 7504TIP3    H122455   2.195   6.710   2.582
 7504TIP3    H222456   2.229   6.563   2.565
 7505TIP3   OH222457   7.097   3.482   3.564
 7505TIP3    H122458   7.162   3.425   3.523
 7505TIP3    H222459   7.032   3.498   3.495
 7506TIP3   OH222460   2.510   6.507   3.002
 7506TIP3    H122461   2.468   6.470   2.925
 7506TIP3    H222462   2.590   6.455   3.013
 7507TIP3   OH222463   2.562   0.530   4.053
 7507TIP3    H122464   2.568   0.531   4.148
 7507TIP3    H222465   2.480   0.483   4.035
 7508TIP3   OH222466   4.494   1.173   5.236
 7508TIP3    H122467   4.569   1.230   5.219
 7508TIP3    H222468   4.471   1.138   5.150
 7509TIP3   OH222469   6.499   0.515   6.114
 7509TIP3    H122470   6.537   0.456   6.050
 7509TIP3    H222471   6.415   0.475   6.137
 7510TIP3   OH222472   5.161   2.415  -0.028
 7510TIP3    H122473   5.253   2.439  -0.024
 7510TIP3    H222474   5.129   2.426   0.062
 7511TIP3   OH222475   5.470   0.311   4.902
 7511TIP3    H122476   5.478   0.222   4.937
 7511TIP3    H222477   5.442   0.364   4.977
 7512TIP3   OH222478   4.630   0.564   3.127
 7512TIP3    H122479   4.667   0.642   3.168
 7512TIP3    H222480   4.624   0.587   3.034
 7513TIP3   OH222481   3.361   3.442   1.305
 7513TIP3    H122482   3.283   3.387   1.297
 7513TIP3    H222483   3.433   3.386   1.275
 7514TIP3   OH222484   2.359   4.295   1.199
 7514TIP3    H122485   2.444   4.337   1.183
 7514TIP3    H222486   2.374   4.237   1.273
 7515TIP3   OH222487   0.902   4.961   1.391
 7515TIP3    H122488   0.864   4.971   1.304
 7515TIP3    H222489   0.992   4.933   1.375
 7516TIP3   OH222490   0.168   3.935   5.141
 7516TIP3    H122491   0.102   3.914   5.074
 7516TIP3    H222492   0.167   3.860   5.200
 7517TIP3   OH222493   2.627   5.162   2.081
 7517TIP3    H122494   2.646   5.077   2.120
 7517TIP3    H222495   2.578   5.209   2.149
 7518TIP3   OH222496   0.776   0.203   1.336
 7518TIP3    H122497   0.791   0.275   1.397
 7518TIP3    H222498   0.864   0.178   1.306
 7519TIP3   OH222499   2.405   2.532   2.357
 7519TIP3    H122500   2.459   2.580   2.420
 7519TIP3    H222501   2.461   2.522   2.280
 7520TIP3   OH222502   7.864   5.296   4.528
 7520TIP3    H122503   7.769   5.280   4.531
 7520TIP3    H222504   7.904   5.211   4.547
 7521TIP3   OH222505   7.205   5.631   4.141
 7521TIP3    H122506   7.205   5.587   4.056
 7521TIP3    H222507   7.291   5.614   4.177
 7522TIP3   OH222508   3.982   5.857   5.731
 7522TIP3    H122509   4.012   5.899   5.651
 7522TIP3    H222510   4.061   5.852   5.786
 7523TIP3   OH222511   1.519   5.953   1.929
 7523TIP3    H122512   1.486   5.884   1.871
 7523TIP3    H222513   1.540   6.026   1.871
 7524TIP3   OH222514   4.249   1.295   4.415
 7524TIP3    H122515   4.305   1.229   4.373
 7524TIP3    H222516   4.298   1.321   4.493
 7525TIP3   OH222517   0.147   2.077   1.012
 7525TIP3    H122518   0.158   2.135   1.088
 7525TIP3    H222519   0.205   2.003   1.030
 7526TIP3   OH222520   2.493   4.088   3.293
 7526TIP3    H122521   2.584   4.090   3.324
 7526TIP3    H222522   2.441   4.112   3.370
 7527TIP3   OH222523   2.458   1.794   1.879
 7527TIP3    H122524   2.501   1.766   1.960
 7527TIP3    H222525   2.375   1.747   1.878
 7528TIP3   OH222526   7.833   3.976   3.351
 7528TIP3    H122527   7.869   3.895   3.316
 7528TIP3    H222528   7.762   3.949   3.408
 7529TIP3   OH222529   7.304   1.074   4.410
 7529TIP3    H122530   7.262   0.995   4.444
 7529TIP3    H222531   7.370   1.096   4.476
 7530TIP3   OH222532   2.421   1.013   3.588
 7530TIP3    H122533   2.377   1.010   3.503
 7530TIP3    H222534   2.391   1.094   3.628
 7531TIP3   OH222535   2.888   3.856   0.153
 7531TIP3    H122536   2.901   3.816   0.067
 7531TIP3    H222537   2.809   3.909   0.143
 7532TIP3   OH222538   7.147   4.259   3.443
 7532TIP3    H122539   7.145   4.198   3.369
 7532TIP3    H222540   7.088   4.219   3.508
 7533TIP3   OH222541   1.601   0.267   5.760
 7533TIP3    H122542   1.543   0.333   5.722
 7533TIP3    H222543   1.617   0.299   5.849
 7534TIP3   OH222544   6.473   1.114   0.024
 7534TIP3    H122545   6.457   1.208   0.014
 7534TIP3    H222546   6.387   1.074   0.014
 7535TIP3   OH222547   6.147   0.840   6.280
 7535TIP3    H122548   6.221   0.897   6.257
 7535TIP3    H222549   6.070   0.888   6.250
 7536TIP3   OH222550   6.359   2.068   2.819
 7536TIP3    H122551   6.376   2.159   2.793
 7536TIP3    H222552   6.264   2.060   2.818
 7537TIP3   OH222553   8.127   5.002   5.520
 7537TIP3    H122554   8.174   4.918   5.520
 7537TIP3    H222555   8.065   4.994   5.592
 7538TIP3   OH222556   3.635   0.126   1.182
 7538TIP3    H122557   3.677   0.065   1.122
 7538TIP3    H222558   3.573   0.072   1.232
 7539TIP3   OH222559   1.653   4.675   6.552
 7539TIP3    H122560   1.563   4.683   6.519
 7539TIP3    H222561   1.686   4.765   6.554
 7540TIP3   OH222562   4.992   4.725   4.014
 7540TIP3    H122563   4.897   4.739   4.011
 7540TIP3    H222564   5.002   4.632   4.031
 7541TIP3   OH222565   5.308   3.673   0.778
 7541TIP3    H122566   5.335   3.702   0.866
 7541TIP3    H222567   5.359   3.594   0.762
 7542TIP3   OH222568   3.197   2.280   0.229
 7542TIP3    H122569   3.272   2.314   0.277
 7542TIP3    H222570   3.197   2.328   0.147
 7543TIP3   OH222571   8.021   0.372   2.991
 7543TIP3    H122572   7.930   0.401   2.990
 7543TIP3    H222573   8.068   0.439   2.940
 7544TIP3   OH222574   7.137   7.008   4.305
 7544TIP3    H122575   7.183   6.997   4.222
 7544TIP3    H222576   7.199   6.975   4.371
 7545TIP3   OH222577   6.291   1.194   3.114
 7545TIP3    H122578   6.280   1.283   3.145
 7545TIP3    H222579   6.239   1.141   3.174
 7546TIP3   OH222580   1.205   0.275   1.412
 7546TIP3    H122581   1.140   0.253   1.345
 7546TIP3    H222582   1.283   0.301   1.363
 7547TIP3   OH222583   6.671   6.935   0.180
 7547TIP3    H122584   6.630   6.987   0.248
 7547TIP3    H222585   6.597   6.899   0.130
 7548TIP3   OH222586   3.126   4.332   1.207
 7548TIP3    H122587   3.148   4.393   1.278
 7548TIP3    H222588   3.066   4.382   1.152
 7549TIP3   OH222589   4.150   6.800   5.664
 7549TIP3    H122590   4.123   6.724   5.715
 7549TIP3    H222591   4.202   6.853   5.724
 7550TIP3   OH222592   8.215   6.711   4.913
 7550TIP3    H122593   8.255   6.631   4.880
 7550TIP3    H222594   8.206   6.697   5.007
 7551TIP3   OH222595   5.114   6.759   4.734
 7551TIP3    H122596   5.176   6.812   4.784
 7551TIP3    H222597   5.083   6.818   4.665
 7552TIP3   OH222598   7.943   2.573   5.631
 7552TIP3    H122599   7.859   2.617   5.618
 7552TIP3    H222600   7.970   2.600   5.719
 7553TIP3   OH222601   3.396   5.505   5.106
 7553TIP3    H122602   3.362   5.540   5.188
 7553TIP3    H222603   3.328   5.522   5.042
 7554TIP3   OH222604   3.755   1.493   2.887
 7554TIP3    H122605   3.741   1.403   2.857
 7554TIP3    H222606   3.828   1.487   2.949
 7555TIP3   OH222607   2.621   3.504   0.560
 7555TIP3    H122608   2.570   3.544   0.490
 7555TIP3    H222609   2.565   3.511   0.637
 7556TIP3   OH222610   4.296   6.500   5.988
 7556TIP3    H122611   4.310   6.405   5.986
 7556TIP3    H222612   4.361   6.535   5.927
 7557TIP3   OH222613   5.174   4.215   6.298
 7557TIP3    H122614   5.080   4.224   6.314
 7557TIP3    H222615   5.195   4.126   6.326
 7558TIP3   OH222616   7.491   7.033   5.782
 7558TIP3    H122617   7.459   7.049   5.693
 7558TIP3    H222618   7.579   7.070   5.782
 7559TIP3   OH222619   6.120   3.818   3.573
 7559TIP3    H122620   6.165   3.868   3.640
 7559TIP3    H222621   6.105   3.880   3.502
 7560TIP3   OH222622   0.852   2.509   2.689
 7560TIP3    H122623   0.904   2.526   2.767
 7560TIP3    H222624   0.822   2.418   2.699
 7561TIP3   OH222625   7.922   1.929   6.278
 7561TIP3    H122626   7.938   1.880   6.197
 7561TIP3    H222627   8.009   1.946   6.313
 7562TIP3   OH222628   4.197   3.942   2.328
 7562TIP3    H122629   4.244   3.964   2.408
 7562TIP3    H222630   4.259   3.889   2.277
 7563TIP3   OH222631   1.668   5.641   3.801
 7563TIP3    H122632   1.689   5.649   3.894
 7563TIP3    H222633   1.744   5.681   3.757
 7564TIP3   OH222634   1.093   6.125   4.611
 7564TIP3    H122635   1.181   6.162   4.611
 7564TIP3    H222636   1.040   6.189   4.564
 7565TIP3   OH222637   6.100   5.379   4.188
 7565TIP3    H122638   6.165   5.326   4.234
 7565TIP3    H222639   6.112   5.357   4.096
 7566TIP3   OH222640   7.305   6.231   5.456
 7566TIP3    H122641   7.372   6.179   5.502
 7566TIP3    H222642   7.336   6.321   5.464
 7567TIP3   OH222643   6.318   3.143   0.558
 7567TIP3    H122644   6.298   3.116   0.468
 7567TIP3    H222645   6.390   3.206   0.549
 7568TIP3   OH222646   0.730   7.676   6.195
 7568TIP3    H122647   0.762   7.669   6.105
 7568TIP3    H222648   0.733   7.770   6.214
 7569TIP3   OH222649   2.451   7.092   3.600
 7569TIP3    H122650   2.513   7.143   3.652
 7569TIP3    H222651   2.438   7.011   3.650
 7570TIP3   OH222652   4.307   7.727   4.730
 7570TIP3    H122653   4.341   7.638   4.729
 7570TIP3    H222654   4.240   7.727   4.799
 7571TIP3   OH222655   2.804   0.901   4.334
 7571TIP3    H122656   2.869   0.913   4.265
 7571TIP3    H222657   2.798   0.806   4.346
 7572TIP3   OH222658   4.252   2.757   4.373
 7572TIP3    H122659   4.332   2.779   4.324
 7572TIP3    H222660   4.270   2.671   4.410
 7573TIP3   OH222661   4.074   7.363   0.177
 7573TIP3    H122662   4.135   7.424   0.136
 7573TIP3    H222663   4.010   7.345   0.108
 7574TIP3   OH222664   6.889   7.158   6.389
 7574TIP3    H122665   6.902   7.219   6.316
 7574TIP3    H222666   6.933   7.078   6.361
 7575TIP3   OH222667   6.189   6.066   6.227
 7575TIP3    H122668   6.239   5.989   6.255
 7575TIP3    H222669   6.252   6.139   6.232
 7576TIP3   OH222670   7.463   3.798   5.536
 7576TIP3    H122671   7.465   3.853   5.458
 7576TIP3    H222672   7.525   3.727   5.516
 7577TIP3   OH222673   4.533   3.233   4.737
 7577TIP3    H122674   4.585   3.280   4.802
 7577TIP3    H222675   4.556   3.275   4.654
 7578TIP3   OH222676   4.970   5.257   1.183
 7578TIP3    H122677   4.989   5.173   1.225
 7578TIP3    H222678   4.889   5.241   1.134
 7579TIP3   OH222679   1.418   5.729   1.271
 7579TIP3    H122680   1.438   5.767   1.356
 7579TIP3    H222681   1.431   5.635   1.283
 7580TIP3   OH222682   5.384   5.080   6.077
 7580TIP3    H122683   5.296   5.056   6.048
 7580TIP3    H222684   5.393   5.041   6.164
 7581TIP3   OH222685   0.603   2.301   0.120
 7581TIP3    H122686   0.586   2.211   0.150
 7581TIP3    H222687   0.524   2.349   0.145
 7582TIP3   OH222688   0.674   5.803   0.065
 7582TIP3    H122689   0.594   5.765   0.100
 7582TIP3    H222690   0.664   5.897   0.080
 7583TIP3   OH222691   0.844   0.762   2.340
 7583TIP3    H122692   0.840   0.856   2.357
 7583TIP3    H222693   0.843   0.754   2.245
 7584TIP3   OH222694   6.970   6.898   0.701
 7584TIP3    H122695   7.023   6.861   0.630
 7584TIP3    H222696   7.034   6.925   0.767
 7585TIP3   OH222697   5.615   0.717   6.716
 7585TIP3    H122698   5.537   0.769   6.732
 7585TIP3    H222699   5.607   0.642   6.775
 7586TIP3   OH222700   5.495   7.049   1.546
 7586TIP3    H122701   5.502   7.141   1.518
 7586TIP3    H222702   5.502   7.052   1.641
 7587TIP3   OH222703   5.657   6.577   0.436
 7587TIP3    H122704   5.702   6.661   0.438
 7587TIP3    H222705   5.630   6.562   0.526
 7588TIP3   OH222706   4.062   0.201   0.307
 7588TIP3    H122707   4.146   0.185   0.265
 7588TIP3    H222708   4.079   0.273   0.368
 7589TIP3   OH222709   8.158   2.744   4.610
 7589TIP3    H122710   8.239   2.708   4.646
 7589TIP3    H222711   8.103   2.761   4.686
 7590TIP3   OH222712   3.795   0.240   1.682
 7590TIP3    H122713   3.813   0.242   1.776
 7590TIP3    H222714   3.827   0.155   1.653
 7591TIP3   OH222715   0.628   0.656   6.218
 7591TIP3    H122716   0.696   0.685   6.279
 7591TIP3    H222717   0.649   0.564   6.201
 7592TIP3   OH222718   4.732   5.683   1.485
 7592TIP3    H122719   4.677   5.760   1.498
 7592TIP3    H222720   4.820   5.718   1.469
 7593TIP3   OH222721   1.481   5.815   4.289
 7593TIP3    H122722   1.449   5.891   4.337
 7593TIP3    H222723   1.574   5.809   4.312
 7594TIP3   OH222724   5.565   4.986   1.210
 7594TIP3    H122725   5.586   5.062   1.264
 7594TIP3    H222726   5.642   4.974   1.154
 7595TIP3   OH222727   4.115   6.563   2.972
 7595TIP3    H122728   4.172   6.487   2.962
 7595TIP3    H222729   4.114   6.578   3.067
 7596TIP3   OH222730   0.926   6.054   6.403
 7596TIP3    H122731   0.919   5.971   6.450
 7596TIP3    H222732   0.951   6.029   6.314
 7597TIP3   OH222733   0.530   2.723   3.360
 7597TIP3    H122734   0.483   2.643   3.335
 7597TIP3    H222735   0.589   2.740   3.286
 7598TIP3   OH222736   3.224   7.686   0.576
 7598TIP3    H122737   3.272   7.702   0.495
 7598TIP3    H222738   3.149   7.745   0.572
 7599TIP3   OH222739   2.878   0.333   5.855
 7599TIP3    H122740   2.861   0.370   5.942
 7599TIP3    H222741   2.877   0.408   5.796
 7600TIP3   OH222742   5.560   1.971   3.047
 7600TIP3    H122743   5.561   2.067   3.047
 7600TIP3    H222744   5.508   1.948   3.124
 7601TIP3   OH222745   3.401   0.087   1.789
 7601TIP3    H122746   3.434   0.122   1.872
 7601TIP3    H222747   3.443   0.001   1.781
 7602TIP3   OH222748   5.233   2.242   1.226
 7602TIP3    H122749   5.193   2.184   1.162
 7602TIP3    H222750   5.247   2.324   1.178
 7603TIP3   OH222751   7.088   7.531   6.772
 7603TIP3    H122752   7.026   7.597   6.804
 7603TIP3    H222753   7.041   7.487   6.701
 7604TIP3   OH222754   7.263   0.128   1.826
 7604TIP3    H122755   7.217   0.195   1.876
 7604TIP3    H222756   7.356   0.151   1.836
 7605TIP3   OH222757   0.344   1.077   2.525
 7605TIP3    H122758   0.324   0.989   2.558
 7605TIP3    H222759   0.434   1.093   2.554
 7606TIP3   OH222760   8.204   0.310   4.360
 7606TIP3    H122761   8.212   0.360   4.279
 7606TIP3    H222762   8.291   0.270   4.371
 7607TIP3   OH222763   3.236   3.940   6.690
 7607TIP3    H122764   3.172   3.877   6.658
 7607TIP3    H222765   3.251   3.999   6.617
 7608TIP3   OH222766   4.329   2.971   3.731
 7608TIP3    H122767   4.273   2.926   3.668
 7608TIP3    H222768   4.418   2.943   3.709
 7609TIP3   OH222769   6.090   0.144   0.596
 7609TIP3    H122770   6.173   0.191   0.602
 7609TIP3    H222771   6.047   0.160   0.680
 7610TIP3   OH222772   6.612   2.535   5.188
 7610TIP3    H122773   6.555   2.489   5.126
 7610TIP3    H222774   6.580   2.626   5.188
 7611TIP3   OH222775   1.511   1.732   5.414
 7611TIP3    H122776   1.577   1.699   5.353
 7611TIP3    H222777   1.538   1.823   5.431
 7612TIP3   OH222778   2.971   0.461   3.594
 7612TIP3    H122779   3.006   0.452   3.683
 7612TIP3    H222780   3.013   0.391   3.545
 7613TIP3   OH222781   3.134   6.740   6.293
 7613TIP3    H122782   3.168   6.733   6.383
 7613TIP3    H222783   3.198   6.693   6.240
 7614TIP3   OH222784   6.744   4.989   2.445
 7614TIP3    H122785   6.807   4.975   2.375
 7614TIP3    H222786   6.796   4.986   2.526
 7615TIP3   OH222787   7.194   6.549   5.245
 7615TIP3    H122788   7.224   6.582   5.161
 7615TIP3    H222789   7.099   6.561   5.243
 7616TIP3   OH222790   1.932   4.495   5.881
 7616TIP3    H122791   1.955   4.449   5.800
 7616TIP3    H222792   1.936   4.427   5.949
 7617TIP3   OH222793   5.890   3.724   4.840
 7617TIP3    H122794   5.801   3.719   4.875
 7617TIP3    H222795   5.947   3.713   4.916
 7618TIP3   OH222796   5.760   4.098   4.379
 7618TIP3    H122797   5.847   4.058   4.373
 7618TIP3    H222798   5.758   4.140   4.465
 7619TIP3   OH222799   0.202   2.260   6.470
 7619TIP3    H122800   0.256   2.236   6.395
 7619TIP3    H222801   0.125   2.303   6.431
 7620TIP3   OH222802   6.466   4.709   0.428
 7620TIP3    H122803   6.550   4.665   0.443
 7620TIP3    H222804   6.401   4.639   0.430
 7621TIP3   OH222805   1.292   0.780   5.044
 7621TIP3    H122806   1.205   0.745   5.062
 7621TIP3    H222807   1.351   0.724   5.094
 7622TIP3   OH222808   6.869   2.868   4.388
 7622TIP3    H122809   6.825   2.850   4.305
 7622TIP3    H222810   6.961   2.845   4.372
 7623TIP3   OH222811   5.283   2.325   4.167
 7623TIP3    H122812   5.287   2.263   4.094
 7623TIP3    H222813   5.193   2.320   4.198
 7624TIP3   OH222814   4.243   3.512   5.218
 7624TIP3    H122815   4.221   3.431   5.172
 7624TIP3    H222816   4.279   3.483   5.302
 7625TIP3   OH222817   0.322   7.019   4.831
 7625TIP3    H122818   0.230   6.997   4.815
 7625TIP3    H222819   0.324   7.115   4.828
 7626TIP3   OH222820   4.716   3.895   4.024
 7626TIP3    H122821   4.780   3.927   3.960
 7626TIP3    H222822   4.636   3.944   4.005
 7627TIP3   OH222823   6.335   4.022   4.824
 7627TIP3    H122824   6.392   3.991   4.895
 7627TIP3    H222825   6.292   4.100   4.860
 7628TIP3   OH222826   6.686   6.814   6.054
 7628TIP3    H122827   6.607   6.844   6.009
 7628TIP3    H222828   6.657   6.738   6.104
 7629TIP3   OH222829   0.240   0.634   0.479
 7629TIP3    H122830   0.308   0.623   0.546
 7629TIP3    H222831   0.197   0.716   0.502
 7630TIP3   OH222832   1.368   2.406   5.951
 7630TIP3    H122833   1.273   2.410   5.957
 7630TIP3    H222834   1.389   2.313   5.961
 7631TIP3   OH222835   4.284   1.428   6.237
 7631TIP3    H122836   4.222   1.486   6.280
 7631TIP3    H222837   4.259   1.430   6.144
 7632TIP3   OH222838   1.719   6.455   1.197
 7632TIP3    H122839   1.646   6.399   1.222
 7632TIP3    H222840   1.731   6.439   1.103
 7633TIP3   OH222841   3.132   4.902   1.384
 7633TIP3    H122842   3.216   4.863   1.359
 7633TIP3    H222843   3.096   4.841   1.448
 7634TIP3   OH222844   2.649   7.336   1.050
 7634TIP3    H122845   2.738   7.367   1.031
 7634TIP3    H222846   2.617   7.395   1.118
 7635TIP3   OH222847   2.406   1.848   3.712
 7635TIP3    H122848   2.443   1.877   3.796
 7635TIP3    H222849   2.476   1.797   3.672
 7636TIP3   OH222850   1.269   2.413   2.848
 7636TIP3    H122851   1.312   2.490   2.885
 7636TIP3    H222852   1.180   2.417   2.882
 7637TIP3   OH222853   4.292   5.044   4.127
 7637TIP3    H122854   4.282   5.139   4.122
 7637TIP3    H222855   4.218   5.015   4.180
 7638TIP3   OH222856   2.922   3.862   6.680
 7638TIP3    H122857   2.853   3.879   6.615
 7638TIP3    H222858   2.877   3.871   6.764
 7639TIP3   OH222859   4.644   3.396   4.470
 7639TIP3    H122860   4.719   3.345   4.438
 7639TIP3    H222861   4.607   3.436   4.391
 7640TIP3   OH222862   4.993   3.286   3.843
 7640TIP3    H122863   4.997   3.278   3.748
 7640TIP3    H222864   5.076   3.328   3.867
 7641TIP3   OH222865   6.096   1.255   1.062
 7641TIP3    H122866   6.189   1.262   1.085
 7641TIP3    H222867   6.070   1.345   1.041
 7642TIP3   OH222868   1.590   5.795   0.853
 7642TIP3    H122869   1.684   5.775   0.861
 7642TIP3    H222870   1.576   5.870   0.910
 7643TIP3   OH222871   6.417   3.684   5.769
 7643TIP3    H122872   6.322   3.694   5.760
 7643TIP3    H222873   6.443   3.754   5.829
 7644TIP3   OH222874   1.993   6.240   0.786
 7644TIP3    H122875   1.964   6.184   0.715
 7644TIP3    H222876   2.088   6.246   0.775
 7645TIP3   OH222877   7.798   0.652   0.769
 7645TIP3    H122878   7.812   0.745   0.785
 7645TIP3    H222879   7.709   0.635   0.798
 7646TIP3   OH222880   5.586   6.475   3.822
 7646TIP3    H122881   5.533   6.544   3.862
 7646TIP3    H222882   5.539   6.451   3.743
 7647TIP3   OH222883   7.033   5.564   6.081
 7647TIP3    H122884   7.039   5.524   5.994
 7647TIP3    H222885   6.945   5.601   6.084
 7648TIP3   OH222886   1.455   0.079   2.635
 7648TIP3    H122887   1.496  -0.006   2.622
 7648TIP3    H222888   1.364   0.059   2.658
 7649TIP3   OH222889   4.554   0.720   3.350
 7649TIP3    H122890   4.485   0.756   3.294
 7649TIP3    H222891   4.512   0.647   3.396
 7650TIP3   OH222892   5.075   1.763   4.067
 7650TIP3    H122893   4.992   1.770   4.021
 7650TIP3    H222894   5.059   1.695   4.133
 7651TIP3   OH222895   6.311   2.917   0.318
 7651TIP3    H122896   6.227   2.944   0.354
 7651TIP3    H222897   6.292   2.838   0.267
 7652TIP3   OH222898   6.846   0.007   1.680
 7652TIP3    H122899   6.810  -0.067   1.632
 7652TIP3    H222900   6.805   0.003   1.766
 7653TIP3   OH222901   1.928   6.070   5.001
 7653TIP3    H122902   1.860   6.036   4.943
 7653TIP3    H222903   1.884   6.079   5.086
 7654TIP3   OH222904   2.359   5.366   5.812
 7654TIP3    H122905   2.301   5.378   5.736
 7654TIP3    H222906   2.432   5.315   5.778
 7655TIP3   OH222907   0.320   0.944   4.445
 7655TIP3    H122908   0.225   0.953   4.452
 7655TIP3    H222909   0.350   1.029   4.414
 7656TIP3   OH222910   7.654   3.414   6.650
 7656TIP3    H122911   7.576   3.455   6.613
 7656TIP3    H222912   7.620   3.358   6.720
 7657TIP3   OH222913   7.303   1.533   6.099
 7657TIP3    H122914   7.377   1.549   6.157
 7657TIP3    H222915   7.318   1.592   6.025
 7658TIP3   OH222916   1.213   1.561   3.660
 7658TIP3    H122917   1.140   1.587   3.605
 7658TIP3    H222918   1.221   1.466   3.646
 7659TIP3   OH222919   2.202   2.365   6.284
 7659TIP3    H122920   2.141   2.292   6.274
 7659TIP3    H222921   2.163   2.418   6.353
 7660TIP3   OH222922   5.862   5.340   5.640
 7660TIP3    H122923   5.831   5.307   5.725
 7660TIP3    H222924   5.957   5.329   5.643
 7661TIP3   OH222925   7.902   2.915   0.806
 7661TIP3    H122926   7.894   2.881   0.716
 7661TIP3    H222927   7.967   2.985   0.799
 7662TIP3   OH222928   5.240   7.103   5.789
 7662TIP3    H122929   5.271   7.037   5.727
 7662TIP3    H222930   5.150   7.076   5.809
 7663TIP3   OH222931   1.819   5.784   1.626
 7663TIP3    H122932   1.862   5.867   1.603
 7663TIP3    H222933   1.808   5.739   1.542
 7664TIP3   OH222934   6.419   5.674   0.231
 7664TIP3    H122935   6.385   5.692   0.319
 7664TIP3    H222936   6.490   5.739   0.219
 7665TIP3   OH222937   1.094   3.775   1.359
 7665TIP3    H122938   1.136   3.836   1.421
 7665TIP3    H222939   1.165   3.745   1.303
 7666TIP3   OH222940   7.857   5.341   6.025
 7666TIP3    H122941   7.951   5.359   6.030
 7666TIP3    H222942   7.816   5.413   6.074
 7667TIP3   OH222943   3.770   0.079   1.909
 7667TIP3    H122944   3.690   0.074   1.961
 7667TIP3    H222945   3.760   0.011   1.842
 7668TIP3   OH222946   7.759   0.392   1.805
 7668TIP3    H122947   7.787   0.328   1.870
 7668TIP3    H222948   7.783   0.477   1.843
 7669TIP3   OH222949   3.518   6.664   2.770
 7669TIP3    H122950   3.513   6.570   2.754
 7669TIP3    H222951   3.427   6.693   2.778
 7670TIP3   OH222952   1.333   2.265   5.720
 7670TIP3    H122953   1.338   2.258   5.625
 7670TIP3    H222954   1.416   2.304   5.746
 7671TIP3   OH222955   3.187   1.331   2.803
 7671TIP3    H122956   3.241   1.268   2.755
 7671TIP3    H222957   3.250   1.394   2.839
 7672TIP3   OH222958   1.489   3.649   3.147
 7672TIP3    H122959   1.412   3.602   3.114
 7672TIP3    H222960   1.476   3.654   3.241
 7673TIP3   OH222961   3.208   1.800   6.551
 7673TIP3    H122962   3.211   1.753   6.634
 7673TIP3    H222963   3.298   1.798   6.519
 7674TIP3   OH222964   2.602   5.956   4.429
 7674TIP3    H122965   2.662   5.957   4.503
 7674TIP3    H222966   2.519   5.989   4.464
 7675TIP3   OH222967   8.081   3.892   4.238
 7675TIP3    H122968   8.017   3.874   4.169
 7675TIP3    H222969   8.162   3.912   4.190
 7676TIP3   OH222970   0.348   7.167   0.362
 7676TIP3    H122971   0.349   7.084   0.314
 7676TIP3    H222972   0.394   7.228   0.304
 7677TIP3   OH222973   0.297   0.359   6.347
 7677TIP3    H122974   0.250   0.371   6.430
 7677TIP3    H222975   0.386   0.389   6.365
 7678TIP3   OH222976   2.703   3.865   4.340
 7678TIP3    H122977   2.795   3.866   4.315
 7678TIP3    H222978   2.700   3.917   4.420
 7679TIP3   OH222979   2.739   3.437   6.185
 7679TIP3    H122980   2.652   3.425   6.146
 7679TIP3    H222981   2.722   3.456   6.277
 7680TIP3   OH222982   1.553   6.929   2.325
 7680TIP3    H122983   1.473   6.975   2.297
 7680TIP3    H222984   1.620   6.997   2.324
 7681TIP3   OH222985   3.129   7.451   2.157
 7681TIP3    H122986   3.089   7.522   2.107
 7681TIP3    H222987   3.060   7.387   2.168
 7682TIP3   OH222988   8.051   4.970   4.388
 7682TIP3    H122989   8.126   4.992   4.331
 7682TIP3    H222990   8.043   4.875   4.381
 7683TIP3   OH222991   0.784   6.837   1.262
 7683TIP3    H122992   0.748   6.783   1.333
 7683TIP3    H222993   0.834   6.776   1.208
 7684TIP3   OH222994   4.460   5.798   5.863
 7684TIP3    H122995   4.406   5.744   5.805
 7684TIP3    H222996   4.543   5.750   5.870
 7685TIP3   OH222997   5.677   3.590   4.506
 7685TIP3    H122998   5.617   3.623   4.438
 7685TIP3    H222999   5.636   3.616   4.588
 7686TIP3   OH223000   0.199   1.554   6.166
 7686TIP3    H123001   0.272   1.515   6.215
 7686TIP3    H223002   0.140   1.588   6.234
 7687TIP3   OH223003   0.510   0.561   0.180
 7687TIP3    H123004   0.520   0.471   0.212
 7687TIP3    H223005   0.567   0.566   0.103
 7688TIP3   OH223006   3.888   4.911   2.862
 7688TIP3    H123007   3.947   4.911   2.787
 7688TIP3    H223008   3.812   4.960   2.832
 7689TIP3   OH223009   7.469   2.011   2.273
 7689TIP3    H123010   7.554   1.968   2.277
 7689TIP3    H223011   7.417   1.956   2.214
 7690TIP3   OH223012   7.216   6.448   3.871
 7690TIP3    H123013   7.300   6.495   3.865
 7690TIP3    H223014   7.154   6.515   3.902
 7691TIP3   OH223015   6.271   3.741   4.794
 7691TIP3    H123016   6.260   3.836   4.806
 7691TIP3    H223017   6.363   3.730   4.770
 7692TIP3   OH223018   8.244   6.402   5.898
 7692TIP3    H123019   8.259   6.486   5.855
 7692TIP3    H223020   8.208   6.426   5.984
 7693TIP3   OH223021   5.484   2.336   2.525
 7693TIP3    H123022   5.420   2.265   2.528
 7693TIP3    H223023   5.433   2.416   2.540
 7694TIP3   OH223024   4.580   3.600   0.052
 7694TIP3    H123025   4.487   3.619   0.043
 7694TIP3    H223026   4.624   3.671   0.004
 7695TIP3   OH223027   5.736   6.981   3.831
 7695TIP3    H123028   5.794   7.054   3.809
 7695TIP3    H223029   5.765   6.909   3.776
 7696TIP3   OH223030   7.412   2.994   0.403
 7696TIP3    H123031   7.332   2.951   0.373
 7696TIP3    H223032   7.457   3.020   0.323
 7697TIP3   OH223033   5.521   4.754   6.533
 7697TIP3    H123034   5.427   4.746   6.550
 7697TIP3    H223035   5.560   4.760   6.620
 7698TIP3   OH223036   2.877   4.706   4.120
 7698TIP3    H123037   2.821   4.648   4.172
 7698TIP3    H223038   2.962   4.661   4.118
 7699TIP3   OH223039   5.121   6.239   5.798
 7699TIP3    H123040   5.105   6.173   5.865
 7699TIP3    H223041   5.176   6.195   5.734
 7700TIP3   OH223042   0.864   4.539   4.580
 7700TIP3    H123043   0.811   4.536   4.500
 7700TIP3    H223044   0.951   4.566   4.551
 7701TIP3   OH223045   2.324   4.548   1.734
 7701TIP3    H123046   2.344   4.557   1.827
 7701TIP3    H223047   2.233   4.576   1.727
 7702TIP3   OH223048   0.197   5.562   3.903
 7702TIP3    H123049   0.266   5.547   3.968
 7702TIP3    H223050   0.162   5.649   3.924
 7703TIP3   OH223051   6.453   0.864   0.439
 7703TIP3    H123052   6.402   0.933   0.397
 7703TIP3    H223053   6.502   0.908   0.508
 7704TIP3   OH223054   8.225   1.389   6.521
 7704TIP3    H123055   8.175   1.421   6.596
 7704TIP3    H223056   8.251   1.300   6.546
 7705TIP3   OH223057   7.679   4.745   3.836
 7705TIP3    H123058   7.758   4.799   3.840
 7705TIP3    H223059   7.641   4.764   3.750
 7706TIP3   OH223060   8.072   3.928   2.799
 7706TIP3    H123061   8.125   3.903   2.724
 7706TIP3    H223062   8.001   3.864   2.801
 7707TIP3   OH223063   6.792   0.253   6.263
 7707TIP3    H123064   6.849   0.330   6.254
 7707TIP3    H223065   6.724   0.265   6.196
 7708TIP3   OH223066   2.534   7.354   4.023
 7708TIP3    H123067   2.533   7.275   4.078
 7708TIP3    H223068   2.617   7.397   4.044
 7709TIP3   OH223069   3.226   4.672   5.209
 7709TIP3    H123070   3.179   4.589   5.220
 7709TIP3    H223071   3.317   4.646   5.194
 7710TIP3   OH223072   5.603   4.148   0.418
 7710TIP3    H123073   5.695   4.124   0.420
 7710TIP3    H223074   5.588   4.178   0.328
 7711TIP3   OH223075   0.056   7.222   2.133
 7711TIP3    H123076   0.058   7.317   2.146
 7711TIP3    H223077  -0.004   7.190   2.200
 7712TIP3   OH223078   7.306  -0.035   4.153
 7712TIP3    H123079   7.284  -0.128   4.144
 7712TIP3    H223080   7.245   0.009   4.094
 7713TIP3   OH223081   6.119   5.742   2.721
 7713TIP3    H123082   6.063   5.804   2.673
 7713TIP3    H223083   6.101   5.762   2.813
 7714TIP3   OH223084   4.345   5.544   1.175
 7714TIP3    H123085   4.393   5.552   1.092
 7714TIP3    H223086   4.278   5.612   1.170
 7715TIP3   OH223087   0.266   7.559   5.667
 7715TIP3    H123088   0.222   7.478   5.640
 7715TIP3    H223089   0.206   7.600   5.728
 7716TIP3   OH223090   2.417   5.824   5.476
 7716TIP3    H123091   2.512   5.817   5.490
 7716TIP3    H223092   2.397   5.916   5.490
 7717TIP3   OH223093   3.690   5.104   0.457
 7717TIP3    H123094   3.606   5.097   0.410
 7717TIP3    H223095   3.680   5.047   0.533
 7718TIP3   OH223096   8.130   4.863   1.169
 7718TIP3    H123097   8.055   4.911   1.134
 7718TIP3    H223098   8.137   4.786   1.113
 7719TIP3   OH223099   3.648   6.651   3.018
 7719TIP3    H123100   3.603   6.675   2.937
 7719TIP3    H223101   3.651   6.555   3.017
 7720TIP3   OH223102   2.130   4.071   0.678
 7720TIP3    H123103   2.169   4.017   0.747
 7720TIP3    H223104   2.050   4.106   0.718
 7721TIP3   OH223105   4.619   5.238   2.117
 7721TIP3    H123106   4.605   5.150   2.152
 7721TIP3    H223107   4.674   5.224   2.040
 7722TIP3   OH223108   0.832   1.083   0.378
 7722TIP3    H123109   0.741   1.108   0.390
 7722TIP3    H223110   0.881   1.164   0.392
 7723TIP3   OH223111   8.269   0.841   2.595
 7723TIP3    H123112   8.250   0.864   2.686
 7723TIP3    H223113   8.318   0.759   2.600
 7724TIP3   OH223114   2.763   4.350   3.768
 7724TIP3    H123115   2.738   4.262   3.739
 7724TIP3    H223116   2.854   4.360   3.740
 7725TIP3   OH223117   7.689   3.390   4.383
 7725TIP3    H123118   7.695   3.364   4.291
 7725TIP3    H223119   7.663   3.310   4.428
 7726TIP3   OH223120   2.087   7.233   0.129
 7726TIP3    H123121   2.172   7.236   0.173
 7726TIP3    H223122   2.032   7.180   0.186
 7727TIP3   OH223123   5.688   3.012   2.894
 7727TIP3    H123124   5.693   3.103   2.922
 7727TIP3    H223125   5.635   2.969   2.960
 7728TIP3   OH223126   6.006   5.943   1.001
 7728TIP3    H123127   5.982   5.944   0.908
 7728TIP3    H223128   6.028   6.034   1.021
 7729TIP3   OH223129   0.633   5.991   0.795
 7729TIP3    H123130   0.605   5.939   0.871
 7729TIP3    H223131   0.701   5.938   0.754
 7730TIP3   OH223132   6.623   2.050   1.135
 7730TIP3    H123133   6.596   2.141   1.125
 7730TIP3    H223134   6.694   2.039   1.072
 7731TIP3   OH223135   7.942   4.182   1.740
 7731TIP3    H123136   7.881   4.206   1.670
 7731TIP3    H223137   7.946   4.086   1.736
 7732TIP3   OH223138   1.337   2.573   3.745
 7732TIP3    H123139   1.287   2.630   3.687
 7732TIP3    H223140   1.309   2.599   3.833
 7733TIP3   OH223141   1.962   3.121   4.230
 7733TIP3    H123142   1.925   3.184   4.169
 7733TIP3    H223143   1.896   3.113   4.299
 7734TIP3   OH223144   7.400   5.549   3.695
 7734TIP3    H123145   7.367   5.489   3.628
 7734TIP3    H223146   7.486   5.575   3.664
 7735TIP3   OH223147   6.940   4.363   5.296
 7735TIP3    H123148   6.996   4.440   5.307
 7735TIP3    H223149   6.971   4.324   5.214
 7736TIP3   OH223150   7.194   0.618   2.900
 7736TIP3    H123151   7.161   0.678   2.833
 7736TIP3    H223152   7.245   0.673   2.959
 7737TIP3   OH223153   6.596   3.921   4.883
 7737TIP3    H123154   6.688   3.920   4.857
 7737TIP3    H223155   6.560   3.841   4.845
 7738TIP3   OH223156   7.799   7.509   3.931
 7738TIP3    H123157   7.812   7.491   3.838
 7738TIP3    H223158   7.867   7.458   3.976
 7739TIP3   OH223159   7.793   6.712   6.107
 7739TIP3    H123160   7.804   6.760   6.190
 7739TIP3    H223161   7.801   6.779   6.040
 7740TIP3   OH223162   0.868   3.669   2.611
 7740TIP3    H123163   0.784   3.631   2.582
 7740TIP3    H223164   0.920   3.593   2.639
 7741TIP3   OH223165   7.713   2.414   1.829
 7741TIP3    H123166   7.639   2.438   1.773
 7741TIP3    H223167   7.676   2.410   1.917
 7742TIP3   OH223168   0.084   0.929   2.127
 7742TIP3    H123169   0.132   0.984   2.065
 7742TIP3    H223170   0.088   0.976   2.210
 7743TIP3   OH223171   5.416   1.882   6.548
 7743TIP3    H123172   5.380   1.793   6.543
 7743TIP3    H223173   5.339   1.939   6.541
 7744TIP3   OH223174   0.954   5.872   1.146
 7744TIP3    H123175   0.898   5.909   1.214
 7744TIP3    H223176   1.025   5.829   1.195
 7745TIP3   OH223177   1.208   6.257   3.437
 7745TIP3    H123178   1.246   6.172   3.461
 7745TIP3    H223179   1.120   6.255   3.474
 7746TIP3   OH223180   0.315   6.851   0.956
 7746TIP3    H123181   0.409   6.841   0.964
 7746TIP3    H223182   0.296   6.832   0.864
 7747TIP3   OH223183   0.013   6.584   2.213
 7747TIP3    H123184  -0.036   6.519   2.162
 7747TIP3    H223185   0.087   6.607   2.158
 7748TIP3   OH223186   6.814   6.155   0.197
 7748TIP3    H123187   6.835   6.237   0.152
 7748TIP3    H223188   6.899   6.116   0.216
 7749TIP3   OH223189   2.330   7.530   4.112
 7749TIP3    H123190   2.310   7.488   4.195
 7749TIP3    H223191   2.404   7.480   4.076
 7750TIP3   OH223192   2.281   6.148   5.940
 7750TIP3    H123193   2.222   6.210   5.897
 7750TIP3    H223194   2.354   6.202   5.970
 7751TIP3   OH223195   7.556   1.888   2.773
 7751TIP3    H123196   7.518   1.859   2.856
 7751TIP3    H223197   7.639   1.840   2.766
 7752TIP3   OH223198   1.671   1.269   5.338
 7752TIP3    H123199   1.629   1.315   5.266
 7752TIP3    H223200   1.600   1.253   5.401
 7753TIP3   OH223201   6.006   3.435   3.961
 7753TIP3    H123202   6.023   3.413   3.869
 7753TIP3    H223203   5.925   3.486   3.959
 7754TIP3   OH223204   3.578   3.675   3.362
 7754TIP3    H123205   3.501   3.686   3.419
 7754TIP3    H223206   3.542   3.678   3.273
 7755TIP3   OH223207   6.558   4.649   3.366
 7755TIP3    H123208   6.555   4.584   3.436
 7755TIP3    H223209   6.499   4.614   3.299
 7756TIP3   OH223210   6.205   6.380   3.046
 7756TIP3    H123211   6.263   6.399   3.120
 7756TIP3    H223212   6.133   6.331   3.084
 7757TIP3   OH223213   6.333   2.206   5.229
 7757TIP3    H123214   6.259   2.180   5.283
 7757TIP3    H223215   6.365   2.287   5.267
 7758TIP3   OH223216   5.152   3.450   0.399
 7758TIP3    H123217   5.184   3.400   0.323
 7758TIP3    H223218   5.168   3.392   0.474
 7759TIP3   OH223219   6.632   1.704   6.444
 7759TIP3    H123220   6.632   1.795   6.472
 7759TIP3    H223221   6.595   1.656   6.518
 7760TIP3   OH223222   4.597   5.646   2.622
 7760TIP3    H123223   4.586   5.703   2.698
 7760TIP3    H223224   4.656   5.694   2.564
 7761TIP3   OH223225   2.639   3.136   2.077
 7761TIP3    H123226   2.702   3.095   2.019
 7761TIP3    H223227   2.656   3.230   2.068
 7762TIP3   OH223228   3.901   7.399   5.710
 7762TIP3    H123229   3.806   7.402   5.699
 7762TIP3    H223230   3.930   7.489   5.693
 7763TIP3   OH223231   4.484   1.390   6.688
 7763TIP3    H123232   4.436   1.346   6.759
 7763TIP3    H223233   4.575   1.362   6.700
 7764TIP3   OH223234   2.080   0.311   4.412
 7764TIP3    H123235   2.022   0.372   4.368
 7764TIP3    H223236   2.160   0.362   4.429
 7765TIP3   OH223237   3.786   0.695   5.529
 7765TIP3    H123238   3.810   0.761   5.594
 7765TIP3    H223239   3.691   0.703   5.520
 7766TIP3   OH223240   6.707   3.857   0.854
 7766TIP3    H123241   6.729   3.949   0.872
 7766TIP3    H223242   6.774   3.807   0.900
 7767TIP3   OH223243   5.646   4.801   0.714
 7767TIP3    H123244   5.577   4.868   0.720
 7767TIP3    H223245   5.599   4.718   0.720
 7768TIP3   OH223246   5.400   1.529   3.384
 7768TIP3    H123247   5.397   1.542   3.479
 7768TIP3    H223248   5.484   1.566   3.357
 7769TIP3   OH223249   2.465   4.868   2.322
 7769TIP3    H123250   2.502   4.933   2.383
 7769TIP3    H223251   2.390   4.832   2.369
 7770TIP3   OH223252   3.696   6.549   1.498
 7770TIP3    H123253   3.754   6.473   1.501
 7770TIP3    H223254   3.746   6.615   1.449
 7771TIP3   OH223255   5.465   0.285   4.635
 7771TIP3    H123256   5.402   0.220   4.606
 7771TIP3    H223257   5.456   0.286   4.731
 7772TIP3   OH223258   1.470   6.732   3.455
 7772TIP3    H123259   1.496   6.796   3.522
 7772TIP3    H223260   1.542   6.735   3.392
 7773TIP3   OH223261   7.036   3.787   4.327
 7773TIP3    H123262   7.044   3.694   4.306
 7773TIP3    H223263   7.054   3.793   4.421
 7774TIP3   OH223264   4.181   7.078   2.917
 7774TIP3    H123265   4.210   7.029   2.993
 7774TIP3    H223266   4.104   7.126   2.947
 7775TIP3   OH223267   5.253   1.850   3.499
 7775TIP3    H123268   5.214   1.895   3.574
 7775TIP3    H223269   5.296   1.774   3.538
 7776TIP3   OH223270   1.597   5.603   5.215
 7776TIP3    H123271   1.652   5.675   5.245
 7776TIP3    H223272   1.626   5.528   5.267
 7777TIP3   OH223273   7.382   7.600   6.314
 7777TIP3    H123274   7.431   7.539   6.258
 7777TIP3    H223275   7.441   7.618   6.387
 7778TIP3   OH223276   5.704   0.783   3.417
 7778TIP3    H123277   5.647   0.753   3.488
 7778TIP3    H223278   5.778   0.721   3.418
 7779TIP3   OH223279   5.585   1.837   1.816
 7779TIP3    H123280   5.609   1.745   1.827
 7779TIP3    H223281   5.548   1.842   1.728
 7780TIP3   OH223282   1.526   3.388   4.308
 7780TIP3    H123283   1.519   3.299   4.344
 7780TIP3    H223284   1.491   3.381   4.219
 7781TIP3   OH223285   0.471   5.110   4.971
 7781TIP3    H123286   0.551   5.101   4.919
 7781TIP3    H223287   0.415   5.038   4.942
 7782TIP3   OH223288   1.859   6.912   1.367
 7782TIP3    H123289   1.818   6.954   1.443
 7782TIP3    H223290   1.861   6.980   1.300
 7783TIP3   OH223291   0.230   1.936   2.619
 7783TIP3    H123292   0.288   1.996   2.665
 7783TIP3    H223293   0.224   1.859   2.676
 7784TIP3   OH223294   2.513   4.192   1.748
 7784TIP3    H123295   2.526   4.191   1.843
 7784TIP3    H223296   2.545   4.107   1.719
 7785TIP3   OH223297   7.397   4.298   1.626
 7785TIP3    H123298   7.384   4.351   1.548
 7785TIP3    H223299   7.484   4.323   1.657
 7786TIP3   OH223300   3.467   3.305   3.208
 7786TIP3    H123301   3.442   3.396   3.188
 7786TIP3    H223302   3.439   3.255   3.131
 7787TIP3   OH223303   7.034   1.260   1.974
 7787TIP3    H123304   6.999   1.250   1.886
 7787TIP3    H223305   7.127   1.240   1.965
 7788TIP3   OH223306   4.399   3.519   1.216
 7788TIP3    H123307   4.372   3.537   1.306
 7788TIP3    H223308   4.325   3.548   1.162
 7789TIP3   OH223309   1.115   2.251   1.306
 7789TIP3    H123310   1.049   2.270   1.239
 7789TIP3    H223311   1.179   2.322   1.296
 7790TIP3   OH223312   0.124   6.783   3.278
 7790TIP3    H123313   0.035   6.803   3.248
 7790TIP3    H223314   0.132   6.688   3.267
 7791TIP3   OH223315   1.788   3.959   2.115
 7791TIP3    H123316   1.808   3.975   2.023
 7791TIP3    H223317   1.871   3.970   2.161
 7792TIP3   OH223318   3.424   5.223   2.124
 7792TIP3    H123319   3.470   5.212   2.207
 7792TIP3    H223320   3.360   5.293   2.141
 7793TIP3   OH223321   1.375   7.468   0.823
 7793TIP3    H123322   1.456   7.431   0.788
 7793TIP3    H223323   1.369   7.432   0.911
 7794TIP3   OH223324   0.108   7.098  -0.059
 7794TIP3    H123325   0.128   7.129   0.029
 7794TIP3    H223326   0.089   7.005  -0.048
 7795TIP3   OH223327   1.445   2.899   4.953
 7795TIP3    H123328   1.429   2.950   4.874
 7795TIP3    H223329   1.363   2.905   5.002
 7796TIP3   OH223330   0.089   5.453   6.308
 7796TIP3    H123331   0.088   5.411   6.394
 7796TIP3    H223332   0.148   5.399   6.256
 7797TIP3   OH223333   7.162   1.821   1.449
 7797TIP3    H123334   7.099   1.893   1.453
 7797TIP3    H223335   7.215   1.840   1.371
 7798TIP3   OH223336   2.028   7.740   1.270
 7798TIP3    H123337   2.054   7.812   1.328
 7798TIP3    H223338   2.109   7.691   1.255
 7799TIP3   OH223339   5.204   6.997   4.264
 7799TIP3    H123340   5.180   7.089   4.268
 7799TIP3    H223341   5.265   6.984   4.336
 7800TIP3   OH223342   8.281   6.069   0.012
 7800TIP3    H123343   8.218   6.136  -0.016
 7800TIP3    H223344   8.265   6.060   0.106
 7801TIP3   OH223345   7.945   1.889   3.510
 7801TIP3    H123346   7.960   1.982   3.531
 7801TIP3    H223347   7.937   1.887   3.415
 7802TIP3   OH223348   3.114   4.566   4.125
 7802TIP3    H123349   3.142   4.577   4.034
 7802TIP3    H223350   3.093   4.473   4.132
 7803TIP3   OH223351   1.546   7.690   2.682
 7803TIP3    H123352   1.504   7.657   2.602
 7803TIP3    H223353   1.477   7.738   2.727
 7804TIP3   OH223354   0.299   1.978   4.530
 7804TIP3    H123355   0.377   1.935   4.495
 7804TIP3    H223356   0.315   2.071   4.516
 7805TIP3   OH223357   2.397   5.147   6.530
 7805TIP3    H123358   2.438   5.189   6.454
 7805TIP3    H223359   2.467   5.094   6.568
 7806TIP3   OH223360   8.116   3.643   0.595
 7806TIP3    H123361   8.022   3.643   0.617
 7806TIP3    H223362   8.125   3.716   0.534
 7807TIP3   OH223363   4.433   5.129   3.501
 7807TIP3    H123364   4.428   5.123   3.596
 7807TIP3    H223365   4.359   5.183   3.476
 7808TIP3   OH223366   3.081   5.179   1.960
 7808TIP3    H123367   3.115   5.224   1.883
 7808TIP3    H223368   3.090   5.086   1.940
 7809TIP3   OH223369   6.201   5.645   4.191
 7809TIP3    H123370   6.154   5.563   4.200
 7809TIP3    H223371   6.292   5.623   4.208
 7810TIP3   OH223372   0.912   6.445   6.065
 7810TIP3    H123373   0.819   6.442   6.040
 7810TIP3    H223374   0.942   6.530   6.034
 7811TIP3   OH223375   7.213   2.762   4.911
 7811TIP3    H123376   7.209   2.720   4.997
 7811TIP3    H223377   7.123   2.788   4.892
 7812TIP3   OH223378   5.488   6.857   0.528
 7812TIP3    H123379   5.544   6.853   0.606
 7812TIP3    H223380   5.532   6.921   0.471
 7813TIP3   OH223381   3.654   7.342   2.835
 7813TIP3    H123382   3.741   7.383   2.831
 7813TIP3    H223383   3.650   7.304   2.923
 7814TIP3   OH223384   8.025   2.128   4.898
 7814TIP3    H123385   8.016   2.100   4.807
 7814TIP3    H223386   8.052   2.219   4.892
 7815TIP3   OH223387   3.514   0.843   4.914
 7815TIP3    H123388   3.555   0.756   4.919
 7815TIP3    H223389   3.585   0.904   4.934
 7816TIP3   OH223390   0.539   5.404   1.782
 7816TIP3    H123391   0.559   5.373   1.694
 7816TIP3    H223392   0.484   5.335   1.820
 7817TIP3   OH223393   3.395   7.511   3.441
 7817TIP3    H123394   3.369   7.579   3.504
 7817TIP3    H223395   3.444   7.448   3.493
 7818TIP3   OH223396   6.316   0.358   5.788
 7818TIP3    H123397   6.311   0.361   5.692
 7818TIP3    H223398   6.330   0.450   5.813
 7819TIP3   OH223399   1.816   1.039   0.588
 7819TIP3    H123400   1.736   1.001   0.552
 7819TIP3    H223401   1.805   1.133   0.577
 7820TIP3   OH223402   1.770   1.509   4.497
 7820TIP3    H123403   1.693   1.552   4.535
 7820TIP3    H223404   1.794   1.443   4.562
 7821TIP3   OH223405   2.134   7.606   3.278
 7821TIP3    H123406   2.174   7.624   3.193
 7821TIP3    H223407   2.096   7.690   3.304
 7822TIP3   OH223408   5.248   4.970   3.516
 7822TIP3    H123409   5.320   5.029   3.493
 7822TIP3    H223410   5.265   4.946   3.607
 7823TIP3   OH223411   3.741   7.163   2.207
 7823TIP3    H123412   3.748   7.114   2.289
 7823TIP3    H223413   3.821   7.216   2.203
 7824TIP3   OH223414   2.427   2.285   5.043
 7824TIP3    H123415   2.339   2.315   5.018
 7824TIP3    H223416   2.424   2.279   5.138
 7825TIP3   OH223417   3.159   2.343   2.863
 7825TIP3    H123418   3.227   2.275   2.859
 7825TIP3    H223419   3.173   2.386   2.947
 7826TIP3   OH223420   4.998   0.420   0.130
 7826TIP3    H123421   5.081   0.439   0.086
 7826TIP3    H223422   4.936   0.405   0.059
 7827TIP3   OH223423   6.715   2.933   0.566
 7827TIP3    H123424   6.671   2.937   0.481
 7827TIP3    H223425   6.697   3.018   0.606
 7828TIP3   OH223426   7.470   5.295   0.568
 7828TIP3    H123427   7.385   5.339   0.558
 7828TIP3    H223428   7.488   5.258   0.482
 7829TIP3   OH223429   4.944   5.616   0.963
 7829TIP3    H123430   5.010   5.576   0.907
 7829TIP3    H223431   4.866   5.622   0.908
 7830TIP3   OH223432   6.003   3.225   0.247
 7830TIP3    H123433   5.984   3.182   0.163
 7830TIP3    H223434   5.953   3.174   0.311
 7831TIP3   OH223435   1.172   1.218   5.987
 7831TIP3    H123436   1.257   1.243   5.951
 7831TIP3    H223437   1.144   1.294   6.037
 7832TIP3   OH223438  -0.055   5.574   3.703
 7832TIP3    H123439  -0.045   5.647   3.642
 7832TIP3    H223440   0.013   5.588   3.769
 7833TIP3   OH223441   4.481   6.516   3.862
 7833TIP3    H123442   4.386   6.512   3.873
 7833TIP3    H223443   4.495   6.532   3.769
 7834TIP3   OH223444   1.337   6.927   2.511
 7834TIP3    H123445   1.395   6.998   2.539
 7834TIP3    H223446   1.394   6.869   2.460
 7835TIP3   OH223447   1.963   2.424   6.725
 7835TIP3    H123448   1.880   2.381   6.704
 7835TIP3    H223449   2.027   2.353   6.726
 7836TIP3   OH223450   6.552   1.946   1.377
 7836TIP3    H123451   6.475   1.998   1.352
 7836TIP3    H223452   6.618   1.967   1.311
 7837TIP3   OH223453   2.248   7.310   3.922
 7837TIP3    H123454   2.335   7.313   3.961
 7837TIP3    H223455   2.197   7.254   3.980
 7838TIP3   OH223456   2.376   2.853   3.842
 7838TIP3    H123457   2.284   2.855   3.816
 7838TIP3    H223458   2.399   2.760   3.838
 7839TIP3   OH223459   2.747   4.270   3.180
 7839TIP3    H123460   2.710   4.317   3.105
 7839TIP3    H223461   2.764   4.337   3.245
 7840TIP3   OH223462   3.881   5.589   2.026
 7840TIP3    H123463   3.805   5.621   1.977
 7840TIP3    H223464   3.955   5.604   1.967
 7841TIP3   OH223465   4.055   2.937   5.491
 7841TIP3    H123466   4.098   2.858   5.524
 7841TIP3    H223467   3.962   2.919   5.501
 7842TIP3   OH223468   7.447   6.871   2.280
 7842TIP3    H123469   7.451   6.966   2.272
 7842TIP3    H223470   7.417   6.856   2.370
 7843TIP3   OH223471   7.587   4.549   3.558
 7843TIP3    H123472   7.639   4.540   3.638
 7843TIP3    H223473   7.588   4.643   3.539
 7844TIP3   OH223474   1.869   0.268   2.658
 7844TIP3    H123475   1.945   0.218   2.630
 7844TIP3    H223476   1.895   0.307   2.742
 7845TIP3   OH223477   3.110   0.210   1.020
 7845TIP3    H123478   3.191   0.244   0.980
 7845TIP3    H223479   3.132   0.198   1.112
 7846TIP3   OH223480   4.626   5.111   3.303
 7846TIP3    H123481   4.537   5.090   3.330
 7846TIP3    H223482   4.673   5.130   3.384
 7847TIP3   OH223483   7.145   1.752   6.460
 7847TIP3    H123484   7.179   1.663   6.448
 7847TIP3    H223485   7.051   1.743   6.450
 7848TIP3   OH223486   2.119   6.586   0.478
 7848TIP3    H123487   2.177   6.645   0.527
 7848TIP3    H223488   2.164   6.571   0.395
 7849TIP3   OH223489   2.820   1.099   2.052
 7849TIP3    H123490   2.759   1.144   1.994
 7849TIP3    H223491   2.775   1.095   2.136
 7850TIP3   OH223492   3.993   2.593   4.041
 7850TIP3    H123493   4.080   2.581   4.004
 7850TIP3    H223494   3.941   2.522   4.004
 7851TIP3   OH223495   6.370   2.055   6.185
 7851TIP3    H123496   6.435   2.014   6.128
 7851TIP3    H223497   6.413   2.136   6.215
 7852TIP3   OH223498   4.192   5.681   3.934
 7852TIP3    H123499   4.108   5.639   3.916
 7852TIP3    H223500   4.257   5.622   3.896
 7853TIP3   OH223501   4.532   6.426   0.985
 7853TIP3    H123502   4.605   6.442   1.045
 7853TIP3    H223503   4.454   6.434   1.039
 7854TIP3   OH223504   7.637   4.280   3.497
 7854TIP3    H123505   7.597   4.364   3.520
 7854TIP3    H223506   7.645   4.283   3.401
 7855TIP3   OH223507   6.767   0.192   0.237
 7855TIP3    H123508   6.694   0.219   0.181
 7855TIP3    H223509   6.809   0.273   0.264
 7856TIP3   OH223510   4.576   4.760   5.835
 7856TIP3    H123511   4.651   4.716   5.874
 7856TIP3    H223512   4.614   4.820   5.770
 7857TIP3   OH223513   2.149   3.996   4.724
 7857TIP3    H123514   2.127   3.914   4.682
 7857TIP3    H223515   2.203   3.971   4.799
 7858TIP3   OH223516   7.585   3.704   1.668
 7858TIP3    H123517   7.570   3.634   1.731
 7858TIP3    H223518   7.503   3.752   1.666
 7859TIP3   OH223519   0.355   6.058   1.543
 7859TIP3    H123520   0.351   6.007   1.462
 7859TIP3    H223521   0.270   6.043   1.585
 7860TIP3   OH223522   5.230   2.485   5.855
 7860TIP3    H123523   5.310   2.434   5.871
 7860TIP3    H223524   5.171   2.458   5.926
 7861TIP3   OH223525   3.862   2.700   0.991
 7861TIP3    H123526   3.850   2.790   0.959
 7861TIP3    H223527   3.773   2.667   1.001
 7862TIP3   OH223528   4.623   4.258   6.319
 7862TIP3    H123529   4.587   4.311   6.390
 7862TIP3    H223530   4.572   4.283   6.242
 7863TIP3   OH223531   6.456   1.554   3.452
 7863TIP3    H123532   6.371   1.584   3.485
 7863TIP3    H223533   6.456   1.460   3.469
 7864TIP3   OH223534   5.561   3.839   6.160
 7864TIP3    H123535   5.494   3.775   6.136
 7864TIP3    H223536   5.600   3.866   6.076
 7865TIP3   OH223537   4.488   2.637   0.869
 7865TIP3    H123538   4.553   2.622   0.937
 7865TIP3    H223539   4.466   2.730   0.878
 7866TIP3   OH223540   6.397   5.565   4.885
 7866TIP3    H123541   6.410   5.520   4.801
 7866TIP3    H223542   6.406   5.658   4.864
 7867TIP3   OH223543   2.586   1.343   1.319
 7867TIP3    H123544   2.638   1.262   1.322
 7867TIP3    H223545   2.627   1.395   1.250
 7868TIP3   OH223546   1.255   7.296   6.545
 7868TIP3    H123547   1.283   7.297   6.637
 7868TIP3    H223548   1.160   7.290   6.549
 7869TIP3   OH223549   0.050   1.030   4.212
 7869TIP3    H123550   0.135   1.072   4.197
 7869TIP3    H223551   0.054   0.950   4.160
 7870TIP3   OH223552   3.988   0.454   2.415
 7870TIP3    H123553   3.921   0.476   2.350
 7870TIP3    H223554   4.071   0.471   2.371
 7871TIP3   OH223555   3.418   6.567   1.515
 7871TIP3    H123556   3.400   6.582   1.608
 7871TIP3    H223557   3.513   6.563   1.509
 7872TIP3   OH223558   8.219   2.273   0.256
 7872TIP3    H123559   8.234   2.366   0.274
 7872TIP3    H223560   8.124   2.262   0.264
 7873TIP3   OH223561   1.196   6.818   4.331
 7873TIP3    H123562   1.170   6.820   4.239
 7873TIP3    H223563   1.289   6.798   4.330
 7874TIP3   OH223564   2.653   4.457   5.973
 7874TIP3    H123565   2.631   4.431   6.062
 7874TIP3    H223566   2.728   4.516   5.982
 7875TIP3   OH223567   2.389   1.857   2.282
 7875TIP3    H123568   2.354   1.776   2.318
 7875TIP3    H223569   2.431   1.832   2.200
 7876TIP3   OH223570   1.541   3.258   1.226
 7876TIP3    H123571   1.451   3.291   1.230
 7876TIP3    H223572   1.581   3.285   1.309
 7877TIP3   OH223573   4.549   7.621   2.937
 7877TIP3    H123574   4.521   7.687   3.000
 7877TIP3    H223575   4.589   7.552   2.990
 7878TIP3   OH223576   0.598   6.592   3.771
 7878TIP3    H123577   0.609   6.502   3.802
 7878TIP3    H223578   0.517   6.622   3.814
 7879TIP3   OH223579   1.938   4.853   0.856
 7879TIP3    H123580   2.021   4.807   0.845
 7879TIP3    H223581   1.941   4.924   0.791
 7880TIP3   OH223582   4.705   0.771   2.455
 7880TIP3    H123583   4.783   0.719   2.473
 7880TIP3    H223584   4.697   0.771   2.360
 7881TIP3   OH223585   4.625   1.514   4.650
 7881TIP3    H123586   4.592   1.591   4.604
 7881TIP3    H223587   4.716   1.536   4.670
 7882TIP3   OH223588   0.379   3.998   1.657
 7882TIP3    H123589   0.346   3.951   1.580
 7882TIP3    H223590   0.473   3.979   1.658
 7883TIP3   OH223591   5.102   3.628   2.797
 7883TIP3    H123592   5.110   3.723   2.789
 7883TIP3    H223593   5.190   3.596   2.777
 7884TIP3   OH223594   0.178   3.987   1.964
 7884TIP3    H123595   0.126   4.063   1.992
 7884TIP3    H223596   0.263   4.024   1.941
 7885TIP3   OH223597   5.878   3.164   1.248
 7885TIP3    H123598   5.874   3.227   1.320
 7885TIP3    H223599   5.792   3.124   1.247
 7886TIP3   OH223600   5.467   3.855   2.614
 7886TIP3    H123601   5.536   3.823   2.555
 7886TIP3    H223602   5.424   3.776   2.646
 7887TIP3   OH223603   5.151   5.517   2.088
 7887TIP3    H123604   5.181   5.540   2.000
 7887TIP3    H223605   5.215   5.454   2.120
 7888TIP3   OH223606   2.946   4.459   1.875
 7888TIP3    H123607   3.003   4.433   1.947
 7888TIP3    H223608   2.957   4.554   1.868
 7889TIP3   OH223609   1.745   4.181   3.097
 7889TIP3    H123610   1.679   4.117   3.069
 7889TIP3    H223611   1.766   4.230   3.017
 7890TIP3   OH223612   7.304   4.437   4.649
 7890TIP3    H123613   7.257   4.520   4.656
 7890TIP3    H223614   7.395   4.462   4.631
 7891TIP3   OH223615   5.412   4.695   4.114
 7891TIP3    H123616   5.361   4.619   4.141
 7891TIP3    H223617   5.495   4.659   4.084
 7892TIP3   OH223618   4.014   3.276   3.518
 7892TIP3    H123619   4.024   3.246   3.427
 7892TIP3    H223620   4.100   3.264   3.557
 7893TIP3   OH223621   4.814   4.773   2.094
 7893TIP3    H123622   4.750   4.737   2.155
 7893TIP3    H223623   4.893   4.720   2.108
 7894TIP3   OH223624   3.314   2.009   1.148
 7894TIP3    H123625   3.307   2.025   1.054
 7894TIP3    H223626   3.382   1.942   1.156
 7895TIP3   OH223627   7.045   0.838   4.086
 7895TIP3    H123628   7.096   0.903   4.036
 7895TIP3    H223629   6.961   0.881   4.102
 7896TIP3   OH223630   5.549   6.004   4.267
 7896TIP3    H123631   5.583   5.934   4.212
 7896TIP3    H223632   5.476   5.964   4.314
 7897TIP3   OH223633   3.706   2.341   1.504
 7897TIP3    H123634   3.725   2.320   1.413
 7897TIP3    H223635   3.689   2.256   1.545
 7898TIP3   OH223636   2.640   5.478   6.301
 7898TIP3    H123637   2.722   5.478   6.351
 7898TIP3    H223638   2.620   5.571   6.288
 7899TIP3   OH223639   8.070   0.973   1.913
 7899TIP3    H123640   8.110   0.991   1.828
 7899TIP3    H223641   8.125   0.904   1.951
 7900TIP3   OH223642   6.365   1.046   6.659
 7900TIP3    H123643   6.398   1.135   6.667
 7900TIP3    H223644   6.270   1.056   6.650
 7901TIP3   OH223645   1.376   7.339   4.704
 7901TIP3    H123646   1.384   7.252   4.744
 7901TIP3    H223647   1.293   7.373   4.738
 7902TIP3   OH223648   2.308   0.331   0.193
 7902TIP3    H123649   2.233   0.382   0.223
 7902TIP3    H223650   2.317   0.262   0.260
 7903TIP3   OH223651   0.323   0.465   5.880
 7903TIP3    H123652   0.333   0.399   5.948
 7903TIP3    H223653   0.404   0.516   5.885
 7904TIP3   OH223654   2.449   0.360   1.541
 7904TIP3    H123655   2.425   0.275   1.506
 7904TIP3    H223656   2.530   0.343   1.590
 7905TIP3   OH223657   5.037   6.509   0.910
 7905TIP3    H123658   4.986   6.586   0.887
 7905TIP3    H223659   5.076   6.531   0.995
 7906TIP3   OH223660   2.137   4.020   5.729
 7906TIP3    H123661   2.089   3.945   5.692
 7906TIP3    H223662   2.079   4.095   5.714
 7907TIP3   OH223663   4.241   2.158   2.114
 7907TIP3    H123664   4.150   2.128   2.114
 7907TIP3    H223665   4.251   2.204   2.198
 7908TIP3   OH223666   3.313   5.669   5.343
 7908TIP3    H123667   3.298   5.724   5.419
 7908TIP3    H223668   3.349   5.588   5.378
 7909TIP3   OH223669   2.673   1.132   4.913
 7909TIP3    H123670   2.746   1.072   4.920
 7909TIP3    H223671   2.678   1.167   4.824
 7910TIP3   OH223672   1.736   5.000   2.790
 7910TIP3    H123673   1.799   4.962   2.852
 7910TIP3    H223674   1.790   5.032   2.718
 7911TIP3   OH223675   2.250   0.110   4.798
 7911TIP3    H123676   2.329   0.135   4.751
 7911TIP3    H223677   2.257   0.014   4.806
 7912TIP3   OH223678   1.936   4.157   3.827
 7912TIP3    H123679   1.918   4.202   3.909
 7912TIP3    H223680   1.889   4.207   3.761
 7913TIP3   OH223681   2.097   1.736   2.845
 7913TIP3    H123682   2.102   1.749   2.751
 7913TIP3    H223683   2.004   1.744   2.866
 7914TIP3   OH223684   5.158   2.002   3.716
 7914TIP3    H123685   5.154   2.089   3.677
 7914TIP3    H223686   5.073   1.990   3.758
 7915TIP3   OH223687   2.456   3.562   0.833
 7915TIP3    H123688   2.528   3.592   0.888
 7915TIP3    H223689   2.382   3.556   0.893
 7916TIP3   OH223690   2.606   6.551   4.852
 7916TIP3    H123691   2.597   6.525   4.760
 7916TIP3    H223692   2.580   6.643   4.854
 7917TIP3   OH223693   6.402   2.865   3.326
 7917TIP3    H123694   6.389   2.918   3.248
 7917TIP3    H223695   6.397   2.927   3.398
 7918TIP3   OH223696   0.808   7.448   2.972
 7918TIP3    H123697   0.881   7.385   2.974
 7918TIP3    H223698   0.769   7.436   2.886
 7919TIP3   OH223699   4.267   6.577   0.110
 7919TIP3    H123700   4.266   6.553   0.017
 7919TIP3    H223701   4.186   6.625   0.124
 7920TIP3   OH223702   1.787   4.166   1.650
 7920TIP3    H123703   1.813   4.256   1.670
 7920TIP3    H223704   1.859   4.113   1.683
 7921TIP3   OH223705   1.574   6.131   4.208
 7921TIP3    H123706   1.637   6.083   4.261
 7921TIP3    H223707   1.623   6.158   4.131
 7922TIP3   OH223708   1.245   1.674   4.833
 7922TIP3    H123709   1.286   1.742   4.888
 7922TIP3    H223710   1.152   1.682   4.852
 7923TIP3   OH223711   0.482   4.552   2.374
 7923TIP3    H123712   0.495   4.538   2.468
 7923TIP3    H223713   0.521   4.475   2.333
 7924TIP3   OH223714   3.482   7.366   5.114
 7924TIP3    H123715   3.534   7.361   5.034
 7924TIP3    H223716   3.401   7.318   5.094
 7925TIP3   OH223717   4.579   1.070   3.457
 7925TIP3    H123718   4.671   1.083   3.435
 7925TIP3    H223719   4.533   1.138   3.408
 7926TIP3   OH223720   7.979   3.563   4.138
 7926TIP3    H123721   8.065   3.604   4.146
 7926TIP3    H223722   7.960   3.563   4.044
 7927TIP3   OH223723   3.436   6.650   5.592
 7927TIP3    H123724   3.478   6.617   5.672
 7927TIP3    H223725   3.343   6.635   5.606
 7928TIP3   OH223726   6.977   2.994   2.501
 7928TIP3    H123727   6.932   2.916   2.469
 7928TIP3    H223728   6.992   3.047   2.423
 7929TIP3   OH223729   4.053   3.039   5.737
 7929TIP3    H123730   4.142   3.054   5.769
 7929TIP3    H223731   4.061   3.042   5.642
 7930TIP3   OH223732   7.278   5.373   3.487
 7930TIP3    H123733   7.198   5.367   3.540
 7930TIP3    H223734   7.273   5.298   3.428
 7931TIP3   OH223735   1.030   5.916   3.728
 7931TIP3    H123736   1.030   5.988   3.792
 7931TIP3    H223737   0.996   5.841   3.777
 7932TIP3   OH223738   6.035   2.123   4.293
 7932TIP3    H123739   6.112   2.129   4.236
 7932TIP3    H223740   5.971   2.182   4.253
 7933TIP3   OH223741   7.380   3.525   6.588
 7933TIP3    H123742   7.295   3.483   6.600
 7933TIP3    H223743   7.412   3.541   6.676
 7934TIP3   OH223744   1.272   2.086   4.760
 7934TIP3    H123745   1.360   2.050   4.774
 7934TIP3    H223746   1.279   2.177   4.787
 7935TIP3   OH223747   3.910   2.084   1.566
 7935TIP3    H123748   3.934   2.064   1.475
 7935TIP3    H223749   3.818   2.059   1.573
 7936TIP3   OH223750   6.886   1.269   0.332
 7936TIP3    H123751   6.793   1.267   0.354
 7936TIP3    H223752   6.900   1.357   0.297
 7937TIP3   OH223753   0.037   5.661   6.165
 7937TIP3    H123754   0.048   5.585   6.222
 7937TIP3    H223755   0.091   5.642   6.088
 7938TIP3   OH223756   2.191   4.813   1.565
 7938TIP3    H123757   2.182   4.741   1.503
 7938TIP3    H223758   2.114   4.868   1.550
 7939TIP3   OH223759   5.270   5.658   5.559
 7939TIP3    H123760   5.361   5.654   5.589
 7939TIP3    H223761   5.263   5.589   5.494
 7940TIP3   OH223762   5.902   3.855   6.399
 7940TIP3    H123763   5.988   3.886   6.427
 7940TIP3    H223764   5.886   3.899   6.316
 7941TIP3   OH223765   5.495   5.297   5.580
 7941TIP3    H123766   5.409   5.310   5.539
 7941TIP3    H223767   5.478   5.296   5.674
 7942TIP3   OH223768   6.300   7.437   3.563
 7942TIP3    H123769   6.322   7.350   3.596
 7942TIP3    H223770   6.213   7.427   3.524
 7943TIP3   OH223771   3.578   2.976   0.164
 7943TIP3    H123772   3.665   3.012   0.146
 7943TIP3    H223773   3.596   2.888   0.199
 7944TIP3   OH223774   6.791   0.494   1.965
 7944TIP3    H123775   6.844   0.472   2.041
 7944TIP3    H223776   6.854   0.499   1.892
 7945TIP3   OH223777   4.011   3.488   1.289
 7945TIP3    H123778   4.038   3.399   1.307
 7945TIP3    H223779   4.085   3.527   1.243
 7946TIP3   OH223780   5.955   2.532   4.496
 7946TIP3    H123781   5.984   2.584   4.421
 7946TIP3    H223782   5.905   2.460   4.457
 7947TIP3   OH223783   4.105   2.354   5.124
 7947TIP3    H123784   4.014   2.341   5.097
 7947TIP3    H223785   4.157   2.311   5.056
 7948TIP3   OH223786   6.982   0.792   4.931
 7948TIP3    H123787   6.996   0.885   4.943
 7948TIP3    H223788   6.888   0.784   4.916
 7949TIP3   OH223789   7.314   3.141   4.826
 7949TIP3    H123790   7.246   3.140   4.894
 7949TIP3    H223791   7.295   3.220   4.775
 7950TIP3   OH223792   4.389   2.572   4.500
 7950TIP3    H123793   4.435   2.513   4.439
 7950TIP3    H223794   4.457   2.628   4.536
 7951TIP3   OH223795   8.151   4.867   2.030
 7951TIP3    H123796   8.233   4.818   2.029
 7951TIP3    H223797   8.177   4.956   2.054
 7952TIP3   OH223798   1.801   0.201   3.189
 7952TIP3    H123799   1.794   0.295   3.177
 7952TIP3    H223800   1.792   0.164   3.101
 7953TIP3   OH223801   2.368   4.839   2.059
 7953TIP3    H123802   2.410   4.870   2.139
 7953TIP3    H223803   2.353   4.919   2.008
 7954TIP3   OH223804   1.903   6.013   3.496
 7954TIP3    H123805   1.817   5.981   3.467
 7954TIP3    H223806   1.883   6.083   3.558
 7955TIP3   OH223807   7.244   3.967   6.415
 7955TIP3    H123808   7.256   3.872   6.415
 7955TIP3    H223809   7.315   4.000   6.470
 7956TIP3   OH223810   2.025   1.951   3.749
 7956TIP3    H123811   1.943   1.936   3.795
 7956TIP3    H223812   2.092   1.920   3.810
 7957TIP3   OH223813   6.118   4.047   4.588
 7957TIP3    H123814   6.119   4.139   4.561
 7957TIP3    H223815   6.209   4.028   4.613
 7958TIP3   OH223816   2.586   0.980   4.204
 7958TIP3    H123817   2.618   0.921   4.135
 7958TIP3    H223818   2.646   0.968   4.277
 7959TIP3   OH223819   1.772   1.685   0.880
 7959TIP3    H123820   1.864   1.706   0.896
 7959TIP3    H223821   1.725   1.768   0.894
 7960TIP3   OH223822   0.814   6.564   2.113
 7960TIP3    H123823   0.902   6.601   2.102
 7960TIP3    H223824   0.830   6.474   2.143
 7961TIP3   OH223825   1.950   6.354   1.623
 7961TIP3    H123826   2.036   6.319   1.648
 7961TIP3    H223827   1.961   6.381   1.531
 7962TIP3   OH223828   2.169   6.167   4.531
 7962TIP3    H123829   2.123   6.184   4.448
 7962TIP3    H223830   2.108   6.194   4.599
 7963TIP3   OH223831   2.124   1.657   5.223
 7963TIP3    H123832   2.064   1.729   5.245
 7963TIP3    H223833   2.167   1.635   5.306
 7964TIP3   OH223834   0.890   3.320   2.661
 7964TIP3    H123835   0.983   3.341   2.667
 7964TIP3    H223836   0.863   3.307   2.752
 7965TIP3   OH223837   4.175   3.517   6.618
 7965TIP3    H123838   4.222   3.591   6.579
 7965TIP3    H223839   4.243   3.470   6.667
 7966TIP3   OH223840   5.085   6.181   3.737
 7966TIP3    H123841   5.041   6.260   3.766
 7966TIP3    H223842   5.178   6.204   3.733
 7967TIP3   OH223843   3.424   0.634   2.949
 7967TIP3    H123844   3.497   0.596   2.901
 7967TIP3    H223845   3.359   0.564   2.955
 7968TIP3   OH223846   6.908   7.698   0.434
 7968TIP3    H123847   6.955   7.657   0.507
 7968TIP3    H223848   6.818   7.707   0.465
 7969TIP3   OH223849   3.255   2.009   0.300
 7969TIP3    H123850   3.235   2.085   0.245
 7969TIP3    H223851   3.267   1.937   0.239
 7970TIP3   OH223852   0.048   6.630   1.285
 7970TIP3    H123853   0.033   6.542   1.319
 7970TIP3    H223854   0.030   6.623   1.191
 7971TIP3   OH223855   6.310   5.169   2.404
 7971TIP3    H123856   6.270   5.178   2.490
 7971TIP3    H223857   6.242   5.130   2.349
 7972TIP3   OH223858   1.558   4.736   3.062
 7972TIP3    H123859   1.518   4.820   3.037
 7972TIP3    H223860   1.520   4.672   3.002
 7973TIP3   OH223861   5.021   5.100   3.637
 7973TIP3    H123862   5.073   5.029   3.597
 7973TIP3    H223863   5.006   5.070   3.727
 7974TIP3   OH223864   0.860   1.178   5.886
 7974TIP3    H123865   0.860   1.111   5.818
 7974TIP3    H223866   0.847   1.129   5.967
 7975TIP3   OH223867   1.233   5.688   4.844
 7975TIP3    H123868   1.298   5.620   4.861
 7975TIP3    H223869   1.230   5.696   4.749
 7976TIP3   OH223870   3.084   5.886   2.490
 7976TIP3    H123871   3.098   5.891   2.584
 7976TIP3    H223872   2.989   5.883   2.479
 7977TIP3   OH223873   5.287   7.377   0.738
 7977TIP3    H123874   5.197   7.408   0.727
 7977TIP3    H223875   5.303   7.323   0.660
 7978TIP3   OH223876   0.982   5.401   4.690
 7978TIP3    H123877   1.003   5.307   4.697
 7978TIP3    H223878   0.893   5.408   4.724
 7979TIP3   OH223879   3.802   7.820   4.775
 7979TIP3    H123880   3.778   7.754   4.711
 7979TIP3    H223881   3.814   7.771   4.857
 7980TIP3   OH223882   0.282   1.565   0.533
 7980TIP3    H123883   0.359   1.511   0.549
 7980TIP3    H223884   0.295   1.599   0.444
 7981TIP3   OH223885   6.256   5.634   1.366
 7981TIP3    H123886   6.290   5.722   1.380
 7981TIP3    H223887   6.162   5.641   1.385
 7982TIP3   OH223888   8.059   4.058   1.493
 7982TIP3    H123889   7.975   4.029   1.457
 7982TIP3    H223890   8.105   3.977   1.514
 7983TIP3   OH223891   0.720   2.117   4.160
 7983TIP3    H123892   0.760   2.195   4.197
 7983TIP3    H223893   0.786   2.048   4.170
 7984TIP3   OH223894   6.672   1.042   0.199
 7984TIP3    H123895   6.626   1.046   0.115
 7984TIP3    H223896   6.765   1.049   0.175
 7985TIP3   OH223897   0.203   3.644   1.415
 7985TIP3    H123898   0.256   3.693   1.352
 7985TIP3    H223899   0.266   3.611   1.480
 7986TIP3   OH223900   2.053   0.732   4.162
 7986TIP3    H123901   2.042   0.645   4.124
 7986TIP3    H223902   2.024   0.723   4.253
 7987TIP3   OH223903   1.773   5.909   6.572
 7987TIP3    H123904   1.847   5.850   6.560
 7987TIP3    H223905   1.791   5.982   6.512
 7988TIP3   OH223906   8.126   3.879   1.259
 7988TIP3    H123907   8.073   3.839   1.328
 7988TIP3    H223908   8.076   3.866   1.179
 7989TIP3   OH223909   3.832   2.167   3.855
 7989TIP3    H123910   3.754   2.149   3.909
 7989TIP3    H223911   3.906   2.141   3.910
 7990TIP3   OH223912   4.547   1.576   4.920
 7990TIP3    H123913   4.632   1.547   4.953
 7990TIP3    H223914   4.567   1.617   4.836
 7991TIP3   OH223915   0.298   2.740   2.896
 7991TIP3    H123916   0.309   2.688   2.816
 7991TIP3    H223917   0.203   2.752   2.903
 7992TIP3   OH223918   0.841   3.512   3.513
 7992TIP3    H123919   0.858   3.454   3.439
 7992TIP3    H223920   0.801   3.590   3.473
 7993TIP3   OH223921   4.339   7.027   2.247
 7993TIP3    H123922   4.324   7.026   2.152
 7993TIP3    H223923   4.257   7.059   2.285
 7994TIP3   OH223924   1.477   4.166   1.449
 7994TIP3    H123925   1.447   4.257   1.442
 7994TIP3    H223926   1.573   4.172   1.441
 7995TIP3   OH223927   1.294   2.922   0.460
 7995TIP3    H123928   1.314   2.848   0.517
 7995TIP3    H223929   1.340   2.903   0.378
 7996TIP3   OH223930   0.050   3.793   1.789
 7996TIP3    H123931   0.135   3.836   1.798
 7996TIP3    H223932  -0.012   3.854   1.829
 7997TIP3   OH223933   0.392   1.757   6.384
 7997TIP3    H123934   0.369   1.724   6.471
 7997TIP3    H223935   0.362   1.688   6.324
 7998TIP3   OH223936   7.019   2.161   0.193
 7998TIP3    H123937   6.925   2.163   0.208
 7998TIP3    H223938   7.031   2.112   0.112
 7999TIP3   OH223939   1.369   4.288   3.798
 7999TIP3    H123940   1.460   4.303   3.822
 7999TIP3    H223941   1.321   4.360   3.839
 8000TIP3   OH223942   3.336   1.308   4.431
 8000TIP3    H123943   3.304   1.230   4.386
 8000TIP3    H223944   3.324   1.379   4.368
 8001TIP3   OH223945   1.747   0.869   4.174
 8001TIP3    H123946   1.732   0.779   4.145
 8001TIP3    H223947   1.840   0.885   4.157
 8002TIP3   OH223948   7.268   4.743   3.433
 8002TIP3    H123949   7.265   4.651   3.410
 8002TIP3    H223950   7.325   4.748   3.509
 8003TIP3   OH223951   1.172   2.503   2.328
 8003TIP3    H123952   1.109   2.485   2.259
 8003TIP3    H223953   1.149   2.441   2.398
 8004TIP3   OH223954   4.635   6.024   1.272
 8004TIP3    H123955   4.544   5.999   1.290
 8004TIP3    H223956   4.668   6.055   1.357
 8005TIP3   OH223957   1.915   6.613   3.029
 8005TIP3    H123958   1.822   6.595   3.019
 8005TIP3    H223959   1.956   6.527   3.037
 8006TIP3   OH223960   3.146   6.008   5.998
 8006TIP3    H123961   3.072   5.989   5.941
 8006TIP3    H223962   3.114   5.991   6.087
 8007TIP3   OH223963   1.336   4.313   1.875
 8007TIP3    H123964   1.419   4.268   1.862
 8007TIP3    H223965   1.296   4.314   1.787
 8008TIP3   OH223966   1.354   5.569   3.262
 8008TIP3    H123967   1.395   5.631   3.202
 8008TIP3    H223968   1.425   5.513   3.292
 8009TIP3   OH223969   1.545   4.522   0.346
 8009TIP3    H123970   1.454   4.545   0.365
 8009TIP3    H223971   1.574   4.588   0.283
 8010TIP3   OH223972   7.769   4.486   2.543
 8010TIP3    H123973   7.728   4.401   2.558
 8010TIP3    H223974   7.848   4.465   2.494
 8011TIP3   OH223975   2.387   1.896   5.696
 8011TIP3    H123976   2.308   1.946   5.718
 8011TIP3    H223977   2.459   1.949   5.729
 8012TIP3   OH223978   5.250   2.203   5.899
 8012TIP3    H123979   5.205   2.163   5.825
 8012TIP3    H223980   5.180   2.238   5.954
 8013TIP3   OH223981   7.493   0.431   0.351
 8013TIP3    H123982   7.574   0.395   0.316
 8013TIP3    H223983   7.425   0.369   0.323
 8014TIP3   OH223984   2.075   2.321   1.608
 8014TIP3    H123985   2.057   2.258   1.678
 8014TIP3    H223986   2.069   2.406   1.652
 8015TIP3   OH223987   2.158   2.665   4.754
 8015TIP3    H123988   2.124   2.599   4.693
 8015TIP3    H223989   2.110   2.648   4.835
 8016TIP3   OH223990   5.062   4.588   1.228
 8016TIP3    H123991   5.020   4.663   1.185
 8016TIP3    H223992   4.999   4.560   1.294
 8017TIP3   OH223993   3.274   2.342   2.495
 8017TIP3    H123994   3.271   2.427   2.451
 8017TIP3    H223995   3.211   2.289   2.446
 8018TIP3   OH223996   7.225   7.352   4.391
 8018TIP3    H123997   7.304   7.307   4.419
 8018TIP3    H223998   7.242   7.445   4.407
 8019TIP3   OH223999   8.249   4.390   3.824
 8019TIP3    H124000   8.170   4.444   3.826
 8019TIP3    H224001   8.313   4.440   3.875
 8020TIP3   OH224002   2.293   3.643   4.959
 8020TIP3    H124003   2.296   3.575   5.027
 8020TIP3    H224004   2.368   3.699   4.979
 8021TIP3   OH224005   5.039   3.584   4.125
 8021TIP3    H124006   4.951   3.603   4.157
 8021TIP3    H224007   5.095   3.587   4.202
 8022TIP3   OH224008   7.150   6.905   5.240
 8022TIP3    H124009   7.114   6.847   5.173
 8022TIP3    H224010   7.245   6.906   5.222
 8023TIP3   OH224011   2.580   7.773   6.186
 8023TIP3    H124012   2.636   7.706   6.144
 8023TIP3    H224013   2.642   7.837   6.220
 8024TIP3   OH224014   7.702   5.803   6.483
 8024TIP3    H124015   7.733   5.849   6.561
 8024TIP3    H224016   7.607   5.807   6.489
 8025TIP3   OH224017   4.846   4.326   0.938
 8025TIP3    H124018   4.819   4.339   1.029
 8025TIP3    H224019   4.773   4.279   0.897
 8026TIP3   OH224020   2.390   3.056   2.826
 8026TIP3    H124021   2.434   3.067   2.911
 8026TIP3    H224022   2.297   3.059   2.847
 8027TIP3   OH224023   5.729   1.636   0.668
 8027TIP3    H124024   5.775   1.554   0.687
 8027TIP3    H224025   5.636   1.613   0.674
 8028TIP3   OH224026   1.611   3.505   4.706
 8028TIP3    H124027   1.695   3.465   4.684
 8028TIP3    H224028   1.553   3.432   4.726
 8029TIP3   OH224029   7.410   2.263   2.181
 8029TIP3    H124030   7.468   2.297   2.112
 8029TIP3    H224031   7.457   2.187   2.215
 8030TIP3   OH224032   5.380   2.419   6.482
 8030TIP3    H124033   5.468   2.390   6.458
 8030TIP3    H224034   5.321   2.360   6.434
 8031TIP3   OH224035   6.829   5.150   2.103
 8031TIP3    H124036   6.910   5.177   2.147
 8031TIP3    H224037   6.760   5.182   2.160
 8032TIP3   OH224038   7.361   7.400   4.028
 8032TIP3    H124039   7.376   7.374   3.937
 8032TIP3    H224040   7.373   7.320   4.078
 8033TIP3   OH224041   7.776   6.594   3.683
 8033TIP3    H124042   7.738   6.506   3.682
 8033TIP3    H224043   7.714   6.648   3.635
 8034TIP3   OH224044   5.789   7.315   0.405
 8034TIP3    H124045   5.702   7.332   0.442
 8034TIP3    H224046   5.849   7.330   0.478
 8035TIP3   OH224047   7.371   3.128   5.754
 8035TIP3    H124048   7.443   3.135   5.691
 8035TIP3    H224049   7.294   3.110   5.700
 8036TIP3   OH224050   6.691   6.540   2.706
 8036TIP3    H124051   6.704   6.627   2.744
 8036TIP3    H224052   6.765   6.488   2.737
 8037TIP3   OH224053   0.927   7.512   1.690
 8037TIP3    H124054   0.851   7.466   1.654
 8037TIP3    H224055   0.893   7.559   1.766
 8038TIP3   OH224056   6.001   5.725   5.756
 8038TIP3    H124057   6.031   5.793   5.817
 8038TIP3    H224058   6.006   5.766   5.670
 8039TIP3   OH224059   1.306   3.654   0.432
 8039TIP3    H124060   1.345   3.621   0.351
 8039TIP3    H224061   1.231   3.597   0.448
 8040TIP3   OH224062   1.346   1.418   4.223
 8040TIP3    H124063   1.381   1.329   4.226
 8040TIP3    H224064   1.383   1.455   4.143
 8041TIP3   OH224065   7.445   7.662   3.586
 8041TIP3    H124066   7.403   7.707   3.513
 8041TIP3    H224067   7.373   7.633   3.642
 8042TIP3   OH224068   1.235   0.766   2.145
 8042TIP3    H124069   1.251   0.677   2.176
 8042TIP3    H224070   1.282   0.821   2.208
 8043TIP3   OH224071   1.167   5.612   3.006
 8043TIP3    H124072   1.261   5.631   3.016
 8043TIP3    H224073   1.127   5.697   2.992
 8044TIP3   OH224074   0.687   2.662   6.331
 8044TIP3    H124075   0.747   2.723   6.374
 8044TIP3    H224076   0.629   2.718   6.279
 8045TIP3   OH224077   5.526   7.729   1.810
 8045TIP3    H124078   5.482   7.717   1.726
 8045TIP3    H224079   5.619   7.735   1.788
 8046TIP3   OH224080   8.068   6.047   5.745
 8046TIP3    H124081   8.022   6.106   5.805
 8046TIP3    H224082   8.138   6.009   5.798
 8047TIP3   OH224083   8.041   7.596   4.254
 8047TIP3    H124084   8.003   7.527   4.200
 8047TIP3    H224085   8.107   7.551   4.307
 8048TIP3   OH224086   4.276   6.857   0.848
 8048TIP3    H124087   4.193   6.904   0.856
 8048TIP3    H224088   4.343   6.922   0.869
 8049TIP3   OH224089   2.648   1.019   1.673
 8049TIP3    H124090   2.726   1.066   1.702
 8049TIP3    H224091   2.584   1.035   1.743
 8050TIP3   OH224092   6.010   3.254   6.643
 8050TIP3    H124093   6.020   3.166   6.680
 8050TIP3    H224094   6.091   3.300   6.668
 8051TIP3   OH224095   5.994   0.166   6.753
 8051TIP3    H124096   6.004   0.079   6.713
 8051TIP3    H224097   6.015   0.153   6.845
 8052TIP3   OH224098   7.032   6.670   4.602
 8052TIP3    H124099   7.025   6.758   4.564
 8052TIP3    H224100   7.120   6.640   4.579
 8053TIP3   OH224101   1.219   4.482   1.166
 8053TIP3    H124102   1.198   4.521   1.251
 8053TIP3    H224103   1.289   4.537   1.132
 8054TIP3   OH224104   7.784   0.941   1.882
 8054TIP3    H124105   7.796   1.021   1.829
 8054TIP3    H224106   7.872   0.922   1.915
 8055TIP3   OH224107   5.699   1.244   5.724
 8055TIP3    H124108   5.699   1.149   5.737
 8055TIP3    H224109   5.606   1.268   5.725
 8056TIP3   OH224110   6.400   3.296   2.362
 8056TIP3    H124111   6.349   3.302   2.443
 8056TIP3    H224112   6.471   3.360   2.373
 8057TIP3   OH224113   4.789   5.099   4.022
 8057TIP3    H124114   4.725   5.030   4.039
 8057TIP3    H224115   4.846   5.098   4.098
 8058TIP3   OH224116   6.716   4.427   3.216
 8058TIP3    H124117   6.635   4.452   3.261
 8058TIP3    H224118   6.687   4.390   3.133
 8059TIP3   OH224119   4.165   1.119   2.382
 8059TIP3    H124120   4.252   1.083   2.364
 8059TIP3    H224121   4.119   1.049   2.429
 8060TIP3   OH224122   6.640   3.871   5.331
 8060TIP3    H124123   6.603   3.861   5.419
 8060TIP3    H224124   6.685   3.789   5.314
 8061TIP3   OH224125   1.526   7.151   1.743
 8061TIP3    H124126   1.479   7.071   1.719
 8061TIP3    H224127   1.482   7.221   1.695
 8062TIP3   OH224128   5.487   4.257   1.855
 8062TIP3    H124129   5.452   4.335   1.812
 8062TIP3    H224130   5.467   4.185   1.795
 8063TIP3   OH224131   1.836   7.615   4.609
 8063TIP3    H124132   1.919   7.644   4.572
 8063TIP3    H224133   1.829   7.523   4.583
 8064TIP3   OH224134   2.694   6.666   2.800
 8064TIP3    H124135   2.710   6.601   2.868
 8064TIP3    H224136   2.600   6.684   2.806
 8065TIP3   OH224137   7.582   4.426   4.601
 8065TIP3    H124138   7.630   4.375   4.666
 8065TIP3    H224139   7.650   4.473   4.552
 8066TIP3   OH224140   3.831   5.954   4.379
 8066TIP3    H124141   3.744   5.951   4.418
 8066TIP3    H224142   3.885   6.002   4.442
 8067TIP3   OH224143   3.191   5.500   1.182
 8067TIP3    H124144   3.205   5.466   1.093
 8067TIP3    H224145   3.195   5.595   1.173
 8068TIP3   OH224146   6.004   6.644   3.151
 8068TIP3    H124147   5.969   6.557   3.167
 8068TIP3    H224148   5.983   6.662   3.059
 8069TIP3   OH224149   4.756   1.177   3.939
 8069TIP3    H124150   4.708   1.150   3.860
 8069TIP3    H224151   4.748   1.102   3.998
 8070TIP3   OH224152   0.027   6.442   3.438
 8070TIP3    H124153   0.030   6.385   3.361
 8070TIP3    H224154   0.117   6.470   3.452
 8071TIP3   OH224155   7.499   3.151   6.496
 8071TIP3    H124156   7.488   3.062   6.461
 8071TIP3    H224157   7.505   3.206   6.418
 8072TIP3   OH224158   7.102   3.173   5.412
 8072TIP3    H124159   7.082   3.084   5.382
 8072TIP3    H224160   7.197   3.179   5.406
 8073TIP3   OH224161   0.081   2.999   2.510
 8073TIP3    H124162   0.114   2.965   2.427
 8073TIP3    H224163   0.010   2.939   2.534
 8074TIP3   OH224164   7.442   5.224   6.453
 8074TIP3    H124165   7.432   5.264   6.366
 8074TIP3    H224166   7.352   5.219   6.487
 8075TIP3   OH224167   6.429   6.100   2.247
 8075TIP3    H124168   6.395   6.189   2.257
 8075TIP3    H224169   6.356   6.043   2.273
 8076TIP3   OH224170   3.173   3.585   0.039
 8076TIP3    H124171   3.144   3.623   0.122
 8076TIP3    H224172   3.167   3.657  -0.024
 8077TIP3   OH224173   0.109   7.577   5.304
 8077TIP3    H124174   0.180   7.547   5.249
 8077TIP3    H224175   0.123   7.671   5.313
 8078TIP3   OH224176   2.019   4.000   2.276
 8078TIP3    H124177   2.042   4.072   2.216
 8078TIP3    H224178   2.089   3.936   2.263
 8079TIP3   OH224179   7.869   2.426   1.005
 8079TIP3    H124180   7.840   2.335   1.008
 8079TIP3    H224181   7.868   2.448   0.912
 8080TIP3   OH224182   4.223   4.598   0.573
 8080TIP3    H124183   4.316   4.619   0.575
 8080TIP3    H224184   4.183   4.672   0.527
 8081TIP3   OH224185   6.185   1.264   1.538
 8081TIP3    H124186   6.173   1.359   1.537
 8081TIP3    H224187   6.279   1.251   1.528
 8082TIP3   OH224188   3.859   7.396   1.405
 8082TIP3    H124189   3.785   7.345   1.439
 8082TIP3    H224190   3.933   7.335   1.408
 8083TIP3   OH224191   5.551   5.911   5.699
 8083TIP3    H124192   5.590   5.955   5.623
 8083TIP3    H224193   5.545   5.819   5.672
 8084TIP3   OH224194   0.352   1.523   2.922
 8084TIP3    H124195   0.402   1.496   3.000
 8084TIP3    H224196   0.304   1.444   2.896
 8085TIP3   OH224197   5.791   4.568   0.944
 8085TIP3    H124198   5.857   4.545   1.009
 8085TIP3    H224199   5.835   4.556   0.860
 8086TIP3   OH224200   7.056   4.790   4.154
 8086TIP3    H124201   7.149   4.812   4.144
 8086TIP3    H224202   7.034   4.743   4.074
 8087TIP3   OH224203   6.865   5.743   5.774
 8087TIP3    H124204   6.944   5.689   5.776
 8087TIP3    H224205   6.805   5.701   5.835
 8088TIP3   OH224206   5.336   0.872   0.885
 8088TIP3    H124207   5.372   0.959   0.869
 8088TIP3    H224208   5.271   0.885   0.954
 8089TIP3   OH224209   6.938   7.265   6.148
 8089TIP3    H124210   7.017   7.305   6.112
 8089TIP3    H224211   6.925   7.186   6.095
 8090TIP3   OH224212   2.740   2.516   5.262
 8090TIP3    H124213   2.728   2.466   5.343
 8090TIP3    H224214   2.686   2.594   5.273
 8091TIP3   OH224215   0.190   5.989   2.800
 8091TIP3    H124216   0.193   5.902   2.840
 8091TIP3    H224217   0.098   6.002   2.779
 8092TIP3   OH224218   0.764   5.713   1.915
 8092TIP3    H124219   0.807   5.629   1.934
 8092TIP3    H224220   0.808   5.746   1.837
 8093TIP3   OH224221   1.554   4.632   4.643
 8093TIP3    H124222   1.571   4.570   4.573
 8093TIP3    H224223   1.512   4.706   4.600
 8094TIP3   OH224224   5.320   2.020   0.632
 8094TIP3    H124225   5.227   2.039   0.637
 8094TIP3    H224226   5.358   2.070   0.705
 8095TIP3   OH224227   3.968   6.025   4.118
 8095TIP3    H124228   3.911   5.992   4.187
 8095TIP3    H224229   4.043   5.966   4.120
 8096TIP3   OH224230   5.646   6.453   4.473
 8096TIP3    H124231   5.687   6.533   4.506
 8096TIP3    H224232   5.574   6.436   4.534
 8097TIP3   OH224233   2.014   3.792   5.624
 8097TIP3    H124234   2.022   3.801   5.530
 8097TIP3    H224235   1.968   3.709   5.637
 8098TIP3   OH224236   1.027   0.741   1.993
 8098TIP3    H124237   1.087   0.736   2.068
 8098TIP3    H224238   0.948   0.696   2.023
 8099TIP3   OH224239   1.950   3.381   2.072
 8099TIP3    H124240   1.976   3.445   2.138
 8099TIP3    H224241   1.868   3.345   2.105
 8100TIP3   OH224242   4.858   1.458   1.657
 8100TIP3    H124243   4.932   1.476   1.715
 8100TIP3    H224244   4.833   1.368   1.678
 8101TIP3   OH224245   4.145   6.765   6.100
 8101TIP3    H124246   4.073   6.816   6.061
 8101TIP3    H224247   4.167   6.700   6.034
 8102TIP3   OH224248   1.411   2.967   4.269
 8102TIP3    H124249   1.368   2.981   4.353
 8102TIP3    H224250   1.352   3.008   4.205
 8103TIP3   OH224251   8.056   5.063   5.798
 8103TIP3    H124252   7.983   5.123   5.812
 8103TIP3    H224253   8.073   5.026   5.885
 8104TIP3   OH224254   6.025   4.478   3.113
 8104TIP3    H124255   6.002   4.408   3.174
 8104TIP3    H224256   6.005   4.442   3.026
 8105TIP3   OH224257   2.611   6.159   5.165
 8105TIP3    H124258   2.652   6.230   5.116
 8105TIP3    H224259   2.601   6.194   5.254
 8106TIP3   OH224260   1.699   5.080   5.974
 8106TIP3    H124261   1.640   5.152   5.993
 8106TIP3    H224262   1.740   5.059   6.057
 8107TIP3   OH224263   6.550   2.138   3.202
 8107TIP3    H124264   6.477   2.159   3.144
 8107TIP3    H224265   6.626   2.134   3.145
 8108TIP3   OH224266   7.265   0.054   3.591
 8108TIP3    H124267   7.324   0.004   3.648
 8108TIP3    H224268   7.259   0.002   3.511
 8109TIP3   OH224269   5.499   7.383   4.945
 8109TIP3    H124270   5.494   7.411   4.854
 8109TIP3    H224271   5.532   7.459   4.992
 8110TIP3   OH224272   4.143   3.610   5.800
 8110TIP3    H124273   4.112   3.611   5.890
 8110TIP3    H224274   4.226   3.658   5.803
 8111TIP3   OH224275   5.599   3.794   3.232
 8111TIP3    H124276   5.668   3.820   3.293
 8111TIP3    H224277   5.532   3.754   3.288
 8112TIP3   OH224278   6.821   5.098   4.060
 8112TIP3    H124279   6.752   5.034   4.048
 8112TIP3    H224280   6.807   5.161   3.989
 8113TIP3   OH224281   6.077   1.015   5.835
 8113TIP3    H124282   6.036   1.061   5.763
 8113TIP3    H224283   6.053   0.923   5.822
 8114TIP3   OH224284   5.514   1.476   1.606
 8114TIP3    H124285   5.533   1.403   1.665
 8114TIP3    H224286   5.600   1.511   1.582
 8115TIP3   OH224287   0.803   2.728   4.327
 8115TIP3    H124288   0.886   2.761   4.362
 8115TIP3    H224289   0.766   2.802   4.279
 8116TIP3   OH224290   1.658   0.594   2.400
 8116TIP3    H124291   1.726   0.557   2.345
 8116TIP3    H224292   1.674   0.558   2.487
 8117TIP3   OH224293   0.749   7.274   0.488
 8117TIP3    H124294   0.771   7.292   0.396
 8117TIP3    H224295   0.822   7.311   0.538
 8118TIP3   OH224296   1.193   2.253   0.808
 8118TIP3    H124297   1.278   2.289   0.780
 8118TIP3    H224298   1.156   2.319   0.866
 8119TIP3   OH224299   6.521   1.496   1.092
 8119TIP3    H124300   6.434   1.527   1.066
 8119TIP3    H224301   6.574   1.505   1.012
 8120TIP3   OH224302   2.227   2.357   3.586
 8120TIP3    H124303   2.210   2.438   3.633
 8120TIP3    H224304   2.236   2.290   3.654
 8121TIP3   OH224305   3.510   3.224   4.651
 8121TIP3    H124306   3.500   3.175   4.570
 8121TIP3    H224307   3.513   3.315   4.624
 8122TIP3   OH224308   5.486   2.370   5.962
 8122TIP3    H124309   5.434   2.290   5.967
 8122TIP3    H224310   5.474   2.413   6.046
 8123TIP3   OH224311   5.957   4.940   3.057
 8123TIP3    H124312   5.908   4.858   3.069
 8123TIP3    H224313   6.045   4.920   3.086
 8124TIP3   OH224314   3.947   5.830   6.768
 8124TIP3    H124315   3.923   5.817   6.676
 8124TIP3    H224316   3.903   5.912   6.792
 8125TIP3   OH224317   7.199   1.010   1.663
 8125TIP3    H124318   7.143   1.070   1.615
 8125TIP3    H224319   7.139   0.961   1.719
 8126TIP3   OH224320   2.507   2.026   1.756
 8126TIP3    H124321   2.476   1.941   1.788
 8126TIP3    H224322   2.432   2.084   1.764
 8127TIP3   OH224323   2.331   6.275   0.523
 8127TIP3    H124324   2.424   6.262   0.545
 8127TIP3    H224325   2.313   6.365   0.552
 8128TIP3   OH224326   0.518   0.926   2.858
 8128TIP3    H124327   0.606   0.963   2.857
 8128TIP3    H224328   0.511   0.883   2.943
 8129TIP3   OH224329   3.907   0.776   0.099
 8129TIP3    H124330   3.855   0.855   0.085
 8129TIP3    H224331   3.862   0.709   0.048
 8130TIP3   OH224332   7.941   7.293   2.325
 8130TIP3    H124333   7.867   7.281   2.385
 8130TIP3    H224334   7.946   7.388   2.312
 8131TIP3   OH224335   3.516   1.597   2.539
 8131TIP3    H124336   3.543   1.599   2.631
 8131TIP3    H224337   3.537   1.684   2.506
 8132TIP3   OH224338   3.390   3.138   1.303
 8132TIP3    H124339   3.478   3.171   1.286
 8132TIP3    H224340   3.398   3.083   1.381
 8133TIP3   OH224341   4.497   4.596   5.320
 8133TIP3    H124342   4.406   4.572   5.302
 8133TIP3    H224343   4.509   4.575   5.412
 8134TIP3   OH224344   0.312   6.916   1.276
 8134TIP3    H124345   0.237   6.941   1.223
 8134TIP3    H224346   0.378   6.887   1.213
 8135TIP3   OH224347   2.420   4.025   2.920
 8135TIP3    H124348   2.383   3.961   2.859
 8135TIP3    H224349   2.472   3.972   2.981
 8136TIP3   OH224350   6.986   5.532   6.580
 8136TIP3    H124351   7.065   5.478   6.575
 8136TIP3    H224352   7.018   5.620   6.599
 8137TIP3   OH224353   0.902   2.131   3.921
 8137TIP3    H124354   0.834   2.195   3.943
 8137TIP3    H224355   0.861   2.046   3.940
 8138TIP3   OH224356   4.855   2.148   1.132
 8138TIP3    H124357   4.946   2.140   1.103
 8138TIP3    H224358   4.859   2.143   1.227
 8139TIP3   OH224359   1.423   6.405   4.269
 8139TIP3    H124360   1.504   6.375   4.310
 8139TIP3    H224361   1.382   6.463   4.333
 8140TIP3   OH224362   4.743   0.693   0.045
 8140TIP3    H124363   4.686   0.747  -0.011
 8140TIP3    H224364   4.820   0.748   0.060
 8141TIP3   OH224365   5.695   0.062   1.122
 8141TIP3    H124366   5.623  -0.002   1.124
 8141TIP3    H224367   5.652   0.146   1.140
 8142TIP3   OH224368   0.210   4.350   6.471
 8142TIP3    H124369   0.235   4.320   6.384
 8142TIP3    H224370   0.122   4.315   6.484
 8143TIP3   OH224371   8.250   5.734   4.574
 8143TIP3    H124372   8.180   5.778   4.623
 8143TIP3    H224373   8.220   5.644   4.563
 8144TIP3   OH224374   1.427   3.020   2.169
 8144TIP3    H124375   1.469   3.097   2.208
 8144TIP3    H224376   1.342   3.014   2.214
 8145TIP3   OH224377   0.124   7.066   5.815
 8145TIP3    H124378   0.100   7.150   5.854
 8145TIP3    H224379   0.217   7.073   5.797
 8146TIP3   OH224380   4.941   1.202   5.556
 8146TIP3    H124381   4.978   1.264   5.493
 8146TIP3    H224382   4.971   1.235   5.641
 8147TIP3   OH224383   6.612   4.778   1.547
 8147TIP3    H124384   6.687   4.818   1.591
 8147TIP3    H224385   6.617   4.811   1.457
 8148TIP3   OH224386   3.568   4.864   0.278
 8148TIP3    H124387   3.521   4.800   0.225
 8148TIP3    H224388   3.589   4.818   0.360
 8149TIP3   OH224389   7.315   3.889   0.999
 8149TIP3    H124390   7.305   3.892   1.094
 8149TIP3    H224391   7.289   3.801   0.974
 8150TIP3   OH224392   2.364   2.277   1.192
 8150TIP3    H124393   2.362   2.231   1.276
 8150TIP3    H224394   2.366   2.208   1.126
 8151TIP3   OH224395   2.537   6.742   4.580
 8151TIP3    H124396   2.459   6.794   4.562
 8151TIP3    H224397   2.513   6.653   4.553
 8152TIP3   OH224398   6.328   5.473   3.627
 8152TIP3    H124399   6.413   5.505   3.657
 8152TIP3    H224400   6.264   5.517   3.683
 8153TIP3   OH224401   5.829   3.386   0.751
 8153TIP3    H124402   5.890   3.323   0.713
 8153TIP3    H224403   5.855   3.394   0.842
 8154TIP3   OH224404   0.489   7.668   5.578
 8154TIP3    H124405   0.419   7.625   5.627
 8154TIP3    H224406   0.523   7.600   5.520
 8155TIP3   OH224407   2.672   3.279   5.579
 8155TIP3    H124408   2.753   3.290   5.530
 8155TIP3    H224409   2.634   3.367   5.582
 8156TIP3   OH224410   4.048   0.437   0.039
 8156TIP3    H124411   4.003   0.370  -0.013
 8156TIP3    H224412   3.989   0.456   0.111
 8157TIP3   OH224413   0.572   6.882   4.847
 8157TIP3    H124414   0.572   6.836   4.931
 8157TIP3    H224415   0.492   6.935   4.849
 8158TIP3   OH224416   6.357   5.827   1.034
 8158TIP3    H124417   6.262   5.825   1.041
 8158TIP3    H224418   6.376   5.904   0.980
 8159TIP3   OH224419   7.359   2.317   5.537
 8159TIP3    H124420   7.315   2.397   5.508
 8159TIP3    H224421   7.446   2.347   5.563
 8160TIP3   OH224422   4.228   0.768   5.398
 8160TIP3    H124423   4.206   0.802   5.311
 8160TIP3    H224424   4.231   0.844   5.455
 8161TIP3   OH224425   2.148   1.513   5.567
 8161TIP3    H124426   2.157   1.608   5.567
 8161TIP3    H224427   2.053   1.498   5.576
 8162TIP3   OH224428   0.392   1.761   6.713
 8162TIP3    H124429   0.480   1.783   6.682
 8162TIP3    H224430   0.359   1.844   6.749
 8163TIP3   OH224431   1.111   1.376   5.082
 8163TIP3    H124432   1.145   1.331   5.159
 8163TIP3    H224433   1.113   1.469   5.105
 8164TIP3   OH224434   2.885   7.416   1.877
 8164TIP3    H124435   2.812   7.477   1.886
 8164TIP3    H224436   2.900   7.383   1.965
 8165TIP3   OH224437   2.744   0.277   1.573
 8165TIP3    H124438   2.770   0.234   1.492
 8165TIP3    H224439   2.739   0.206   1.638
 8166TIP3   OH224440   2.255   3.611   5.372
 8166TIP3    H124441   2.308   3.549   5.322
 8166TIP3    H224442   2.181   3.631   5.315
 8167TIP3   OH224443   2.281   2.074   6.021
 8167TIP3    H124444   2.273   1.979   6.034
 8167TIP3    H224445   2.367   2.096   6.055
 8168TIP3   OH224446   5.113   3.499   5.959
 8168TIP3    H124447   5.197   3.456   5.973
 8168TIP3    H224448   5.136   3.589   5.934
 8169TIP3   OH224449   0.695   3.080   3.199
 8169TIP3    H124450   0.633   3.076   3.272
 8169TIP3    H224451   0.671   3.006   3.143
 8170TIP3   OH224452   0.609   2.198   5.826
 8170TIP3    H124453   0.619   2.265   5.758
 8170TIP3    H224454   0.589   2.118   5.778
 8171TIP3   OH224455   3.526   2.751   4.047
 8171TIP3    H124456   3.527   2.756   3.952
 8171TIP3    H224457   3.570   2.669   4.068
 8172TIP3   OH224458   2.473   7.232   5.502
 8172TIP3    H124459   2.434   7.147   5.484
 8172TIP3    H224460   2.403   7.283   5.544
 8173TIP3   OH224461   0.700   6.793   6.365
 8173TIP3    H124462   0.787   6.797   6.326
 8173TIP3    H224463   0.707   6.842   6.447
 8174TIP3   OH224464   2.195   6.966   0.189
 8174TIP3    H124465   2.204   6.929   0.101
 8174TIP3    H224466   2.283   6.997   0.211
 8175TIP3   OH224467   6.354   2.463   5.632
 8175TIP3    H124468   6.422   2.429   5.689
 8175TIP3    H224469   6.369   2.557   5.630
 8176TIP3   OH224470   4.572   7.232   1.602
 8176TIP3    H124471   4.513   7.220   1.676
 8176TIP3    H224472   4.585   7.144   1.567
 8177TIP3   OH224473   4.323   3.750   6.489
 8177TIP3    H124474   4.406   3.749   6.537
 8177TIP3    H224475   4.348   3.737   6.397
 8178TIP3   OH224476   0.262   1.665   5.938
 8178TIP3    H124477   0.188   1.650   5.878
 8178TIP3    H224478   0.223   1.655   6.025
 8179TIP3   OH224479   1.059   7.550   5.340
 8179TIP3    H124480   1.069   7.634   5.296
 8179TIP3    H224481   1.038   7.572   5.431
 8180TIP3   OH224482   0.639   3.622   4.870
 8180TIP3    H124483   0.579   3.696   4.861
 8180TIP3    H224484   0.717   3.659   4.911
 8181TIP3   OH224485   3.254   7.502   3.011
 8181TIP3    H124486   3.289   7.468   2.929
 8181TIP3    H224487   3.328   7.547   3.052
 8182TIP3   OH224488   1.381   4.272   2.584
 8182TIP3    H124489   1.431   4.340   2.539
 8182TIP3    H224490   1.446   4.230   2.641
 8183TIP3   OH224491   7.254   3.934   4.051
 8183TIP3    H124492   7.249   3.982   4.134
 8183TIP3    H224493   7.284   3.847   4.075
 8184TIP3   OH224494   5.827   7.396   2.292
 8184TIP3    H124495   5.801   7.471   2.239
 8184TIP3    H224496   5.920   7.384   2.273
 8185TIP3   OH224497   6.470   4.312   5.368
 8185TIP3    H124498   6.389   4.292   5.414
 8185TIP3    H224499   6.443   4.357   5.288
 8186TIP3   OH224500   0.489   5.053   3.450
 8186TIP3    H124501   0.404   5.033   3.490
 8186TIP3    H224502   0.530   4.967   3.435
 8187TIP3   OH224503   5.881   1.912   2.666
 8187TIP3    H124504   5.794   1.948   2.683
 8187TIP3    H224505   5.937   1.952   2.733
 8188TIP3   OH224506   1.803   2.515   1.858
 8188TIP3    H124507   1.897   2.501   1.869
 8188TIP3    H224508   1.796   2.593   1.803
 8189TIP3   OH224509   5.703   4.310   2.208
 8189TIP3    H124510   5.661   4.392   2.233
 8189TIP3    H224511   5.789   4.312   2.250
 8190TIP3   OH224512   6.046   6.191   4.206
 8190TIP3    H124513   6.082   6.107   4.179
 8190TIP3    H224514   6.101   6.256   4.163
 8191TIP3   OH224515   1.888   3.699   4.958
 8191TIP3    H124516   1.800   3.717   4.989
 8191TIP3    H224517   1.878   3.622   4.901
 8192TIP3   OH224518   4.438   1.676   0.465
 8192TIP3    H124519   4.529   1.665   0.438
 8192TIP3    H224520   4.395   1.714   0.388
 8193TIP3   OH224521   0.429   5.749   6.616
 8193TIP3    H124522   0.378   5.810   6.669
 8193TIP3    H224523   0.448   5.676   6.675
 8194TIP3   OH224524   3.037   1.277   0.651
 8194TIP3    H124525   3.017   1.189   0.620
 8194TIP3    H224526   2.980   1.335   0.600
 8195TIP3   OH224527   5.728   4.359   3.009
 8195TIP3    H124528   5.645   4.371   3.056
 8195TIP3    H224529   5.725   4.268   2.978
 8196TIP3   OH224530   1.410   0.405   1.284
 8196TIP3    H124531   1.417   0.448   1.198
 8196TIP3    H224532   1.484   0.440   1.334
 8197TIP3   OH224533   3.237   4.967   2.086
 8197TIP3    H124534   3.226   5.050   2.132
 8197TIP3    H224535   3.288   4.913   2.146
 8198TIP3   OH224536   2.304   5.637   3.474
 8198TIP3    H124537   2.262   5.574   3.416
 8198TIP3    H224538   2.311   5.717   3.421
 8199TIP3   OH224539   5.916   1.770   0.460
 8199TIP3    H124540   5.956   1.821   0.531
 8199TIP3    H224541   5.834   1.737   0.498
 8200TIP3   OH224542   3.909   6.212   3.141
 8200TIP3    H124543   3.985   6.185   3.090
 8200TIP3    H224544   3.944   6.277   3.203
 8201TIP3   OH224545   0.884   6.376   2.588
 8201TIP3    H124546   0.920   6.325   2.660
 8201TIP3    H224547   0.901   6.323   2.510
 8202TIP3   OH224548   7.419   3.955   5.271
 8202TIP3    H124549   7.355   3.917   5.211
 8202TIP3    H224550   7.382   4.040   5.294
 8203TIP3   OH224551   2.094   5.579   2.211
 8203TIP3    H124552   2.156   5.535   2.268
 8203TIP3    H224553   2.134   5.665   2.194
 8204TIP3   OH224554   6.663   2.636   5.508
 8204TIP3    H124555   6.572   2.609   5.517
 8204TIP3    H224556   6.712   2.554   5.499
 8205TIP3   OH224557   1.673   1.034   1.864
 8205TIP3    H124558   1.606   1.041   1.932
 8205TIP3    H224559   1.642   1.091   1.794
 8206TIP3   OH224560   6.613   6.140   2.502
 8206TIP3    H124561   6.526   6.175   2.483
 8206TIP3    H224562   6.667   6.217   2.521
 8207TIP3   OH224563   5.309   4.466   1.809
 8207TIP3    H124564   5.247   4.447   1.879
 8207TIP3    H224565   5.303   4.561   1.797
 8208TIP3   OH224566   3.595   4.099   4.686
 8208TIP3    H124567   3.591   4.133   4.597
 8208TIP3    H224568   3.688   4.090   4.705
 8209TIP3   OH224569   5.854   4.503   0.069
 8209TIP3    H124570   5.800   4.554   0.129
 8209TIP3    H224571   5.878   4.425   0.118
 8210TIP3   OH224572   6.459   3.194   4.913
 8210TIP3    H124573   6.437   3.114   4.864
 8210TIP3    H224574   6.526   3.165   4.976
 8211TIP3   OH224575   4.289   2.338   2.747
 8211TIP3    H124576   4.232   2.390   2.690
 8211TIP3    H224577   4.323   2.400   2.811
 8212TIP3   OH224578   2.776   5.970   3.129
 8212TIP3    H124579   2.849   5.967   3.191
 8212TIP3    H224580   2.751   5.878   3.118
 8213TIP3   OH224581   5.224   0.254   2.447
 8213TIP3    H124582   5.145   0.300   2.477
 8213TIP3    H224583   5.280   0.324   2.413
 8214TIP3   OH224584   3.409   3.409   3.454
 8214TIP3    H124585   3.390   3.357   3.376
 8214TIP3    H224586   3.490   3.455   3.433
 8215TIP3   OH224587   7.642   1.132   2.098
 8215TIP3    H124588   7.653   1.071   2.025
 8215TIP3    H224589   7.659   1.079   2.176
 8216TIP3   OH224590   1.142   1.893   2.555
 8216TIP3    H124591   1.146   1.820   2.494
 8216TIP3    H224592   1.196   1.961   2.514
 8217TIP3   OH224593   6.632   5.025   1.979
 8217TIP3    H124594   6.715   5.019   2.026
 8217TIP3    H224595   6.657   5.057   1.892
 8218TIP3   OH224596   2.599   1.273   3.597
 8218TIP3    H124597   2.617   1.367   3.600
 8218TIP3    H224598   2.504   1.268   3.586
 8219TIP3   OH224599   3.845   1.351   6.682
 8219TIP3    H124600   3.916   1.290   6.701
 8219TIP3    H224601   3.815   1.326   6.594
 8220TIP3   OH224602   3.828   5.446   6.392
 8220TIP3    H124603   3.764   5.440   6.463
 8220TIP3    H224604   3.775   5.468   6.315
 8221TIP3   OH224605   6.921   1.539   1.843
 8221TIP3    H124606   6.878   1.516   1.925
 8221TIP3    H224607   7.012   1.514   1.855
 8222TIP3   OH224608   0.292   2.853   3.359
 8222TIP3    H124609   0.250   2.868   3.443
 8222TIP3    H224610   0.372   2.805   3.380
 8223TIP3   OH224611   0.347   7.090   5.626
 8223TIP3    H124612   0.355   7.001   5.593
 8223TIP3    H224613   0.435   7.127   5.618
 8224TIP3   OH224614   7.449   2.461   2.726
 8224TIP3    H124615   7.491   2.392   2.777
 8224TIP3    H224616   7.365   2.476   2.770
 8225TIP3   OH224617   4.093   6.977   1.856
 8225TIP3    H124618   4.064   7.068   1.862
 8225TIP3    H224619   4.185   6.979   1.883
 8226TIP3   OH224620   2.420   5.818   6.683
 8226TIP3    H124621   2.360   5.761   6.730
 8226TIP3    H224622   2.364   5.878   6.634
 8227TIP3   OH224623   2.965   3.206   2.273
 8227TIP3    H124624   3.051   3.220   2.311
 8227TIP3    H224625   2.904   3.245   2.336
 8228TIP3   OH224626   5.114   5.075   5.468
 8228TIP3    H124627   5.141   5.167   5.472
 8228TIP3    H224628   5.185   5.032   5.419
 8229TIP3   OH224629   2.673   0.915   0.749
 8229TIP3    H124630   2.719   0.860   0.812
 8229TIP3    H224631   2.736   0.927   0.678
 8230TIP3   OH224632   4.453   4.060   1.584
 8230TIP3    H124633   4.439   4.027   1.495
 8230TIP3    H224634   4.399   4.139   1.588
 8231TIP3   OH224635   6.569   3.652   1.181
 8231TIP3    H124636   6.551   3.721   1.117
 8231TIP3    H224637   6.663   3.635   1.173
 8232TIP3   OH224638   3.552   4.239   5.854
 8232TIP3    H124639   3.607   4.178   5.804
 8232TIP3    H224640   3.560   4.322   5.808
 8233TIP3   OH224641   8.074   1.225   2.038
 8233TIP3    H124642   8.141   1.268   1.985
 8233TIP3    H224643   8.070   1.136   2.005
 8234TIP3   OH224644   1.986   4.372   4.498
 8234TIP3    H124645   1.932   4.387   4.575
 8234TIP3    H224646   2.075   4.360   4.533
 8235TIP3   OH224647   5.043   4.503   1.989
 8235TIP3    H124648   5.120   4.462   2.028
 8235TIP3    H224649   5.073   4.589   1.961
 8236TIP3   OH224650   4.150   2.887   4.624
 8236TIP3    H124651   4.152   2.871   4.530
 8236TIP3    H224652   4.188   2.974   4.634
 8237TIP3   OH224653   7.087   4.618   4.361
 8237TIP3    H124654   7.174   4.590   4.331
 8237TIP3    H224655   7.061   4.685   4.297
 8238TIP3   OH224656   6.731   5.806   5.146
 8238TIP3    H124657   6.824   5.828   5.154
 8238TIP3    H224658   6.704   5.846   5.063
 8239TIP3   OH224659   4.547   1.705   4.451
 8239TIP3    H124660   4.489   1.700   4.376
 8239TIP3    H224661   4.539   1.795   4.482
 8240TIP3   OH224662   2.994   6.253   1.272
 8240TIP3    H124663   3.087   6.263   1.291
 8240TIP3    H224664   2.950   6.289   1.349
 8241TIP3   OH224665   1.423   2.776   0.638
 8241TIP3    H124666   1.427   2.843   0.706
 8241TIP3    H224667   1.450   2.696   0.682
 8242TIP3   OH224668   3.262   7.245   1.173
 8242TIP3    H124669   3.343   7.196   1.186
 8242TIP3    H224670   3.194   7.189   1.208
 8243TIP3   OH224671   6.342   6.669   4.813
 8243TIP3    H124672   6.388   6.730   4.756
 8243TIP3    H224673   6.340   6.712   4.899
 8244TIP3   OH224674   6.527   3.706   4.691
 8244TIP3    H124675   6.587   3.725   4.619
 8244TIP3    H224676   6.537   3.612   4.707
 8245TIP3   OH224677   3.789   1.101   4.232
 8245TIP3    H124678   3.799   1.010   4.204
 8245TIP3    H224679   3.871   1.144   4.208
 8246TIP3   OH224680   3.814   2.005   0.767
 8246TIP3    H124681   3.757   1.965   0.833
 8246TIP3    H224682   3.790   2.098   0.768
 8247TIP3   OH224683   2.791   1.922   1.030
 8247TIP3    H124684   2.844   1.978   0.974
 8247TIP3    H224685   2.727   1.980   1.070
 8248TIP3   OH224686   0.952   4.756   5.191
 8248TIP3    H124687   0.978   4.830   5.247
 8248TIP3    H224688   0.868   4.728   5.225
 8249TIP3   OH224689   3.599   6.278   4.298
 8249TIP3    H124690   3.633   6.309   4.382
 8249TIP3    H224691   3.675   6.281   4.239
 8250TIP3   OH224692   8.250   6.838   1.463
 8250TIP3    H124693   8.155   6.831   1.455
 8250TIP3    H224694   8.284   6.786   1.390
 8251TIP3   OH224695   4.581   2.225   2.632
 8251TIP3    H124696   4.612   2.164   2.699
 8251TIP3    H224697   4.627   2.199   2.552
 8252TIP3   OH224698   3.945   6.913   4.097
 8252TIP3    H124699   3.912   6.971   4.028
 8252TIP3    H224700   3.996   6.971   4.153
 8253TIP3   OH224701   0.525   2.473   5.230
 8253TIP3    H124702   0.557   2.539   5.291
 8253TIP3    H224703   0.519   2.519   5.146
 8254TIP3   OH224704   6.865   4.826   6.002
 8254TIP3    H124705   6.956   4.807   6.023
 8254TIP3    H224706   6.869   4.888   5.929
 8255TIP3   OH224707   2.012   1.484   0.151
 8255TIP3    H124708   2.099   1.522   0.135
 8255TIP3    H224709   2.016   1.453   0.242
 8256TIP3   OH224710   1.041   5.878   6.184
 8256TIP3    H124711   1.110   5.878   6.249
 8256TIP3    H224712   1.077   5.927   6.110
 8257TIP3   OH224713   8.097   4.096   3.312
 8257TIP3    H124714   8.103   4.178   3.362
 8257TIP3    H224715   8.006   4.068   3.324
 8258TIP3   OH224716   1.357   0.042   4.648
 8258TIP3    H124717   1.416  -0.018   4.603
 8258TIP3    H224718   1.393   0.129   4.632
 8259TIP3   OH224719   6.787   4.901   0.065
 8259TIP3    H124720   6.833   4.978   0.030
 8259TIP3    H224721   6.809   4.830   0.005
 8260TIP3   OH224722   0.982   7.335   5.118
 8260TIP3    H124723   1.073   7.306   5.109
 8260TIP3    H224724   0.988   7.418   5.164
 8261TIP3   OH224725   6.521   5.954   4.081
 8261TIP3    H124726   6.556   6.033   4.121
 8261TIP3    H224727   6.468   5.985   4.008
 8262TIP3   OH224728   5.753   1.796   1.503
 8262TIP3    H124729   5.791   1.708   1.512
 8262TIP3    H224730   5.661   1.785   1.525
 8263TIP3   OH224731   7.771   2.534   6.748
 8263TIP3    H124732   7.724   2.560   6.669
 8263TIP3    H224733   7.862   2.526   6.719
 8264TIP3   OH224734   7.012  -0.021   6.181
 8264TIP3    H124735   7.069   0.055   6.190
 8264TIP3    H224736   6.966  -0.026   6.264
 8265TIP3   OH224737   0.432   5.332   2.704
 8265TIP3    H124738   0.466   5.346   2.792
 8265TIP3    H224739   0.427   5.237   2.695
 8266TIP3   OH224740   5.774   2.291   5.888
 8266TIP3    H124741   5.697   2.338   5.920
 8266TIP3    H224742   5.810   2.248   5.966
 8267TIP3   OH224743   1.406   7.314   1.547
 8267TIP3    H124744   1.316   7.340   1.568
 8267TIP3    H224745   1.444   7.391   1.505
 8268TIP3   OH224746   1.485   7.150   6.462
 8268TIP3    H124747   1.413   7.202   6.499
 8268TIP3    H224748   1.564   7.200   6.482
 8269TIP3   OH224749   0.526   0.192   6.537
 8269TIP3    H124750   0.557   0.239   6.459
 8269TIP3    H224751   0.431   0.187   6.527
 8270TIP3   OH224752   3.636   6.163   5.955
 8270TIP3    H124753   3.559   6.109   5.973
 8270TIP3    H224754   3.613   6.211   5.875
 8271TIP3   OH224755   6.190   3.299   1.034
 8271TIP3    H124756   6.106   3.345   1.030
 8271TIP3    H224757   6.251   3.356   0.988
 8272TIP3   OH224758   3.970   1.045   6.270
 8272TIP3    H124759   3.984   1.090   6.186
 8272TIP3    H224760   3.980   1.113   6.336
 8273TIP3   OH224761   0.389   5.417   1.041
 8273TIP3    H124762   0.344   5.429   0.957
 8273TIP3    H224763   0.446   5.493   1.048
 8274TIP3   OH224764   6.986   1.539   2.833
 8274TIP3    H124765   6.916   1.541   2.767
 8274TIP3    H224766   6.941   1.545   2.917
 8275TIP3   OH224767   1.944   2.223   3.715
 8275TIP3    H124768   2.031   2.261   3.724
 8275TIP3    H224769   1.960   2.132   3.689
 8276TIP3   OH224770   3.746   6.752   5.778
 8276TIP3    H124771   3.802   6.772   5.853
 8276TIP3    H224772   3.799   6.778   5.702
 8277TIP3   OH224773   0.397   4.113   6.358
 8277TIP3    H124774   0.315   4.134   6.312
 8277TIP3    H224775   0.440   4.049   6.301
 8278TIP3   OH224776   3.474   6.004   3.738
 8278TIP3    H124777   3.515   5.985   3.822
 8278TIP3    H224778   3.507   5.937   3.679
 8279TIP3   OH224779   4.046   6.219   5.423
 8279TIP3    H124780   4.030   6.257   5.336
 8279TIP3    H224781   4.137   6.240   5.442
 8280TIP3   OH224782   7.431   2.007   3.196
 8280TIP3    H124783   7.380   2.036   3.271
 8280TIP3    H224784   7.522   2.023   3.221
 8281TIP3   OH224785   1.204   4.951   1.572
 8281TIP3    H124786   1.190   5.045   1.562
 8281TIP3    H224787   1.193   4.915   1.484
 8282TIP3   OH224788   4.329   2.805   6.777
 8282TIP3    H124789   4.256   2.794   6.838
 8282TIP3    H224790   4.367   2.890   6.800
 8283TIP3   OH224791   2.612   4.666   2.004
 8283TIP3    H124792   2.549   4.738   2.008
 8283TIP3    H224793   2.612   4.639   1.912
 8284TIP3   OH224794   6.470   6.580   1.794
 8284TIP3    H124795   6.522   6.593   1.873
 8284TIP3    H224796   6.525   6.527   1.737
 8285TIP3   OH224797   4.527   0.172   2.894
 8285TIP3    H124798   4.444   0.196   2.851
 8285TIP3    H224799   4.500   0.113   2.965
 8286TIP3   OH224800   2.918   4.126   2.532
 8286TIP3    H124801   2.963   4.042   2.526
 8286TIP3    H224802   2.939   4.170   2.449
 8287TIP3   OH224803   7.122   6.640   5.850
 8287TIP3    H124804   7.213   6.614   5.832
 8287TIP3    H224805   7.075   6.617   5.770
 8288TIP3   OH224806   0.528   1.815   1.962
 8288TIP3    H124807   0.515   1.781   2.050
 8288TIP3    H224808   0.460   1.772   1.909
 8289TIP3   OH224809   3.317   3.774   0.444
 8289TIP3    H124810   3.319   3.696   0.389
 8289TIP3    H224811   3.252   3.831   0.404
 8290TIP3   OH224812   7.705   3.180   3.454
 8290TIP3    H124813   7.684   3.180   3.548
 8290TIP3    H224814   7.733   3.090   3.436
 8291TIP3   OH224815   0.682   6.702   2.440
 8291TIP3    H124816   0.777   6.707   2.428
 8291TIP3    H224817   0.661   6.610   2.426
 8292TIP3   OH224818   7.614   7.495   3.381
 8292TIP3    H124819   7.573   7.409   3.395
 8292TIP3    H224820   7.564   7.554   3.437
 8293TIP3   OH224821   3.355   5.958   5.112
 8293TIP3    H124822   3.270   5.976   5.152
 8293TIP3    H224823   3.382   6.041   5.074
 8294TIP3   OH224824   0.576   4.965   2.520
 8294TIP3    H124825   0.588   4.892   2.582
 8294TIP3    H224826   0.579   4.924   2.434
 8295TIP3   OH224827   0.246   5.772   1.524
 8295TIP3    H124828   0.194   5.837   1.572
 8295TIP3    H224829   0.309   5.739   1.587
 8296TIP3   OH224830   8.042   1.702   4.462
 8296TIP3    H124831   8.039   1.674   4.554
 8296TIP3    H224832   7.951   1.695   4.432
 8297TIP3   OH224833   1.219   7.198   4.141
 8297TIP3    H124834   1.175   7.202   4.225
 8297TIP3    H224835   1.250   7.288   4.126
 8298TIP3   OH224836   3.640   3.325   4.361
 8298TIP3    H124837   3.733   3.349   4.355
 8298TIP3    H224838   3.631   3.251   4.301
 8299TIP3   OH224839   6.061   6.894   4.324
 8299TIP3    H124840   6.121   6.968   4.332
 8299TIP3    H224841   5.987   6.917   4.381
 8300TIP3   OH224842   5.865   1.162   0.506
 8300TIP3    H124843   5.821   1.077   0.512
 8300TIP3    H224844   5.958   1.143   0.520
 8301TIP3   OH224845   2.275   4.624   5.811
 8301TIP3    H124846   2.255   4.668   5.729
 8301TIP3    H224847   2.319   4.543   5.785
 8302TIP3   OH224848   6.554   4.364   4.375
 8302TIP3    H124849   6.618   4.435   4.382
 8302TIP3    H224850   6.601   4.286   4.405
 8303TIP3   OH224851   0.463   7.640   1.211
 8303TIP3    H124852   0.374   7.676   1.222
 8303TIP3    H224853   0.481   7.650   1.118
 8304TIP3   OH224854   6.650   6.144   4.240
 8304TIP3    H124855   6.745   6.149   4.230
 8304TIP3    H224856   6.629   6.205   4.311
 8305TIP3   OH224857   3.675   7.635   5.954
 8305TIP3    H124858   3.634   7.572   6.014
 8305TIP3    H224859   3.735   7.684   6.010
 8306TIP3   OH224860   3.034   3.861   0.500
 8306TIP3    H124861   3.109   3.821   0.544
 8306TIP3    H224862   2.958   3.831   0.550
 8307TIP3   OH224863   1.624   5.076   1.060
 8307TIP3    H124864   1.657   5.094   0.971
 8307TIP3    H224865   1.631   4.981   1.069
 8308TIP3   OH224866   6.863   3.847   1.393
 8308TIP3    H124867   6.912   3.920   1.432
 8308TIP3    H224868   6.873   3.775   1.455
 8309TIP3   OH224869   5.533   3.517   0.276
 8309TIP3    H124870   5.554   3.568   0.198
 8309TIP3    H224871   5.501   3.433   0.242
 8310TIP3   OH224872   8.153   0.195   6.222
 8310TIP3    H124873   8.118   0.273   6.178
 8310TIP3    H224874   8.173   0.134   6.151
 8311TIP3   OH224875   2.273   3.486   2.442
 8311TIP3    H124876   2.279   3.391   2.453
 8311TIP3    H224877   2.355   3.510   2.398
 8312TIP3   OH224878   2.679   5.708   1.554
 8312TIP3    H124879   2.705   5.616   1.550
 8312TIP3    H224880   2.760   5.756   1.569
 8313TIP3   OH224881   8.203   6.712   5.709
 8313TIP3    H124882   8.135   6.703   5.775
 8313TIP3    H224883   8.283   6.732   5.758
 8314TIP3   OH224884   2.309   5.805   2.594
 8314TIP3    H124885   2.393   5.797   2.549
 8314TIP3    H224886   2.243   5.792   2.526
 8315TIP3   OH224887   4.860   6.155   2.092
 8315TIP3    H124888   4.846   6.090   2.024
 8315TIP3    H224889   4.774   6.168   2.131
 8316TIP3   OH224890   4.535   2.064   4.281
 8316TIP3    H124891   4.476   1.991   4.263
 8316TIP3    H224892   4.623   2.025   4.279
 8317TIP3   OH224893   2.397   7.074   6.380
 8317TIP3    H124894   2.406   7.083   6.285
 8317TIP3    H224895   2.484   7.096   6.414
 8318TIP3   OH224896   4.448   2.354   3.473
 8318TIP3    H124897   4.357   2.326   3.463
 8318TIP3    H224898   4.442   2.445   3.501
 8319TIP3   OH224899   7.278   5.666   1.157
 8319TIP3    H124900   7.327   5.658   1.075
 8319TIP3    H224901   7.333   5.624   1.223
 8320TIP3   OH224902   6.739   0.145   2.980
 8320TIP3    H124903   6.704   0.150   2.890
 8320TIP3    H224904   6.664   0.169   3.035
 8321TIP3   OH224905   5.630   4.214   1.528
 8321TIP3    H124906   5.639   4.204   1.433
 8321TIP3    H224907   5.564   4.281   1.539
 8322TIP3   OH224908   0.636   3.231   0.885
 8322TIP3    H124909   0.644   3.273   0.799
 8322TIP3    H224910   0.553   3.184   0.881
 8323TIP3   OH224911   1.880   4.268   3.541
 8323TIP3    H124912   1.920   4.354   3.532
 8323TIP3    H224913   1.949   4.207   3.516
 8324TIP3   OH224914   1.273   6.837   0.114
 8324TIP3    H124915   1.198   6.873   0.065
 8324TIP3    H224916   1.248   6.746   0.131
 8325TIP3   OH224917   1.903   6.716   6.193
 8325TIP3    H124918   1.874   6.645   6.250
 8325TIP3    H224919   1.982   6.750   6.235
 8326TIP3   OH224920   6.399   5.891   4.337
 8326TIP3    H124921   6.453   5.888   4.258
 8326TIP3    H224922   6.461   5.905   4.408
 8327TIP3   OH224923   5.638   5.779   4.132
 8327TIP3    H124924   5.733   5.767   4.130
 8327TIP3    H224925   5.603   5.690   4.134
 8328TIP3   OH224926   4.387   7.341   2.444
 8328TIP3    H124927   4.382   7.430   2.479
 8328TIP3    H224928   4.346   7.287   2.512
 8329TIP3   OH224929   7.945   3.718   3.267
 8329TIP3    H124930   7.941   3.678   3.354
 8329TIP3    H224931   7.999   3.657   3.216
 8330TIP3   OH224932   6.046   0.321   6.405
 8330TIP3    H124933   5.991   0.304   6.328
 8330TIP3    H224934   5.994   0.383   6.457
 8331TIP3   OH224935   1.500   0.096   2.143
 8331TIP3    H124936   1.536   0.017   2.184
 8331TIP3    H224937   1.516   0.166   2.207
 8332TIP3   OH224938   0.147   4.391   1.797
 8332TIP3    H124939   0.223   4.363   1.746
 8332TIP3    H224940   0.161   4.352   1.884
 8333TIP3   OH224941   8.073   4.721   6.018
 8333TIP3    H124942   8.166   4.710   6.036
 8333TIP3    H224943   8.034   4.635   6.037
 8334TIP3   OH224944   4.340   3.796   3.888
 8334TIP3    H124945   4.433   3.794   3.909
 8334TIP3    H224946   4.301   3.849   3.957
 8335TIP3   OH224947   4.965   5.421   4.745
 8335TIP3    H124948   4.918   5.357   4.692
 8335TIP3    H224949   5.058   5.405   4.727
 8336TIP3   OH224950   7.861   4.398   5.102
 8336TIP3    H124951   7.850   4.306   5.081
 8336TIP3    H224952   7.954   4.416   5.088
 8337TIP3   OH224953   0.345   5.687   0.331
 8337TIP3    H124954   0.411   5.750   0.360
 8337TIP3    H224955   0.342   5.698   0.236
 8338TIP3   OH224956   6.940   5.261   0.800
 8338TIP3    H124957   6.876   5.295   0.863
 8338TIP3    H224958   6.985   5.191   0.847
 8339TIP3   OH224959   2.947   5.875   5.503
 8339TIP3    H124960   2.980   5.919   5.581
 8339TIP3    H224961   3.004   5.905   5.432
 8340TIP3   OH224962   5.025   7.082   0.884
 8340TIP3    H124963   5.028   7.174   0.911
 8340TIP3    H224964   4.936   7.069   0.852
 8341TIP3   OH224965   0.496   0.216   1.616
 8341TIP3    H124966   0.495   0.297   1.564
 8341TIP3    H224967   0.434   0.158   1.572
 8342TIP3   OH224968   3.109   6.182   5.058
 8342TIP3    H124969   3.180   6.122   5.033
 8342TIP3    H224970   3.035   6.125   5.077
 8343TIP3   OH224971   3.187   3.224   6.223
 8343TIP3    H124972   3.261   3.283   6.208
 8343TIP3    H224973   3.170   3.185   6.138
 8344TIP3   OH224974   5.419   2.077   5.655
 8344TIP3    H124975   5.324   2.075   5.651
 8344TIP3    H224976   5.447   2.054   5.566
 8345TIP3   OH224977   5.635   7.727   1.173
 8345TIP3    H124978   5.627   7.782   1.095
 8345TIP3    H224979   5.714   7.675   1.158
 8346TIP3   OH224980   7.630   1.740   2.013
 8346TIP3    H124981   7.645   1.766   2.104
 8346TIP3    H224982   7.536   1.753   2.000
 8347TIP3   OH224983   5.723   6.559   4.841
 8347TIP3    H124984   5.785   6.631   4.841
 8347TIP3    H224985   5.768   6.487   4.797
 8348TIP3   OH224986   7.017   5.095   5.972
 8348TIP3    H124987   7.102   5.069   5.937
 8348TIP3    H224988   6.976   5.145   5.902
 8349TIP3   OH224989   8.167   6.297   3.841
 8349TIP3    H124990   8.222   6.241   3.786
 8349TIP3    H224991   8.173   6.258   3.928
 8350TIP3   OH224992   4.697   6.402   0.589
 8350TIP3    H124993   4.783   6.412   0.548
 8350TIP3    H224994   4.644   6.356   0.524
 8351TIP3   OH224995   4.657   5.935   6.130
 8351TIP3    H124996   4.715   5.918   6.205
 8351TIP3    H224997   4.592   5.865   6.132
 8352TIP3   OH224998   5.151   5.699   0.804
 8352TIP3    H124999   5.085   5.748   0.755
 8352TIP3    H225000   5.176   5.759   0.875
 8353TIP3   OH225001   7.750   4.335   6.499
 8353TIP3    H125002   7.663   4.332   6.459
 8353TIP3    H225003   7.733   4.326   6.593
 8354TIP3   OH225004   4.048   2.051   1.314
 8354TIP3    H125005   4.088   2.127   1.270
 8354TIP3    H225006   4.123   1.999   1.344
 8355TIP3   OH225007   6.998   5.109   3.283
 8355TIP3    H125008   7.056   5.036   3.263
 8355TIP3    H225009   6.917   5.068   3.313
 8356TIP3   OH225010   1.441   7.190   3.816
 8356TIP3    H125011   1.363   7.235   3.785
 8356TIP3    H225012   1.498   7.183   3.740
 8357TIP3   OH225013   3.011   3.448   6.125
 8357TIP3    H125014   2.920   3.436   6.151
 8357TIP3    H225015   3.056   3.372   6.159
 8358TIP3   OH225016   4.592   4.640   4.547
 8358TIP3    H125017   4.602   4.734   4.567
 8358TIP3    H225018   4.618   4.596   4.628
 8359TIP3   OH225019  -0.023   1.269   1.483
 8359TIP3    H125020  -0.090   1.287   1.418
 8359TIP3    H225021   0.034   1.346   1.481
 8360TIP3   OH225022   1.233   7.677   0.028
 8360TIP3    H125023   1.257   7.762  -0.009
 8360TIP3    H225024   1.251   7.685   0.122
 8361TIP3   OH225025   3.014   4.789   5.099
 8361TIP3    H125026   3.086   4.745   5.144
 8361TIP3    H225027   2.937   4.736   5.120
 8362TIP3   OH225028   0.655   6.237   4.782
 8362TIP3    H125029   0.570   6.261   4.818
 8362TIP3    H225030   0.640   6.225   4.689
 8363TIP3   OH225031   0.518   5.093   3.025
 8363TIP3    H125032   0.573   5.126   3.096
 8363TIP3    H225033   0.446   5.155   3.019
 8364TIP3   OH225034   1.669   0.623   0.352
 8364TIP3    H125035   1.693   0.622   0.259
 8364TIP3    H225036   1.745   0.584   0.396
 8365TIP3   OH225037   6.975   3.873   4.006
 8365TIP3    H125038   7.066   3.901   3.999
 8365TIP3    H225039   6.946   3.862   3.915
 8366TIP3   OH225040   6.347   2.728   5.003
 8366TIP3    H125041   6.328   2.639   4.973
 8366TIP3    H225042   6.341   2.723   5.098
 8367TIP3   OH225043   3.328   5.668   3.679
 8367TIP3    H125044   3.282   5.731   3.735
 8367TIP3    H225045   3.297   5.582   3.709
 8368TIP3   OH225046   7.540   2.787   1.443
 8368TIP3    H125047   7.532   2.864   1.387
 8368TIP3    H225048   7.552   2.714   1.381
 8369TIP3   OH225049   2.128   2.115   0.532
 8369TIP3    H125050   2.163   2.188   0.482
 8369TIP3    H225051   2.184   2.109   0.609
 8370TIP3   OH225052   1.540   4.060   4.473
 8370TIP3    H125053   1.555   4.144   4.430
 8370TIP3    H225054   1.599   4.061   4.549
 8371TIP3   OH225055   7.257   2.560   4.638
 8371TIP3    H125056   7.203   2.556   4.717
 8371TIP3    H225057   7.260   2.653   4.615
 8372TIP3   OH225058   6.539   6.806   4.650
 8372TIP3    H125059   6.588   6.888   4.658
 8372TIP3    H225060   6.607   6.739   4.639
 8373TIP3   OH225061   3.966   2.504   5.449
 8373TIP3    H125062   3.974   2.409   5.456
 8373TIP3    H225063   3.912   2.518   5.371
 8374TIP3   OH225064   6.890   0.347   3.727
 8374TIP3    H125065   6.924   0.259   3.715
 8374TIP3    H225066   6.918   0.372   3.815
 8375TIP3   OH225067   4.841   2.456   3.285
 8375TIP3    H125068   4.821   2.400   3.360
 8375TIP3    H225069   4.783   2.531   3.296
 8376TIP3   OH225070   5.518   3.020   1.042
 8376TIP3    H125071   5.551   2.999   1.129
 8376TIP3    H225072   5.596   3.021   0.987
 8377TIP3   OH225073   7.199   0.372   5.320
 8377TIP3    H125074   7.181   0.354   5.228
 8377TIP3    H225075   7.267   0.440   5.318
 8378TIP3   OH225076   1.405   0.563   1.687
 8378TIP3    H125077   1.500   0.574   1.694
 8378TIP3    H225078   1.369   0.641   1.729
 8379TIP3   OH225079   5.275   0.055   1.672
 8379TIP3    H125080   5.241  -0.012   1.613
 8379TIP3    H225081   5.216   0.130   1.660
 8380TIP3   OH225082   5.237   7.572   5.670
 8380TIP3    H125083   5.220   7.495   5.724
 8380TIP3    H225084   5.288   7.539   5.596
 8381TIP3   OH225085   1.690   3.956   5.100
 8381TIP3    H125086   1.707   4.013   5.025
 8381TIP3    H225087   1.596   3.936   5.093
 8382TIP3   OH225088   0.070   2.259   3.865
 8382TIP3    H125089   0.099   2.340   3.907
 8382TIP3    H225090   0.046   2.284   3.776
 8383TIP3   OH225091   3.973   6.948   0.608
 8383TIP3    H125092   3.898   6.978   0.557
 8383TIP3    H225093   4.004   7.027   0.653
 8384TIP3   OH225094   6.478   2.076   4.582
 8384TIP3    H125095   6.568   2.107   4.571
 8384TIP3    H225096   6.428   2.156   4.601
 8385TIP3   OH225097   5.259   3.919   1.337
 8385TIP3    H125098   5.318   3.855   1.377
 8385TIP3    H225099   5.244   3.983   1.406
 8386TIP3   OH225100   4.142   2.271   4.585
 8386TIP3    H125101   4.140   2.255   4.490
 8386TIP3    H225102   4.057   2.240   4.616
 8387TIP3   OH225103   3.185   7.154   2.663
 8387TIP3    H125104   3.140   7.198   2.591
 8387TIP3    H225105   3.275   7.145   2.633
 8388TIP3   OH225106   2.129   1.359   4.800
 8388TIP3    H125107   2.058   1.350   4.863
 8388TIP3    H225108   2.086   1.353   4.714
 8389TIP3   OH225109   3.348   1.936   4.784
 8389TIP3    H125110   3.266   1.971   4.820
 8389TIP3    H225111   3.351   1.845   4.816
 8390TIP3   OH225112   5.737   4.821   1.360
 8390TIP3    H125113   5.734   4.885   1.431
 8390TIP3    H225114   5.659   4.839   1.308
 8391TIP3   OH225115   4.099   5.451   1.706
 8391TIP3    H125116   4.104   5.540   1.671
 8391TIP3    H225117   4.166   5.402   1.659
 8392TIP3   OH225118   3.481   2.573   2.128
 8392TIP3    H125119   3.421   2.569   2.054
 8392TIP3    H225120   3.562   2.534   2.095
 8393TIP3   OH225121   5.006   4.448   3.746
 8393TIP3    H125122   5.071   4.517   3.759
 8393TIP3    H225123   4.937   4.489   3.695
 8394TIP3   OH225124   5.134   3.340   1.819
 8394TIP3    H125125   5.120   3.399   1.893
 8394TIP3    H225126   5.208   3.285   1.846
 8395TIP3   OH225127   2.406   6.983   2.387
 8395TIP3    H125128   2.502   6.981   2.384
 8395TIP3    H225129   2.383   7.070   2.354
 8396TIP3   OH225130   3.052   2.745   6.280
 8396TIP3    H125131   3.148   2.741   6.282
 8396TIP3    H225132   3.031   2.763   6.188
 8397TIP3   OH225133   8.272   4.405   6.713
 8397TIP3    H125134   8.237   4.387   6.626
 8397TIP3    H225135   8.278   4.500   6.717
 8398TIP3   OH225136   1.893   0.109   4.498
 8398TIP3    H125137   1.974   0.159   4.489
 8398TIP3    H225138   1.870   0.083   4.409
 8399TIP3   OH225139   1.765   5.011   2.466
 8399TIP3    H125140   1.814   4.933   2.439
 8399TIP3    H225141   1.827   5.083   2.456
 8400TIP3   OH225142   1.106   5.485   1.399
 8400TIP3    H125143   1.064   5.518   1.478
 8400TIP3    H225144   1.041   5.496   1.330
 8401TIP3   OH225145   0.504   1.411   3.780
 8401TIP3    H125146   0.464   1.447   3.700
 8401TIP3    H225147   0.532   1.323   3.755
 8402TIP3   OH225148   7.619   7.669   2.131
 8402TIP3    H125149   7.634   7.763   2.118
 8402TIP3    H225150   7.547   7.648   2.073
 8403TIP3   OH225151   5.337   0.665   1.232
 8403TIP3    H125152   5.381   0.750   1.234
 8403TIP3    H225153   5.332   0.643   1.139
 8404TIP3   OH225154   5.716   1.823   3.350
 8404TIP3    H125155   5.661   1.855   3.279
 8404TIP3    H225156   5.691   1.731   3.361
 8405TIP3   OH225157   6.994   5.411   5.574
 8405TIP3    H125158   7.018   5.475   5.507
 8405TIP3    H225159   6.906   5.384   5.550
 8406TIP3   OH225160   3.574   4.997   6.344
 8406TIP3    H125161   3.481   4.996   6.367
 8406TIP3    H225162   3.585   4.925   6.282
 8407TIP3   OH225163   2.950   5.796   0.897
 8407TIP3    H125164   2.918   5.735   0.963
 8407TIP3    H225165   2.952   5.881   0.942
 8408TIP3   OH225166   6.697   0.367   4.147
 8408TIP3    H125167   6.617   0.354   4.198
 8408TIP3    H225168   6.675   0.438   4.086
 8409TIP3   OH225169   4.171   1.102   3.187
 8409TIP3    H125170   4.133   1.029   3.138
 8409TIP3    H225171   4.232   1.143   3.126
 8410TIP3   OH225172   7.696   0.704   3.092
 8410TIP3    H125173   7.791   0.708   3.103
 8410TIP3    H225174   7.683   0.648   3.016
 8411TIP3   OH225175   2.907   6.979   5.961
 8411TIP3    H125176   2.972   6.962   6.030
 8411TIP3    H225177   2.824   6.986   6.009
 8412TIP3   OH225178   7.744   4.742   6.049
 8412TIP3    H125179   7.711   4.819   6.094
 8412TIP3    H225180   7.750   4.675   6.117
 8413TIP3   OH225181   0.616   2.533   4.494
 8413TIP3    H125182   0.640   2.451   4.536
 8413TIP3    H225183   0.694   2.559   4.445
 8414TIP3   OH225184   2.398   7.679   1.497
 8414TIP3    H125185   2.308   7.689   1.528
 8414TIP3    H225186   2.421   7.589   1.519
 8415TIP3   OH225187   2.594   0.681   5.956
 8415TIP3    H125188   2.607   0.622   6.030
 8415TIP3    H225189   2.624   0.767   5.988
 8416TIP3   OH225190   8.097   6.205   2.516
 8416TIP3    H125191   8.122   6.130   2.462
 8416TIP3    H225192   8.077   6.274   2.453
 8417TIP3   OH225193   7.604   6.239   5.324
 8417TIP3    H125194   7.643   6.320   5.356
 8417TIP3    H225195   7.673   6.173   5.337
 8418TIP3   OH225196   1.198   0.262   4.405
 8418TIP3    H125197   1.106   0.259   4.433
 8418TIP3    H225198   1.235   0.337   4.451
 8419TIP3   OH225199   7.653   4.741   3.297
 8419TIP3    H125200   7.726   4.743   3.235
 8419TIP3    H225201   7.694   4.720   3.381
 8420TIP3   OH225202   6.715   7.361   6.256
 8420TIP3    H125203   6.669   7.279   6.238
 8420TIP3    H225204   6.794   7.356   6.202
 8421TIP3   OH225205   5.861   2.644   1.571
 8421TIP3    H125206   5.884   2.637   1.664
 8421TIP3    H225207   5.854   2.554   1.541
 8422TIP3   OH225208   6.448   1.041   1.619
 8422TIP3    H125209   6.425   0.966   1.564
 8422TIP3    H225210   6.450   1.006   1.708
 8423TIP3   OH225211   6.173   5.187   1.338
 8423TIP3    H125212   6.235   5.259   1.326
 8423TIP3    H225213   6.092   5.229   1.366
 8424TIP3   OH225214   4.988   3.796   4.969
 8424TIP3    H125215   4.923   3.769   5.033
 8424TIP3    H225216   4.941   3.793   4.885
 8425TIP3   OH225217   7.837   2.287   0.613
 8425TIP3    H125218   7.878   2.357   0.562
 8425TIP3    H225219   7.894   2.276   0.689
 8426TIP3   OH225220   2.796   5.854   1.249
 8426TIP3    H125221   2.780   5.760   1.258
 8426TIP3    H225222   2.771   5.891   1.333
 8427TIP3   OH225223   0.803   2.087   5.972
 8427TIP3    H125224   0.785   2.129   6.056
 8427TIP3    H225225   0.734   2.118   5.913
 8428TIP3   OH225226   6.907   3.973   6.663
 8428TIP3    H125227   6.980   4.035   6.667
 8428TIP3    H225228   6.941   3.901   6.609
 8429TIP3   OH225229   0.358   2.620   4.525
 8429TIP3    H125230   0.374   2.710   4.495
 8429TIP3    H225231   0.443   2.577   4.516
 8430TIP3   OH225232   1.628   6.093   1.707
 8430TIP3    H125233   1.559   6.159   1.712
 8430TIP3    H225234   1.634   6.071   1.614
 8431TIP3   OH225235   0.138   3.022   3.980
 8431TIP3    H125236   0.069   3.084   4.006
 8431TIP3    H225237   0.099   2.936   3.994
 8432TIP3   OH225238   7.222   2.751   0.357
 8432TIP3    H125239   7.240   2.704   0.276
 8432TIP3    H225240   7.267   2.701   0.425
 8433TIP3   OH225241   1.571   5.356   5.956
 8433TIP3    H125242   1.491   5.404   5.980
 8433TIP3    H225243   1.549   5.314   5.872
 8434TIP3   OH225244   5.256   0.922   5.650
 8434TIP3    H125245   5.184   0.863   5.630
 8434TIP3    H225246   5.245   0.995   5.588
 8435TIP3   OH225247   4.842   6.283   2.496
 8435TIP3    H125248   4.828   6.239   2.580
 8435TIP3    H225249   4.767   6.257   2.443
 8436TIP3   OH225250   1.634   4.275   0.920
 8436TIP3    H125251   1.552   4.275   0.971
 8436TIP3    H225252   1.681   4.198   0.950
 8437TIP3   OH225253   2.823   6.920   0.685
 8437TIP3    H125254   2.840   6.864   0.760
 8437TIP3    H225255   2.902   6.971   0.674
 8438TIP3   OH225256   7.166   7.542   1.709
 8438TIP3    H125257   7.171   7.599   1.785
 8438TIP3    H225258   7.109   7.470   1.737
 8439TIP3   OH225259   2.363   1.860   1.489
 8439TIP3    H125260   2.319   1.777   1.472
 8439TIP3    H225261   2.291   1.922   1.502
 8440TIP3   OH225262   6.076   5.655   3.009
 8440TIP3    H125263   6.032   5.576   3.039
 8440TIP3    H225264   6.144   5.623   2.950
 8441TIP3   OH225265   1.739   4.818   5.623
 8441TIP3    H125266   1.759   4.787   5.712
 8441TIP3    H225267   1.655   4.777   5.602
 8442TIP3   OH225268   7.299   3.005   0.107
 8442TIP3    H125269   7.363   3.034   0.042
 8442TIP3    H225270   7.319   2.912   0.122
 8443TIP3   OH225271   1.454   5.572   0.930
 8443TIP3    H125272   1.516   5.507   0.962
 8443TIP3    H225273   1.508   5.646   0.903
 8444TIP3   OH225274   4.740   2.894   0.840
 8444TIP3    H125275   4.713   2.850   0.921
 8444TIP3    H225276   4.769   2.980   0.869
 8445TIP3   OH225277   6.727   1.152   6.458
 8445TIP3    H125278   6.821   1.138   6.472
 8445TIP3    H225279   6.685   1.079   6.504
 8446TIP3   OH225280   5.757   6.230   6.296
 8446TIP3    H125281   5.793   6.170   6.361
 8446TIP3    H225282   5.678   6.265   6.337
 8447TIP3   OH225283   0.237   5.481   3.471
 8447TIP3    H125284   0.208   5.411   3.530
 8447TIP3    H225285   0.327   5.500   3.499
 8448TIP3   OH225286   7.330   0.309   0.657
 8448TIP3    H125287   7.393   0.238   0.666
 8448TIP3    H225288   7.324   0.347   0.745
 8449TIP3   OH225289   2.961   5.931   0.597
 8449TIP3    H125290   2.881   5.883   0.576
 8449TIP3    H225291   2.987   5.899   0.683
 8450TIP3   OH225292   8.012   4.465   2.377
 8450TIP3    H125293   8.020   4.544   2.325
 8450TIP3    H225294   8.085   4.410   2.348
 8451TIP3   OH225295   4.072   7.215   3.160
 8451TIP3    H125296   4.063   7.126   3.194
 8451TIP3    H225297   4.115   7.264   3.230
 8452TIP3   OH225298   4.927   5.132   4.898
 8452TIP3    H125299   4.975   5.054   4.869
 8452TIP3    H225300   4.994   5.188   4.938
 8453TIP3   OH225301   3.213   7.302   0.819
 8453TIP3    H125302   3.196   7.371   0.883
 8453TIP3    H225303   3.306   7.281   0.831
 8454TIP3   OH225304   7.301   6.558   6.653
 8454TIP3    H125305   7.277   6.474   6.614
 8454TIP3    H225306   7.299   6.542   6.748
 8455TIP3   OH225307   4.666   5.232   0.639
 8455TIP3    H125308   4.646   5.140   0.626
 8455TIP3    H225309   4.757   5.242   0.611
 8456TIP3   OH225310   4.404   4.702   6.109
 8456TIP3    H125311   4.384   4.638   6.042
 8456TIP3    H225312   4.343   4.774   6.093
 8457TIP3   OH225313   2.054   0.261   1.781
 8457TIP3    H125314   2.043   0.354   1.802
 8457TIP3    H225315   2.074   0.259   1.688
 8458TIP3   OH225316   0.289   5.767   2.204
 8458TIP3    H125317   0.369   5.735   2.164
 8458TIP3    H225318   0.311   5.854   2.237
 8459TIP3   OH225319   1.600   6.809   0.090
 8459TIP3    H125320   1.640   6.896   0.087
 8459TIP3    H225321   1.510   6.825   0.120
 8460TIP3   OH225322   1.667   6.031   2.735
 8460TIP3    H125323   1.730   5.961   2.718
 8460TIP3    H225324   1.718   6.100   2.777
 8461TIP3   OH225325   5.358   2.546   2.615
 8461TIP3    H125326   5.270   2.575   2.589
 8461TIP3    H225327   5.380   2.599   2.691
 8462TIP3   OH225328   3.708   4.489   5.717
 8462TIP3    H125329   3.705   4.582   5.737
 8462TIP3    H225330   3.782   4.456   5.767
 8463TIP3   OH225331   1.953   1.909   4.250
 8463TIP3    H125332   1.969   1.832   4.304
 8463TIP3    H225333   1.858   1.907   4.233
 8464TIP3   OH225334   0.919   5.662   0.992
 8464TIP3    H125335   0.911   5.747   1.035
 8464TIP3    H225336   1.011   5.639   1.001
 8465TIP3   OH225337   0.165   1.081   5.535
 8465TIP3    H125338   0.133   1.006   5.585
 8465TIP3    H225339   0.150   1.156   5.592
 8466TIP3   OH225340   7.543   0.906   4.990
 8466TIP3    H125341   7.575   0.857   5.065
 8466TIP3    H225342   7.476   0.965   5.025
 8467TIP3   OH225343   0.360   6.287   4.219
 8467TIP3    H125344   0.374   6.256   4.308
 8467TIP3    H225345   0.333   6.378   4.229
 8468TIP3   OH225346   4.476   5.477   0.660
 8468TIP3    H125347   4.401   5.475   0.600
 8468TIP3    H225348   4.522   5.395   0.644
 8469TIP3   OH225349   6.819   1.753   0.935
 8469TIP3    H125350   6.837   1.808   0.858
 8469TIP3    H225351   6.837   1.810   1.010
 8470TIP3   OH225352   2.125  -0.021   3.689
 8470TIP3    H125353   2.041  -0.063   3.671
 8470TIP3    H225354   2.103   0.068   3.716
 8471TIP3   OH225355   0.712   6.629   4.145
 8471TIP3    H125356   0.735   6.721   4.144
 8471TIP3    H225357   0.777   6.587   4.088
 8472TIP3   OH225358   6.795   5.349   6.081
 8472TIP3    H125359   6.886   5.324   6.098
 8472TIP3    H225360   6.744   5.279   6.122
 8473TIP3   OH225361   4.306   1.216   3.781
 8473TIP3    H125362   4.383   1.270   3.762
 8473TIP3    H225363   4.232   1.276   3.775
 8474TIP3   OH225364   6.616   0.910   6.580
 8474TIP3    H125365   6.596   0.824   6.617
 8474TIP3    H225366   6.535   0.960   6.593
 8475TIP3   OH225367   4.474   4.744   3.236
 8475TIP3    H125368   4.420   4.821   3.251
 8475TIP3    H225369   4.551   4.777   3.190
 8476TIP3   OH225370   0.139   7.306   5.629
 8476TIP3    H125371   0.190   7.229   5.606
 8476TIP3    H225372   0.126   7.299   5.723
 8477TIP3   OH225373   0.638   1.422   1.966
 8477TIP3    H125374   0.623   1.509   1.929
 8477TIP3    H225375   0.553   1.397   2.002
 8478TIP3   OH225376   7.437   7.239   2.529
 8478TIP3    H125377   7.496   7.217   2.601
 8478TIP3    H225378   7.437   7.334   2.526
 8479TIP3   OH225379   7.274   6.935   0.219
 8479TIP3    H125380   7.209   6.959   0.284
 8479TIP3    H225381   7.306   7.019   0.185
 8480TIP3   OH225382   3.662   7.716   4.542
 8480TIP3    H125383   3.621   7.757   4.466
 8480TIP3    H225384   3.593   7.714   4.608
 8481TIP3   OH225385   4.646   6.976   2.076
 8481TIP3    H125386   4.671   7.061   2.042
 8481TIP3    H225387   4.610   6.994   2.163
 8482TIP3   OH225388   3.442   7.638   3.976
 8482TIP3    H125389   3.418   7.561   4.028
 8482TIP3    H225390   3.510   7.682   4.027
 8483TIP3   OH225391   7.726   7.141   4.846
 8483TIP3    H125392   7.642   7.150   4.891
 8483TIP3    H225393   7.703   7.109   4.759
 8484TIP3   OH225394   5.607   6.016   3.409
 8484TIP3    H125395   5.677   5.960   3.441
 8484TIP3    H225396   5.616   6.013   3.314
 8485TIP3   OH225397   0.111   2.974   1.293
 8485TIP3    H125398   0.081   2.927   1.215
 8485TIP3    H225399   0.057   2.941   1.364
 8486TIP3   OH225400   1.805   1.112   5.872
 8486TIP3    H125401   1.721   1.120   5.828
 8486TIP3    H225402   1.801   1.027   5.916
 8487TIP3   OH225403   4.796   2.830   0.055
 8487TIP3    H125404   4.787   2.890  -0.020
 8487TIP3    H225405   4.819   2.746   0.016
 8488TIP3   OH225406   7.984   6.448   1.910
 8488TIP3    H125407   7.915   6.395   1.870
 8488TIP3    H225408   7.939   6.498   1.978
 8489TIP3   OH225409   3.684   7.627   3.300
 8489TIP3    H125410   3.738   7.572   3.243
 8489TIP3    H225411   3.705   7.596   3.389
 8490TIP3   OH225412   0.761   7.161   1.210
 8490TIP3    H125413   0.784   7.112   1.131
 8490TIP3    H225414   0.798   7.109   1.282
 8491TIP3   OH225415   0.904   1.522   1.723
 8491TIP3    H125416   0.915   1.565   1.808
 8491TIP3    H225417   0.809   1.519   1.710
 8492TIP3   OH225418   4.454   5.996   5.618
 8492TIP3    H125419   4.501   5.952   5.688
 8492TIP3    H225420   4.445   6.087   5.647
 8493TIP3   OH225421   7.486   5.664   5.708
 8493TIP3    H125422   7.565   5.709   5.678
 8493TIP3    H225423   7.506   5.571   5.699
 8494TIP3   OH225424   6.624   1.668   1.845
 8494TIP3    H125425   6.621   1.757   1.809
 8494TIP3    H225426   6.710   1.635   1.818
 8495TIP3   OH225427   8.106   7.565   2.579
 8495TIP3    H125428   8.109   7.535   2.670
 8495TIP3    H225429   8.183   7.621   2.570
 8496TIP3   OH225430   4.853   1.375   1.962
 8496TIP3    H125431   4.885   1.309   1.902
 8496TIP3    H225432   4.789   1.330   2.016
 8497TIP3   OH225433   7.527   3.087   3.944
 8497TIP3    H125434   7.592   3.060   4.008
 8497TIP3    H225435   7.488   3.166   3.981
 8498TIP3   OH225436   2.587   3.131   4.468
 8498TIP3    H125437   2.670   3.117   4.512
 8498TIP3    H225438   2.572   3.050   4.419
 8499TIP3   OH225439   3.591   5.984   4.487
 8499TIP3    H125440   3.514   5.965   4.433
 8499TIP3    H225441   3.570   5.948   4.573
 8500TIP3   OH225442   8.179   3.201   3.078
 8500TIP3    H125443   8.167   3.185   3.172
 8500TIP3    H225444   8.219   3.287   3.074
 8501TIP3   OH225445   4.538   1.647   3.130
 8501TIP3    H125446   4.600   1.687   3.190
 8501TIP3    H225447   4.574   1.663   3.043
 8502TIP3   OH225448   2.341   1.037   4.309
 8502TIP3    H125449   2.280   1.093   4.262
 8502TIP3    H225450   2.425   1.051   4.265
 8503TIP3   OH225451   8.077   7.151   3.808
 8503TIP3    H125452   7.987   7.177   3.789
 8503TIP3    H225453   8.126   7.233   3.809
 8504TIP3   OH225454   1.937   0.631   0.463
 8504TIP3    H125455   1.950   0.714   0.417
 8504TIP3    H225456   2.024   0.606   0.494
 8505TIP3   OH225457   7.098   2.709   3.226
 8505TIP3    H125458   7.004   2.705   3.208
 8505TIP3    H225459   7.124   2.796   3.195
 8506TIP3   OH225460   6.301   6.979   4.045
 8506TIP3    H125461   6.267   7.069   4.044
 8506TIP3    H225462   6.392   6.988   4.015
 8507TIP3   OH225463   3.018   0.166   2.621
 8507TIP3    H125464   2.934   0.211   2.631
 8507TIP3    H225465   3.005   0.082   2.664
 8508TIP3   OH225466   4.975   5.276   6.546
 8508TIP3    H125467   5.057   5.227   6.533
 8508TIP3    H225468   4.988   5.322   6.629
 8509TIP3   OH225469   4.860   6.665   2.001
 8509TIP3    H125470   4.862   6.760   1.987
 8509TIP3    H225471   4.889   6.654   2.091
 8510TIP3   OH225472   2.203   6.723   6.225
 8510TIP3    H125473   2.201   6.753   6.316
 8510TIP3    H225474   2.270   6.777   6.184
 8511TIP3   OH225475   1.427   0.277   1.953
 8511TIP3    H125476   1.514   0.312   1.931
 8511TIP3    H225477   1.445   0.211   2.020
 8512TIP3   OH225478   4.257   7.142   0.481
 8512TIP3    H125479   4.217   7.164   0.397
 8512TIP3    H225480   4.347   7.173   0.475
 8513TIP3   OH225481   0.709   1.627   6.227
 8513TIP3    H125482   0.638   1.595   6.172
 8513TIP3    H225483   0.730   1.713   6.191
 8514TIP3   OH225484   1.986   1.178   2.725
 8514TIP3    H125485   2.008   1.265   2.757
 8514TIP3    H225486   2.062   1.124   2.747
 8515TIP3   OH225487   1.341   6.091   0.606
 8515TIP3    H125488   1.319   6.168   0.658
 8515TIP3    H225489   1.428   6.065   0.637
 8516TIP3   OH225490  -0.009   4.100   0.395
 8516TIP3    H125491  -0.023   4.187   0.357
 8516TIP3    H225492   0.022   4.117   0.484
 8517TIP3   OH225493   5.393   2.246   1.789
 8517TIP3    H125494   5.447   2.191   1.846
 8517TIP3    H225495   5.327   2.186   1.753
 8518TIP3   OH225496   8.229   3.022   4.485
 8518TIP3    H125497   8.181   3.102   4.508
 8518TIP3    H225498   8.208   2.961   4.555
 8519TIP3   OH225499   1.911   5.185   2.140
 8519TIP3    H125500   1.839   5.213   2.196
 8519TIP3    H225501   1.989   5.226   2.178
 8520TIP3   OH225502   0.923   4.920   4.753
 8520TIP3    H125503   0.962   4.892   4.670
 8520TIP3    H225504   0.939   4.847   4.813
 8521TIP3   OH225505   5.400   3.937   0.341
 8521TIP3    H125506   5.352   3.940   0.259
 8521TIP3    H225507   5.455   4.015   0.339
 8522TIP3   OH225508   5.343   1.305   3.639
 8522TIP3    H125509   5.286   1.253   3.696
 8522TIP3    H225510   5.330   1.267   3.551
 8523TIP3   OH225511   1.280   4.501   0.202
 8523TIP3    H125512   1.354   4.511   0.141
 8523TIP3    H225513   1.265   4.407   0.206
 8524TIP3   OH225514   3.577   0.744   1.160
 8524TIP3    H125515   3.633   0.774   1.232
 8524TIP3    H225516   3.493   0.725   1.200
 8525TIP3   OH225517   2.721   1.591   4.940
 8525TIP3    H125518   2.662   1.521   4.966
 8525TIP3    H225519   2.668   1.671   4.947
 8526TIP3   OH225520   1.887   6.724   5.919
 8526TIP3    H125521   1.944   6.801   5.913
 8526TIP3    H225522   1.898   6.693   6.009
 8527TIP3   OH225523   7.728   6.007   1.221
 8527TIP3    H125524   7.745   5.916   1.197
 8527TIP3    H225525   7.814   6.048   1.223
 8528TIP3   OH225526   4.071   6.355   1.906
 8528TIP3    H125527   4.092   6.340   1.998
 8528TIP3    H225528   4.129   6.295   1.859
 8529TIP3   OH225529   6.526   1.486   4.897
 8529TIP3    H125530   6.435   1.489   4.868
 8529TIP3    H225531   6.555   1.397   4.878
 8530TIP3   OH225532   1.497   4.471   2.441
 8530TIP3    H125533   1.422   4.523   2.414
 8530TIP3    H225534   1.560   4.480   2.369
 8531TIP3   OH225535   5.110   0.615   1.377
 8531TIP3    H125536   5.161   0.570   1.444
 8531TIP3    H225537   5.174   0.662   1.325
 8532TIP3   OH225538   2.357   5.972   6.325
 8532TIP3    H125539   2.450   5.969   6.301
 8532TIP3    H225540   2.328   5.881   6.318
 8533TIP3   OH225541   2.503   6.193   3.291
 8533TIP3    H125542   2.592   6.197   3.327
 8533TIP3    H225543   2.513   6.221   3.200
 8534TIP3   OH225544   0.753   6.624   1.781
 8534TIP3    H125545   0.738   6.530   1.782
 8534TIP3    H225546   0.835   6.635   1.830
 8535TIP3   OH225547   2.680   5.580   2.147
 8535TIP3    H125548   2.674   5.523   2.070
 8535TIP3    H225549   2.756   5.636   2.130
 8536TIP3   OH225550   0.840   6.530   4.390
 8536TIP3    H125551   0.745   6.528   4.377
 8536TIP3    H225552   0.876   6.484   4.313
 8537TIP3   OH225553   4.073   5.187   0.797
 8537TIP3    H125554   4.163   5.166   0.770
 8537TIP3    H225555   4.075   5.280   0.817
 8538TIP3   OH225556   2.169   0.617   2.071
 8538TIP3    H125557   2.135   0.707   2.069
 8538TIP3    H225558   2.157   0.590   2.162
 8539TIP3   OH225559   0.944   7.430   3.693
 8539TIP3    H125560   0.990   7.346   3.693
 8539TIP3    H225561   0.852   7.407   3.685
 8540TIP3   OH225562   2.372   4.072   4.905
 8540TIP3    H125563   2.443   4.008   4.895
 8540TIP3    H225564   2.384   4.107   4.993
 8541TIP3   OH225565   4.761   7.313   4.893
 8541TIP3    H125566   4.666   7.309   4.889
 8541TIP3    H225567   4.786   7.246   4.957
 8542TIP3   OH225568   7.336   3.111   4.227
 8542TIP3    H125569   7.353   3.160   4.307
 8542TIP3    H225570   7.369   3.168   4.157
 8543TIP3   OH225571   3.874   5.864   3.498
 8543TIP3    H125572   3.821   5.877   3.577
 8543TIP3    H225573   3.835   5.922   3.433
 8544TIP3   OH225574   6.861   1.711   3.671
 8544TIP3    H125575   6.793   1.776   3.689
 8544TIP3    H225576   6.931   1.732   3.732
 8545TIP3   OH225577   2.491   2.702   3.098
 8545TIP3    H125578   2.557   2.723   3.031
 8545TIP3    H225579   2.515   2.758   3.172
 8546TIP3   OH225580   1.648   0.408   2.607
 8546TIP3    H125581   1.600   0.359   2.674
 8546TIP3    H225582   1.734   0.367   2.604
 8547TIP3   OH225583   1.860   4.649   3.785
 8547TIP3    H125584   1.927   4.702   3.743
 8547TIP3    H225585   1.779   4.669   3.737
 8548TIP3   OH225586   4.522   6.947   4.774
 8548TIP3    H125587   4.512   7.017   4.708
 8548TIP3    H225588   4.529   6.867   4.722
 8549TIP3   OH225589   6.170   3.633   4.118
 8549TIP3    H125590   6.078   3.607   4.111
 8549TIP3    H225591   6.169   3.712   4.171
 8550TIP3   OH225592   6.051   5.359   0.644
 8550TIP3    H125593   6.065   5.281   0.699
 8550TIP3    H225594   6.017   5.325   0.562
 8551TIP3   OH225595   1.877   1.169   2.449
 8551TIP3    H125596   1.806   1.108   2.470
 8551TIP3    H225597   1.920   1.185   2.533
 8552TIP3   OH225598   7.711   3.576   1.958
 8552TIP3    H125599   7.690   3.546   2.047
 8552TIP3    H225600   7.796   3.537   1.939
 8553TIP3   OH225601   4.884   3.764   3.123
 8553TIP3    H125602   4.931   3.681   3.118
 8553TIP3    H225603   4.849   3.767   3.212
 8554TIP3   OH225604   0.768   2.430   6.199
 8554TIP3    H125605   0.751   2.503   6.258
 8554TIP3    H225606   0.761   2.352   6.255
 8555TIP3   OH225607   4.692   0.374   3.567
 8555TIP3    H125608   4.715   0.283   3.589
 8555TIP3    H225609   4.740   0.392   3.487
 8556TIP3   OH225610   6.216   6.428   1.718
 8556TIP3    H125611   6.257   6.343   1.702
 8556TIP3    H225612   6.287   6.492   1.709
 8557TIP3   OH225613   4.721   4.118   4.445
 8557TIP3    H125614   4.664   4.176   4.394
 8557TIP3    H225615   4.690   4.126   4.535
 8558TIP3   OH225616   8.073   2.788   3.830
 8558TIP3    H125617   8.031   2.861   3.876
 8558TIP3    H225618   8.142   2.829   3.778
 8559TIP3   OH225619   6.840   6.948   1.535
 8559TIP3    H125620   6.783   6.871   1.526
 8559TIP3    H225621   6.780   7.018   1.562
 8560TIP3   OH225622   0.032   4.412   2.769
 8560TIP3    H125623   0.076   4.331   2.744
 8560TIP3    H225624   0.102   4.476   2.778
 8561TIP3   OH225625   4.984   6.810   6.317
 8561TIP3    H125626   5.060   6.800   6.260
 8561TIP3    H225627   5.013   6.867   6.388
 8562TIP3   OH225628   0.612   7.307   2.391
 8562TIP3    H125629   0.564   7.389   2.402
 8562TIP3    H225630   0.579   7.249   2.460
 8563TIP3   OH225631   7.804   5.448   3.309
 8563TIP3    H125632   7.871   5.441   3.376
 8563TIP3    H225633   7.852   5.466   3.228
 8564TIP3   OH225634   0.608   6.207   4.494
 8564TIP3    H125635   0.691   6.165   4.475
 8564TIP3    H225636   0.616   6.295   4.455
 8565TIP3   OH225637   4.225   7.419   2.222
 8565TIP3    H125638   4.260   7.506   2.204
 8565TIP3    H225639   4.279   7.385   2.292
 8566TIP3   OH225640   3.487   5.160   0.260
 8566TIP3    H125641   3.497   5.090   0.195
 8566TIP3    H225642   3.534   5.235   0.223
 8567TIP3   OH225643   7.876   5.283   4.236
 8567TIP3    H125644   7.817   5.358   4.241
 8567TIP3    H225645   7.886   5.255   4.327
 8568TIP3   OH225646   1.939   1.503   4.177
 8568TIP3    H125647   1.901   1.543   4.099
 8568TIP3    H225648   1.892   1.420   4.186
 8569TIP3   OH225649   3.429   6.606   3.660
 8569TIP3    H125650   3.417   6.672   3.591
 8569TIP3    H225651   3.432   6.657   3.741
 8570TIP3   OH225652   3.109   0.652   4.306
 8570TIP3    H125653   3.026   0.633   4.349
 8570TIP3    H225654   3.090   0.640   4.212
 8571TIP3   OH225655   1.907   7.239   1.368
 8571TIP3    H125656   1.812   7.236   1.377
 8571TIP3    H225657   1.940   7.242   1.458
 8572TIP3   OH225658   2.057   1.203   0.114
 8572TIP3    H125659   2.092   1.175   0.199
 8572TIP3    H225660   2.032   1.294   0.128
 8573TIP3   OH225661   0.358   2.676   6.766
 8573TIP3    H125662   0.318   2.601   6.722
 8573TIP3    H225663   0.442   2.642   6.798
 8574TIP3   OH225664   2.158   2.872   3.678
 8574TIP3    H125665   2.191   2.866   3.588
 8574TIP3    H225666   2.073   2.828   3.675
 8575TIP3   OH225667   7.174   4.224   1.315
 8575TIP3    H125668   7.198   4.314   1.338
 8575TIP3    H225669   7.108   4.201   1.380
 8576TIP3   OH225670   4.248   5.795   2.312
 8576TIP3    H125671   4.263   5.889   2.300
 8576TIP3    H225672   4.335   5.759   2.328
 8577TIP3   OH225673   2.908   7.121   3.141
 8577TIP3    H125674   2.876   7.041   3.101
 8577TIP3    H225675   2.920   7.182   3.068
 8578TIP3   OH225676   6.014   6.819   3.900
 8578TIP3    H125677   6.082   6.871   3.944
 8578TIP3    H225678   6.055   6.734   3.885
 8579TIP3   OH225679   5.061   5.075   2.254
 8579TIP3    H125680   4.969   5.059   2.233
 8579TIP3    H225681   5.065   5.071   2.349
 8580TIP3   OH225682   6.017   3.581   0.499
 8580TIP3    H125683   5.992   3.549   0.413
 8580TIP3    H225684   5.934   3.606   0.540
 8581TIP3   OH225685   0.161   0.414   3.902
 8581TIP3    H125686   0.150   0.465   3.822
 8581TIP3    H225687   0.220   0.467   3.956
 8582TIP3   OH225688   7.295   4.456   3.359
 8582TIP3    H125689   7.370   4.410   3.324
 8582TIP3    H225690   7.251   4.391   3.415
 8583TIP3   OH225691   4.193   0.664   0.200
 8583TIP3    H125692   4.249   0.595   0.235
 8583TIP3    H225693   4.122   0.618   0.156
 8584TIP3   OH225694   3.038   3.693   2.157
 8584TIP3    H125695   3.090   3.721   2.081
 8584TIP3    H225696   3.104   3.677   2.225
 8585TIP3   OH225697   2.092   2.879   4.530
 8585TIP3    H125698   2.104   2.824   4.607
 8585TIP3    H225699   2.164   2.857   4.472
 8586TIP3   OH225700   7.827   6.292   4.717
 8586TIP3    H125701   7.821   6.364   4.780
 8586TIP3    H225702   7.911   6.250   4.736
 8587TIP3   OH225703   1.120   0.318   3.145
 8587TIP3    H125704   1.091   0.278   3.062
 8587TIP3    H225705   1.199   0.366   3.121
 8588TIP3   OH225706   0.714   6.395   3.259
 8588TIP3    H125707   0.690   6.337   3.331
 8588TIP3    H225708   0.807   6.414   3.274
 8589TIP3   OH225709   5.363   4.999   0.661
 8589TIP3    H125710   5.404   5.073   0.706
 8589TIP3    H225711   5.335   5.036   0.577
 8590TIP3   OH225712   0.417   5.777   1.309
 8590TIP3    H125713   0.373   5.786   1.224
 8590TIP3    H225714   0.348   5.755   1.371
 8591TIP3   OH225715   1.361   6.915   1.970
 8591TIP3    H125716   1.277   6.930   1.926
 8591TIP3    H225717   1.409   6.855   1.912
 8592TIP3   OH225718   8.187   4.992   1.746
 8592TIP3    H125719   8.176   4.903   1.713
 8592TIP3    H225720   8.221   4.981   1.835
 8593TIP3   OH225721   3.915   2.625   1.257
 8593TIP3    H125722   3.924   2.678   1.178
 8593TIP3    H225723   4.004   2.595   1.276
 8594TIP3   OH225724   0.814   3.225   2.993
 8594TIP3    H125725   0.741   3.273   2.955
 8594TIP3    H225726   0.776   3.174   3.064
 8595TIP3   OH225727   3.410   3.917   6.436
 8595TIP3    H125728   3.342   3.980   6.412
 8595TIP3    H225729   3.481   3.971   6.471
 8596TIP3   OH225730   5.964   6.079   6.425
 8596TIP3    H125731   5.952   6.056   6.517
 8596TIP3    H225732   6.029   6.016   6.393
 8597TIP3   OH225733   5.566   0.224   0.145
 8597TIP3    H125734   5.600   0.270   0.068
 8597TIP3    H225735   5.529   0.143   0.110
 8598TIP3   OH225736   1.184   4.352   0.820
 8598TIP3    H125737   1.258   4.370   0.877
 8598TIP3    H225738   1.186   4.422   0.754
 8599TIP3   OH225739   6.830   2.022   2.664
 8599TIP3    H125740   6.780   1.947   2.698
 8599TIP3    H225741   6.920   1.990   2.658
 8600TIP3   OH225742   1.763   7.757   3.145
 8600TIP3    H125743   1.774   7.800   3.230
 8600TIP3    H225744   1.683   7.706   3.154
 8601TIP3   OH225745   1.893   6.147   4.125
 8601TIP3    H125746   1.915   6.221   4.068
 8601TIP3    H225747   1.937   6.168   4.208
 8602TIP3   OH225748   4.472   0.417   2.510
 8602TIP3    H125749   4.473   0.396   2.417
 8602TIP3    H225750   4.563   0.405   2.538
 8603TIP3   OH225751   1.598   1.424   2.024
 8603TIP3    H125752   1.509   1.456   2.015
 8603TIP3    H225753   1.638   1.439   1.938
 8604TIP3   OH225754   1.935   2.987   4.737
 8604TIP3    H125755   2.000   3.017   4.801
 8604TIP3    H225756   1.986   2.969   4.658
 8605TIP3   OH225757   6.925   3.049   3.007
 8605TIP3    H125758   6.856   3.035   2.942
 8605TIP3    H225759   6.961   3.135   2.985
 8606TIP3   OH225760   1.355   1.540   5.569
 8606TIP3    H125761   1.267   1.501   5.571
 8606TIP3    H225762   1.367   1.567   5.478
 8607TIP3   OH225763   4.175   1.225   1.651
 8607TIP3    H125764   4.112   1.226   1.723
 8607TIP3    H225765   4.257   1.199   1.692
 8608TIP3   OH225766   4.405   1.520   5.268
 8608TIP3    H125767   4.428   1.613   5.266
 8608TIP3    H225768   4.366   1.504   5.183
 8609TIP3   OH225769   3.594   0.731   4.354
 8609TIP3    H125770   3.524   0.666   4.362
 8609TIP3    H225771   3.584   0.787   4.432
 8610TIP3   OH225772   4.356   0.716   6.216
 8610TIP3    H125773   4.288   0.772   6.252
 8610TIP3    H225774   4.434   0.739   6.267
 8611TIP3   OH225775   3.325   2.297   4.936
 8611TIP3    H125776   3.401   2.282   4.993
 8611TIP3    H225777   3.319   2.392   4.929
 8612TIP3   OH225778   1.528   5.156   2.421
 8612TIP3    H125779   1.536   5.060   2.424
 8612TIP3    H225780   1.519   5.182   2.512
 8613TIP3   OH225781   7.401   0.385   1.634
 8613TIP3    H125782   7.393   0.479   1.649
 8613TIP3    H225783   7.491   0.373   1.604
 8614TIP3   OH225784   2.090   4.727   1.815
 8614TIP3    H125785   2.141   4.779   1.752
 8614TIP3    H225786   1.999   4.743   1.790
 8615TIP3   OH225787   4.674   7.412   1.795
 8615TIP3    H125788   4.665   7.339   1.733
 8615TIP3    H225789   4.618   7.481   1.760
 8616TIP3   OH225790   7.285   6.072   4.234
 8616TIP3    H125791   7.259   6.130   4.162
 8616TIP3    H225792   7.376   6.051   4.217
 8617TIP3   OH225793   5.270   6.290   4.306
 8617TIP3    H125794   5.362   6.283   4.280
 8617TIP3    H225795   5.251   6.205   4.347
 8618TIP3   OH225796   5.632   6.112   1.752
 8618TIP3    H125797   5.695   6.071   1.811
 8618TIP3    H225798   5.604   6.191   1.800
 8619TIP3   OH225799   0.991   5.183   2.591
 8619TIP3    H125800   1.071   5.136   2.570
 8619TIP3    H225801   1.020   5.256   2.646
 8620TIP3   OH225802   4.173   6.851   1.467
 8620TIP3    H125803   4.088   6.853   1.512
 8620TIP3    H225804   4.228   6.911   1.518
 8621TIP3   OH225805   5.089   0.948   0.947
 8621TIP3    H125806   5.107   0.995   0.866
 8621TIP3    H225807   5.010   0.897   0.928
 8622TIP3   OH225808   2.016   1.234   4.296
 8622TIP3    H125809   2.015   1.282   4.378
 8622TIP3    H225810   1.927   1.244   4.262
 8623TIP3   OH225811   3.979   6.515   3.695
 8623TIP3    H125812   3.907   6.520   3.632
 8623TIP3    H225813   3.936   6.512   3.780
 8624TIP3   OH225814   1.733   3.115   4.406
 8624TIP3    H125815   1.727   3.062   4.486
 8624TIP3    H225816   1.695   3.061   4.338
 8625TIP3   OH225817   8.073   4.006   0.803
 8625TIP3    H125818   8.039   4.074   0.862
 8625TIP3    H225819   8.001   3.991   0.741
 8626TIP3   OH225820   3.051   0.824   1.401
 8626TIP3    H125821   2.957   0.814   1.410
 8626TIP3    H225822   3.086   0.736   1.419
 8627TIP3   OH225823   6.330   3.479   3.547
 8627TIP3    H125824   6.286   3.512   3.469
 8627TIP3    H225825   6.386   3.408   3.515
 8628TIP3   OH225826   6.943   3.368   0.581
 8628TIP3    H125827   6.957   3.463   0.588
 8628TIP3    H225828   6.989   3.332   0.657
 8629TIP3   OH225829   0.083   0.671   4.273
 8629TIP3    H125830   0.055   0.653   4.363
 8629TIP3    H225831   0.177   0.686   4.280
 8630TIP3   OH225832   0.439   3.191   5.459
 8630TIP3    H125833   0.380   3.180   5.385
 8630TIP3    H225834   0.451   3.285   5.466
 8631TIP3   OH225835   2.722   7.739   6.556
 8631TIP3    H125836   2.629   7.714   6.557
 8631TIP3    H225837   2.759   7.692   6.481
 8632TIP3   OH225838   2.550   6.476   4.578
 8632TIP3    H125839   2.480   6.440   4.525
 8632TIP3    H225840   2.626   6.421   4.559
 8633TIP3   OH225841   7.195   0.031   3.086
 8633TIP3    H125842   7.273   0.080   3.058
 8633TIP3    H225843   7.126   0.097   3.091
 8634TIP3   OH225844   2.780   0.538   2.324
 8634TIP3    H125845   2.711   0.572   2.381
 8634TIP3    H225846   2.799   0.611   2.264
 8635TIP3   OH225847   2.211   4.528   1.200
 8635TIP3    H125848   2.235   4.570   1.283
 8635TIP3    H225849   2.241   4.438   1.208
 8636TIP3   OH225850   1.581   1.235   5.628
 8636TIP3    H125851   1.555   1.175   5.698
 8636TIP3    H225852   1.516   1.305   5.632
 8637TIP3   OH225853   7.014   3.741   1.620
 8637TIP3    H125854   6.964   3.694   1.686
 8637TIP3    H225855   7.097   3.694   1.613
 8638TIP3   OH225856   2.186   1.863   3.524
 8638TIP3    H125857   2.114   1.870   3.586
 8638TIP3    H225858   2.264   1.856   3.579
 8639TIP3   OH225859   0.711   2.831   2.910
 8639TIP3    H125860   0.650   2.890   2.865
 8639TIP3    H225861   0.798   2.860   2.881
 8640TIP3   OH225862   3.679   5.100   5.898
 8640TIP3    H125863   3.587   5.075   5.906
 8640TIP3    H225864   3.708   5.058   5.817
 8641TIP3   OH225865   4.449   7.514   0.874
 8641TIP3    H125866   4.388   7.559   0.932
 8641TIP3    H225867   4.395   7.483   0.801
 8642TIP3   OH225868   3.279   5.849   5.588
 8642TIP3    H125869   3.269   5.922   5.649
 8642TIP3    H225870   3.242   5.774   5.634
 8643TIP3   OH225871   6.874   0.973   4.422
 8643TIP3    H125872   6.892   1.014   4.506
 8643TIP3    H225873   6.798   1.020   4.388
 8644TIP3   OH225874   6.141   3.064   5.501
 8644TIP3    H125875   6.069   3.009   5.470
 8644TIP3    H225876   6.112   3.154   5.483
 8645TIP3   OH225877   5.493   7.658   6.145
 8645TIP3    H125878   5.450   7.659   6.230
 8645TIP3    H225879   5.431   7.612   6.087
 8646TIP3   OH225880   7.449   4.760   1.424
 8646TIP3    H125881   7.436   4.829   1.489
 8646TIP3    H225882   7.541   4.768   1.399
 8647TIP3   OH225883   5.018   5.713   1.222
 8647TIP3    H125884   4.948   5.649   1.213
 8647TIP3    H225885   5.040   5.738   1.133
 8648TIP3   OH225886   5.493   3.729   5.844
 8648TIP3    H125887   5.426   3.667   5.874
 8648TIP3    H225888   5.449   3.814   5.845
 8649TIP3   OH225889   4.034   1.512   4.978
 8649TIP3    H125890   4.108   1.561   5.015
 8649TIP3    H225891   4.066   1.482   4.893
 8650TIP3   OH225892   3.126   3.705   1.132
 8650TIP3    H125893   3.082   3.623   1.156
 8650TIP3    H225894   3.132   3.753   1.214
 8651TIP3   OH225895   1.189   3.362   6.716
 8651TIP3    H125896   1.103   3.380   6.680
 8651TIP3    H225897   1.204   3.269   6.697
 8652TIP3   OH225898   7.324   6.635   4.916
 8652TIP3    H125899   7.289   6.547   4.900
 8652TIP3    H225900   7.318   6.678   4.831
 8653TIP3   OH225901   3.860   6.701   3.221
 8653TIP3    H125902   3.846   6.795   3.217
 8653TIP3    H225903   3.822   6.668   3.139
 8654TIP3   OH225904   4.070   7.555   4.149
 8654TIP3    H125905   4.092   7.648   4.149
 8654TIP3    H225906   3.998   7.547   4.211
 8655TIP3   OH225907   1.963   2.438   1.002
 8655TIP3    H125908   1.962   2.344   1.015
 8655TIP3    H225909   1.983   2.475   1.088
 8656TIP3   OH225910   4.800   0.297   1.712
 8656TIP3    H125911   4.734   0.361   1.737
 8656TIP3    H225912   4.787   0.223   1.771
 8657TIP3   OH225913   4.394   7.589   2.543
 8657TIP3    H125914   4.467   7.626   2.593
 8657TIP3    H225915   4.392   7.639   2.462
 8658TIP3   OH225916   1.350   2.873   0.179
 8658TIP3    H125917   1.390   2.788   0.194
 8658TIP3    H225918   1.395   2.908   0.102
 8659TIP3   OH225919   3.039   0.930   4.216
 8659TIP3    H125920   3.119   0.922   4.165
 8659TIP3    H225921   3.063   0.900   4.304
 8660TIP3   OH225922   4.745   6.934   6.510
 8660TIP3    H125923   4.730   7.017   6.465
 8660TIP3    H225924   4.811   6.890   6.457
 8661TIP3   OH225925   3.180   6.376   5.245
 8661TIP3    H125926   3.158   6.311   5.178
 8661TIP3    H225927   3.205   6.324   5.321
 8662TIP3   OH225928   5.514   6.262   4.174
 8662TIP3    H125929   5.504   6.172   4.205
 8662TIP3    H225930   5.607   6.281   4.184
 8663TIP3   OH225931   0.909   4.764   6.232
 8663TIP3    H125932   0.990   4.792   6.189
 8663TIP3    H225933   0.882   4.687   6.182
 8664TIP3   OH225934   7.046   5.662   1.006
 8664TIP3    H125935   7.124   5.657   1.061
 8664TIP3    H225936   6.973   5.669   1.068
 8665TIP3   OH225937   3.591   5.921   2.208
 8665TIP3    H125938   3.511   5.869   2.199
 8665TIP3    H225939   3.630   5.921   2.121
 8666TIP3   OH225940   3.630   0.102   5.766
 8666TIP3    H125941   3.694   0.171   5.783
 8666TIP3    H225942   3.571   0.139   5.700
 8667TIP3   OH225943   4.998   5.941   0.465
 8667TIP3    H125944   5.007   6.027   0.425
 8667TIP3    H225945   4.905   5.920   0.456
 8668TIP3   OH225946   0.888   2.248   4.517
 8668TIP3    H125947   0.907   2.232   4.610
 8668TIP3    H225948   0.829   2.177   4.492
 8669TIP3   OH225949   5.940   6.378   3.176
 8669TIP3    H125950   5.924   6.325   3.254
 8669TIP3    H225951   5.860   6.369   3.124
 8670TIP3   OH225952   3.412   4.613   1.149
 8670TIP3    H125953   3.441   4.530   1.188
 8670TIP3    H225954   3.320   4.599   1.129
 8671TIP3   OH225955   6.010   2.273   3.036
 8671TIP3    H125956   6.059   2.342   3.081
 8671TIP3    H225957   5.971   2.316   2.960
 8672TIP3   OH225958   2.153   3.099   3.815
 8672TIP3    H125959   2.065   3.091   3.852
 8672TIP3    H225960   2.167   3.016   3.769
 8673TIP3   OH225961   4.586   6.274   5.663
 8673TIP3    H125962   4.633   6.337   5.717
 8673TIP3    H225963   4.522   6.327   5.615
 8674TIP3   OH225964   4.628   5.831   3.567
 8674TIP3    H125965   4.599   5.921   3.552
 8674TIP3    H225966   4.603   5.784   3.487
 8675TIP3   OH225967   2.471   7.421   1.596
 8675TIP3    H125968   2.383   7.386   1.609
 8675TIP3    H225969   2.513   7.359   1.536
 8676TIP3   OH225970   5.623   4.729   4.775
 8676TIP3    H125971   5.654   4.682   4.697
 8676TIP3    H225972   5.600   4.660   4.837
 8677TIP3   OH225973   7.484   1.693   4.900
 8677TIP3    H125974   7.484   1.789   4.893
 8677TIP3    H225975   7.435   1.675   4.979
 8678TIP3   OH225976   4.390   0.360   4.994
 8678TIP3    H125977   4.391   0.418   4.918
 8678TIP3    H225978   4.333   0.287   4.967
 8679TIP3   OH225979   5.756   4.252   6.724
 8679TIP3    H125980   5.699   4.231   6.651
 8679TIP3    H225981   5.727   4.339   6.752
 8680TIP3   OH225982   6.945   7.836   6.270
 8680TIP3    H125983   6.952   7.750   6.228
 8680TIP3    H225984   7.030   7.849   6.311
 8681TIP3   OH225985   0.263   5.606   6.008
 8681TIP3    H125986   0.355   5.634   6.016
 8681TIP3    H225987   0.265   5.512   6.025
 8682TIP3   OH225988   4.432   4.465   3.132
 8682TIP3    H125989   4.434   4.558   3.153
 8682TIP3    H225990   4.379   4.425   3.201
 8683TIP3   OH225991   1.368   0.681   4.725
 8683TIP3    H125992   1.448   0.708   4.771
 8683TIP3    H225993   1.336   0.606   4.774
 8684TIP3   OH225994   0.778   5.150   4.225
 8684TIP3    H125995   0.811   5.124   4.139
 8684TIP3    H225996   0.826   5.230   4.246
 8685TIP3   OH225997   0.921   5.443   0.550
 8685TIP3    H125998   0.939   5.521   0.603
 8685TIP3    H225999   0.985   5.378   0.580
 8686TIP3   OH226000   0.540   2.973   4.706
 8686TIP3    H126001   0.512   3.064   4.714
 8686TIP3    H226002   0.630   2.972   4.739
 8687TIP3   OH226003   6.277   2.624   2.859
 8687TIP3    H126004   6.291   2.540   2.814
 8687TIP3    H226005   6.350   2.679   2.830
 8688TIP3   OH226006   3.119   7.466   0.421
 8688TIP3    H126007   3.158   7.553   0.429
 8688TIP3    H226008   3.097   7.457   0.328
 8689TIP3   OH226009   2.685   5.334   4.827
 8689TIP3    H126010   2.673   5.422   4.861
 8689TIP3    H226011   2.665   5.340   4.734
 8690TIP3   OH226012   2.234   0.997   3.347
 8690TIP3    H126013   2.163   1.061   3.347
 8690TIP3    H226014   2.284   1.016   3.268
 8691TIP3   OH226015   1.425   2.409   2.336
 8691TIP3    H126016   1.341   2.453   2.321
 8691TIP3    H226017   1.407   2.348   2.407
 8692TIP3   OH226018   8.076   1.113   1.202
 8692TIP3    H126019   8.043   1.068   1.125
 8692TIP3    H226020   8.151   1.163   1.170
 8693TIP3   OH226021   3.138   3.658   6.263
 8693TIP3    H126022   3.094   3.603   6.199
 8693TIP3    H226023   3.154   3.600   6.338
 8694TIP3   OH226024   6.384   0.219   1.285
 8694TIP3    H126025   6.294   0.235   1.311
 8694TIP3    H226026   6.416   0.156   1.350
 8695TIP3   OH226027   1.985   1.981   6.069
 8695TIP3    H126028   1.931   1.910   6.035
 8695TIP3    H226029   2.039   2.009   5.995
 8696TIP3   OH226030   6.235   2.034   6.411
 8696TIP3    H126031   6.269   1.950   6.440
 8696TIP3    H226032   6.278   2.049   6.326
 8697TIP3   OH226033   1.776   4.738   3.261
 8697TIP3    H126034   1.847   4.797   3.237
 8697TIP3    H226035   1.719   4.736   3.185
 8698TIP3   OH226036   1.574   2.193   5.998
 8698TIP3    H126037   1.614   2.156   5.919
 8698TIP3    H226038   1.642   2.186   6.065
 8699TIP3   OH226039   4.752   6.323   6.473
 8699TIP3    H126040   4.696   6.251   6.501
 8699TIP3    H226041   4.742   6.326   6.378
 8700TIP3   OH226042   4.999   0.210   1.966
 8700TIP3    H126043   5.016   0.289   1.914
 8700TIP3    H226044   4.910   0.185   1.942
 8701TIP3   OH226045   3.814   7.479   1.772
 8701TIP3    H126046   3.736   7.533   1.761
 8701TIP3    H226047   3.785   7.391   1.746
 8702TIP3   OH226048   1.885   2.114   1.075
 8702TIP3    H126049   1.889   2.103   0.980
 8702TIP3    H226050   1.879   2.024   1.109
 8703TIP3   OH226051   6.912   2.881   0.757
 8703TIP3    H126052   6.962   2.908   0.680
 8703TIP3    H226053   6.854   2.812   0.725
 8704TIP3   OH226054   6.218   4.301   4.428
 8704TIP3    H126055   6.255   4.219   4.396
 8704TIP3    H226056   6.139   4.314   4.376
 8705TIP3   OH226057   1.314   7.621   1.875
 8705TIP3    H126058   1.308   7.702   1.825
 8705TIP3    H226059   1.376   7.568   1.827
 8706TIP3   OH226060   2.523   3.073   0.389
 8706TIP3    H126061   2.539   3.101   0.479
 8706TIP3    H226062   2.518   2.977   0.395
 8707TIP3   OH226063   3.071   1.287   5.979
 8707TIP3    H126064   3.049   1.358   5.919
 8707TIP3    H226065   3.047   1.320   6.066
 8708TIP3   OH226066   2.688   2.000   2.362
 8708TIP3    H126067   2.782   2.008   2.377
 8708TIP3    H226068   2.681   1.937   2.291
 8709TIP3   OH226069   6.997   0.092   3.713
 8709TIP3    H126070   7.088   0.076   3.687
 8709TIP3    H226071   6.951   0.012   3.689
 8710TIP3   OH226072   6.867   3.947   2.422
 8710TIP3    H126073   6.828   4.019   2.374
 8710TIP3    H226074   6.962   3.958   2.409
 8711TIP3   OH226075   5.823   6.308   2.324
 8711TIP3    H126076   5.794   6.314   2.233
 8711TIP3    H226077   5.864   6.392   2.343
 8712TIP3   OH226078   5.830   2.711   3.902
 8712TIP3    H126079   5.754   2.762   3.931
 8712TIP3    H226080   5.890   2.714   3.977
 8713TIP3   OH226081   1.142   2.415   5.183
 8713TIP3    H126082   1.213   2.474   5.208
 8713TIP3    H226083   1.091   2.405   5.263
 8714TIP3   OH226084   0.805   0.039   1.933
 8714TIP3    H126085   0.792   0.050   1.838
 8714TIP3    H226086   0.882   0.093   1.953
 8715TIP3   OH226087   3.446   7.058   2.612
 8715TIP3    H126088   3.431   6.986   2.551
 8715TIP3    H226089   3.521   7.105   2.577
 8716TIP3   OH226090   1.444   0.582   2.779
 8716TIP3    H126091   1.487   0.533   2.709
 8716TIP3    H226092   1.493   0.560   2.858
 8717TIP3   OH226093   2.342   4.690   3.764
 8717TIP3    H126094   2.314   4.607   3.802
 8717TIP3    H226095   2.373   4.742   3.838
 8718TIP3   OH226096   2.685   2.776   1.449
 8718TIP3    H126097   2.696   2.683   1.464
 8718TIP3    H226098   2.616   2.803   1.510
 8719TIP3   OH226099   7.307   5.982   0.847
 8719TIP3    H126100   7.265   5.896   0.840
 8719TIP3    H226101   7.335   6.003   0.758
 8720TIP3   OH226102   2.495   2.574   4.939
 8720TIP3    H126103   2.486   2.587   4.845
 8720TIP3    H226104   2.500   2.479   4.950
 8721TIP3   OH226105   1.609   5.272   3.121
 8721TIP3    H126106   1.530   5.270   3.069
 8721TIP3    H226107   1.589   5.333   3.193
 8722TIP3   OH226108   1.103   2.698   0.589
 8722TIP3    H126109   1.127   2.679   0.498
 8722TIP3    H226110   1.186   2.696   0.637
 8723TIP3   OH226111   6.786   1.001   5.873
 8723TIP3    H126112   6.843   0.972   5.944
 8723TIP3    H226113   6.755   0.920   5.832
 8724TIP3   OH226114   1.993   4.646   6.097
 8724TIP3    H126115   1.965   4.577   6.037
 8724TIP3    H226116   2.085   4.629   6.112
 8725TIP3   OH226117   1.095   1.097   5.006
 8725TIP3    H126118   1.169   1.079   4.948
 8725TIP3    H226119   1.078   1.190   4.995
 8726TIP3   OH226120   4.710   5.298   6.484
 8726TIP3    H126121   4.798   5.263   6.479
 8726TIP3    H226122   4.657   5.225   6.516
 8727TIP3   OH226123   0.688   6.330   2.986
 8727TIP3    H126124   0.688   6.349   3.080
 8727TIP3    H226125   0.637   6.401   2.947
 8728TIP3   OH226126   8.176   0.804   2.854
 8728TIP3    H126127   8.139   0.845   2.932
 8728TIP3    H226128   8.132   0.720   2.847
 8729TIP3   OH226129   0.693   1.953   2.986
 8729TIP3    H126130   0.632   1.885   2.959
 8729TIP3    H226131   0.764   1.906   3.029
 8730TIP3   OH226132   2.877   4.914   1.199
 8730TIP3    H126133   2.953   4.946   1.248
 8730TIP3    H226134   2.829   4.862   1.263
 8731TIP3   OH226135   6.201   6.931   3.299
 8731TIP3    H126136   6.255   6.861   3.336
 8731TIP3    H226137   6.114   6.917   3.336
 8732TIP3   OH226138   6.201   7.088   3.596
 8732TIP3    H126139   6.193   6.998   3.627
 8732TIP3    H226140   6.129   7.099   3.534
 8733TIP3   OH226141   7.069   1.578   1.307
 8733TIP3    H126142   7.025   1.547   1.386
 8733TIP3    H226143   7.124   1.650   1.337
 8734TIP3   OH226144   7.336   2.188   1.735
 8734TIP3    H126145   7.401   2.117   1.733
 8734TIP3    H226146   7.342   2.229   1.649
 8735TIP3   OH226147   2.539   0.761   5.672
 8735TIP3    H126148   2.574   0.849   5.664
 8735TIP3    H226149   2.508   0.756   5.763
 8736TIP3   OH226150   3.399   4.060   2.796
 8736TIP3    H126151   3.490   4.086   2.809
 8736TIP3    H226152   3.350   4.142   2.790
 8737TIP3   OH226153   7.910   7.409   1.181
 8737TIP3    H126154   7.934   7.388   1.090
 8737TIP3    H226155   7.946   7.337   1.233
 8738TIP3   OH226156   4.198   2.603   1.950
 8738TIP3    H126157   4.161   2.563   2.028
 8738TIP3    H226158   4.257   2.671   1.983
 8739TIP3   OH226159   7.491   3.118   2.925
 8739TIP3    H126160   7.522   3.193   2.875
 8739TIP3    H226161   7.510   3.140   3.016
 8740TIP3   OH226162   3.000   5.994   1.102
 8740TIP3    H126163   3.037   6.061   1.161
 8740TIP3    H226164   2.921   5.964   1.147
 8741TIP3   OH226165   7.475   1.564   2.654
 8741TIP3    H126166   7.473   1.520   2.569
 8741TIP3    H226167   7.396   1.617   2.655
 8742TIP3   OH226168   3.607   3.639   4.188
 8742TIP3    H126169   3.684   3.694   4.172
 8742TIP3    H226170   3.632   3.553   4.155
 8743TIP3   OH226171   3.591   6.384   3.722
 8743TIP3    H126172   3.588   6.319   3.652
 8743TIP3    H226173   3.521   6.445   3.701
 8744TIP3   OH226174   3.204   0.618   6.136
 8744TIP3    H126175   3.268   0.571   6.082
 8744TIP3    H226176   3.180   0.556   6.205
 8745TIP3   OH226177   2.938   1.013   6.221
 8745TIP3    H126178   2.990   1.093   6.224
 8745TIP3    H226179   2.889   1.013   6.303
 8746TIP3   OH226180   0.236   5.787   1.084
 8746TIP3    H126181   0.271   5.753   1.002
 8746TIP3    H226182   0.161   5.730   1.103
 8747TIP3   OH226183   2.314   6.767   2.845
 8747TIP3    H126184   2.370   6.721   2.783
 8747TIP3    H226185   2.373   6.828   2.889
 8748TIP3   OH226186   6.331   6.709   5.791
 8748TIP3    H126187   6.302   6.780   5.734
 8748TIP3    H226188   6.310   6.629   5.742
 8749TIP3   OH226189   3.676   3.093   2.047
 8749TIP3    H126190   3.723   3.011   2.060
 8749TIP3    H226191   3.608   3.093   2.115
 8750TIP3   OH226192   5.707   1.700   2.589
 8750TIP3    H126193   5.798   1.687   2.564
 8750TIP3    H226194   5.708   1.776   2.647
 8751TIP3   OH226195   1.742   0.376   3.700
 8751TIP3    H126196   1.668   0.388   3.760
 8751TIP3    H226197   1.711   0.310   3.637
 8752TIP3   OH226198   1.204   3.953   2.716
 8752TIP3    H126199   1.241   3.988   2.797
 8752TIP3    H226200   1.112   3.937   2.736
 8753TIP3   OH226201   3.633   6.837   4.849
 8753TIP3    H126202   3.583   6.783   4.910
 8753TIP3    H226203   3.673   6.904   4.903
 8754TIP3   OH226204   1.224   1.805   2.062
 8754TIP3    H126205   1.278   1.815   1.983
 8754TIP3    H226206   1.253   1.875   2.120
 8755TIP3   OH226207   7.650   0.454   2.106
 8755TIP3    H126208   7.682   0.370   2.073
 8755TIP3    H226209   7.557   0.455   2.084
 8756TIP3   OH226210   3.039   4.977   1.764
 8756TIP3    H126211   2.999   4.892   1.779
 8756TIP3    H226212   3.123   4.957   1.722
 8757TIP3   OH226213   2.993   3.631   3.558
 8757TIP3    H126214   3.046   3.711   3.557
 8757TIP3    H226215   3.054   3.563   3.589
 8758TIP3   OH226216   3.825   7.067   3.890
 8758TIP3    H126217   3.762   7.024   3.833
 8758TIP3    H226218   3.793   7.158   3.896
 8759TIP3   OH226219   2.458   4.816   3.547
 8759TIP3    H126220   2.551   4.798   3.563
 8759TIP3    H226221   2.412   4.764   3.613
 8760TIP3   OH226222   7.870   2.791   6.353
 8760TIP3    H126223   7.813   2.868   6.346
 8760TIP3    H226224   7.957   2.823   6.330
 8761TIP3   OH226225   1.089   4.972   6.526
 8761TIP3    H126226   1.080   5.012   6.613
 8761TIP3    H226227   1.107   5.045   6.468
 8762TIP3   OH226228   3.197   6.839   4.137
 8762TIP3    H126229   3.142   6.772   4.178
 8762TIP3    H226230   3.146   6.869   4.062
 8763TIP3   OH226231   6.094   1.848   2.478
 8763TIP3    H126232   6.150   1.924   2.465
 8763TIP3    H226233   6.031   1.876   2.545
 8764TIP3   OH226234   8.013   6.333   2.275
 8764TIP3    H126235   7.992   6.426   2.286
 8764TIP3    H226236   8.077   6.331   2.204
 8765TIP3   OH226237   2.251   3.634   6.419
 8765TIP3    H126238   2.277   3.707   6.362
 8765TIP3    H226239   2.304   3.560   6.389
 8766TIP3   OH226240   1.933   4.538   1.163
 8766TIP3    H126241   1.931   4.620   1.211
 8766TIP3    H226242   2.022   4.506   1.173
 8767TIP3   OH226243   3.999   6.085   4.556
 8767TIP3    H126244   4.079   6.135   4.572
 8767TIP3    H226245   3.998   6.018   4.624
 8768TIP3   OH226246   3.985   7.655   5.658
 8768TIP3    H126247   3.925   7.718   5.697
 8768TIP3    H226248   4.065   7.706   5.641
 8769TIP3   OH226249   6.119   5.065   6.840
 8769TIP3    H126250   6.049   5.121   6.808
 8769TIP3    H226251   6.150   5.018   6.762
 8770TIP3   OH226252   4.477   1.358   5.482
 8770TIP3    H126253   4.447   1.415   5.411
 8770TIP3    H226254   4.476   1.270   5.444
 8771TIP3   OH226255   4.482   5.279   0.911
 8771TIP3    H126256   4.531   5.197   0.919
 8771TIP3    H226257   4.531   5.341   0.965
 8772TIP3   OH226258   3.888   4.153   0.446
 8772TIP3    H126259   3.808   4.172   0.397
 8772TIP3    H226260   3.857   4.122   0.531
 8773TIP3   OH226261   0.911   1.438   6.311
 8773TIP3    H126262   0.889   1.473   6.397
 8773TIP3    H226263   0.849   1.480   6.251
 8774TIP3   OH226264   2.763   4.948   0.272
 8774TIP3    H126265   2.798   4.958   0.184
 8774TIP3    H226266   2.668   4.943   0.259
 8775TIP3   OH226267   3.132   0.077   6.466
 8775TIP3    H126268   3.161   0.115   6.549
 8775TIP3    H226269   3.113   0.152   6.410
 8776TIP3   OH226270   6.124   6.758   5.421
 8776TIP3    H126271   6.160   6.789   5.504
 8776TIP3    H226272   6.145   6.827   5.358
 8777TIP3   OH226273   2.235   0.421   3.710
 8777TIP3    H126274   2.195   0.484   3.650
 8777TIP3    H226275   2.281   0.474   3.775
 8778TIP3   OH226276   6.365   4.590   4.897
 8778TIP3    H126277   6.323   4.636   4.825
 8778TIP3    H226278   6.428   4.654   4.932
 8779TIP3   OH226279   1.222   0.894   2.483
 8779TIP3    H126280   1.238   0.894   2.577
 8779TIP3    H226281   1.169   0.816   2.468
 8780TIP3   OH226282   1.580   4.702   2.251
 8780TIP3    H126283   1.564   4.763   2.323
 8780TIP3    H226284   1.493   4.683   2.216
 8781TIP3   OH226285   0.064   4.650   1.290
 8781TIP3    H126286   0.064   4.739   1.255
 8781TIP3    H226287   0.077   4.593   1.214
 8782TIP3   OH226288   4.055   2.639   0.651
 8782TIP3    H126289   4.055   2.593   0.735
 8782TIP3    H226290   4.119   2.709   0.663
 8783TIP3   OH226291   0.666   6.002   6.450
 8783TIP3    H126292   0.668   5.971   6.541
 8783TIP3    H226293   0.755   6.030   6.432
 8784TIP3   OH226294   7.065   2.355   4.448
 8784TIP3    H126295   7.090   2.448   4.444
 8784TIP3    H226296   7.092   2.327   4.536
 8785TIP3   OH226297   0.623   2.678   2.640
 8785TIP3    H126298   0.706   2.644   2.671
 8785TIP3    H226299   0.622   2.769   2.670
 8786TIP3   OH226300   6.973   6.383   5.082
 8786TIP3    H126301   7.031   6.325   5.130
 8786TIP3    H226302   7.026   6.415   5.009
 8787TIP3   OH226303   0.582   7.206   5.581
 8787TIP3    H126304   0.638   7.187   5.505
 8787TIP3    H226305   0.629   7.170   5.656
 8788TIP3   OH226306   1.008   0.227   1.962
 8788TIP3    H126307   1.064   0.280   1.905
 8788TIP3    H226308   1.053   0.229   2.047
 8789TIP3   OH226309   3.504   2.498   0.852
 8789TIP3    H126310   3.572   2.530   0.793
 8789TIP3    H226311   3.442   2.453   0.795
 8790TIP3   OH226312   0.183   5.011   3.436
 8790TIP3    H126313   0.173   5.021   3.531
 8790TIP3    H226314   0.108   5.058   3.399
 8791TIP3   OH226315   6.519   6.840   3.721
 8791TIP3    H126316   6.523   6.790   3.639
 8791TIP3    H226317   6.458   6.792   3.776
 8792TIP3   OH226318   0.928   6.994   4.532
 8792TIP3    H126319   0.958   6.903   4.529
 8792TIP3    H226320   0.833   6.987   4.541
 8793TIP3   OH226321   0.619   0.598   1.681
 8793TIP3    H126322   0.656   0.556   1.758
 8793TIP3    H226323   0.531   0.561   1.673
 8794TIP3   OH226324   2.951   5.527   6.735
 8794TIP3    H126325   2.864   5.563   6.722
 8794TIP3    H226326   2.996   5.592   6.789
 8795TIP3   OH226327   4.696   2.039   1.385
 8795TIP3    H126328   4.660   2.083   1.462
 8795TIP3    H226329   4.619   2.009   1.336
 8796TIP3   OH226330   4.674   4.551   4.808
 8796TIP3    H126331   4.750   4.507   4.846
 8796TIP3    H226332   4.630   4.591   4.882
 8797TIP3   OH226333   0.230   0.113   2.099
 8797TIP3    H126334   0.310   0.165   2.108
 8797TIP3    H226335   0.174   0.164   2.042
 8798TIP3   OH226336   2.135   5.258   2.274
 8798TIP3    H126337   2.154   5.228   2.185
 8798TIP3    H226338   2.221   5.272   2.313
 8799TIP3   OH226339   1.551   5.036   3.307
 8799TIP3    H126340   1.587   5.119   3.278
 8799TIP3    H226341   1.554   4.979   3.230
 8800TIP3   OH226342   1.502   7.496   6.499
 8800TIP3    H126343   1.530   7.459   6.583
 8800TIP3    H226344   1.408   7.481   6.496
 8801TIP3   OH226345   6.568   2.361   0.102
 8801TIP3    H126346   6.547   2.330   0.014
 8801TIP3    H226347   6.619   2.440   0.089
 8802TIP3   OH226348   1.040   1.271   4.573
 8802TIP3    H126349   1.122   1.278   4.622
 8802TIP3    H226350   1.069   1.261   4.482
 8803TIP3   OH226351   0.382   2.088   1.690
 8803TIP3    H126352   0.294   2.121   1.706
 8803TIP3    H226353   0.371   1.994   1.678
 8804TIP3   OH226354   5.328   5.732   4.933
 8804TIP3    H126355   5.274   5.666   4.977
 8804TIP3    H226356   5.407   5.738   4.986
 8805TIP3   OH226357   3.354   4.914   5.534
 8805TIP3    H126358   3.401   4.876   5.608
 8805TIP3    H226359   3.307   4.989   5.571
 8806TIP3   OH226360   1.552   4.364   4.177
 8806TIP3    H126361   1.644   4.361   4.203
 8806TIP3    H226362   1.553   4.402   4.089
 8807TIP3   OH226363   4.890   3.736   3.760
 8807TIP3    H126364   4.873   3.655   3.711
 8807TIP3    H226365   4.964   3.715   3.816
 8808TIP3   OH226366   3.815   2.655   6.383
 8808TIP3    H126367   3.876   2.592   6.345
 8808TIP3    H226368   3.754   2.602   6.434
 8809TIP3   OH226369   1.527   0.583   6.558
 8809TIP3    H126370   1.499   0.674   6.561
 8809TIP3    H226371   1.545   0.560   6.649
 8810TIP3   OH226372   2.545   6.345   5.433
 8810TIP3    H126373   2.555   6.414   5.368
 8810TIP3    H226374   2.500   6.386   5.506
 8811TIP3   OH226375   3.640   0.916   1.399
 8811TIP3    H126376   3.658   0.923   1.493
 8811TIP3    H226377   3.602   1.001   1.375
 8812TIP3   OH226378   4.320   1.867   4.225
 8812TIP3    H126379   4.235   1.828   4.242
 8812TIP3    H226380   4.373   1.795   4.189
 8813TIP3   OH226381   5.409   0.054   2.533
 8813TIP3    H126382   5.347   0.126   2.524
 8813TIP3    H226383   5.370  -0.018   2.483
 8814TIP3   OH226384   0.385   4.676   4.719
 8814TIP3    H126385   0.425   4.616   4.782
 8814TIP3    H226386   0.458   4.730   4.688
 8815TIP3   OH226387   3.483   4.193   2.545
 8815TIP3    H126388   3.537   4.201   2.624
 8815TIP3    H226389   3.520   4.117   2.499
 8816TIP3   OH226390   5.110   3.475   2.506
 8816TIP3    H126391   5.100   3.407   2.439
 8816TIP3    H226392   5.193   3.518   2.484
 8817TIP3   OH226393   0.890   1.304   3.320
 8817TIP3    H126394   0.874   1.356   3.242
 8817TIP3    H226395   0.942   1.230   3.290
 8818TIP3   OH226396   4.508   1.201   2.547
 8818TIP3    H126397   4.536   1.164   2.464
 8818TIP3    H226398   4.517   1.130   2.610
 8819TIP3   OH226399   5.355   3.675   0.395
 8819TIP3    H126400   5.423   3.623   0.351
 8819TIP3    H226401   5.295   3.609   0.432
 8820TIP3   OH226402   6.931   5.172   1.866
 8820TIP3    H126403   6.911   5.099   1.808
 8820TIP3    H226404   6.921   5.137   1.955
 8821TIP3   OH226405   7.069   1.884   4.379
 8821TIP3    H126406   7.131   1.909   4.448
 8821TIP3    H226407   7.119   1.827   4.321
 8822TIP3   OH226408   6.879   5.203   0.515
 8822TIP3    H126409   6.897   5.248   0.597
 8822TIP3    H226410   6.897   5.111   0.533
 8823TIP3   OH226411   1.462   2.154   2.803
 8823TIP3    H126412   1.442   2.221   2.737
 8823TIP3    H226413   1.394   2.166   2.869
 8824TIP3   OH226414   3.539   2.834   5.808
 8824TIP3    H126415   3.528   2.742   5.835
 8824TIP3    H226416   3.589   2.874   5.879
 8825TIP3   OH226417   8.119   0.610   3.410
 8825TIP3    H126418   8.178   0.535   3.421
 8825TIP3    H226419   8.177   0.686   3.405
 8826TIP3   OH226420   0.856   5.266   1.335
 8826TIP3    H126421   0.938   5.218   1.320
 8826TIP3    H226422   0.871   5.311   1.418
 8827TIP3   OH226423   2.331   6.497   2.310
 8827TIP3    H126424   2.422   6.526   2.309
 8827TIP3    H226425   2.282   6.573   2.344
 8828TIP3   OH226426   5.448   0.609   6.203
 8828TIP3    H126427   5.524   0.668   6.203
 8828TIP3    H226428   5.438   0.582   6.294
 8829TIP3   OH226429   4.654   2.127   3.746
 8829TIP3    H126430   4.575   2.136   3.692
 8829TIP3    H226431   4.621   2.095   3.830
 8830TIP3   OH226432   2.142   0.530   5.020
 8830TIP3    H126433   2.196   0.506   5.096
 8830TIP3    H226434   2.165   0.621   5.002
 8831TIP3   OH226435   5.928   5.144   1.042
 8831TIP3    H126436   5.997   5.109   1.098
 8831TIP3    H226437   5.886   5.066   1.005
 8832TIP3   OH226438   1.045   7.367   3.410
 8832TIP3    H126439   1.092   7.436   3.362
 8832TIP3    H226440   1.031   7.404   3.497
 8833TIP3   OH226441   7.959   4.707   2.227
 8833TIP3    H126442   7.879   4.745   2.192
 8833TIP3    H226443   8.007   4.782   2.263
 8834TIP3   OH226444   3.529   7.512   1.950
 8834TIP3    H126445   3.526   7.561   1.868
 8834TIP3    H226446   3.475   7.435   1.934
 8835TIP3   OH226447   3.587   5.847   6.342
 8835TIP3    H126448   3.544   5.816   6.263
 8835TIP3    H226449   3.614   5.767   6.388
 8836TIP3   OH226450   2.672   3.680   6.695
 8836TIP3    H126451   2.653   3.747   6.629
 8836TIP3    H226452   2.751   3.636   6.662
 8837TIP3   OH226453   3.098   2.480   5.103
 8837TIP3    H126454   3.154   2.483   5.025
 8837TIP3    H226455   3.159   2.486   5.177
 8838TIP3   OH226456   2.507   7.518   2.181
 8838TIP3    H126457   2.424   7.535   2.224
 8838TIP3    H226458   2.487   7.517   2.087
 8839TIP3   OH226459   5.679   2.983   6.163
 8839TIP3    H126460   5.746   2.963   6.228
 8839TIP3    H226461   5.722   3.044   6.103
 8840TIP3   OH226462   7.319   3.152   2.212
 8840TIP3    H126463   7.262   3.090   2.257
 8840TIP3    H226464   7.325   3.226   2.272
 8841TIP3   OH226465   1.155   4.787   0.144
 8841TIP3    H126466   1.109   4.871   0.145
 8841TIP3    H226467   1.241   4.806   0.182
 8842TIP3   OH226468   2.550   0.265   3.642
 8842TIP3    H126469   2.485   0.197   3.624
 8842TIP3    H226470   2.633   0.227   3.612
 8843TIP3   OH226471   2.478   0.668   1.299
 8843TIP3    H126472   2.542   0.601   1.322
 8843TIP3    H226473   2.467   0.718   1.380
 8844TIP3   OH226474   0.440   4.048   6.014
 8844TIP3    H126475   0.515   4.030   5.959
 8844TIP3    H226476   0.439   4.143   6.024
 8845TIP3   OH226477   2.470   7.013   0.288
 8845TIP3    H126478   2.481   6.918   0.291
 8845TIP3    H226479   2.557   7.047   0.267
 8846TIP3   OH226480   3.058   3.605   3.175
 8846TIP3    H126481   3.148   3.579   3.195
 8846TIP3    H226482   3.048   3.690   3.218
 8847TIP3   OH226483   6.990   4.169   1.982
 8847TIP3    H126484   6.899   4.176   2.011
 8847TIP3    H226485   7.008   4.251   1.937
 8848TIP3   OH226486   3.893   6.038   5.060
 8848TIP3    H126487   3.830   6.088   5.007
 8848TIP3    H226488   3.854   6.037   5.147
 8849TIP3   OH226489   6.337   6.490   5.145
 8849TIP3    H126490   6.415   6.486   5.089
 8849TIP3    H226491   6.369   6.469   5.233
 8850TIP3   OH226492   2.355   4.256   0.333
 8850TIP3    H126493   2.284   4.277   0.392
 8850TIP3    H226494   2.396   4.177   0.371
 8851TIP3   OH226495   2.908   2.091   0.851
 8851TIP3    H126496   2.869   2.071   0.766
 8851TIP3    H226497   2.863   2.170   0.880
 8852TIP3   OH226498   1.960   4.217   0.839
 8852TIP3    H126499   1.917   4.164   0.905
 8852TIP3    H226500   2.029   4.263   0.886
 8853TIP3   OH226501   3.643   5.926   4.772
 8853TIP3    H126502   3.655   5.985   4.846
 8853TIP3    H226503   3.605   5.847   4.809
 8854TIP3   OH226504   5.395   0.825   2.496
 8854TIP3    H126505   5.351   0.814   2.412
 8854TIP3    H226506   5.489   0.825   2.475
 8855TIP3   OH226507   2.801   4.197   4.813
 8855TIP3    H126508   2.747   4.172   4.887
 8855TIP3    H226509   2.823   4.114   4.770
 8856TIP3   OH226510   3.087   4.553   0.610
 8856TIP3    H126511   3.074   4.461   0.633
 8856TIP3    H226512   3.109   4.596   0.693
 8857TIP3   OH226513   0.151   1.523   1.477
 8857TIP3    H126514   0.187   1.556   1.395
 8857TIP3    H226515   0.120   1.601   1.523
 8858TIP3   OH226516   7.991   5.290   4.819
 8858TIP3    H126517   7.947   5.307   4.735
 8858TIP3    H226518   8.025   5.201   4.810
 8859TIP3   OH226519   6.291   4.735   3.591
 8859TIP3    H126520   6.242   4.690   3.660
 8859TIP3    H226521   6.252   4.703   3.509
 8860TIP3   OH226522   5.026   2.694   1.225
 8860TIP3    H126523   4.962   2.646   1.278
 8860TIP3    H226524   4.977   2.768   1.190
 8861TIP3   OH226525   7.382   5.402   4.907
 8861TIP3    H126526   7.305   5.419   4.961
 8861TIP3    H226527   7.353   5.333   4.847
 8862TIP3   OH226528   2.865   5.221   3.378
 8862TIP3    H126529   2.894   5.273   3.303
 8862TIP3    H226530   2.783   5.262   3.406
 8863TIP3   OH226531   2.127   0.591   2.763
 8863TIP3    H126532   2.179   0.613   2.840
 8863TIP3    H226533   2.058   0.658   2.761
 8864TIP3   OH226534   0.281   6.369   6.066
 8864TIP3    H126535   0.226   6.343   6.140
 8864TIP3    H226536   0.262   6.461   6.053
 8865TIP3   OH226537   2.455   1.391   0.285
 8865TIP3    H126538   2.407   1.336   0.224
 8865TIP3    H226539   2.547   1.377   0.263
 8866TIP3   OH226540   7.467   2.480   2.003
 8866TIP3    H126541   7.420   2.508   2.081
 8866TIP3    H226542   7.401   2.479   1.934
 8867TIP3   OH226543   1.461   3.219   0.281
 8867TIP3    H126544   1.479   3.156   0.212
 8867TIP3    H226545   1.547   3.244   0.314
 8868TIP3   OH226546   7.266   0.590   6.491
 8868TIP3    H126547   7.312   0.596   6.407
 8868TIP3    H226548   7.189   0.536   6.473
 8869TIP3   OH226549   3.073   6.197   4.350
 8869TIP3    H126550   3.125   6.230   4.424
 8869TIP3    H226551   3.092   6.259   4.279
 8870TIP3   OH226552   1.518   4.782   5.099
 8870TIP3    H126553   1.547   4.871   5.120
 8870TIP3    H226554   1.599   4.732   5.089
 8871TIP3   OH226555   6.148   0.843   5.210
 8871TIP3    H126556   6.154   0.837   5.115
 8871TIP3    H226557   6.129   0.935   5.227
 8872TIP3   OH226558   7.461   1.234   0.136
 8872TIP3    H126559   7.524   1.162   0.146
 8872TIP3    H226560   7.492   1.283   0.061
 8873TIP3   OH226561   4.839   5.986   4.384
 8873TIP3    H126562   4.781   5.936   4.442
 8873TIP3    H226563   4.797   6.072   4.377
 8874TIP3   OH226564   5.930   3.440   1.022
 8874TIP3    H126565   5.914   3.533   1.008
 8874TIP3    H226566   5.863   3.414   1.086
 8875TIP3   OH226567   8.186   2.495   3.060
 8875TIP3    H126568   8.268   2.481   3.014
 8875TIP3    H226569   8.130   2.423   3.032
 8876TIP3   OH226570   7.832   1.027   2.595
 8876TIP3    H126571   7.795   1.094   2.653
 8876TIP3    H226572   7.924   1.051   2.587
 8877TIP3   OH226573   6.982   2.458   0.165
 8877TIP3    H126574   7.037   2.486   0.091
 8877TIP3    H226575   6.988   2.363   0.165
 8878TIP3   OH226576   4.971   4.724   0.698
 8878TIP3    H126577   5.031   4.798   0.707
 8878TIP3    H226578   5.020   4.649   0.732
 8879TIP3   OH226579   0.588   1.679   2.452
 8879TIP3    H126580   0.562   1.771   2.460
 8879TIP3    H226581   0.535   1.633   2.518
 8880TIP3   OH226582   3.713   7.399   4.532
 8880TIP3    H126583   3.624   7.401   4.497
 8880TIP3    H226584   3.702   7.373   4.624
 8881TIP3   OH226585   3.850   5.216   4.680
 8881TIP3    H126586   3.780   5.174   4.630
 8881TIP3    H226587   3.929   5.200   4.628
 8882TIP3   OH226588   6.283   4.501   0.518
 8882TIP3    H126589   6.284   4.434   0.450
 8882TIP3    H226590   6.213   4.474   0.578
 8883TIP3   OH226591   3.348   6.140   4.416
 8883TIP3    H126592   3.425   6.138   4.360
 8883TIP3    H226593   3.303   6.057   4.398
 8884TIP3   OH226594   4.491   2.616   4.819
 8884TIP3    H126595   4.494   2.530   4.777
 8884TIP3    H226596   4.542   2.673   4.761
 8885TIP3   OH226597   7.302   5.782   1.966
 8885TIP3    H126598   7.220   5.743   1.935
 8885TIP3    H226599   7.285   5.802   2.058
 8886TIP3   OH226600   4.994   2.769   4.705
 8886TIP3    H126601   4.943   2.799   4.630
 8886TIP3    H226602   4.961   2.680   4.722
 8887TIP3   OH226603   4.908   6.538   0.489
 8887TIP3    H126604   4.998   6.511   0.472
 8887TIP3    H226605   4.915   6.601   0.561
 8888TIP3   OH226606   0.943   5.687   0.178
 8888TIP3    H126607   0.935   5.594   0.200
 8888TIP3    H226608   0.853   5.717   0.163
 8889TIP3   OH226609   7.472   3.951   5.773
 8889TIP3    H126610   7.392   3.979   5.728
 8889TIP3    H226611   7.482   3.859   5.749
 8890TIP3   OH226612   7.695   5.093   4.804
 8890TIP3    H126613   7.759   5.121   4.870
 8890TIP3    H226614   7.703   4.998   4.802
 8891TIP3   OH226615   5.554   3.807   0.591
 8891TIP3    H126616   5.619   3.737   0.589
 8891TIP3    H226617   5.597   3.878   0.639
 8892TIP3   OH226618   0.854   1.738   2.729
 8892TIP3    H126619   0.774   1.708   2.771
 8892TIP3    H226620   0.911   1.662   2.728
 8893TIP3   OH226621   4.283   3.787   4.858
 8893TIP3    H126622   4.200   3.832   4.848
 8893TIP3    H226623   4.269   3.701   4.820
 8894TIP3   OH226624   4.608   0.677   0.514
 8894TIP3    H126625   4.702   0.670   0.534
 8894TIP3    H226626   4.599   0.638   0.427
 8895TIP3   OH226627   3.310   4.849   3.105
 8895TIP3    H126628   3.403   4.830   3.116
 8895TIP3    H226629   3.291   4.916   3.172
 8896TIP3   OH226630   6.014   4.709   2.398
 8896TIP3    H126631   6.097   4.744   2.364
 8896TIP3    H226632   5.965   4.684   2.320
 8897TIP3   OH226633   2.539   4.448   3.647
 8897TIP3    H126634   2.607   4.428   3.711
 8897TIP3    H226635   2.586   4.492   3.575
 8898TIP3   OH226636   0.751   5.712   0.426
 8898TIP3    H126637   0.672   5.765   0.416
 8898TIP3    H226638   0.775   5.721   0.518
 8899TIP3   OH226639   0.030   6.143   3.667
 8899TIP3    H126640   0.124   6.136   3.680
 8899TIP3    H226641   0.020   6.153   3.572
 8900TIP3   OH226642   7.674   6.729   2.259
 8900TIP3    H126643   7.582   6.754   2.251
 8900TIP3    H226644   7.692   6.733   2.353
 8901TIP3   OH226645   7.833   4.124   5.023
 8901TIP3    H126646   7.755   4.089   5.068
 8901TIP3    H226647   7.844   4.068   4.947
 8902TIP3   OH226648   7.942   3.533   3.777
 8902TIP3    H126649   8.029   3.568   3.796
 8902TIP3    H226650   7.957   3.442   3.753
 8903TIP3   OH226651   4.067   0.439   0.475
 8903TIP3    H126652   3.995   0.443   0.539
 8903TIP3    H226653   4.125   0.511   0.500
 8904TIP3   OH226654   2.765   4.045   1.500
 8904TIP3    H126655   2.690   4.088   1.459
 8904TIP3    H226656   2.788   4.102   1.573
 8905TIP3   OH226657   0.334   1.626   4.061
 8905TIP3    H126658   0.256   1.573   4.077
 8905TIP3    H226659   0.375   1.634   4.147
 8906TIP3   OH226660   0.500   0.269   5.260
 8906TIP3    H126661   0.424   0.303   5.308
 8906TIP3    H226662   0.464   0.239   5.176
 8907TIP3   OH226663   6.449   1.691   2.567
 8907TIP3    H126664   6.412   1.616   2.522
 8907TIP3    H226665   6.484   1.747   2.497
 8908TIP3   OH226666   5.630   6.043   5.433
 8908TIP3    H126667   5.536   6.049   5.413
 8908TIP3    H226668   5.672   6.024   5.349
 8909TIP3   OH226669   6.014   3.946   4.359
 8909TIP3    H126670   5.964   3.867   4.382
 8909TIP3    H226671   6.054   3.974   4.441
 8910TIP3   OH226672   2.883   0.309   6.398
 8910TIP3    H126673   2.974   0.336   6.387
 8910TIP3    H226674   2.868   0.245   6.329
 8911TIP3   OH226675   2.114   3.469   1.860
 8911TIP3    H126676   2.046   3.437   1.919
 8911TIP3    H226677   2.112   3.564   1.871
 8912TIP3   OH226678   7.324   6.166   6.133
 8912TIP3    H126679   7.329   6.077   6.097
 8912TIP3    H226680   7.407   6.177   6.179
 8913TIP3   OH226681   0.450   2.898   3.086
 8913TIP3    H126682   0.387   2.874   3.018
 8913TIP3    H226683   0.469   2.816   3.131
 8914TIP3   OH226684   2.177   0.920   4.558
 8914TIP3    H126685   2.212   0.936   4.470
 8914TIP3    H226686   2.231   0.849   4.593
 8915TIP3   OH226687   7.165   2.965   3.141
 8915TIP3    H126688   7.215   2.986   3.062
 8915TIP3    H226689   7.077   2.999   3.124
 8916TIP3   OH226690   7.141   2.340   5.138
 8916TIP3    H126691   7.114   2.264   5.087
 8916TIP3    H226692   7.080   2.342   5.212
 8917TIP3   OH226693   2.213   0.841   5.614
 8917TIP3    H126694   2.232   0.836   5.707
 8917TIP3    H226695   2.190   0.932   5.598
 8918TIP3   OH226696   6.954   2.978   3.344
 8918TIP3    H126697   6.875   3.029   3.360
 8918TIP3    H226698   6.928   2.887   3.362
 8919TIP3   OH226699   2.605   5.330   5.112
 8919TIP3    H126700   2.689   5.322   5.068
 8919TIP3    H226701   2.594   5.425   5.125
 8920TIP3   OH226702   5.774   4.916   5.877
 8920TIP3    H126703   5.861   4.941   5.847
 8920TIP3    H226704   5.720   4.918   5.798
 8921TIP3   OH226705   4.256   3.223   3.599
 8921TIP3    H126706   4.249   3.275   3.680
 8921TIP3    H226707   4.282   3.136   3.629
 8922TIP3   OH226708   6.522   7.218   3.099
 8922TIP3    H126709   6.430   7.197   3.116
 8922TIP3    H226710   6.555   7.143   3.049
 8923TIP3   OH226711   1.177   3.076   4.135
 8923TIP3    H126712   1.117   3.064   4.208
 8923TIP3    H226713   1.150   3.158   4.094
 8924TIP3   OH226714   7.162   5.882   1.298
 8924TIP3    H126715   7.170   5.959   1.240
 8924TIP3    H226716   7.190   5.808   1.244
 8925TIP3   OH226717   2.748   4.944   5.166
 8925TIP3    H126718   2.662   4.973   5.194
 8925TIP3    H226719   2.763   4.987   5.082
 8926TIP3   OH226720   1.064   7.126   0.230
 8926TIP3    H126721   1.158   7.145   0.227
 8926TIP3    H226722   1.055   7.060   0.298
 8927TIP3   OH226723   6.204   7.649   1.251
 8927TIP3    H126724   6.202   7.579   1.185
 8927TIP3    H226725   6.228   7.727   1.202
 8928TIP3   OH226726   7.097   7.339   2.176
 8928TIP3    H126727   7.065   7.275   2.113
 8928TIP3    H226728   7.068   7.306   2.261
 8929TIP3   OH226729   7.898   7.341   5.097
 8929TIP3    H126730   7.915   7.290   5.017
 8929TIP3    H226731   7.806   7.323   5.117
 8930TIP3   OH226732   5.354   5.207   4.353
 8930TIP3    H126733   5.436   5.249   4.325
 8930TIP3    H226734   5.293   5.280   4.367
 8931TIP3   OH226735   0.743   5.553   4.524
 8931TIP3    H126736   0.681   5.592   4.463
 8931TIP3    H226737   0.697   5.479   4.562
 8932TIP3   OH226738   5.510   2.463   1.945
 8932TIP3    H126739   5.427   2.468   1.993
 8932TIP3    H226740   5.507   2.377   1.902
 8933TIP3   OH226741   3.131   6.880   4.630
 8933TIP3    H126742   3.213   6.864   4.583
 8933TIP3    H226743   3.074   6.807   4.605
 8934TIP3   OH226744   1.042   1.440   2.353
 8934TIP3    H126745   0.964   1.441   2.299
 8934TIP3    H226746   1.073   1.530   2.354
 8935TIP3   OH226747   4.756   5.000   2.200
 8935TIP3    H126748   4.775   4.925   2.144
 8935TIP3    H226749   4.755   4.964   2.288
 8936TIP3   OH226750   7.639   0.309   0.112
 8936TIP3    H126751   7.683   0.237   0.066
 8936TIP3    H226752   7.661   0.387   0.062
 8937TIP3   OH226753   1.989   4.883   2.924
 8937TIP3    H126754   1.970   4.887   3.017
 8937TIP3    H226755   2.048   4.957   2.907
 8938TIP3   OH226756   2.237   1.976   2.071
 8938TIP3    H126757   2.269   1.934   2.151
 8938TIP3    H226758   2.255   2.069   2.084
 8939TIP3   OH226759   7.745   5.882   0.087
 8939TIP3    H126760   7.689   5.809   0.059
 8939TIP3    H226761   7.748   5.874   0.182
 8940TIP3   OH226762   6.067   1.334   1.826
 8940TIP3    H126763   6.031   1.266   1.769
 8940TIP3    H226764   6.119   1.287   1.891
 8941TIP3   OH226765   1.677   6.088   3.068
 8941TIP3    H126766   1.760   6.093   3.021
 8941TIP3    H226767   1.690   6.141   3.147
 8942TIP3   OH226768   5.284   5.505   5.236
 8942TIP3    H126769   5.257   5.499   5.144
 8942TIP3    H226770   5.373   5.470   5.237
 8943TIP3   OH226771   2.945   4.449   1.004
 8943TIP3    H126772   2.895   4.529   1.019
 8943TIP3    H226773   2.903   4.409   0.928
 8944TIP3   OH226774   6.214   3.081   2.010
 8944TIP3    H126775   6.296   3.101   2.055
 8944TIP3    H226776   6.167   3.165   2.008
 8945TIP3   OH226777   2.491   0.167   6.668
 8945TIP3    H126778   2.407   0.122   6.659
 8945TIP3    H226779   2.537   0.119   6.737
 8946TIP3   OH226780   7.243   6.155   5.067
 8946TIP3    H126781   7.319   6.132   5.013
 8946TIP3    H226782   7.173   6.100   5.033
 8947TIP3   OH226783   0.950   3.889   2.734
 8947TIP3    H126784   0.959   3.818   2.670
 8947TIP3    H226785   0.885   3.857   2.796
 8948TIP3   OH226786   3.814   5.641   4.561
 8948TIP3    H126787   3.874   5.706   4.597
 8948TIP3    H226788   3.780   5.594   4.638
 8949TIP3   OH226789   4.561   5.740   6.317
 8949TIP3    H126790   4.607   5.744   6.400
 8949TIP3    H226791   4.577   5.652   6.284
 8950TIP3   OH226792   2.964   3.394   0.673
 8950TIP3    H126793   3.040   3.335   0.673
 8950TIP3    H226794   2.974   3.444   0.592
 8951TIP3   OH226795   7.803   2.360   5.171
 8951TIP3    H126796   7.780   2.322   5.256
 8951TIP3    H226797   7.804   2.285   5.111
 8952TIP3   OH226798   0.042   5.624   5.315
 8952TIP3    H126799   0.023   5.643   5.407
 8952TIP3    H226800   0.031   5.709   5.271
 8953TIP3   OH226801   2.412   6.458   1.528
 8953TIP3    H126802   2.390   6.378   1.479
 8953TIP3    H226803   2.480   6.430   1.590
 8954TIP3   OH226804   2.586   7.226   3.772
 8954TIP3    H126805   2.552   7.280   3.843
 8954TIP3    H226806   2.640   7.160   3.816
 8955TIP3   OH226807   2.819   2.830   0.664
 8955TIP3    H126808   2.784   2.794   0.745
 8955TIP3    H226809   2.760   2.799   0.596
 8956TIP3   OH226810   6.681   4.070   5.083
 8956TIP3    H126811   6.622   4.018   5.028
 8956TIP3    H226812   6.726   4.005   5.138
 8957TIP3   OH226813   2.662   5.604   0.306
 8957TIP3    H126814   2.753   5.597   0.277
 8957TIP3    H226815   2.612   5.610   0.224
 8958TIP3   OH226816   3.345   2.111   6.526
 8958TIP3    H126817   3.417   2.142   6.581
 8958TIP3    H226818   3.387   2.089   6.443
 8959TIP3   OH226819   2.777   4.090   5.069
 8959TIP3    H126820   2.715   4.027   5.032
 8959TIP3    H226821   2.798   4.055   5.156
 8960TIP3   OH226822   2.730   0.708   0.506
 8960TIP3    H126823   2.672   0.718   0.582
 8960TIP3    H226824   2.755   0.616   0.506
 8961TIP3   OH226825   5.933   6.328   4.928
 8961TIP3    H126826   5.954   6.421   4.944
 8961TIP3    H226827   5.900   6.326   4.838
 8962TIP3   OH226828   6.865   6.686   0.209
 8962TIP3    H126829   6.818   6.624   0.266
 8962TIP3    H226830   6.795   6.732   0.162
 8963TIP3   OH226831   5.565   1.074   2.915
 8963TIP3    H126832   5.594   0.983   2.925
 8963TIP3    H226833   5.473   1.068   2.890
 8964TIP3   OH226834   7.414   5.160   4.014
 8964TIP3    H126835   7.391   5.252   4.027
 8964TIP3    H226836   7.382   5.140   3.926
 8965TIP3   OH226837   1.457   4.645   4.170
 8965TIP3    H126838   1.447   4.738   4.149
 8965TIP3    H226839   1.530   4.615   4.116
 8966TIP3   OH226840   2.495   3.494   5.510
 8966TIP3    H126841   2.511   3.588   5.502
 8966TIP3    H226842   2.449   3.483   5.593
 8967TIP3   OH226843   5.550   7.426   0.494
 8967TIP3    H126844   5.513   7.513   0.479
 8967TIP3    H226845   5.475   7.371   0.515
 8968TIP3   OH226846   6.266   2.675   0.588
 8968TIP3    H126847   6.282   2.706   0.677
 8968TIP3    H226848   6.354   2.666   0.550
 8969TIP3   OH226849   5.478   6.134   4.609
 8969TIP3    H126850   5.475   6.104   4.700
 8969TIP3    H226851   5.489   6.229   4.615
 8970TIP3   OH226852   7.297   7.131   6.115
 8970TIP3    H126853   7.327   7.041   6.125
 8970TIP3    H226854   7.302   7.168   6.203
 8971TIP3   OH226855   3.667   2.487   3.159
 8971TIP3    H126856   3.598   2.485   3.226
 8971TIP3    H226857   3.673   2.579   3.134
 8972TIP3   OH226858   6.503   5.706   2.069
 8972TIP3    H126859   6.547   5.790   2.060
 8972TIP3    H226860   6.537   5.652   1.998
 8973TIP3   OH226861   4.456   5.806   4.515
 8973TIP3    H126862   4.460   5.729   4.460
 8973TIP3    H226863   4.416   5.873   4.460
 8974TIP3   OH226864   1.665   1.484   4.759
 8974TIP3    H126865   1.609   1.547   4.712
 8974TIP3    H226866   1.639   1.493   4.851
 8975TIP3   OH226867   5.877   1.648   3.766
 8975TIP3    H126868   5.787   1.677   3.777
 8975TIP3    H226869   5.905   1.689   3.684
 8976TIP3   OH226870   4.203   6.829   4.728
 8976TIP3    H126871   4.146   6.754   4.741
 8976TIP3    H226872   4.257   6.806   4.652
 8977TIP3   OH226873   4.450   0.740   5.102
 8977TIP3    H126874   4.428   0.666   5.159
 8977TIP3    H226875   4.446   0.704   5.013
 8978TIP3   OH226876   1.291   0.018   4.282
 8978TIP3    H126877   1.268   0.097   4.331
 8978TIP3    H226878   1.249   0.030   4.197
 8979TIP3   OH226879   2.954   3.298   5.845
 8979TIP3    H126880   3.050   3.304   5.851
 8979TIP3    H226881   2.923   3.372   5.897
 8980TIP3   OH226882   2.193   3.283   5.508
 8980TIP3    H126883   2.261   3.218   5.489
 8980TIP3    H226884   2.163   3.312   5.422
 8981TIP3   OH226885   2.438   1.354   3.933
 8981TIP3    H126886   2.456   1.375   4.025
 8981TIP3    H226887   2.468   1.263   3.923
 8982TIP3   OH226888   2.690   2.639   6.709
 8982TIP3    H126889   2.627   2.706   6.682
 8982TIP3    H226890   2.739   2.679   6.781
 8983TIP3   OH226891   4.575   3.638   2.158
 8983TIP3    H126892   4.663   3.618   2.125
 8983TIP3    H226893   4.586   3.718   2.208
 8984TIP3   OH226894   7.396   2.789   6.631
 8984TIP3    H126895   7.382   2.745   6.547
 8984TIP3    H226896   7.333   2.862   6.631
 8985TIP3   OH226897   7.435   0.020   1.563
 8985TIP3    H126898   7.348   0.058   1.551
 8985TIP3    H226899   7.461   0.049   1.650
 8986TIP3   OH226900   3.108   1.721   1.201
 8986TIP3    H126901   3.120   1.778   1.126
 8986TIP3    H226902   3.101   1.781   1.276
 8987TIP3   OH226903   8.119   0.761   0.755
 8987TIP3    H126904   8.118   0.854   0.779
 8987TIP3    H226905   8.128   0.715   0.838
 8988TIP3   OH226906   5.465   3.397   5.221
 8988TIP3    H126907   5.458   3.321   5.163
 8988TIP3    H226908   5.375   3.424   5.237
 8989TIP3   OH226909   7.604   4.163   5.893
 8989TIP3    H126910   7.534   4.101   5.871
 8989TIP3    H226911   7.663   4.114   5.949
 8990TIP3   OH226912   2.280   5.464   6.685
 8990TIP3    H126913   2.272   5.536   6.748
 8990TIP3    H226914   2.274   5.385   6.739
 8991TIP3   OH226915   1.452   1.896   1.556
 8991TIP3    H126916   1.376   1.951   1.538
 8991TIP3    H226917   1.441   1.869   1.647
 8992TIP3   OH226918   6.716   3.087   2.829
 8992TIP3    H126919   6.720   3.113   2.736
 8992TIP3    H226920   6.627   3.055   2.841
 8993TIP3   OH226921   0.723   2.479   0.472
 8993TIP3    H126922   0.717   2.385   0.460
 8993TIP3    H226923   0.790   2.491   0.540
 8994TIP3   OH226924   2.291   2.039   4.871
 8994TIP3    H126925   2.294   2.100   4.797
 8994TIP3    H226926   2.380   2.040   4.906
 8995TIP3   OH226927   7.913   3.298   5.966
 8995TIP3    H126928   7.932   3.212   6.003
 8995TIP3    H226929   7.994   3.347   5.978
 8996TIP3   OH226930   7.310   3.510   5.603
 8996TIP3    H126931   7.393   3.500   5.651
 8996TIP3    H226932   7.328   3.473   5.517
 8997TIP3   OH226933   2.963   6.509   2.124
 8997TIP3    H126934   2.888   6.452   2.104
 8997TIP3    H226935   2.976   6.499   2.218
 8998TIP3   OH226936   5.838   1.576   5.060
 8998TIP3    H126937   5.915   1.633   5.066
 8998TIP3    H226938   5.856   1.505   5.121
 8999TIP3   OH226939   5.502   4.056   4.404
 8999TIP3    H126940   5.473   3.995   4.335
 8999TIP3    H226941   5.585   4.091   4.371
 9000TIP3   OH226942   7.038   5.976   2.523
 9000TIP3    H126943   7.058   6.068   2.537
 9000TIP3    H226944   6.948   5.976   2.490
 9001TIP3   OH226945   3.614   1.861   4.350
 9001TIP3    H126946   3.525   1.834   4.371
 9001TIP3    H226947   3.669   1.788   4.378
 9002TIP3   OH226948   5.239   4.613   6.229
 9002TIP3    H126949   5.181   4.669   6.281
 9002TIP3    H226950   5.276   4.551   6.292
 9003TIP3   OH226951   7.148   7.170   1.139
 9003TIP3    H126952   7.099   7.243   1.100
 9003TIP3    H226953   7.081   7.110   1.170
 9004TIP3   OH226954   0.411   6.797   4.413
 9004TIP3    H126955   0.479   6.781   4.479
 9004TIP3    H226956   0.461   6.822   4.334
 9005TIP3   OH226957   7.420   5.555   1.337
 9005TIP3    H126958   7.448   5.639   1.374
 9005TIP3    H226959   7.412   5.497   1.413
 9006TIP3   OH226960   3.985   5.915   1.024
 9006TIP3    H126961   3.972   5.976   1.096
 9006TIP3    H226962   3.979   5.969   0.945
 9007TIP3   OH226963   0.066   4.632   5.032
 9007TIP3    H126964   0.089   4.693   5.102
 9007TIP3    H226965   0.143   4.575   5.024
 9008TIP3   OH226966   2.495   5.706   3.786
 9008TIP3    H126967   2.421   5.710   3.847
 9008TIP3    H226968   2.477   5.631   3.731
 9009TIP3   OH226969   7.596   0.497   4.671
 9009TIP3    H126970   7.540   0.574   4.671
 9009TIP3    H226971   7.678   0.526   4.710
 9010TIP3   OH226972   6.051   1.871   3.820
 9010TIP3    H126973   6.139   1.834   3.826
 9010TIP3    H226974   5.994   1.795   3.806
 9011TIP3   OH226975   4.206   4.334   2.007
 9011TIP3    H126976   4.230   4.320   1.915
 9011TIP3    H226977   4.289   4.329   2.055
 9012TIP3   OH226978   6.947   4.996   6.213
 9012TIP3    H126979   6.979   5.035   6.131
 9012TIP3    H226980   6.906   4.914   6.185
 9013TIP3   OH226981   5.840   6.713   5.442
 9013TIP3    H126982   5.791   6.696   5.362
 9013TIP3    H226983   5.932   6.715   5.414
 9014TIP3   OH226984   5.271   4.914   3.802
 9014TIP3    H126985   5.337   4.949   3.862
 9014TIP3    H226986   5.188   4.937   3.842
 9015TIP3   OH226987   2.182   6.344   2.615
 9015TIP3    H126988   2.201   6.258   2.578
 9015TIP3    H226989   2.087   6.349   2.616
 9016TIP3   OH226990   3.300   2.189   1.745
 9016TIP3    H126991   3.267   2.103   1.717
 9016TIP3    H226992   3.287   2.246   1.668
 9017TIP3   OH226993   1.864   5.309   3.430
 9017TIP3    H126994   1.831   5.323   3.518
 9017TIP3    H226995   1.852   5.393   3.386
 9018TIP3   OH226996   5.747   5.540   0.467
 9018TIP3    H126997   5.777   5.451   0.449
 9018TIP3    H226998   5.710   5.536   0.555
 9019TIP3   OH226999   1.778   0.895   6.076
 9019TIP3    H127000   1.843   0.838   6.118
 9019TIP3    H227001   1.718   0.834   6.032
 9020TIP3   OH227002   4.053   2.290   3.658
 9020TIP3    H127003   4.128   2.240   3.691
 9020TIP3    H227004   3.979   2.230   3.663
 9021TIP3   OH227005   5.973   0.403   4.528
 9021TIP3    H127006   5.879   0.421   4.527
 9021TIP3    H227007   6.008   0.465   4.592
 9022TIP3   OH227008   3.253   6.284   2.562
 9022TIP3    H127009   3.163   6.255   2.547
 9022TIP3    H227010   3.247   6.380   2.565
 9023TIP3   OH227011   3.782   7.613   6.746
 9023TIP3    H127012   3.749   7.657   6.825
 9023TIP3    H227013   3.766   7.675   6.675
 9024TIP3   OH227014   7.082   7.664   2.240
 9024TIP3    H127015   7.157   7.605   2.244
 9024TIP3    H227016   7.006   7.606   2.234
 9025TIP3   OH227017   3.158   6.651   5.904
 9025TIP3    H127018   3.237   6.636   5.957
 9025TIP3    H227019   3.190   6.651   5.813
 9026TIP3   OH227020   5.264   6.376   2.793
 9026TIP3    H127021   5.196   6.399   2.729
 9026TIP3    H227022   5.215   6.351   2.872
 9027TIP3   OH227023   2.134   0.751   6.536
 9027TIP3    H127024   2.082   0.799   6.471
 9027TIP3    H227025   2.223   0.782   6.523
 9028TIP3   OH227026   1.073   4.245   4.029
 9028TIP3    H127027   1.139   4.292   3.977
 9028TIP3    H227028   1.105   4.253   4.119
 9029TIP3   OH227029   5.954   7.160   3.019
 9029TIP3    H127030   5.992   7.151   2.931
 9029TIP3    H227031   5.906   7.079   3.033
 9030TIP3   OH227032   1.466   2.802   1.405
 9030TIP3    H127033   1.393   2.795   1.342
 9030TIP3    H227034   1.449   2.883   1.452
 9031TIP3   OH227035   1.881   5.987   2.542
 9031TIP3    H127036   1.899   5.895   2.525
 9031TIP3    H227037   1.786   5.996   2.530
 9032TIP3   OH227038   3.131   1.035   3.094
 9032TIP3    H127039   3.089   1.051   3.179
 9032TIP3    H227040   3.216   0.998   3.115
 9033TIP3   OH227041   5.179   2.490   1.980
 9033TIP3    H127042   5.194   2.494   2.075
 9033TIP3    H227043   5.166   2.581   1.954
 9034TIP3   OH227044   3.991   4.758   3.387
 9034TIP3    H127045   4.081   4.746   3.418
 9034TIP3    H227046   3.959   4.834   3.435
 9035TIP3   OH227047   5.150   3.943   1.624
 9035TIP3    H127048   5.209   3.952   1.699
 9035TIP3    H227049   5.119   3.853   1.628
 9036TIP3   OH227050   5.304   5.906   2.634
 9036TIP3    H127051   5.282   5.825   2.588
 9036TIP3    H227052   5.362   5.952   2.574
 9037TIP3   OH227053   5.139   7.564   4.686
 9037TIP3    H127054   5.113   7.472   4.693
 9037TIP3    H227055   5.059   7.610   4.661
 9038TIP3   OH227056   0.946   5.908   0.450
 9038TIP3    H127057   0.879   5.879   0.387
 9038TIP3    H227058   0.898   5.958   0.515
 9039TIP3   OH227059   4.891   5.884   1.376
 9039TIP3    H127060   4.957   5.846   1.318
 9039TIP3    H227061   4.840   5.942   1.319
 9040TIP3   OH227062   1.658   0.088   0.767
 9040TIP3    H127063   1.685  -0.002   0.750
 9040TIP3    H227064   1.639   0.091   0.860
 9041TIP3   OH227065   3.777   6.330   0.780
 9041TIP3    H127066   3.865   6.362   0.763
 9041TIP3    H227067   3.780   6.237   0.759
 9042TIP3   OH227068   6.025   4.245   0.924
 9042TIP3    H127069   6.050   4.163   0.966
 9042TIP3    H227070   6.010   4.306   0.996
 9043TIP3   OH227071   0.129   5.624   6.608
 9043TIP3    H127072   0.209   5.675   6.605
 9043TIP3    H227073   0.143   5.552   6.546
 9044TIP3   OH227074   5.578   0.847   5.513
 9044TIP3    H127075   5.529   0.827   5.433
 9044TIP3    H227076   5.635   0.771   5.526
 9045TIP3   OH227077   4.482   0.074   3.381
 9045TIP3    H127078   4.455  -0.006   3.425
 9045TIP3    H227079   4.478   0.141   3.449
 9046TIP3   OH227080   0.441   6.219   2.792
 9046TIP3    H127081   0.389   6.297   2.773
 9046TIP3    H227082   0.396   6.149   2.744
 9047TIP3   OH227083   1.493   1.708   1.120
 9047TIP3    H127084   1.508   1.758   1.040
 9047TIP3    H227085   1.536   1.624   1.104
 9048TIP3   OH227086   0.120   6.007   4.121
 9048TIP3    H127087   0.169   5.932   4.087
 9048TIP3    H227088   0.179   6.048   4.184
 9049TIP3   OH227089   5.920   4.438   2.837
 9049TIP3    H127090   5.851   4.402   2.892
 9049TIP3    H227091   5.916   4.385   2.757
 9050TIP3   OH227092   3.982   4.752   0.707
 9050TIP3    H127093   4.075   4.734   0.723
 9050TIP3    H227094   3.952   4.793   0.788
 9051TIP3   OH227095   5.285   1.213   0.568
 9051TIP3    H127096   5.355   1.270   0.537
 9051TIP3    H227097   5.270   1.239   0.659
 9052TIP3   OH227098   2.680   5.964   0.295
 9052TIP3    H127099   2.698   5.890   0.353
 9052TIP3    H227100   2.727   6.037   0.335
 9053TIP3   OH227101   7.993   2.407   5.431
 9053TIP3    H127102   7.986   2.461   5.510
 9053TIP3    H227103   7.919   2.346   5.437
 9054TIP3   OH227104   2.030   6.576   2.340
 9054TIP3    H127105   2.092   6.630   2.388
 9054TIP3    H227106   2.009   6.627   2.262
 9055TIP3   OH227107   3.785   7.073   4.479
 9055TIP3    H127108   3.837   7.153   4.475
 9055TIP3    H227109   3.847   7.004   4.501
 9056TIP3   OH227110   4.404   0.833   0.555
 9056TIP3    H127111   4.443   0.890   0.622
 9056TIP3    H227112   4.478   0.782   0.522
 9057TIP3   OH227113   7.882   0.303   2.292
 9057TIP3    H127114   7.866   0.323   2.200
 9057TIP3    H227115   7.952   0.364   2.318
 9058TIP3   OH227116   2.588   4.909   6.002
 9058TIP3    H127117   2.591   4.902   6.098
 9058TIP3    H227118   2.496   4.893   5.980
 9059TIP3   OH227119   2.738   6.870   2.571
 9059TIP3    H127120   2.736   6.841   2.662
 9059TIP3    H227121   2.757   6.964   2.576
 9060TIP3   OH227122   3.518   4.123   3.214
 9060TIP3    H127123   3.546   4.187   3.148
 9060TIP3    H227124   3.593   4.064   3.224
 9061TIP3   OH227125   4.507   1.010   0.761
 9061TIP3    H127126   4.595   1.045   0.776
 9061TIP3    H227127   4.470   1.004   0.849
 9062TIP3   OH227128   2.846   7.106   4.587
 9062TIP3    H127129   2.876   7.092   4.497
 9062TIP3    H227130   2.920   7.078   4.642
 9063TIP3   OH227131   5.702   1.767   1.073
 9063TIP3    H127132   5.747   1.689   1.103
 9063TIP3    H227133   5.762   1.808   1.011
 9064TIP3   OH227134   1.150   4.399   1.684
 9064TIP3    H127135   1.110   4.482   1.713
 9064TIP3    H227136   1.076   4.340   1.674
 9065TIP3   OH227137   6.034   5.157   3.666
 9065TIP3    H127138   6.049   5.066   3.689
 9065TIP3    H227139   6.066   5.165   3.576
 9066TIP3   OH227140   6.057   6.176   1.251
 9066TIP3    H127141   6.066   6.260   1.297
 9066TIP3    H227142   5.995   6.195   1.180
 9067TIP3   OH227143   7.385   4.213   3.992
 9067TIP3    H127144   7.379   4.179   3.902
 9067TIP3    H227145   7.295   4.239   4.013
 9068TIP3   OH227146   0.062   3.597   2.191
 9068TIP3    H127147   0.119   3.674   2.187
 9068TIP3    H227148   0.120   3.523   2.179
 9069TIP3   OH227149   4.891   4.220   6.356
 9069TIP3    H127150   4.798   4.212   6.335
 9069TIP3    H227151   4.892   4.259   6.444
 9070TIP3   OH227152   1.467   4.122   2.135
 9070TIP3    H127153   1.504   4.142   2.049
 9070TIP3    H227154   1.525   4.168   2.197
 9071TIP3   OH227155   1.547   7.583   3.144
 9071TIP3    H127156   1.582   7.519   3.083
 9071TIP3    H227157   1.452   7.571   3.140
 9072TIP3   OH227158   0.312   2.600   1.761
 9072TIP3    H127159   0.347   2.680   1.721
 9072TIP3    H227160   0.229   2.585   1.715
 9073TIP3   OH227161   6.294   3.042   3.156
 9073TIP3    H127162   6.361   3.105   3.132
 9073TIP3    H227163   6.225   3.052   3.089
 9074TIP3   OH227164   1.765   0.925   2.539
 9074TIP3    H127165   1.706   0.859   2.575
 9074TIP3    H227166   1.852   0.898   2.567
 9075TIP3   OH227167   5.758   3.361   6.091
 9075TIP3    H127168   5.780   3.443   6.047
 9075TIP3    H227169   5.738   3.300   6.020
 9076TIP3   OH227170   3.459   1.858   6.735
 9076TIP3    H127171   3.383   1.805   6.757
 9076TIP3    H227172   3.441   1.943   6.774
 9077TIP3   OH227173   4.449   5.567   0.933
 9077TIP3    H127174   4.411   5.512   0.865
 9077TIP3    H227175   4.543   5.566   0.916
 9078TIP3   OH227176   4.793   0.038   3.326
 9078TIP3    H127177   4.711   0.054   3.373
 9078TIP3    H227178   4.793   0.103   3.256
 9079TIP3   OH227179   7.563   4.160   6.253
 9079TIP3    H127180   7.575   4.096   6.322
 9079TIP3    H227181   7.615   4.127   6.180
 9080TIP3   OH227182   0.500   0.163   5.835
 9080TIP3    H127183   0.546   0.194   5.757
 9080TIP3    H227184   0.554   0.192   5.908
 9081TIP3   OH227185   5.630   1.567   3.256
 9081TIP3    H127186   5.624   1.474   3.232
 9081TIP3    H227187   5.658   1.611   3.176
 9082TIP3   OH227188   3.456   1.770   1.225
 9082TIP3    H127189   3.469   1.813   1.310
 9082TIP3    H227190   3.458   1.676   1.245
 9083TIP3   OH227191   2.667   2.577   2.501
 9083TIP3    H127192   2.671   2.489   2.465
 9083TIP3    H227193   2.757   2.597   2.528
 9084TIP3   OH227194   4.489   6.489   4.156
 9084TIP3    H127195   4.573   6.536   4.164
 9084TIP3    H227196   4.461   6.506   4.066
 9085TIP3   OH227197   0.175   6.512   0.729
 9085TIP3    H127198   0.152   6.604   0.739
 9085TIP3    H227199   0.251   6.500   0.787
 9086TIP3   OH227200   6.449   6.736   2.789
 9086TIP3    H127201   6.431   6.764   2.699
 9086TIP3    H227202   6.460   6.641   2.783
 9087TIP3   OH227203   7.940   5.059   0.121
 9087TIP3    H127204   7.923   5.017   0.205
 9087TIP3    H227205   7.950   5.152   0.143
 9088TIP3   OH227206   5.331   2.148   5.339
 9088TIP3    H127207   5.244   2.164   5.376
 9088TIP3    H227208   5.329   2.192   5.254
 9089TIP3   OH227209   1.186   0.519   4.133
 9089TIP3    H127210   1.189   0.523   4.037
 9089TIP3    H227211   1.163   0.428   4.153
 9090TIP3   OH227212   2.693   0.894   6.109
 9090TIP3    H127213   2.763   0.948   6.147
 9090TIP3    H227214   2.624   0.957   6.088
 9091TIP3   OH227215   5.682   5.090   6.148
 9091TIP3    H127216   5.607   5.093   6.089
 9091TIP3    H227217   5.673   5.006   6.194
 9092TIP3   OH227218   8.267   3.200   6.059
 9092TIP3    H127219   8.263   3.281   6.109
 9092TIP3    H227220   8.188   3.152   6.084
 9093TIP3   OH227221   7.167   4.585   2.862
 9093TIP3    H127222   7.202   4.568   2.949
 9093TIP3    H227223   7.232   4.547   2.802
 9094TIP3   OH227224   2.772   3.771   6.290
 9094TIP3    H127225   2.818   3.714   6.352
 9094TIP3    H227226   2.801   3.860   6.314
 9095TIP3   OH227227   4.601   4.603   0.321
 9095TIP3    H127228   4.551   4.528   0.353
 9095TIP3    H227229   4.621   4.582   0.230
 9096TIP3   OH227230   2.471   7.664   6.497
 9096TIP3    H127231   2.442   7.749   6.463
 9096TIP3    H227232   2.397   7.605   6.479
 9097TIP3   OH227233   7.584   1.859   1.223
 9097TIP3    H127234   7.642   1.934   1.234
 9097TIP3    H227235   7.626   1.789   1.273
 9098TIP3   OH227236   0.367   6.704   3.869
 9098TIP3    H127237   0.346   6.783   3.819
 9098TIP3    H227238   0.283   6.658   3.877
 9099TIP3   OH227239   1.702   1.098   3.812
 9099TIP3    H127240   1.783   1.147   3.827
 9099TIP3    H227241   1.731   1.016   3.773
 9100TIP3   OH227242   4.726   0.899   1.858
 9100TIP3    H127243   4.644   0.860   1.826
 9100TIP3    H227244   4.787   0.891   1.785
 9101TIP3   OH227245   2.931   6.422   4.523
 9101TIP3    H127246   2.903   6.485   4.457
 9101TIP3    H227247   3.025   6.438   4.533
 9102TIP3   OH227248   7.991   0.096   3.076
 9102TIP3    H127249   7.907   0.055   3.096
 9102TIP3    H227250   7.968   0.171   3.020
 9103TIP3   OH227251   3.837   3.086   4.300
 9103TIP3    H127252   3.808   3.114   4.213
 9103TIP3    H227253   3.830   2.991   4.298
 9104TIP3   OH227254   1.748   6.928   6.153
 9104TIP3    H127255   1.710   6.936   6.240
 9104TIP3    H227256   1.795   6.845   6.155
 9105TIP3   OH227257   4.511   4.295   1.861
 9105TIP3    H127258   4.604   4.297   1.885
 9105TIP3    H227259   4.491   4.202   1.849
 9106TIP3   OH227260   2.975   7.022   6.479
 9106TIP3    H127261   3.043   6.988   6.421
 9106TIP3    H227262   2.944   7.101   6.435
 9107TIP3   OH227263   3.492   3.979   0.667
 9107TIP3    H127264   3.467   3.892   0.638
 9107TIP3    H227265   3.550   4.011   0.598
 9108TIP3   OH227266   4.631   2.242   5.736
 9108TIP3    H127267   4.720   2.213   5.755
 9108TIP3    H227268   4.593   2.261   5.822
 9109TIP3   OH227269   2.019   4.941   5.563
 9109TIP3    H127270   2.112   4.924   5.573
 9109TIP3    H227271   1.976   4.861   5.594
 9110TIP3   OH227272   4.994   3.678   0.311
 9110TIP3    H127273   4.905   3.643   0.311
 9110TIP3    H227274   5.046   3.612   0.355
 9111TIP3   OH227275   0.164   1.430   3.239
 9111TIP3    H127276   0.177   1.426   3.144
 9111TIP3    H227277   0.204   1.513   3.265
 9112TIP3   OH227278   3.136   1.765   2.082
 9112TIP3    H127279   3.081   1.724   2.149
 9112TIP3    H227280   3.206   1.807   2.131
 9113TIP3   OH227281   2.133   3.475   6.582
 9113TIP3    H127282   2.190   3.536   6.535
 9113TIP3    H227283   2.134   3.506   6.673
 9114TIP3   OH227284   2.007   2.927   6.401
 9114TIP3    H127285   2.097   2.931   6.369
 9114TIP3    H227286   1.966   3.008   6.369
 9115TIP3   OH227287   4.742  -0.075   4.388
 9115TIP3    H127288   4.664  -0.040   4.345
 9115TIP3    H227289   4.807  -0.005   4.380
 9116TIP3   OH227290   4.012   4.981   0.557
 9116TIP3    H127291   3.975   4.900   0.591
 9116TIP3    H227292   3.969   4.994   0.473
 9117TIP3   OH227293   0.017   5.080   2.141
 9117TIP3    H127294   0.092   5.034   2.103
 9117TIP3    H227295   0.042   5.172   2.139
 9118TIP3   OH227296   7.634   3.593   3.291
 9118TIP3    H127297   7.705   3.530   3.304
 9118TIP3    H227298   7.634   3.609   3.196
 9119TIP3   OH227299   5.979   4.241   3.255
 9119TIP3    H127300   6.039   4.179   3.297
 9119TIP3    H227301   5.917   4.186   3.209
 9120TIP3   OH227302   6.871   4.653   1.861
 9120TIP3    H127303   6.965   4.666   1.877
 9120TIP3    H227304   6.846   4.728   1.807
 9121TIP3   OH227305   2.586   4.955   6.592
 9121TIP3    H127306   2.681   4.948   6.594
 9121TIP3    H227307   2.556   4.865   6.577
 9122TIP3   OH227308   6.883   6.930   4.404
 9122TIP3    H127309   6.866   6.898   4.316
 9122TIP3    H227310   6.974   6.957   4.404
 9123TIP3   OH227311   4.389   1.567   1.854
 9123TIP3    H127312   4.332   1.567   1.931
 9123TIP3    H227313   4.470   1.527   1.884
 9124TIP3   OH227314   3.602   5.651   3.217
 9124TIP3    H127315   3.694   5.663   3.193
 9124TIP3    H227316   3.592   5.556   3.227
 9125TIP3   OH227317   7.356   6.063   0.578
 9125TIP3    H127318   7.307   5.981   0.572
 9125TIP3    H227319   7.378   6.084   0.487
 9126TIP3   OH227320   4.102   6.037   2.576
 9126TIP3    H127321   4.064   6.120   2.605
 9126TIP3    H227322   4.062   6.019   2.492
 9127TIP3   OH227323   7.959   0.833   6.267
 9127TIP3    H127324   7.921   0.745   6.274
 9127TIP3    H227325   7.991   0.854   6.355
 9128TIP3   OH227326   0.488   3.532   4.649
 9128TIP3    H127327   0.547   3.567   4.715
 9128TIP3    H227328   0.400   3.554   4.681
 9129TIP3   OH227329   5.916   6.000   4.665
 9129TIP3    H127330   5.891   5.908   4.660
 9129TIP3    H227331   5.867   6.041   4.594
 9130TIP3   OH227332   1.297   7.060   3.207
 9130TIP3    H127333   1.253   6.991   3.158
 9130TIP3    H227334   1.390   7.050   3.185
 9131TIP3   OH227335   1.130   0.014   6.330
 9131TIP3    H127336   1.218  -0.020   6.315
 9131TIP3    H227337   1.074  -0.038   6.273
 9132TIP3   OH227338   4.422   1.880   2.466
 9132TIP3    H127339   4.392   1.970   2.480
 9132TIP3    H227340   4.465   1.856   2.548
 9133TIP3   OH227341   5.377   6.281   1.149
 9133TIP3    H127342   5.311   6.263   1.081
 9133TIP3    H227343   5.332   6.261   1.231
 9134TIP3   OH227344   1.981   2.603   4.285
 9134TIP3    H127345   1.909   2.542   4.295
 9134TIP3    H227346   1.948   2.686   4.320
 9135TIP3   OH227347   2.764   1.558   4.449
 9135TIP3    H127348   2.701   1.621   4.414
 9135TIP3    H227349   2.837   1.561   4.388
 9136TIP3   OH227350   1.138   3.276   4.611
 9136TIP3    H127351   1.096   3.290   4.526
 9136TIP3    H227352   1.072   3.228   4.662
 9137TIP3   OH227353   1.706   5.379   5.629
 9137TIP3    H127354   1.760   5.301   5.640
 9137TIP3    H227355   1.721   5.429   5.709
 9138TIP3   OH227356   7.017   4.026   0.630
 9138TIP3    H127357   7.028   4.018   0.725
 9138TIP3    H227358   7.097   3.989   0.593
 9139TIP3   OH227359   6.719   5.544   4.901
 9139TIP3    H127360   6.715   5.517   4.993
 9139TIP3    H227361   6.628   5.555   4.875
 9140TIP3   OH227362   5.070   1.319   1.346
 9140TIP3    H127363   5.026   1.236   1.361
 9140TIP3    H227364   5.154   1.310   1.390
 9141TIP3   OH227365   2.490   6.016   0.768
 9141TIP3    H127366   2.538   5.937   0.794
 9141TIP3    H227367   2.417   5.983   0.716
 9142TIP3   OH227368   5.127   1.537   3.701
 9142TIP3    H127369   5.067   1.465   3.722
 9142TIP3    H227370   5.074   1.616   3.711
 9143TIP3   OH227371   2.573   0.256   0.755
 9143TIP3    H127372   2.655   0.216   0.727
 9143TIP3    H227373   2.523   0.185   0.794
 9144TIP3   OH227374   8.098   2.350   2.649
 9144TIP3    H127375   8.105   2.341   2.554
 9144TIP3    H227376   8.188   2.339   2.681
 9145TIP3   OH227377   4.622   4.309   6.731
 9145TIP3    H127378   4.627   4.219   6.696
 9145TIP3    H227379   4.572   4.357   6.665
 9146TIP3   OH227380   3.869   2.366   0.656
 9146TIP3    H127381   3.824   2.445   0.626
 9146TIP3    H227382   3.812   2.329   0.723
 9147TIP3   OH227383   7.609   5.613   3.919
 9147TIP3    H127384   7.526   5.621   3.871
 9147TIP3    H227385   7.620   5.697   3.962
 9148TIP3   OH227386   3.629   1.186   5.376
 9148TIP3    H127387   3.707   1.132   5.388
 9148TIP3    H227388   3.558   1.124   5.364
 9149TIP3   OH227389   7.420   5.654   4.764
 9149TIP3    H127390   7.465   5.606   4.832
 9149TIP3    H227391   7.327   5.636   4.779
 9150TIP3   OH227392   8.202   3.300   4.509
 9150TIP3    H127393   8.291   3.332   4.499
 9150TIP3    H227394   8.147   3.378   4.499
 9151TIP3   OH227395   2.968   3.614   5.909
 9151TIP3    H127396   2.999   3.567   5.986
 9151TIP3    H227397   2.897   3.670   5.942
 9152TIP3   OH227398   3.431   3.016   4.475
 9152TIP3    H127399   3.476   2.978   4.400
 9152TIP3    H227400   3.351   2.964   4.485
 9153TIP3   OH227401   1.118   5.969   1.562
 9153TIP3    H127402   1.103   6.042   1.501
 9153TIP3    H227403   1.110   6.008   1.649
 9154TIP3   OH227404   3.242   6.223   5.480
 9154TIP3    H127405   3.334   6.250   5.482
 9154TIP3    H227406   3.229   6.176   5.563
 9155TIP3   OH227407   4.226   5.750   0.682
 9155TIP3    H127408   4.271   5.818   0.732
 9155TIP3    H227409   4.293   5.715   0.624
 9156TIP3   OH227410   4.870   4.839   6.062
 9156TIP3    H127411   4.853   4.752   6.026
 9156TIP3    H227412   4.796   4.893   6.031
 9157TIP3   OH227413   2.803   2.688   5.546
 9157TIP3    H127414   2.797   2.758   5.610
 9157TIP3    H227415   2.748   2.717   5.473
 9158TIP3   OH227416   8.074   6.637   1.715
 9158TIP3    H127417   8.149   6.693   1.730
 9158TIP3    H227418   8.084   6.565   1.778
 9159TIP3   OH227419   1.585   2.090   2.515
 9159TIP3    H127420   1.667   2.065   2.472
 9159TIP3    H227421   1.607   2.096   2.608
 9160TIP3   OH227422   0.178   3.340   0.505
 9160TIP3    H127423   0.084   3.357   0.509
 9160TIP3    H227424   0.212   3.376   0.587
 9161TIP3   OH227425   7.988   0.795   4.709
 9161TIP3    H127426   7.922   0.835   4.766
 9161TIP3    H227427   7.981   0.841   4.626
 9162TIP3   OH227428   3.076   0.132   3.094
 9162TIP3    H127429   3.101   0.078   3.169
 9162TIP3    H227430   3.138   0.109   3.025
 9163TIP3   OH227431   1.243   1.253   5.630
 9163TIP3    H127432   1.289   1.258   5.714
 9163TIP3    H227433   1.152   1.273   5.652
 9164TIP3   OH227434   1.085   4.617   5.939
 9164TIP3    H127435   1.051   4.704   5.917
 9164TIP3    H227436   1.158   4.634   5.998
 9165TIP3   OH227437   5.616   3.455   2.124
 9165TIP3    H127438   5.520   3.460   2.126
 9165TIP3    H227439   5.639   3.404   2.201
 9166TIP3   OH227440   3.841   7.701   3.594
 9166TIP3    H127441   3.934   7.708   3.570
 9166TIP3    H227442   3.825   7.776   3.651
 9167TIP3   OH227443   7.308   7.122   5.606
 9167TIP3    H127444   7.228   7.081   5.575
 9167TIP3    H227445   7.296   7.216   5.590
 9168TIP3   OH227446   4.234   1.797   6.528
 9168TIP3    H127447   4.259   1.854   6.601
 9168TIP3    H227448   4.302   1.729   6.526
 9169TIP3   OH227449   5.591   6.890   3.589
 9169TIP3    H127450   5.555   6.829   3.653
 9169TIP3    H227451   5.519   6.951   3.571
 9170TIP3   OH227452   0.677   1.704   5.878
 9170TIP3    H127453   0.617   1.643   5.922
 9170TIP3    H227454   0.714   1.757   5.949
 9171TIP3   OH227455   3.191   4.118   6.422
 9171TIP3    H127456   3.154   4.134   6.336
 9171TIP3    H227457   3.166   4.194   6.474
 9172TIP3   OH227458   0.032   0.742   5.060
 9172TIP3    H127459   0.103   0.695   5.103
 9172TIP3    H227460   0.067   0.766   4.974
 9173TIP3   OH227461   7.635   2.887   5.285
 9173TIP3    H127462   7.699   2.824   5.320
 9173TIP3    H227463   7.685   2.938   5.221
 9174TIP3   OH227464   6.724   5.436   5.150
 9174TIP3    H127465   6.742   5.342   5.150
 9174TIP3    H227466   6.775   5.470   5.223
 9175TIP3   OH227467   1.860   1.174   5.497
 9175TIP3    H127468   1.813   1.103   5.539
 9175TIP3    H227469   1.797   1.212   5.436
 9176TIP3   OH227470   5.122   3.967   3.699
 9176TIP3    H127471   5.074   3.898   3.746
 9176TIP3    H227472   5.214   3.941   3.704
 9177TIP3   OH227473   6.083   2.964   0.462
 9177TIP3    H127474   6.010   3.020   0.435
 9177TIP3    H227475   6.063   2.941   0.552
 9178TIP3   OH227476   2.142   6.836   5.421
 9178TIP3    H127477   2.109   6.826   5.332
 9178TIP3    H227478   2.094   6.771   5.472
 9179TIP3   OH227479   6.175   3.482   0.763
 9179TIP3    H127480   6.141   3.501   0.675
 9179TIP3    H227481   6.131   3.546   0.819
 9180TIP3   OH227482   6.097   5.064   0.118
 9180TIP3    H127483   6.144   5.060   0.202
 9180TIP3    H227484   6.006   5.047   0.141
 9181TIP3   OH227485   5.853   2.751   2.462
 9181TIP3    H127486   5.812   2.664   2.460
 9181TIP3    H227487   5.838   2.782   2.552
 9182TIP3   OH227488   4.957   5.777   4.231
 9182TIP3    H127489   5.049   5.795   4.210
 9182TIP3    H227490   4.924   5.861   4.265
 9183TIP3   OH227491   2.241   2.905   5.659
 9183TIP3    H127492   2.285   2.824   5.634
 9183TIP3    H227493   2.287   2.974   5.611
 9184TIP3   OH227494   1.051   5.202   6.346
 9184TIP3    H127495   1.042   5.296   6.359
 9184TIP3    H227496   0.986   5.181   6.278
 9185TIP3   OH227497   2.586   5.716   0.819
 9185TIP3    H127498   2.544   5.658   0.882
 9185TIP3    H227499   2.623   5.787   0.872
 9186TIP3   OH227500   2.460   1.063   1.876
 9186TIP3    H127501   2.456   1.123   1.950
 9186TIP3    H227502   2.437   0.978   1.913
 9187TIP3   OH227503   2.196   0.966   2.768
 9187TIP3    H127504   2.286   0.949   2.796
 9187TIP3    H227505   2.205   1.013   2.685
 9188TIP3   OH227506   1.268   2.827   1.780
 9188TIP3    H127507   1.240   2.736   1.765
 9188TIP3    H227508   1.190   2.871   1.812
 9189TIP3   OH227509   0.209   1.988   0.758
 9189TIP3    H127510   0.191   2.043   0.835
 9189TIP3    H227511   0.132   1.931   0.752
 9190TIP3   OH227512   8.152   2.246   6.748
 9190TIP3    H127513   8.081   2.230   6.685
 9190TIP3    H227514   8.189   2.160   6.764
 9191TIP3   OH227515   2.491   5.015   5.259
 9191TIP3    H127516   2.412   4.963   5.270
 9191TIP3    H227517   2.479   5.090   5.318
 9192TIP3   OH227518   8.047   4.543   3.736
 9192TIP3    H127519   8.058   4.628   3.695
 9192TIP3    H227520   7.952   4.528   3.736
 9193TIP3   OH227521   6.473   2.379   5.003
 9193TIP3    H127522   6.515   2.317   4.944
 9193TIP3    H227523   6.386   2.344   5.018
 9194TIP3   OH227524   2.014   7.043   0.378
 9194TIP3    H127525   1.999   6.966   0.433
 9194TIP3    H227526   2.087   7.018   0.321
 9195TIP3   OH227527   0.463   6.924   2.382
 9195TIP3    H127528   0.483   6.836   2.414
 9195TIP3    H227529   0.525   6.939   2.311
 9196TIP3   OH227530   4.419   0.505   0.599
 9196TIP3    H127531   4.483   0.576   0.597
 9196TIP3    H227532   4.374   0.512   0.515
 9197TIP3   OH227533   0.892   2.431   0.714
 9197TIP3    H127534   0.840   2.492   0.766
 9197TIP3    H227535   0.973   2.478   0.697
 9198TIP3   OH227536   1.723   3.434   5.450
 9198TIP3    H127537   1.649   3.379   5.479
 9198TIP3    H227538   1.790   3.371   5.425
 9199TIP3   OH227539   0.505   3.022   5.942
 9199TIP3    H127540   0.540   2.990   5.859
 9199TIP3    H227541   0.410   3.017   5.931
 9200TIP3   OH227542   7.069   7.761   2.899
 9200TIP3    H127543   7.023   7.696   2.952
 9200TIP3    H227544   7.080   7.719   2.814
 9201TIP3   OH227545   8.236   0.599   5.299
 9201TIP3    H127546   8.324   0.605   5.335
 9201TIP3    H227547   8.223   0.506   5.282
 9202TIP3   OH227548   3.359   5.127   2.511
 9202TIP3    H127549   3.279   5.129   2.458
 9202TIP3    H227550   3.330   5.095   2.597
 9203TIP3   OH227551   7.356   1.025   6.019
 9203TIP3    H127552   7.313   1.110   6.029
 9203TIP3    H227553   7.382   1.001   6.107
 9204TIP3   OH227554   1.275   5.307   3.510
 9204TIP3    H127555   1.308   5.236   3.565
 9204TIP3    H227556   1.322   5.385   3.539
 9205TIP3   OH227557   7.938   1.738   1.704
 9205TIP3    H127558   7.950   1.666   1.766
 9205TIP3    H227559   8.012   1.729   1.643
 9206TIP3   OH227560   1.274   0.197   0.695
 9206TIP3    H127561   1.356   0.229   0.656
 9206TIP3    H227562   1.229   0.276   0.724
 9207TIP3   OH227563   1.660   3.997   0.169
 9207TIP3    H127564   1.730   3.990   0.104
 9207TIP3    H227565   1.633   3.907   0.186
 9208TIP3   OH227566   3.223   6.058   1.907
 9208TIP3    H127567   3.184   6.128   1.854
 9208TIP3    H227568   3.293   6.023   1.852
 9209TIP3   OH227569   1.795   5.095   4.442
 9209TIP3    H127570   1.807   5.123   4.532
 9209TIP3    H227571   1.741   5.164   4.402
 9210TIP3   OH227572   6.057   0.618   0.974
 9210TIP3    H127573   6.044   0.681   1.045
 9210TIP3    H227574   6.122   0.556   1.007
 9211TIP3   OH227575   4.055   7.609   3.430
 9211TIP3    H127576   4.021   7.531   3.385
 9211TIP3    H227577   4.072   7.672   3.360
 9212TIP3   OH227578   6.589   1.818   3.716
 9212TIP3    H127579   6.583   1.723   3.723
 9212TIP3    H227580   6.603   1.833   3.622
 9213TIP3   OH227581   4.686   4.415   2.699
 9213TIP3    H127582   4.702   4.364   2.778
 9213TIP3    H227583   4.772   4.452   2.677
 9214TIP3   OH227584   5.734   6.575   3.503
 9214TIP3    H127585   5.647   6.607   3.482
 9214TIP3    H227586   5.774   6.644   3.555
 9215TIP3   OH227587   5.170   4.245   2.396
 9215TIP3    H127588   5.122   4.297   2.332
 9215TIP3    H227589   5.248   4.297   2.415
 9216TIP3   OH227590   5.908   5.734   4.048
 9216TIP3    H127591   5.975   5.758   4.111
 9216TIP3    H227592   5.927   5.643   4.026
 9217TIP3   OH227593   0.974   5.549   5.240
 9217TIP3    H127594   0.880   5.533   5.229
 9217TIP3    H227595   1.016   5.471   5.204
 9218TIP3   OH227596   4.236   1.456   5.973
 9218TIP3    H127597   4.212   1.411   5.892
 9218TIP3    H227598   4.331   1.461   5.971
 9219TIP3   OH227599   5.813   7.175   4.913
 9219TIP3    H127600   5.860   7.232   4.852
 9219TIP3    H227601   5.793   7.232   4.987
 9220TIP3   OH227602   6.043   2.499   1.153
 9220TIP3    H127603   6.114   2.493   1.089
 9220TIP3    H227604   6.086   2.526   1.234
 9221TIP3   OH227605   6.980   1.718   4.744
 9221TIP3    H127606   7.058   1.729   4.688
 9221TIP3    H227607   6.958   1.626   4.736
 9222TIP3   OH227608   3.566   4.477   1.714
 9222TIP3    H127609   3.482   4.520   1.699
 9222TIP3    H227610   3.598   4.516   1.795
 9223TIP3   OH227611   7.357   2.908   2.376
 9223TIP3    H127612   7.293   2.857   2.327
 9223TIP3    H227613   7.440   2.861   2.363
 9224TIP3   OH227614   1.461   1.651   4.310
 9224TIP3    H127615   1.375   1.687   4.286
 9224TIP3    H227616   1.455   1.558   4.287
 9225TIP3   OH227617   2.300   3.296   0.701
 9225TIP3    H127618   2.287   3.325   0.791
 9225TIP3    H227619   2.374   3.236   0.705
 9226TIP3   OH227620   6.875   0.022   0.052
 9226TIP3    H127621   6.951   0.067   0.014
 9226TIP3    H227622   6.843   0.083   0.119
 9227TIP3   OH227623   1.409   7.599   2.452
 9227TIP3    H127624   1.370   7.634   2.372
 9227TIP3    H227625   1.349   7.529   2.478
 9228TIP3   OH227626   3.602   3.778   1.548
 9228TIP3    H127627   3.586   3.684   1.536
 9228TIP3    H227628   3.562   3.819   1.472
 9229TIP3   OH227629   1.812   1.707   0.209
 9229TIP3    H127630   1.870   1.725   0.135
 9229TIP3    H227631   1.871   1.691   0.283
 9230TIP3   OH227632   3.599   4.584   0.952
 9230TIP3    H127633   3.561   4.570   1.038
 9230TIP3    H227634   3.640   4.670   0.957
 9231TIP3   OH227635   2.078   5.429   4.608
 9231TIP3    H127636   2.173   5.420   4.612
 9231TIP3    H227637   2.058   5.437   4.515
 9232TIP3   OH227638   7.962   7.778   3.042
 9232TIP3    H127639   7.916   7.701   3.008
 9232TIP3    H227640   7.898   7.819   3.101
 9233TIP3   OH227641   0.601   1.616   3.930
 9233TIP3    H127642   0.523   1.615   3.986
 9233TIP3    H227643   0.578   1.558   3.857
 9234TIP3   OH227644   0.228   1.221   0.795
 9234TIP3    H127645   0.293   1.188   0.857
 9234TIP3    H227646   0.254   1.182   0.711
 9235TIP3   OH227647   5.046   6.584   3.356
 9235TIP3    H127648   5.110   6.529   3.402
 9235TIP3    H227649   5.013   6.644   3.423
 9236TIP3   OH227650   0.293   2.443   0.718
 9236TIP3    H127651   0.317   2.361   0.761
 9236TIP3    H227652   0.376   2.488   0.703
 9237TIP3   OH227653   7.473   6.258   6.694
 9237TIP3    H127654   7.388   6.274   6.652
 9237TIP3    H227655   7.453   6.197   6.765
 9238TIP3   OH227656   6.201   4.291   4.777
 9238TIP3    H127657   6.148   4.308   4.700
 9238TIP3    H227658   6.292   4.296   4.746
 9239TIP3   OH227659   4.689   7.441   1.010
 9239TIP3    H127660   4.704   7.527   1.048
 9239TIP3    H227661   4.606   7.449   0.964
 9240TIP3   OH227662   5.934   4.892   4.472
 9240TIP3    H127663   5.931   4.965   4.534
 9240TIP3    H227664   5.846   4.853   4.477
 9241TIP3   OH227665   1.645   4.109   0.630
 9241TIP3    H127666   1.624   4.134   0.720
 9241TIP3    H227667   1.579   4.043   0.607
 9242TIP3   OH227668   7.474   1.452   1.820
 9242TIP3    H127669   7.432   1.379   1.774
 9242TIP3    H227670   7.530   1.492   1.754
 9243TIP3   OH227671   1.508   3.862   1.925
 9243TIP3    H127672   1.484   3.883   1.835
 9243TIP3    H227673   1.426   3.835   1.967
 9244TIP3   OH227674   3.812   2.074   5.351
 9244TIP3    H127675   3.761   2.097   5.274
 9244TIP3    H227676   3.856   1.992   5.327
 9245TIP3   OH227677   1.041   4.149   1.229
 9245TIP3    H127678   0.969   4.103   1.186
 9245TIP3    H227679   1.081   4.202   1.160
 9246TIP3   OH227680   4.870   6.877   1.084
 9246TIP3    H127681   4.959   6.872   1.050
 9246TIP3    H227682   4.820   6.920   1.015
 9247TIP3   OH227683   5.396   4.722   3.341
 9247TIP3    H127684   5.339   4.742   3.267
 9247TIP3    H227685   5.380   4.793   3.404
 9248TIP3   OH227686   3.629   3.616   4.499
 9248TIP3    H127687   3.552   3.659   4.462
 9248TIP3    H227688   3.651   3.546   4.437
 9249TIP3   OH227689   0.709   0.374   5.059
 9249TIP3    H127690   0.731   0.281   5.064
 9249TIP3    H227691   0.786   0.419   5.094
 9250TIP3   OH227692   3.820   0.918   0.904
 9250TIP3    H127693   3.747   0.980   0.909
 9250TIP3    H227694   3.779   0.832   0.913
 9251TIP3   OH227695   0.310   6.287   5.199
 9251TIP3    H127696   0.300   6.251   5.287
 9251TIP3    H227697   0.221   6.292   5.165
 9252TIP3   OH227698   7.981   7.123   4.939
 9252TIP3    H127699   8.037   7.045   4.934
 9252TIP3    H227700   7.899   7.096   4.898
 9253TIP3   OH227701   2.096   6.754   3.239
 9253TIP3    H127702   2.057   6.788   3.320
 9253TIP3    H227703   2.109   6.661   3.256
 9254TIP3   OH227704   6.902   6.836   2.471
 9254TIP3    H127705   6.848   6.758   2.480
 9254TIP3    H227706   6.896   6.879   2.556
 9255TIP3   OH227707   5.831   0.060   2.378
 9255TIP3    H127708   5.795  -0.029   2.383
 9255TIP3    H227709   5.896   0.056   2.307
 9256TIP3   OH227710   0.789   3.366   4.019
 9256TIP3    H127711   0.776   3.272   4.010
 9256TIP3    H227712   0.831   3.393   3.937
 9257TIP3   OH227713   3.925   5.731   1.772
 9257TIP3    H127714   3.847   5.684   1.742
 9257TIP3    H227715   3.993   5.708   1.709
 9258TIP3   OH227716   6.287   0.790   4.615
 9258TIP3    H127717   6.229   0.807   4.541
 9258TIP3    H227718   6.313   0.877   4.645
 9259TIP3   OH227719   5.420   7.730   4.137
 9259TIP3    H127720   5.476   7.760   4.065
 9259TIP3    H227721   5.460   7.766   4.216
 9260TIP3   OH227722   2.383   2.289   4.056
 9260TIP3    H127723   2.430   2.273   4.137
 9260TIP3    H227724   2.313   2.349   4.080
 9261TIP3   OH227725   2.430   3.161   5.460
 9261TIP3    H127726   2.444   3.180   5.368
 9261TIP3    H227727   2.518   3.161   5.499
 9262TIP3   OH227728   4.497   2.140   4.008
 9262TIP3    H127729   4.408   2.142   3.971
 9262TIP3    H227730   4.484   2.108   4.098
 9263TIP3   OH227731   6.988   5.430   2.531
 9263TIP3    H127732   6.991   5.414   2.625
 9263TIP3    H227733   6.911   5.382   2.501
 9264TIP3   OH227734   1.025   0.608   2.828
 9264TIP3    H127735   0.975   0.532   2.858
 9264TIP3    H227736   0.995   0.622   2.738
 9265TIP3   OH227737   1.386   7.812   3.334
 9265TIP3    H127738   1.462   7.763   3.366
 9265TIP3    H227739   1.425   7.886   3.286
 9266TIP3   OH227740   5.101   4.948   2.520
 9266TIP3    H127741   5.080   4.856   2.506
 9266TIP3    H227742   5.150   4.949   2.602
 9267TIP3   OH227743   6.589   5.929   2.868
 9267TIP3    H127744   6.601   5.984   2.791
 9267TIP3    H227745   6.628   5.845   2.844
 9268TIP3   OH227746   1.057   5.229   1.150
 9268TIP3    H127747   1.074   5.156   1.091
 9268TIP3    H227748   1.063   5.307   1.095
 9269TIP3   OH227749   0.804   5.057   2.749
 9269TIP3    H127750   0.837   4.971   2.726
 9269TIP3    H227751   0.810   5.108   2.668
 9270TIP3   OH227752   7.178   3.581   5.244
 9270TIP3    H127753   7.188   3.669   5.207
 9270TIP3    H227754   7.225   3.524   5.184
 9271TIP3   OH227755   4.464   2.361   2.416
 9271TIP3    H127756   4.519   2.290   2.383
 9271TIP3    H227757   4.482   2.364   2.510
 9272TIP3   OH227758   2.083   1.546   1.188
 9272TIP3    H127759   1.995   1.512   1.170
 9272TIP3    H227760   2.067   1.624   1.242
 9273TIP3   OH227761   5.863   1.100   1.989
 9273TIP3    H127762   5.839   1.063   2.074
 9273TIP3    H227763   5.826   1.189   1.991
 9274TIP3   OH227764   6.365   1.616   2.060
 9274TIP3    H127765   6.427   1.554   2.021
 9274TIP3    H227766   6.405   1.702   2.045
 9275TIP3   OH227767   1.103   2.861   3.961
 9275TIP3    H127768   1.120   2.930   4.025
 9275TIP3    H227769   1.009   2.846   3.965
 9276TIP3   OH227770   0.386   4.905   5.328
 9276TIP3    H127771   0.424   4.817   5.321
 9276TIP3    H227772   0.457   4.958   5.365
 9277TIP3   OH227773   6.025   2.017   0.151
 9277TIP3    H127774   5.930   2.012   0.150
 9277TIP3    H227775   6.054   1.926   0.150
 9278TIP3   OH227776   6.245   7.320   6.410
 9278TIP3    H127777   6.239   7.242   6.355
 9278TIP3    H227778   6.321   7.304   6.466
 9279TIP3   OH227779   7.703   3.284   6.255
 9279TIP3    H127780   7.788   3.311   6.220
 9279TIP3    H227781   7.672   3.360   6.305
 9280TIP3   OH227782   3.782   3.143   2.838
 9280TIP3    H127783   3.850   3.201   2.873
 9280TIP3    H227784   3.826   3.091   2.772
 9281TIP3   OH227785   3.216   5.490   5.996
 9281TIP3    H127786   3.151   5.470   6.063
 9281TIP3    H227787   3.239   5.404   5.959
 9282TIP3   OH227788   6.224   0.481   0.067
 9282TIP3    H127789   6.146   0.513   0.021
 9282TIP3    H227790   6.297   0.526   0.023
 9283TIP3   OH227791   5.962   5.473   4.430
 9283TIP3    H127792   6.029   5.468   4.361
 9283TIP3    H227793   6.011   5.463   4.512
 9284TIP3   OH227794   3.082   0.248   2.278
 9284TIP3    H127795   2.998   0.220   2.312
 9284TIP3    H227796   3.060   0.310   2.208
 9285TIP3   OH227797   4.627   0.605   2.150
 9285TIP3    H127798   4.590   0.682   2.105
 9285TIP3    H227799   4.550   0.559   2.184
 9286TIP3   OH227800   7.825   7.648   4.923
 9286TIP3    H127801   7.888   7.690   4.982
 9286TIP3    H227802   7.746   7.638   4.976
 9287TIP3   OH227803   0.523   3.810   1.911
 9287TIP3    H127804   0.542   3.827   1.819
 9287TIP3    H227805   0.604   3.833   1.957
 9288TIP3   OH227806   2.452   5.596   0.124
 9288TIP3    H127807   2.372   5.582   0.074
 9288TIP3    H227808   2.483   5.682   0.096
 9289TIP3   OH227809   7.373   6.688   0.150
 9289TIP3    H127810   7.359   6.767   0.203
 9289TIP3    H227811   7.286   6.651   0.140
 9290TIP3   OH227812   8.190   5.413   4.687
 9290TIP3    H127813   8.119   5.376   4.740
 9290TIP3    H227814   8.167   5.390   4.597
 9291TIP3   OH227815   8.198   4.702   0.714
 9291TIP3    H127816   8.284   4.736   0.738
 9291TIP3    H227817   8.148   4.779   0.688
 9292TIP3   OH227818   0.102   1.356   1.168
 9292TIP3    H127819   0.179   1.410   1.147
 9292TIP3    H227820   0.138   1.278   1.211
 9293TIP3   OH227821   1.486   2.105   6.446
 9293TIP3    H127822   1.446   2.105   6.533
 9293TIP3    H227823   1.481   2.196   6.417
 9294TIP3   OH227824   2.907   6.787   0.921
 9294TIP3    H127825   2.915   6.719   0.988
 9294TIP3    H227826   2.987   6.839   0.931
 9295TIP3   OH227827   4.539   4.314   5.219
 9295TIP3    H127828   4.454   4.302   5.261
 9295TIP3    H227829   4.563   4.405   5.238
 9296TIP3   OH227830   5.136   7.352   5.801
 9296TIP3    H127831   5.051   7.330   5.761
 9296TIP3    H227832   5.183   7.268   5.804
 9297TIP3   OH227833   3.970   0.841   2.191
 9297TIP3    H127834   3.944   0.837   2.283
 9297TIP3    H227835   3.889   0.830   2.142
 9298TIP3   OH227836   7.094   6.078   3.806
 9298TIP3    H127837   7.081   6.147   3.741
 9298TIP3    H227838   7.174   6.034   3.778
 9299TIP3   OH227839   3.610   6.904   1.720
 9299TIP3    H127840   3.593   6.996   1.738
 9299TIP3    H227841   3.565   6.886   1.638
 9300TIP3   OH227842   3.237   3.320   4.397
 9300TIP3    H127843   3.245   3.390   4.463
 9300TIP3    H227844   3.252   3.239   4.446
 9301TIP3   OH227845   2.484   1.637   4.117
 9301TIP3    H127846   2.494   1.687   4.198
 9301TIP3    H227847   2.402   1.590   4.128
 9302TIP3   OH227848   6.612   7.174   2.076
 9302TIP3    H127849   6.585   7.084   2.097
 9302TIP3    H227850   6.600   7.222   2.159
 9303TIP3   OH227851   3.341   2.585   1.868
 9303TIP3    H127852   3.261   2.550   1.829
 9303TIP3    H227853   3.410   2.559   1.807
 9304TIP3   OH227854   0.595   0.743   2.484
 9304TIP3    H127855   0.677   0.749   2.435
 9304TIP3    H227856   0.586   0.650   2.504
 9305TIP3   OH227857   8.062   3.952   4.505
 9305TIP3    H127858   8.142   3.916   4.542
 9305TIP3    H227859   8.049   3.903   4.424
 9306TIP3   OH227860   7.425   2.437   1.411
 9306TIP3    H127861   7.338   2.407   1.385
 9306TIP3    H227862   7.485   2.391   1.352
 9307TIP3   OH227863   8.027   6.259   3.401
 9307TIP3    H127864   8.111   6.259   3.446
 9307TIP3    H227865   8.049   6.252   3.308
 9308TIP3   OH227866   2.505   3.799   1.969
 9308TIP3    H127867   2.571   3.783   2.036
 9308TIP3    H227868   2.432   3.743   1.992
 9309TIP3   OH227869   2.447   2.679   5.611
 9309TIP3    H127870   2.508   2.701   5.681
 9309TIP3    H227871   2.406   2.597   5.639
 9310TIP3   OH227872   3.350   0.491   6.477
 9310TIP3    H127873   3.320   0.582   6.482
 9310TIP3    H227874   3.431   0.495   6.425
 9311TIP3   OH227875   0.632   3.625   3.728
 9311TIP3    H127876   0.589   3.590   3.806
 9311TIP3    H227877   0.564   3.622   3.660
 9312TIP3   OH227878   1.988   4.985   0.447
 9312TIP3    H127879   1.973   5.012   0.538
 9312TIP3    H227880   1.917   4.923   0.429
 9313TIP3   OH227881   7.010   7.767   3.687
 9313TIP3    H127882   7.058   7.685   3.674
 9313TIP3    H227883   7.068   7.820   3.742
 9314TIP3   OH227884   7.480   6.371   1.680
 9314TIP3    H127885   7.386   6.362   1.691
 9314TIP3    H227886   7.506   6.433   1.748
 9315TIP3   OH227887   1.297   3.803   5.939
 9315TIP3    H127888   1.302   3.804   6.034
 9315TIP3    H227889   1.292   3.710   5.916
 9316TIP3   OH227890   4.170   3.618   1.083
 9316TIP3    H127891   4.139   3.708   1.076
 9316TIP3    H227892   4.105   3.567   1.034
 9317TIP3   OH227893   4.682   6.221   6.211
 9317TIP3    H127894   4.692   6.177   6.126
 9317TIP3    H227895   4.603   6.182   6.248
 9318TIP3   OH227896   2.796   3.518   4.430
 9318TIP3    H127897   2.746   3.566   4.363
 9318TIP3    H227898   2.796   3.428   4.400
 9319TIP3   OH227899   0.282   6.472   4.402
 9319TIP3    H127900   0.190   6.496   4.400
 9319TIP3    H227901   0.303   6.464   4.495
 9320TIP3   OH227902   2.438   7.479   1.905
 9320TIP3    H127903   2.389   7.537   1.846
 9320TIP3    H227904   2.435   7.394   1.863
 9321TIP3   OH227905   7.830   0.209   2.004
 9321TIP3    H127906   7.803   0.123   2.037
 9321TIP3    H227907   7.924   0.200   1.986
 9322TIP3   OH227908   0.481   6.854   3.165
 9322TIP3    H127909   0.542   6.825   3.233
 9322TIP3    H227910   0.537   6.876   3.091
 9323TIP3   OH227911   0.846   5.692   0.680
 9323TIP3    H127912   0.806   5.670   0.765
 9323TIP3    H227913   0.929   5.734   0.703
 9324TIP3   OH227914   6.550   3.004   2.442
 9324TIP3    H127915   6.574   2.953   2.365
 9324TIP3    H227916   6.460   2.978   2.462
 9325TIP3   OH227917   3.429   1.071   4.602
 9325TIP3    H127918   3.408   1.149   4.550
 9325TIP3    H227919   3.346   1.024   4.608
 9326TIP3   OH227920   1.169   6.985   6.487
 9326TIP3    H127921   1.125   7.070   6.482
 9326TIP3    H227922   1.217   6.987   6.570
 9327TIP3   OH227923   8.175   1.958   2.184
 9327TIP3    H127924   8.218   1.973   2.100
 9327TIP3    H227925   8.247   1.950   2.247
 9328TIP3   OH227926   0.517   2.790   5.192
 9328TIP3    H127927   0.572   2.862   5.224
 9328TIP3    H227928   0.436   2.833   5.163
 9329TIP3   OH227929   5.814   2.186   5.407
 9329TIP3    H127930   5.764   2.202   5.487
 9329TIP3    H227931   5.786   2.254   5.346
 9330TIP3   OH227932   2.813   7.570   6.070
 9330TIP3    H127933   2.876   7.634   6.037
 9330TIP3    H227934   2.817   7.498   6.008
 9331TIP3   OH227935   7.616   5.668   3.527
 9331TIP3    H127936   7.683   5.693   3.590
 9331TIP3    H227937   7.652   5.592   3.482
 9332TIP3   OH227938   5.892   6.206   5.357
 9332TIP3    H127939   5.811   6.219   5.307
 9332TIP3    H227940   5.961   6.238   5.299
 9333TIP3   OH227941   2.226   5.051   0.324
 9333TIP3    H127942   2.149   5.023   0.374
 9333TIP3    H227943   2.202   5.033   0.233
 9334TIP3   OH227944   3.910   1.214   3.357
 9334TIP3    H127945   3.987   1.183   3.308
 9334TIP3    H227946   3.853   1.137   3.363
 9335TIP3   OH227947   8.163   3.199   4.761
 9335TIP3    H127948   8.161   3.238   4.674
 9335TIP3    H227949   8.143   3.272   4.820
 9336TIP3   OH227950   0.537   5.008   0.976
 9336TIP3    H127951   0.505   4.919   0.959
 9336TIP3    H227952   0.460   5.055   1.008
 9337TIP3   OH227953   2.208   5.218   2.030
 9337TIP3    H127954   2.231   5.158   1.959
 9337TIP3    H227955   2.284   5.277   2.035
 9338TIP3   OH227956   3.452   6.823   2.463
 9338TIP3    H127957   3.518   6.754   2.469
 9338TIP3    H227958   3.452   6.847   2.370
 9339TIP3   OH227959   4.824   3.929   0.444
 9339TIP3    H127960   4.868   3.846   0.461
 9339TIP3    H227961   4.844   3.948   0.352
 9340TIP3   OH227962   5.613   0.476   1.925
 9340TIP3    H127963   5.521   0.463   1.949
 9340TIP3    H227964   5.655   0.393   1.947
 9341TIP3   OH227965   5.849   2.289   1.118
 9341TIP3    H127966   5.876   2.236   1.193
 9341TIP3    H227967   5.913   2.360   1.115
 9342TIP3   OH227968   0.235   2.577   5.030
 9342TIP3    H127969   0.319   2.621   5.015
 9342TIP3    H227970   0.196   2.571   4.943
 9343TIP3   OH227971   5.123   6.028   6.687
 9343TIP3    H127972   5.052   5.986   6.639
 9343TIP3    H227973   5.146   5.966   6.755
 9344TIP3   OH227974   5.747   1.935   5.329
 9344TIP3    H127975   5.831   1.892   5.346
 9344TIP3    H227976   5.763   2.027   5.348
 9345TIP3   OH227977   5.099   4.595   4.400
 9345TIP3    H127978   5.103   4.653   4.324
 9345TIP3    H227979   5.073   4.510   4.364
 9346TIP3   OH227980   6.078   6.565   6.370
 9346TIP3    H127981   6.148   6.539   6.430
 9346TIP3    H227982   6.058   6.486   6.320
 9347TIP3   OH227983   1.496   1.020   2.093
 9347TIP3    H127984   1.412   1.061   2.113
 9347TIP3    H227985   1.512   0.961   2.167
 9348TIP3   OH227986   6.037   6.078   1.533
 9348TIP3    H127987   6.086   6.127   1.599
 9348TIP3    H227988   6.062   6.119   1.450
 9349TIP3   OH227989   0.499   5.134   4.269
 9349TIP3    H127990   0.595   5.134   4.269
 9349TIP3    H227991   0.475   5.059   4.323
 9350TIP3   OH227992   4.388   2.463   3.787
 9350TIP3    H127993   4.298   2.496   3.783
 9350TIP3    H227994   4.379   2.368   3.777
 9351TIP3   OH227995   7.903   2.850   4.867
 9351TIP3    H127996   7.816   2.810   4.867
 9351TIP3    H227997   7.887   2.942   4.846
 9352TIP3   OH227998   3.462   6.967   2.884
 9352TIP3    H127999   3.455   7.014   2.801
 9352TIP3    H228000   3.452   6.875   2.861
 9353TIP3   OH228001   3.233   5.574   2.500
 9353TIP3    H128002   3.192   5.631   2.565
 9353TIP3    H228003   3.324   5.604   2.498
 9354TIP3   OH228004   5.565   7.306   4.633
 9354TIP3    H128005   5.659   7.287   4.631
 9354TIP3    H228006   5.528   7.236   4.688
 9355TIP3   OH228007   6.419   2.702   1.440
 9355TIP3    H128008   6.470   2.643   1.385
 9355TIP3    H228009   6.475   2.778   1.453
 9356TIP3   OH228010   5.224   0.489   6.023
 9356TIP3    H128011   5.231   0.400   6.057
 9356TIP3    H228012   5.304   0.532   6.053
 9357TIP3   OH228013   2.422   6.358   2.087
 9357TIP3    H128014   2.510   6.352   2.123
 9357TIP3    H228015   2.379   6.424   2.141
 9358TIP3   OH228016   3.993   0.225   0.896
 9358TIP3    H128017   3.930   0.292   0.869
 9358TIP3    H228018   4.035   0.261   0.974
 9359TIP3   OH228019   4.835   6.641   4.478
 9359TIP3    H128020   4.889   6.565   4.455
 9359TIP3    H228021   4.842   6.647   4.573
 9360TIP3   OH228022   0.841   0.644   3.941
 9360TIP3    H128023   0.924   0.649   3.988
 9360TIP3    H228024   0.848   0.710   3.872
 9361TIP3   OH228025   0.353   3.019   0.654
 9361TIP3    H128026   0.379   2.931   0.681
 9361TIP3    H228027   0.304   3.054   0.728
 9362TIP3   OH228028   7.757   6.383   5.588
 9362TIP3    H128029   7.724   6.318   5.650
 9362TIP3    H228030   7.842   6.348   5.559
 9363TIP3   OH228031   5.381   3.558   1.750
 9363TIP3    H128032   5.377   3.479   1.696
 9363TIP3    H228033   5.305   3.609   1.721
 9364TIP3   OH228034   4.181   4.852   3.568
 9364TIP3    H128035   4.154   4.849   3.660
 9364TIP3    H228036   4.136   4.928   3.532
 9365TIP3   OH228037   3.376   7.622   1.618
 9365TIP3    H128038   3.333   7.671   1.689
 9365TIP3    H228039   3.316   7.630   1.544
 9366TIP3   OH228040   2.800   2.944   5.274
 9366TIP3    H128041   2.857   2.870   5.251
 9366TIP3    H228042   2.716   2.904   5.295
 9367TIP3   OH228043   5.020  -0.009   5.927
 9367TIP3    H128044   5.066  -0.025   6.010
 9367TIP3    H228045   4.964   0.066   5.944
 9368TIP3   OH228046   2.119   4.670   5.344
 9368TIP3    H128047   2.114   4.620   5.426
 9368TIP3    H228048   2.031   4.706   5.334
 9369TIP3   OH228049   0.767   4.740   2.290
 9369TIP3    H128050   0.691   4.797   2.280
 9369TIP3    H228051   0.767   4.686   2.211
 9370TIP3   OH228052   7.661   4.692   1.665
 9370TIP3    H128053   7.703   4.636   1.600
 9370TIP3    H228054   7.695   4.779   1.647
 9371TIP3   OH228055   1.048   2.914   1.162
 9371TIP3    H128056   1.070   2.980   1.096
 9371TIP3    H228057   1.045   2.963   1.244
 9372TIP3   OH228058   2.900   5.748   3.802
 9372TIP3    H128059   2.876   5.676   3.859
 9372TIP3    H228060   2.831   5.813   3.815
 9373TIP3   OH228061   5.554   6.001   6.173
 9373TIP3    H128062   5.581   5.963   6.089
 9373TIP3    H228063   5.501   6.077   6.148
 9374TIP3   OH228064   1.744   0.303   0.598
 9374TIP3    H128065   1.827   0.275   0.559
 9374TIP3    H228066   1.717   0.229   0.653
 9375TIP3   OH228067   3.244   6.258   1.346
 9375TIP3    H128068   3.306   6.327   1.324
 9375TIP3    H228069   3.245   6.255   1.442
 9376TIP3   OH228070   6.984   3.826   3.164
 9376TIP3    H128071   6.970   3.840   3.070
 9376TIP3    H228072   7.049   3.756   3.168
 9377TIP3   OH228073   2.682   7.882   5.524
 9377TIP3    H128074   2.600   7.873   5.475
 9377TIP3    H228075   2.722   7.795   5.521
 9378TIP3   OH228076   0.617   7.323   4.018
 9378TIP3    H128077   0.564   7.249   4.046
 9378TIP3    H228078   0.568   7.400   4.045
 9379TIP3   OH228079   8.005   7.245   6.551
 9379TIP3    H128080   8.031   7.262   6.460
 9379TIP3    H228081   7.910   7.251   6.549
 9380TIP3   OH228082   7.215   3.295   6.406
 9380TIP3    H128083   7.125   3.321   6.428
 9380TIP3    H228084   7.221   3.205   6.438
 9381TIP3   OH228085   4.848   6.661   4.768
 9381TIP3    H128086   4.944   6.656   4.771
 9381TIP3    H228087   4.819   6.609   4.842
 9382TIP3   OH228088   1.180   6.749   4.046
 9382TIP3    H128089   1.268   6.715   4.064
 9382TIP3    H228090   1.171   6.740   3.951
 9383TIP3   OH228091   1.174   2.580   0.359
 9383TIP3    H128092   1.158   2.624   0.276
 9383TIP3    H228093   1.146   2.489   0.344
 9384TIP3   OH228094   2.443   1.171   0.896
 9384TIP3    H128095   2.428   1.089   0.942
 9384TIP3    H228096   2.373   1.176   0.832
 9385TIP3   OH228097   0.212   7.462   4.951
 9385TIP3    H128098   0.149   7.420   5.010
 9385TIP3    H228099   0.183   7.553   4.946
 9386TIP3   OH228100   5.633   7.394   1.608
 9386TIP3    H128101   5.539   7.391   1.589
 9386TIP3    H228102   5.675   7.362   1.528
 9387TIP3   OH228103   4.645   5.255   4.806
 9387TIP3    H128104   4.600   5.321   4.860
 9387TIP3    H228105   4.617   5.274   4.717
 9388TIP3   OH228106   3.790   4.021   0.710
 9388TIP3    H128107   3.717   4.041   0.768
 9388TIP3    H228108   3.775   3.931   0.682
 9389TIP3   OH228109   3.367   4.061   5.125
 9389TIP3    H128110   3.272   4.065   5.138
 9389TIP3    H228111   3.402   4.043   5.212
 9390TIP3   OH228112   6.756   2.097   6.438
 9390TIP3    H128113   6.740   2.191   6.430
 9390TIP3    H228114   6.704   2.058   6.369
 9391TIP3   OH228115   2.501   2.731   1.044
 9391TIP3    H128116   2.437   2.759   1.109
 9391TIP3    H228117   2.511   2.637   1.059
 9392TIP3   OH228118   5.470   0.811   5.246
 9392TIP3    H128119   5.562   0.808   5.219
 9392TIP3    H228120   5.436   0.891   5.205
 9393TIP3   OH228121   3.737   4.010   2.042
 9393TIP3    H128122   3.711   4.102   2.040
 9393TIP3    H228123   3.712   3.976   1.955
 9394TIP3   OH228124   6.184   6.920   2.999
 9394TIP3    H128125   6.146   7.005   3.022
 9394TIP3    H228126   6.223   6.887   3.080
 9395TIP3   OH228127   3.346   2.898   2.778
 9395TIP3    H128128   3.360   2.891   2.872
 9395TIP3    H228129   3.340   2.992   2.761
 9396TIP3   OH228130   6.038   0.173   0.898
 9396TIP3    H128131   6.131   0.187   0.919
 9396TIP3    H228132   5.994   0.252   0.930
 9397TIP3   OH228133   0.328   3.503   6.663
 9397TIP3    H128134   0.403   3.557   6.640
 9397TIP3    H228135   0.305   3.458   6.582
 9398TIP3   OH228136   0.031   5.805   3.578
 9398TIP3    H128137   0.084   5.808   3.499
 9398TIP3    H228138  -0.046   5.858   3.557
 9399TIP3   OH228139   1.668   1.514   1.127
 9399TIP3    H128140   1.727   1.523   1.052
 9399TIP3    H228141   1.700   1.436   1.173
 9400TIP3   OH228142   3.010   0.345   2.037
 9400TIP3    H128143   3.046   0.425   2.000
 9400TIP3    H228144   2.977   0.296   1.962
 9401TIP3   OH228145   4.943   2.057   6.163
 9401TIP3    H128146   5.021   2.002   6.154
 9401TIP3    H228147   4.971   2.143   6.130
 9402TIP3   OH228148   6.863   0.037   6.422
 9402TIP3    H128149   6.774   0.002   6.421
 9402TIP3    H228150   6.854   0.128   6.393
 9403TIP3   OH228151   4.139   4.389   4.268
 9403TIP3    H128152   4.201   4.352   4.332
 9403TIP3    H228153   4.061   4.410   4.320
 9404TIP3   OH228154   1.652   4.072   4.705
 9404TIP3    H128155   1.682   4.108   4.789
 9404TIP3    H228156   1.631   3.980   4.725
 9405TIP3   OH228157   3.723   0.744   1.860
 9405TIP3    H128158   3.740   0.667   1.805
 9405TIP3    H228159   3.632   0.733   1.888
 9406TIP3   OH228160   6.194   6.863   0.034
 9406TIP3    H128161   6.153   6.837  -0.048
 9406TIP3    H228162   6.261   6.927   0.009
 9407TIP3   OH228163   1.104   5.796   0.741
 9407TIP3    H128164   1.137   5.844   0.666
 9407TIP3    H228165   1.056   5.861   0.793
 9408TIP3   OH228166   5.049   1.951   3.334
 9408TIP3    H128167   5.127   1.916   3.376
 9408TIP3    H228168   5.009   2.007   3.401
 9409TIP3   OH228169   5.740   6.932   2.115
 9409TIP3    H128170   5.808   6.914   2.179
 9409TIP3    H228171   5.692   6.850   2.107
 9410TIP3   OH228172   7.606   0.584   5.907
 9410TIP3    H128173   7.653   0.641   5.969
 9410TIP3    H228174   7.514   0.593   5.933
 9411TIP3   OH228175   3.494   2.968   4.200
 9411TIP3    H128176   3.529   2.886   4.165
 9411TIP3    H228177   3.399   2.956   4.200
 9412TIP3   OH228178   8.001   4.931   6.686
 9412TIP3    H128179   7.919   4.893   6.655
 9412TIP3    H228180   8.025   4.994   6.618
 9413TIP3   OH228181   3.283   7.828   1.773
 9413TIP3    H128182   3.338   7.896   1.810
 9413TIP3    H228183   3.195   7.866   1.773
 9414TIP3   OH228184   3.506   1.252   6.488
 9414TIP3    H128185   3.415   1.223   6.489
 9414TIP3    H228186   3.544   1.217   6.568
 9415TIP3   OH228187   7.602   2.296   3.820
 9415TIP3    H128188   7.647   2.241   3.884
 9415TIP3    H228189   7.573   2.372   3.870
 9416TIP3   OH228190   3.183   6.652   1.968
 9416TIP3    H128191   3.224   6.621   2.049
 9416TIP3    H228192   3.089   6.647   1.986
 9417TIP3   OH228193   1.780   6.032   4.572
 9417TIP3    H128194   1.703   6.082   4.601
 9417TIP3    H228195   1.847   6.098   4.556
 9418TIP3   OH228196   3.179   1.788   1.800
 9418TIP3    H128197   3.145   1.707   1.764
 9418TIP3    H228198   3.144   1.792   1.889
 9419TIP3   OH228199   3.151   1.283   1.001
 9419TIP3    H128200   3.100   1.218   1.051
 9419TIP3    H228201   3.099   1.299   0.923
 9420TIP3   OH228202   2.860   3.553   0.891
 9420TIP3    H128203   2.825   3.487   0.951
 9420TIP3    H228204   2.883   3.504   0.812
 9421TIP3   OH228205   6.890   0.288   0.627
 9421TIP3    H128206   6.947   0.332   0.690
 9421TIP3    H228207   6.912   0.195   0.636
 9422TIP3   OH228208   6.278   1.410   5.298
 9422TIP3    H128209   6.354   1.429   5.352
 9422TIP3    H228210   6.286   1.469   5.223
 9423TIP3   OH228211   2.827   3.714   0.594
 9423TIP3    H128212   2.784   3.629   0.588
 9423TIP3    H228213   2.773   3.764   0.656
 9424TIP3   OH228214   4.264   1.126   2.697
 9424TIP3    H128215   4.173   1.137   2.726
 9424TIP3    H228216   4.272   1.181   2.620
 9425TIP3   OH228217   6.259   4.648   3.334
 9425TIP3    H128218   6.305   4.670   3.253
 9425TIP3    H228219   6.189   4.713   3.340
 9426TIP3   OH228220   7.296   1.762   1.693
 9426TIP3    H128221   7.273   1.823   1.764
 9426TIP3    H228222   7.226   1.775   1.629
 9427TIP3   OH228223   1.097   7.110   0.871
 9427TIP3    H128224   1.051   7.163   0.936
 9427TIP3    H228225   1.063   7.142   0.787
 9428TIP3   OH228226   8.166   4.289   6.149
 9428TIP3    H128227   8.175   4.384   6.149
 9428TIP3    H228228   8.231   4.258   6.085
 9429TIP3   OH228229   6.694   6.702   1.616
 9429TIP3    H128230   6.768   6.666   1.568
 9429TIP3    H228231   6.617   6.679   1.565
 9430TIP3   OH228232   7.724   6.025   6.644
 9430TIP3    H128233   7.817   6.025   6.623
 9430TIP3    H228234   7.689   6.102   6.599
 9431TIP3   OH228235   0.784   3.444   6.244
 9431TIP3    H128236   0.842   3.521   6.251
 9431TIP3    H228237   0.723   3.454   6.317
 9432TIP3   OH228238   3.508   4.711   2.533
 9432TIP3    H128239   3.521   4.762   2.453
 9432TIP3    H228240   3.414   4.718   2.550
 9433TIP3   OH228241   1.401   3.400   1.627
 9433TIP3    H128242   1.382   3.490   1.600
 9433TIP3    H228243   1.344   3.386   1.703
 9434TIP3   OH228244   4.840   0.855   2.113
 9434TIP3    H128245   4.894   0.933   2.109
 9434TIP3    H228246   4.778   0.865   2.040
 9435TIP3   OH228247   6.991   1.197   5.203
 9435TIP3    H128248   7.063   1.201   5.265
 9435TIP3    H228249   6.982   1.286   5.171
 9436TIP3   OH228250   3.614   6.308   3.419
 9436TIP3    H128251   3.609   6.384   3.362
 9436TIP3    H228252   3.523   6.276   3.426
 9437TIP3   OH228253   1.288   5.499   0.454
 9437TIP3    H128254   1.239   5.575   0.421
 9437TIP3    H228255   1.285   5.509   0.550
 9438TIP3   OH228256   3.602   6.315   0.990
 9438TIP3    H128257   3.652   6.326   0.910
 9438TIP3    H228258   3.626   6.227   1.021
 9439TIP3   OH228259   1.632   0.124   0.001
 9439TIP3    H128260   1.662   0.127   0.092
 9439TIP3    H228261   1.541   0.096   0.007
 9440TIP3   OH228262   7.788   2.373   5.990
 9440TIP3    H128263   7.801   2.403   6.079
 9440TIP3    H228264   7.876   2.355   5.957
 9441TIP3   OH228265   0.585   4.269   6.481
 9441TIP3    H128266   0.508   4.232   6.438
 9441TIP3    H228267   0.565   4.363   6.488
 9442TIP3   OH228268   6.639   7.500   5.727
 9442TIP3    H128269   6.679   7.490   5.641
 9442TIP3    H228270   6.709   7.532   5.783
 9443TIP3   OH228271   3.454   7.482   1.235
 9443TIP3    H128272   3.531   7.425   1.228
 9443TIP3    H228273   3.445   7.521   1.148
 9444TIP3   OH228274   3.438   3.509   1.865
 9444TIP3    H128275   3.409   3.437   1.921
 9444TIP3    H228276   3.448   3.470   1.778
 9445TIP3   OH228277   0.427   0.807   4.776
 9445TIP3    H128278   0.502   0.847   4.733
 9445TIP3    H228279   0.453   0.716   4.790
 9446TIP3   OH228280   5.648   6.394   6.647
 9446TIP3    H128281   5.663   6.411   6.554
 9446TIP3    H228282   5.563   6.435   6.665
 9447TIP3   OH228283   7.487   2.528   5.145
 9447TIP3    H128284   7.458   2.439   5.165
 9447TIP3    H228285   7.581   2.526   5.160
 9448TIP3   OH228286   6.732   6.998   4.615
 9448TIP3    H128287   6.808   6.982   4.560
 9448TIP3    H228288   6.734   7.091   4.635
 9449TIP3   OH228289   5.048   0.461   2.622
 9449TIP3    H128290   5.078   0.549   2.598
 9449TIP3    H228291   5.096   0.441   2.703
 9450TIP3   OH228292   5.032   1.370   5.366
 9450TIP3    H128293   5.114   1.325   5.344
 9450TIP3    H228294   5.051   1.463   5.352
 9451TIP3   OH228295   5.892   4.175   0.698
 9451TIP3    H128296   5.917   4.219   0.779
 9451TIP3    H228297   5.830   4.108   0.726
 9452TIP3   OH228298   4.776  -0.022   0.258
 9452TIP3    H128299   4.854  -0.030   0.312
 9452TIP3    H228300   4.717   0.033   0.310
 9453TIP3   OH228301   4.230   2.406   6.108
 9453TIP3    H128302   4.239   2.312   6.093
 9453TIP3    H228303   4.250   2.446   6.024
 9454TIP3   OH228304   7.392   2.722   2.939
 9454TIP3    H128305   7.471   2.774   2.923
 9454TIP3    H228306   7.334   2.781   2.986
 9455TIP3   OH228307   7.247   0.459   4.101
 9455TIP3    H128308   7.293   0.530   4.145
 9455TIP3    H228309   7.187   0.503   4.041
 9456TIP3   OH228310   2.158   0.748   2.988
 9456TIP3    H128311   2.073   0.776   3.022
 9456TIP3    H228312   2.167   0.794   2.905
 9457TIP3   OH228313   1.467   6.987   0.505
 9457TIP3    H128314   1.494   7.054   0.568
 9457TIP3    H228315   1.493   7.023   0.420
 9458TIP3   OH228316   3.840   3.606   1.451
 9458TIP3    H128317   3.903   3.575   1.385
 9458TIP3    H228318   3.786   3.669   1.404
 9459TIP3   OH228319   2.807   1.722   2.563
 9459TIP3    H128320   2.843   1.794   2.615
 9459TIP3    H228321   2.883   1.666   2.545
 9460TIP3   OH228322   2.856   2.700   0.920
 9460TIP3    H128323   2.940   2.658   0.904
 9460TIP3    H228324   2.792   2.631   0.907
 9461TIP3   OH228325   2.097   5.785   1.341
 9461TIP3    H128326   2.175   5.806   1.289
 9461TIP3    H228327   2.120   5.812   1.430
 9462TIP3   OH228328   6.385   2.369   1.373
 9462TIP3    H128329   6.319   2.438   1.380
 9462TIP3    H228330   6.465   2.415   1.345
 9463TIP3   OH228331   7.608   3.827   4.950
 9463TIP3    H128332   7.633   3.797   4.863
 9463TIP3    H228333   7.546   3.898   4.934
 9464TIP3   OH228334   5.926   6.739   1.323
 9464TIP3    H128335   5.893   6.692   1.400
 9464TIP3    H228336   6.021   6.741   1.336
 9465TIP3   OH228337   1.760   1.872   3.869
 9465TIP3    H128338   1.748   1.777   3.878
 9465TIP3    H228339   1.712   1.894   3.789
 9466TIP3   OH228340   1.120   3.495   0.538
 9466TIP3    H128341   1.166   3.415   0.512
 9466TIP3    H228342   1.169   3.525   0.615
 9467TIP3   OH228343   8.043   3.274   3.828
 9467TIP3    H128344   8.103   3.328   3.777
 9467TIP3    H228345   8.099   3.231   3.893
 9468TIP3   OH228346   3.344   1.154   3.330
 9468TIP3    H128347   3.319   1.062   3.335
 9468TIP3    H228348   3.406   1.166   3.402
 9469TIP3   OH228349   2.975   1.042   5.681
 9469TIP3    H128350   3.016   1.120   5.645
 9469TIP3    H228351   2.908   1.075   5.741
 9470TIP3   OH228352   1.715   3.108   5.991
 9470TIP3    H128353   1.768   3.044   6.038
 9470TIP3    H228354   1.718   3.187   6.045
 9471TIP3   OH228355   6.155   3.676   1.068
 9471TIP3    H128356   6.073   3.665   1.116
 9471TIP3    H228357   6.136   3.743   1.003
 9472TIP3   OH228358   4.851   1.730   4.831
 9472TIP3    H128359   4.942   1.701   4.824
 9472TIP3    H228360   4.815   1.680   4.905
 9473TIP3   OH228361   3.501   2.683   4.812
 9473TIP3    H128362   3.539   2.691   4.725
 9473TIP3    H228363   3.572   2.649   4.867
 9474TIP3   OH228364   8.269   0.153   4.680
 9474TIP3    H128365   8.202   0.086   4.695
 9474TIP3    H228366   8.352   0.105   4.679
 9475TIP3   OH228367   7.341   3.445   5.069
 9475TIP3    H128368   7.352   3.515   5.005
 9475TIP3    H228369   7.266   3.395   5.038
 9476TIP3   OH228370   6.518   7.532   6.239
 9476TIP3    H128371   6.596   7.477   6.242
 9476TIP3    H228372   6.453   7.480   6.192
 9477TIP3   OH228373   6.402   2.728   5.573
 9477TIP3    H128374   6.423   2.821   5.584
 9477TIP3    H228375   6.312   2.727   5.543
 9478TIP3   OH228376   2.180   2.236   0.921
 9478TIP3    H128377   2.216   2.166   0.975
 9478TIP3    H228378   2.231   2.314   0.945
 9479TIP3   OH228379   5.357   0.396   1.956
 9479TIP3    H128380   5.340   0.303   1.945
 9479TIP3    H228381   5.273   0.432   1.984
 9480TIP3   OH228382   1.999   5.395   4.917
 9480TIP3    H128383   2.056   5.378   4.842
 9480TIP3    H228384   2.058   5.398   4.992
 9481TIP3   OH228385   1.233   2.470   6.426
 9481TIP3    H128386   1.184   2.432   6.499
 9481TIP3    H228387   1.169   2.474   6.355
 9482TIP3   OH228388   0.470   1.225   2.174
 9482TIP3    H128389   0.479   1.297   2.236
 9482TIP3    H228390   0.513   1.150   2.216
 9483TIP3   OH228391   5.425   2.731   5.575
 9483TIP3    H128392   5.445   2.679   5.498
 9483TIP3    H228393   5.489   2.704   5.640
 9484TIP3   OH228394   6.267   6.226   3.672
 9484TIP3    H128395   6.244   6.154   3.614
 9484TIP3    H228396   6.185   6.252   3.714
 9485TIP3   OH228397   1.154   0.621   5.509
 9485TIP3    H128398   1.184   0.572   5.585
 9485TIP3    H228399   1.060   0.604   5.505
 9486TIP3   OH228400   4.064   7.050   2.349
 9486TIP3    H128401   4.064   7.111   2.275
 9486TIP3    H228402   3.973   7.050   2.380
 9487TIP3   OH228403   3.474   4.105   2.135
 9487TIP3    H128404   3.560   4.140   2.157
 9487TIP3    H228405   3.475   4.096   2.040
 9488TIP3   OH228406   7.190   6.289   0.124
 9488TIP3    H128407   7.163   6.208   0.082
 9488TIP3    H228408   7.238   6.337   0.057
 9489TIP3   OH228409   3.375   5.827   2.064
 9489TIP3    H128410   3.387   5.746   2.015
 9489TIP3    H228411   3.280   5.842   2.064
 9490TIP3   OH228412   7.265   4.957   4.969
 9490TIP3    H128413   7.355   4.976   4.995
 9490TIP3    H228414   7.271   4.875   4.919
 9491TIP3   OH228415   0.912   4.833   5.829
 9491TIP3    H128416   0.855   4.878   5.892
 9491TIP3    H228417   0.980   4.897   5.808
 9492TIP3   OH228418   5.810   6.512   5.816
 9492TIP3    H128419   5.893   6.502   5.863
 9492TIP3    H228420   5.743   6.489   5.881
 9493TIP3   OH228421   5.253   7.246   4.897
 9493TIP3    H128422   5.200   7.265   4.820
 9493TIP3    H228423   5.334   7.210   4.863
 9494TIP3   OH228424   3.942   5.404   0.305
 9494TIP3    H128425   3.940   5.381   0.398
 9494TIP3    H228426   4.034   5.421   0.286
 9495TIP3   OH228427   0.029   0.205   2.302
 9495TIP3    H128428  -0.016   0.141   2.246
 9495TIP3    H228429   0.122   0.194   2.282
 9496TIP3   OH228430   3.666   2.231   4.477
 9496TIP3    H128431   3.593   2.209   4.535
 9496TIP3    H228432   3.671   2.156   4.417
 9497TIP3   OH228433   2.543   6.480   0.951
 9497TIP3    H128434   2.450   6.473   0.975
 9497TIP3    H228435   2.558   6.573   0.937
 9498TIP3   OH228436   6.144   5.543   0.828
 9498TIP3    H128437   6.114   5.500   0.748
 9498TIP3    H228438   6.183   5.472   0.879
 9499TIP3   OH228439   1.300   5.929   6.364
 9499TIP3    H128440   1.295   6.021   6.337
 9499TIP3    H228441   1.378   5.896   6.320
 9500TIP3   OH228442   0.261   2.357   5.207
 9500TIP3    H128443   0.229   2.413   5.136
 9500TIP3    H228444   0.214   2.275   5.195
 9501TIP3   OH228445   1.889   7.372   4.466
 9501TIP3    H128446   1.980   7.404   4.462
 9501TIP3    H228447   1.864   7.358   4.375
 9502TIP3   OH228448   7.558   4.957   3.421
 9502TIP3    H128449   7.604   5.029   3.377
 9502TIP3    H228450   7.571   4.882   3.364
 9503TIP3   OH228451   1.148   6.642   6.164
 9503TIP3    H128452   1.229   6.592   6.172
 9503TIP3    H228453   1.124   6.634   6.071
 9504TIP3   OH228454   5.385   0.911   4.559
 9504TIP3    H128455   5.309   0.853   4.558
 9504TIP3    H228456   5.401   0.930   4.466
 9505TIP3   OH228457   6.771   7.543   2.827
 9505TIP3    H128458   6.844   7.516   2.884
 9505TIP3    H228459   6.810   7.606   2.767
 9506TIP3   OH228460   0.119   0.563   1.711
 9506TIP3    H128461   0.076   0.477   1.707
 9506TIP3    H228462   0.048   0.626   1.700
 9507TIP3   OH228463   5.502   2.285   0.713
 9507TIP3    H128464   5.479   2.345   0.785
 9507TIP3    H228465   5.515   2.201   0.756
 9508TIP3   OH228466   3.028   0.458   2.456
 9508TIP3    H128467   3.062   0.374   2.426
 9508TIP3    H228468   2.938   0.460   2.426
 9509TIP3   OH228469   2.204   0.174   1.992
 9509TIP3    H128470   2.296   0.190   1.967
 9509TIP3    H228471   2.153   0.211   1.920
 9510TIP3   OH228472   5.897   0.741   0.751
 9510TIP3    H128473   5.971   0.766   0.696
 9510TIP3    H228474   5.935   0.714   0.834
 9511TIP3   OH228475   3.425   5.941   0.072
 9511TIP3    H128476   3.349   5.941   0.014
 9511TIP3    H228477   3.498   5.912   0.017
 9512TIP3   OH228478   5.440   7.239   5.166
 9512TIP3    H128479   5.473   7.151   5.150
 9512TIP3    H228480   5.468   7.290   5.090
 9513TIP3   OH228481   3.743   3.443   4.047
 9513TIP3    H128482   3.837   3.440   4.065
 9513TIP3    H228483   3.714   3.352   4.051
 9514TIP3   OH228484   6.960   0.738   0.952
 9514TIP3    H128485   7.030   0.769   1.009
 9514TIP3    H228486   6.971   0.789   0.871
 9515TIP3   OH228487   7.865   6.969   0.841
 9515TIP3    H128488   7.880   7.007   0.928
 9515TIP3    H228489   7.774   6.990   0.821
 9516TIP3   OH228490   7.641   4.491   0.627
 9516TIP3    H128491   7.653   4.542   0.708
 9516TIP3    H228492   7.727   4.452   0.611
 9517TIP3   OH228493   5.234   5.555   6.667
 9517TIP3    H128494   5.273   5.467   6.661
 9517TIP3    H228495   5.199   5.571   6.579
 9518TIP3   OH228496   0.585   5.992   5.070
 9518TIP3    H128497   0.671   5.972   5.031
 9518TIP3    H228498   0.563   6.078   5.034
 9519TIP3   OH228499   0.440   1.159   4.303
 9519TIP3    H128500   0.379   1.231   4.283
 9519TIP3    H228501   0.473   1.132   4.217
 9520TIP3   OH228502   2.678   5.342   4.547
 9520TIP3    H128503   2.666   5.248   4.535
 9520TIP3    H228504   2.656   5.381   4.462
 9521TIP3   OH228505   5.441   6.402   4.650
 9521TIP3    H128506   5.415   6.494   4.647
 9521TIP3    H228507   5.369   6.358   4.696
 9522TIP3   OH228508   6.986   1.613   6.185
 9522TIP3    H128509   7.077   1.637   6.165
 9522TIP3    H228510   6.937   1.638   6.106
 9523TIP3   OH228511   5.125   6.679   5.891
 9523TIP3    H128512   5.070   6.688   5.813
 9523TIP3    H228513   5.212   6.657   5.858
 9524TIP3   OH228514   3.762   3.115   4.957
 9524TIP3    H128515   3.776   3.094   5.049
 9524TIP3    H228516   3.801   3.041   4.909
 9525TIP3   OH228517   1.603   6.089   3.470
 9525TIP3    H128518   1.584   6.174   3.431
 9525TIP3    H228519   1.561   6.092   3.556
 9526TIP3   OH228520   7.451   4.758   3.990
 9526TIP3    H128521   7.535   4.757   3.944
 9526TIP3    H228522   7.470   4.798   4.075
 9527TIP3   OH228523   8.168   1.452   1.304
 9527TIP3    H128524   8.243   1.399   1.278
 9527TIP3    H228525   8.150   1.508   1.228
 9528TIP3   OH228526   3.686   5.975   1.956
 9528TIP3    H128527   3.701   6.031   1.880
 9528TIP3    H228528   3.721   5.890   1.930
 9529TIP3   OH228529   5.202   4.665   1.541
 9529TIP3    H128530   5.170   4.733   1.600
 9529TIP3    H228531   5.133   4.655   1.476
 9530TIP3   OH228532   1.017   5.726   3.297
 9530TIP3    H128533   0.993   5.682   3.379
 9530TIP3    H228534   1.047   5.656   3.240
 9531TIP3   OH228535   6.552   7.285   3.794
 9531TIP3    H128536   6.538   7.237   3.713
 9531TIP3    H228537   6.533   7.376   3.772
 9532TIP3   OH228538   4.834   6.750   1.334
 9532TIP3    H128539   4.744   6.718   1.346
 9532TIP3    H228540   4.835   6.788   1.246
 9533TIP3   OH228541   6.651   0.354   2.261
 9533TIP3    H128542   6.560   0.356   2.289
 9533TIP3    H228543   6.693   0.423   2.313
 9534TIP3   OH228544   2.375   6.738   4.822
 9534TIP3    H128545   2.301   6.748   4.882
 9534TIP3    H228546   2.341   6.683   4.751
 9535TIP3   OH228547   5.887   5.830   2.588
 9535TIP3    H128548   5.829   5.905   2.601
 9535TIP3    H228549   5.905   5.829   2.494
 9536TIP3   OH228550   1.868   0.284   1.007
 9536TIP3    H128551   1.796   0.346   1.006
 9536TIP3    H228552   1.928   0.315   0.939
 9537TIP3   OH228553   3.858   1.767   5.302
 9537TIP3    H128554   3.855   1.695   5.239
 9537TIP3    H228555   3.840   1.726   5.387
 9538TIP3   OH228556   2.069   4.353   5.272
 9538TIP3    H128557   1.987   4.322   5.311
 9538TIP3    H228558   2.090   4.288   5.205
 9539TIP3   OH228559   0.871   3.390   0.700
 9539TIP3    H128560   0.795   3.415   0.647
 9539TIP3    H228561   0.946   3.429   0.655
 9540TIP3   OH228562   0.123   4.520   1.033
 9540TIP3    H128563   0.050   4.459   1.045
 9540TIP3    H228564   0.183   4.475   0.974
 9541TIP3   OH228565   5.376   0.461   1.470
 9541TIP3    H128566   5.392   0.517   1.394
 9541TIP3    H228567   5.313   0.396   1.438
 9542TIP3   OH228568   7.001   5.816   6.595
 9542TIP3    H128569   6.997   5.857   6.509
 9542TIP3    H228570   6.976   5.886   6.656
 9543TIP3   OH228571   5.151   6.884   1.052
 9543TIP3    H128572   5.246   6.874   1.047
 9543TIP3    H228573   5.133   6.967   1.008
 9544TIP3   OH228574   7.264   5.481   0.526
 9544TIP3    H128575   7.215   5.484   0.444
 9544TIP3    H228576   7.196   5.472   0.593
 9545TIP3   OH228577   5.289   1.918   2.392
 9545TIP3    H128578   5.247   1.986   2.339
 9545TIP3    H228579   5.231   1.842   2.386
 9546TIP3   OH228580   6.556   3.873   6.566
 9546TIP3    H128581   6.589   3.825   6.489
 9546TIP3    H228582   6.609   3.840   6.639
 9547TIP3   OH228583   3.910   2.209   0.421
 9547TIP3    H128584   3.963   2.271   0.372
 9547TIP3    H228585   3.912   2.242   0.511
 9548TIP3   OH228586   6.436   3.580   2.690
 9548TIP3    H128587   6.371   3.510   2.698
 9548TIP3    H228588   6.507   3.540   2.639
 9549TIP3   OH228589   3.923   1.260   4.651
 9549TIP3    H128590   3.883   1.346   4.638
 9549TIP3    H228591   3.852   1.198   4.634
 9550TIP3   OH228592   5.640   0.786   6.396
 9550TIP3    H128593   5.624   0.787   6.490
 9550TIP3    H228594   5.609   0.871   6.365
 9551TIP3   OH228595   0.178   1.525   6.526
 9551TIP3    H128596   0.108   1.460   6.525
 9551TIP3    H228597   0.251   1.482   6.482
 9552TIP3   OH228598   7.988   6.876   3.692
 9552TIP3    H128599   7.985   6.913   3.780
 9552TIP3    H228600   8.040   6.795   3.702
 9553TIP3   OH228601   6.728   7.296   0.827
 9553TIP3    H128602   6.729   7.382   0.869
 9553TIP3    H228603   6.723   7.234   0.900
 9554TIP3   OH228604   3.016   5.618   4.170
 9554TIP3    H128605   3.105   5.644   4.144
 9554TIP3    H228606   2.986   5.690   4.226
 9555TIP3   OH228607   4.245   5.460   0.527
 9555TIP3    H128608   4.211   5.371   0.532
 9555TIP3    H228609   4.178   5.514   0.570
 9556TIP3   OH228610   2.528   7.642   3.772
 9556TIP3    H128611   2.485   7.559   3.752
 9556TIP3    H228612   2.616   7.632   3.736
 9557TIP3   OH228613   1.485   4.987   2.985
 9557TIP3    H128614   1.548   5.004   2.915
 9557TIP3    H228615   1.425   5.061   2.982
 9558TIP3   OH228616   3.850   0.855   3.294
 9558TIP3    H128617   3.811   0.809   3.219
 9558TIP3    H228618   3.859   0.787   3.361
 9559TIP3   OH228619   2.703   0.807   2.882
 9559TIP3    H128620   2.742   0.879   2.932
 9559TIP3    H228621   2.715   0.730   2.937
 9560TIP3   OH228622   5.089   1.027   2.071
 9560TIP3    H128623   5.105   1.121   2.078
 9560TIP3    H228624   5.034   1.017   1.994
 9561TIP3   OH228625   6.983   3.848   1.146
 9561TIP3    H128626   6.967   3.777   1.084
 9561TIP3    H228627   6.907   3.847   1.204
 9562TIP3   OH228628   3.882   6.641   0.687
 9562TIP3    H128629   3.912   6.718   0.638
 9562TIP3    H228630   3.948   6.574   0.669
 9563TIP3   OH228631   2.323   3.811   5.546
 9563TIP3    H128632   2.291   3.891   5.503
 9563TIP3    H228633   2.298   3.740   5.487
 9564TIP3   OH228634   5.381   4.969   2.458
 9564TIP3    H128635   5.291   4.936   2.454
 9564TIP3    H228636   5.397   5.005   2.370
 9565TIP3   OH228637   0.289   1.502   5.280
 9565TIP3    H128638   0.373   1.547   5.284
 9565TIP3    H228639   0.311   1.411   5.301
 9566TIP3   OH228640   2.652   6.836   5.422
 9566TIP3    H128641   2.666   6.794   5.507
 9566TIP3    H228642   2.562   6.814   5.399
 9567TIP3   OH228643   2.923   7.058   5.064
 9567TIP3    H128644   2.996   7.071   5.124
 9567TIP3    H228645   2.964   7.046   4.978
 9568TIP3   OH228646   5.740   4.942   3.309
 9568TIP3    H128647   5.660   4.978   3.272
 9568TIP3    H228648   5.800   4.934   3.234
 9569TIP3   OH228649   4.715   2.251   6.141
 9569TIP3    H128650   4.730   2.161   6.112
 9569TIP3    H228651   4.799   2.295   6.125
 9570TIP3   OH228652   1.560   6.847   3.681
 9570TIP3    H128653   1.581   6.934   3.716
 9570TIP3    H228654   1.629   6.790   3.714
 9571TIP3   OH228655   5.441   0.563   4.666
 9571TIP3    H128656   5.482   0.481   4.693
 9571TIP3    H228657   5.447   0.619   4.743
 9572TIP3   OH228658   3.621   1.891   0.246
 9572TIP3    H128659   3.717   1.897   0.247
 9572TIP3    H228660   3.598   1.840   0.323
 9573TIP3   OH228661   2.291   7.534   2.347
 9573TIP3    H128662   2.317   7.603   2.407
 9573TIP3    H228663   2.208   7.563   2.310
 9574TIP3   OH228664   1.541   5.194   5.532
 9574TIP3    H128665   1.594   5.267   5.566
 9574TIP3    H228666   1.601   5.146   5.475
 9575TIP3   OH228667   1.223   1.682   6.442
 9575TIP3    H128668   1.297   1.699   6.384
 9575TIP3    H228669   1.178   1.767   6.448
 9576TIP3   OH228670   6.329   1.142   5.849
 9576TIP3    H128671   6.250   1.087   5.850
 9576TIP3    H228672   6.338   1.168   5.758
 9577TIP3   OH228673   2.943   1.576   0.830
 9577TIP3    H128674   2.958   1.496   0.779
 9577TIP3    H228675   3.030   1.614   0.841
 9578TIP3   OH228676   6.715   2.751   1.101
 9578TIP3    H128677   6.712   2.678   1.039
 9578TIP3    H228678   6.659   2.818   1.062
 9579TIP3   OH228679   2.220   0.912   2.116
 9579TIP3    H128680   2.208   0.981   2.182
 9579TIP3    H228681   2.313   0.889   2.123
 9580TIP3   OH228682   2.642   2.681   6.263
 9580TIP3    H128683   2.700   2.709   6.193
 9580TIP3    H228684   2.634   2.757   6.320
 9581TIP3   OH228685   7.626   5.926   0.420
 9581TIP3    H128686   7.577   5.892   0.495
 9581TIP3    H228687   7.696   5.979   0.460
 9582TIP3   OH228688   4.569   3.278   5.896
 9582TIP3    H128689   4.620   3.274   5.815
 9582TIP3    H228690   4.582   3.367   5.928
 9583TIP3   OH228691   3.716   5.591   5.332
 9583TIP3    H128692   3.766   5.561   5.257
 9583TIP3    H228693   3.651   5.523   5.347
 9584TIP3   OH228694   0.658   5.969   1.970
 9584TIP3    H128695   0.693   5.880   1.971
 9584TIP3    H228696   0.647   5.991   1.878
 9585TIP3   OH228697   6.191   1.843   3.310
 9585TIP3    H128698   6.245   1.868   3.235
 9585TIP3    H228699   6.144   1.923   3.333
 9586TIP3   OH228700   3.716   3.399   5.035
 9586TIP3    H128701   3.743   3.310   5.011
 9586TIP3    H228702   3.694   3.440   4.951
 9587TIP3   OH228703   0.475   5.488   6.322
 9587TIP3    H128704   0.413   5.477   6.394
 9587TIP3    H228705   0.483   5.582   6.311
 9588TIP3   OH228706   7.544   3.347   4.698
 9588TIP3    H128707   7.452   3.362   4.678
 9588TIP3    H228708   7.557   3.253   4.682
 9589TIP3   OH228709   6.286   7.438   0.840
 9589TIP3    H128710   6.311   7.528   0.821
 9589TIP3    H228711   6.243   7.443   0.926
 9590TIP3   OH228712   8.142   2.135   1.136
 9590TIP3    H128713   8.172   2.106   1.221
 9590TIP3    H228714   8.215   2.186   1.100
 9591TIP3   OH228715   6.207   4.023   3.097
 9591TIP3    H128716   6.284   4.080   3.106
 9591TIP3    H228717   6.142   4.077   3.052
 9592TIP3   OH228718   4.412   1.812   1.042
 9592TIP3    H128719   4.429   1.904   1.065
 9592TIP3    H228720   4.434   1.763   1.122
 9593TIP3   OH228721   3.103   1.334   3.404
 9593TIP3    H128722   3.127   1.387   3.328
 9593TIP3    H228723   3.124   1.244   3.378
 9594TIP3   OH228724   1.533   2.290   3.177
 9594TIP3    H128725   1.529   2.269   3.271
 9594TIP3    H228726   1.514   2.383   3.172
 9595TIP3   OH228727   5.791   0.919   0.540
 9595TIP3    H128728   5.813   0.869   0.619
 9595TIP3    H228729   5.821   0.865   0.468
 9596TIP3   OH228730   8.285   2.822   1.097
 9596TIP3    H128731   8.265   2.831   1.004
 9596TIP3    H228732   8.204   2.790   1.136
 9597TIP3   OH228733   5.621   2.906   0.616
 9597TIP3    H128734   5.672   2.863   0.547
 9597TIP3    H228735   5.617   2.842   0.687
 9598TIP3   OH228736   6.662   1.611   4.536
 9598TIP3    H128737   6.637   1.624   4.627
 9598TIP3    H228738   6.688   1.697   4.504
 9599TIP3   OH228739   0.889   6.759   2.951
 9599TIP3    H128740   0.915   6.737   3.040
 9599TIP3    H228741   0.966   6.741   2.898
 9600TIP3   OH228742   2.962   2.602   6.023
 9600TIP3    H128743   3.010   2.586   5.942
 9600TIP3    H228744   3.021   2.574   6.092
 9601TIP3   OH228745   6.672   5.665   2.827
 9601TIP3    H128746   6.762   5.694   2.816
 9601TIP3    H228747   6.679   5.577   2.863
 9602TIP3   OH228748   5.761   0.879   0.082
 9602TIP3    H128749   5.724   0.966   0.096
 9602TIP3    H228750   5.766   0.841   0.170
 9603TIP3   OH228751   3.763   0.868   0.626
 9603TIP3    H128752   3.797   0.871   0.715
 9603TIP3    H228753   3.836   0.894   0.570
 9604TIP3   OH228754   8.049   0.274   5.007
 9604TIP3    H128755   7.958   0.257   5.031
 9604TIP3    H228756   8.045   0.298   4.914
 9605TIP3   OH228757   2.791   3.291   2.465
 9605TIP3    H128758   2.735   3.259   2.536
 9605TIP3    H228759   2.766   3.382   2.455
 9606TIP3   OH228760   2.057   2.310   5.235
 9606TIP3    H128761   2.046   2.305   5.330
 9606TIP3    H228762   2.134   2.256   5.217
 9607TIP3   OH228763   8.118   3.654   5.645
 9607TIP3    H128764   8.045   3.711   5.669
 9607TIP3    H228765   8.159   3.697   5.570
 9608TIP3   OH228766   6.966   3.739   2.026
 9608TIP3    H128767   7.040   3.728   2.085
 9608TIP3    H228768   6.962   3.834   2.011
 9609TIP3   OH228769   7.763   6.404   6.021
 9609TIP3    H128770   7.838   6.463   6.023
 9609TIP3    H228771   7.753   6.374   6.111
 9610TIP3   OH228772   3.291   7.018   3.749
 9610TIP3    H128773   3.213   6.964   3.761
 9610TIP3    H228774   3.311   7.011   3.656
 9611TIP3   OH228775   1.442   3.785   2.857
 9611TIP3    H128776   1.369   3.804   2.798
 9611TIP3    H228777   1.444   3.690   2.863
 9612TIP3   OH228778   2.034   0.883   0.550
 9612TIP3    H128779   2.069   0.923   0.630
 9612TIP3    H228780   1.950   0.926   0.536
 9613TIP3   OH228781   2.716   5.477   5.941
 9613TIP3    H128782   2.792   5.520   5.979
 9613TIP3    H228783   2.748   5.443   5.857
 9614TIP3   OH228784   8.009   5.615   5.398
 9614TIP3    H128785   8.052   5.652   5.475
 9614TIP3    H228786   7.936   5.565   5.433
 9615TIP3   OH228787   1.375   6.008   1.188
 9615TIP3    H128788   1.381   5.920   1.225
 9615TIP3    H228789   1.301   6.048   1.232
 9616TIP3   OH228790   4.273   2.509   2.967
 9616TIP3    H128791   4.181   2.527   2.987
 9616TIP3    H228792   4.293   2.431   3.020
 9617TIP3   OH228793   7.626   3.502   5.106
 9617TIP3    H128794   7.534   3.487   5.088
 9617TIP3    H228795   7.639   3.473   5.196
 9618TIP3   OH228796   7.688   4.466   0.950
 9618TIP3    H128797   7.596   4.467   0.925
 9618TIP3    H228798   7.723   4.549   0.917
 9619TIP3   OH228799   3.099   2.225   2.320
 9619TIP3    H128800   3.090   2.130   2.326
 9619TIP3    H228801   3.139   2.241   2.235
 9620TIP3   OH228802   5.572   4.526   1.085
 9620TIP3    H128803   5.656   4.553   1.047
 9620TIP3    H228804   5.588   4.523   1.179
 9621TIP3   OH228805   8.177   7.576   0.799
 9621TIP3    H128806   8.181   7.519   0.722
 9621TIP3    H228807   8.241   7.645   0.781
 9622TIP3   OH228808   0.851   3.729   2.929
 9622TIP3    H128809   0.880   3.638   2.940
 9622TIP3    H228810   0.756   3.724   2.936
 9623TIP3   OH228811   5.738   1.109   0.798
 9623TIP3    H128812   5.789   1.063   0.865
 9623TIP3    H228813   5.752   1.058   0.718
 9624TIP3   OH228814   0.999   5.900   3.082
 9624TIP3    H128815   1.090   5.928   3.093
 9624TIP3    H228816   0.982   5.842   3.156
 9625TIP3   OH228817   4.214   4.244   5.840
 9625TIP3    H128818   4.119   4.247   5.851
 9625TIP3    H228819   4.244   4.332   5.860
 9626TIP3   OH228820   7.502   4.136   4.227
 9626TIP3    H128821   7.463   4.125   4.314
 9626TIP3    H228822   7.435   4.181   4.176
 9627TIP3   OH228823   3.000   7.605   2.394
 9627TIP3    H128824   2.934   7.552   2.349
 9627TIP3    H228825   3.083   7.563   2.374
 9628TIP3   OH228826   1.906   2.306   4.059
 9628TIP3    H128827   1.835   2.294   4.122
 9628TIP3    H228828   1.871   2.368   3.995
 9629TIP3   OH228829   0.973   1.707   2.024
 9629TIP3    H128830   1.053   1.757   2.039
 9629TIP3    H228831   0.910   1.771   1.993
 9630TIP3   OH228832   6.869   3.471   3.349
 9630TIP3    H128833   6.946   3.512   3.310
 9630TIP3    H228834   6.852   3.394   3.296
 9631TIP3   OH228835   5.376   6.279   1.796
 9631TIP3    H128836   5.447   6.325   1.751
 9631TIP3    H228837   5.365   6.327   1.879
 9632TIP3   OH228838   1.357   2.204   3.405
 9632TIP3    H128839   1.433   2.243   3.449
 9632TIP3    H228840   1.284   2.223   3.463
 9633TIP3   OH228841   6.240   4.342   6.312
 9633TIP3    H128842   6.192   4.269   6.272
 9633TIP3    H228843   6.241   4.410   6.244
 9634TIP3   OH228844   3.236   2.383   4.679
 9634TIP3    H128845   3.173   2.327   4.633
 9634TIP3    H228846   3.258   2.334   4.758
 9635TIP3   OH228847   7.922   0.513   2.581
 9635TIP3    H128848   7.903   0.599   2.543
 9635TIP3    H228849   7.932   0.455   2.505
 9636TIP3   OH228850   0.568   4.827   2.973
 9636TIP3    H128851   0.556   4.920   2.992
 9636TIP3    H228852   0.493   4.784   3.015
 9637TIP3   OH228853   5.388   4.266   6.128
 9637TIP3    H128854   5.350   4.353   6.117
 9637TIP3    H228855   5.323   4.217   6.178
 9638TIP3   OH228856   1.907   0.171   6.483
 9638TIP3    H128857   1.926   0.216   6.565
 9638TIP3    H228858   1.951   0.086   6.490
 9639TIP3   OH228859   0.319   0.613   4.018
 9639TIP3    H128860   0.366   0.576   4.093
 9639TIP3    H228861   0.387   0.636   3.955
 9640TIP3   OH228862   3.529   2.057   4.955
 9640TIP3    H128863   3.481   2.046   5.037
 9640TIP3    H228864   3.474   2.015   4.889
 9641TIP3   OH228865   1.143   2.673   0.065
 9641TIP3    H128866   1.191   2.640  -0.010
 9641TIP3    H228867   1.180   2.760   0.082
 9642TIP3   OH228868   5.380   7.308   1.577
 9642TIP3    H128869   5.299   7.272   1.611
 9642TIP3    H228870   5.352   7.378   1.518
 9643TIP3   OH228871   4.179   6.047   1.303
 9643TIP3    H128872   4.141   5.989   1.368
 9643TIP3    H228873   4.105   6.075   1.249
 9644TIP3   OH228874   7.372   4.219   4.464
 9644TIP3    H128875   7.366   4.288   4.398
 9644TIP3    H228876   7.375   4.267   4.547
 9645TIP3   OH228877   0.107   3.975   3.489
 9645TIP3    H128878   0.022   4.004   3.521
 9645TIP3    H228879   0.088   3.935   3.404
 9646TIP3   OH228880   6.869   5.195   2.842
 9646TIP3    H128881   6.815   5.234   2.911
 9646TIP3    H228882   6.942   5.255   2.831
 9647TIP3   OH228883   3.375   3.475   4.879
 9647TIP3    H128884   3.462   3.463   4.840
 9647TIP3    H228885   3.372   3.568   4.903
 9648TIP3   OH228886   2.113   3.229   6.674
 9648TIP3    H128887   2.172   3.177   6.620
 9648TIP3    H228888   2.120   3.318   6.640
 9649TIP3   OH228889   7.686   5.776   4.318
 9649TIP3    H128890   7.644   5.709   4.372
 9649TIP3    H228891   7.750   5.817   4.377
 9650TIP3   OH228892   1.504   2.849   5.347
 9650TIP3    H128893   1.533   2.884   5.431
 9650TIP3    H228894   1.585   2.828   5.300
 9651TIP3   OH228895   5.302   6.231   0.227
 9651TIP3    H128896   5.336   6.321   0.224
 9651TIP3    H228897   5.350   6.186   0.158
 9652TIP3   OH228898   1.280   6.848   0.651
 9652TIP3    H128899   1.340   6.895   0.594
 9652TIP3    H228900   1.230   6.916   0.696
 9653TIP3   OH228901   3.023   7.318   4.805
 9653TIP3    H128902   3.059   7.357   4.726
 9653TIP3    H228903   3.020   7.224   4.787
 9654TIP3   OH228904   4.879   3.484   2.882
 9654TIP3    H128905   4.946   3.552   2.884
 9654TIP3    H228906   4.907   3.421   2.949
 9655TIP3   OH228907   1.060   0.191   2.659
 9655TIP3    H128908   0.970   0.184   2.692
 9655TIP3    H228909   1.072   0.111   2.608
 9656TIP3   OH228910   7.277   7.377   5.577
 9656TIP3    H128911   7.299   7.420   5.659
 9656TIP3    H228912   7.225   7.441   5.529
 9657TIP3   OH228913   2.909   3.652   0.323
 9657TIP3    H128914   2.874   3.687   0.404
 9657TIP3    H228915   2.917   3.729   0.265
 9658TIP3   OH228916   6.546   7.620   0.837
 9658TIP3    H128917   6.570   7.708   0.866
 9658TIP3    H228918   6.574   7.616   0.746
 9659TIP3   OH228919   4.841   0.209   5.961
 9659TIP3    H128920   4.765   0.223   6.017
 9659TIP3    H228921   4.867   0.297   5.934
 9660TIP3   OH228922   4.657   2.750   1.124
 9660TIP3    H128923   4.720   2.807   1.167
 9660TIP3    H228924   4.634   2.685   1.190
 9661TIP3   OH228925   5.750   7.757   0.307
 9661TIP3    H128926   5.696   7.678   0.312
 9661TIP3    H228927   5.688   7.828   0.325
 9662TIP3   OH228928   2.955   4.291   4.045
 9662TIP3    H128929   2.981   4.363   3.988
 9662TIP3    H228930   2.984   4.212   3.999
 9663TIP3   OH228931   2.361   6.350   4.419
 9663TIP3    H128932   2.306   6.273   4.435
 9663TIP3    H228933   2.432   6.318   4.364
 9664TIP3   OH228934   0.583   0.966   6.275
 9664TIP3    H128935   0.631   0.970   6.359
 9664TIP3    H228936   0.557   0.875   6.267
 9665TIP3   OH228937   7.350   3.073   3.305
 9665TIP3    H128938   7.281   3.029   3.254
 9665TIP3    H228939   7.431   3.029   3.279
 9666TIP3   OH228940   6.939   4.461   3.500
 9666TIP3    H128941   6.991   4.408   3.439
 9666TIP3    H228942   6.866   4.494   3.448
 9667TIP3   OH228943   4.081   7.706   2.348
 9667TIP3    H128944   4.146   7.727   2.415
 9667TIP3    H228945   4.048   7.620   2.373
 9668TIP3   OH228946   6.457   1.568   2.948
 9668TIP3    H128947   6.428   1.640   2.891
 9668TIP3    H228948   6.511   1.611   3.014
 9669TIP3   OH228949   2.783   3.682   1.214
 9669TIP3    H128950   2.811   3.631   1.138
 9669TIP3    H228951   2.823   3.768   1.200
 9670TIP3   OH228952   4.369   2.325   3.174
 9670TIP3    H128953   4.387   2.307   3.266
 9670TIP3    H228954   4.276   2.307   3.163
 9671TIP3   OH228955   6.131   0.616   5.566
 9671TIP3    H128956   6.207   0.673   5.577
 9671TIP3    H228957   6.168   0.528   5.553
 9672TIP3   OH228958   5.933   6.740   4.832
 9672TIP3    H128959   5.983   6.799   4.889
 9672TIP3    H228960   5.994   6.668   4.813
 9673TIP3   OH228961   2.966   0.445   5.028
 9673TIP3    H128962   2.872   0.431   5.038
 9673TIP3    H228963   2.991   0.499   5.103
 9674TIP3   OH228964   1.510   6.534   3.989
 9674TIP3    H128965   1.543   6.588   4.061
 9674TIP3    H228966   1.444   6.478   4.030
 9675TIP3   OH228967   0.987   1.611   4.865
 9675TIP3    H128968   0.960   1.613   4.957
 9675TIP3    H228969   0.912   1.574   4.819
 9676TIP3   OH228970   7.109   4.429   4.996
 9676TIP3    H128971   7.051   4.420   4.920
 9676TIP3    H228972   7.102   4.521   5.021
 9677TIP3   OH228973   1.228   1.253   5.330
 9677TIP3    H128974   1.250   1.260   5.423
 9677TIP3    H228975   1.299   1.199   5.293
 9678TIP3   OH228976   1.114   3.812   0.593
 9678TIP3    H128977   1.132   3.736   0.649
 9678TIP3    H228978   1.199   3.839   0.559
 9679TIP3   OH228979   4.955   5.456   2.765
 9679TIP3    H128980   4.932   5.366   2.740
 9679TIP3    H228981   4.959   5.504   2.682
 9680TIP3   OH228982   0.164   0.216   0.721
 9680TIP3    H128983   0.253   0.225   0.685
 9680TIP3    H228984   0.129   0.305   0.719
 9681TIP3   OH228985   3.453   4.601   0.191
 9681TIP3    H128986   3.375   4.624   0.242
 9681TIP3    H228987   3.440   4.644   0.107
 9682TIP3   OH228988   4.562   5.248   3.071
 9682TIP3    H128989   4.600   5.212   3.150
 9682TIP3    H228990   4.567   5.176   3.007
 9683TIP3   OH228991   7.836   4.966   1.740
 9683TIP3    H128992   7.863   5.052   1.708
 9683TIP3    H228993   7.858   4.906   1.669
 9684TIP3   OH228994   3.168   0.000   0.585
 9684TIP3    H128995   3.149  -0.091   0.561
 9684TIP3    H228996   3.263   0.009   0.573
 9685TIP3   OH228997   5.505   0.538   5.140
 9685TIP3    H128998   5.596   0.550   5.112
 9685TIP3    H228999   5.502   0.578   5.227
 9686TIP3   OH229000   3.772   3.427   6.138
 9686TIP3    H129001   3.797   3.370   6.065
 9686TIP3    H229002   3.743   3.508   6.096
 9687TIP3   OH229003   2.798   5.486   2.550
 9687TIP3    H129004   2.836   5.464   2.635
 9687TIP3    H229005   2.870   5.527   2.502
 9688TIP3   OH229006   5.477   6.626   3.430
 9688TIP3    H129007   5.429   6.708   3.425
 9688TIP3    H229008   5.484   6.596   3.339
 9689TIP3   OH229009   2.924   7.073   2.197
 9689TIP3    H129010   2.973   7.078   2.115
 9689TIP3    H229011   2.941   6.985   2.230
 9690TIP3   OH229012   6.604   5.443   3.952
 9690TIP3    H129013   6.537   5.484   4.007
 9690TIP3    H229014   6.684   5.494   3.969
 9691TIP3   OH229015   2.459   7.565   0.312
 9691TIP3    H129016   2.492   7.562   0.402
 9691TIP3    H229017   2.514   7.504   0.264
 9692TIP3   OH229018   8.249   5.892   5.901
 9692TIP3    H129019   8.301   5.904   5.981
 9692TIP3    H229020   8.307   5.921   5.830
 9693TIP3   OH229021   3.060   5.268   5.380
 9693TIP3    H129022   2.996   5.207   5.417
 9693TIP3    H229023   3.069   5.241   5.289
 9694TIP3   OH229024   0.726   3.521   1.928
 9694TIP3    H129025   0.666   3.449   1.949
 9694TIP3    H229026   0.722   3.578   2.005
 9695TIP3   OH229027   4.146   1.727   1.002
 9695TIP3    H129028   4.234   1.741   1.037
 9695TIP3    H229029   4.136   1.794   0.935
 9696TIP3   OH229030   1.957   2.048   2.603
 9696TIP3    H129031   2.052   2.056   2.598
 9696TIP3    H229032   1.939   2.031   2.696
 9697TIP3   OH229033   3.862   2.926   4.777
 9697TIP3    H129034   3.849   2.880   4.694
 9697TIP3    H229035   3.877   2.856   4.841
 9698TIP3   OH229036   0.008   6.151   3.397
 9698TIP3    H129037   0.078   6.196   3.350
 9698TIP3    H229038  -0.004   6.069   3.350
 9699TIP3   OH229039   0.240   2.479   5.952
 9699TIP3    H129040   0.171   2.544   5.963
 9699TIP3    H229041   0.307   2.524   5.899
 9700TIP3   OH229042   2.197   0.416   6.421
 9700TIP3    H129043   2.293   0.414   6.429
 9700TIP3    H229044   2.168   0.462   6.500
 9701TIP3   OH229045   1.083   4.775   0.857
 9701TIP3    H129046   1.047   4.758   0.770
 9701TIP3    H229047   1.036   4.715   0.915
 9702TIP3   OH229048   5.836   3.078   6.454
 9702TIP3    H129049   5.847   3.118   6.540
 9702TIP3    H229050   5.880   3.137   6.393
 9703TIP3   OH229051   0.403   2.545   3.723
 9703TIP3    H129052   0.371   2.497   3.646
 9703TIP3    H229053   0.325   2.561   3.776
 9704TIP3   OH229054   0.311   1.442   2.472
 9704TIP3    H129055   0.255   1.379   2.426
 9704TIP3    H229056   0.276   1.527   2.448
 9705TIP3   OH229057   1.035   1.040   6.615
 9705TIP3    H129058   1.073   0.962   6.656
 9705TIP3    H229059   1.106   1.104   6.615
 9706TIP3   OH229060   4.702   4.608   0.701
 9706TIP3    H129061   4.780   4.657   0.727
 9706TIP3    H229062   4.674   4.563   0.781
 9707TIP3   OH229063   1.287   0.525   6.361
 9707TIP3    H129064   1.262   0.433   6.365
 9707TIP3    H229065   1.341   0.538   6.440
 9708TIP3   OH229066   0.973   3.590   5.734
 9708TIP3    H129067   0.968   3.594   5.829
 9708TIP3    H229068   1.000   3.500   5.715
 9709TIP3   OH229069   5.802   5.650   2.788
 9709TIP3    H129070   5.715   5.651   2.748
 9709TIP3    H229071   5.851   5.717   2.742
 9710TIP3   OH229072   4.715   5.805   4.587
 9710TIP3    H129073   4.624   5.833   4.576
 9710TIP3    H229074   4.739   5.836   4.674
 9711TIP3   OH229075   4.087   2.516   2.165
 9711TIP3    H129076   4.068   2.585   2.229
 9711TIP3    H229077   4.138   2.452   2.213
 9712TIP3   OH229078   4.124   3.687   1.588
 9712TIP3    H129079   4.164   3.764   1.628
 9712TIP3    H229080   4.037   3.681   1.628
 9713TIP3   OH229081   5.015   5.623   6.478
 9713TIP3    H129082   4.949   5.562   6.510
 9713TIP3    H229083   4.996   5.631   6.384
 9714TIP3   OH229084   3.260   1.401   5.634
 9714TIP3    H129085   3.193   1.435   5.693
 9714TIP3    H229086   3.318   1.476   5.618
 9715TIP3   OH229087   3.366   6.554   1.778
 9715TIP3    H129088   3.320   6.614   1.837
 9715TIP3    H229089   3.452   6.541   1.819
 9716TIP3   OH229090   7.644   4.815   1.198
 9716TIP3    H129091   7.577   4.775   1.143
 9716TIP3    H229092   7.716   4.752   1.198
 9717TIP3   OH229093   7.188   7.694   0.379
 9717TIP3    H129094   7.216   7.618   0.429
 9717TIP3    H229095   7.115   7.731   0.429
 9718TIP3   OH229096   2.043   0.548   5.346
 9718TIP3    H129097   1.973   0.560   5.281
 9718TIP3    H229098   2.000   0.563   5.430
 9719TIP3   OH229099   3.344   6.204   3.566
 9719TIP3    H129100   3.310   6.253   3.641
 9719TIP3    H229101   3.378   6.123   3.604
 9720TIP3   OH229102   2.326   1.291   2.337
 9720TIP3    H129103   2.363   1.314   2.422
 9720TIP3    H229104   2.232   1.297   2.349
 9721TIP3   OH229105   2.816   1.884   5.755
 9721TIP3    H129106   2.874   1.922   5.689
 9721TIP3    H229107   2.832   1.937   5.833
 9722TIP3   OH229108   4.015   2.639   3.041
 9722TIP3    H129109   4.080   2.697   3.081
 9722TIP3    H229110   3.943   2.635   3.104
 9723TIP3   OH229111   5.973   5.632   1.352
 9723TIP3    H129112   5.949   5.722   1.371
 9723TIP3    H229113   5.967   5.624   1.257
 9724TIP3   OH229114   0.833   4.093   5.689
 9724TIP3    H129115   0.837   4.147   5.768
 9724TIP3    H229116   0.860   4.006   5.718
 9725TIP3   OH229117   4.045   6.612   4.777
 9725TIP3    H129118   4.040   6.561   4.696
 9725TIP3    H229119   3.970   6.582   4.829
 9726TIP3   OH229120   3.458   1.816   1.759
 9726TIP3    H129121   3.365   1.830   1.777
 9726TIP3    H229122   3.476   1.731   1.798
 9727TIP3   OH229123   2.652   6.057   6.315
 9727TIP3    H129124   2.680   6.068   6.224
 9727TIP3    H229125   2.669   6.142   6.356
 9728TIP3   OH229126   0.589   2.442   2.504
 9728TIP3    H129127   0.680   2.421   2.526
 9728TIP3    H229128   0.577   2.532   2.533
 9729TIP3   OH229129   4.412   5.872   0.840
 9729TIP3    H129130   4.382   5.802   0.898
 9729TIP3    H229131   4.469   5.926   0.895
 9730TIP3   OH229132   4.088   0.158   6.652
 9730TIP3    H129133   4.076   0.073   6.694
 9730TIP3    H229134   3.999   0.192   6.642
 9731TIP3   OH229135   0.673   3.521   1.369
 9731TIP3    H129136   0.718   3.463   1.308
 9731TIP3    H229137   0.585   3.531   1.332
 9732TIP3   OH229138   1.867   4.231   2.474
 9732TIP3    H129139   1.957   4.202   2.487
 9732TIP3    H229140   1.857   4.306   2.532
 9733TIP3   OH229141   2.633   4.037   5.641
 9733TIP3    H129142   2.546   4.029   5.600
 9733TIP3    H229143   2.615   4.068   5.729
 9734TIP3   OH229144   5.715   5.052   4.613
 9734TIP3    H129145   5.731   5.018   4.701
 9734TIP3    H229146   5.732   5.146   4.620
 9735TIP3   OH229147   3.925   6.941   0.998
 9735TIP3    H129148   3.997   6.941   1.062
 9735TIP3    H229149   3.904   7.034   0.987
 9736TIP3   OH229150   2.231   1.615   0.520
 9736TIP3    H129151   2.262   1.667   0.594
 9736TIP3    H229152   2.250   1.669   0.443
 9737TIP3   OH229153   4.843   6.356   0.210
 9737TIP3    H129154   4.805   6.348   0.122
 9737TIP3    H229155   4.825   6.446   0.236
 9738TIP3   OH229156   0.304   4.514   6.208
 9738TIP3    H129157   0.280   4.422   6.191
 9738TIP3    H229158   0.399   4.512   6.218
 9739TIP3   OH229159   4.177   2.834   3.173
 9739TIP3    H129160   4.200   2.921   3.206
 9739TIP3    H229161   4.104   2.806   3.228
 9740TIP3   OH229162   1.788   0.643   0.107
 9740TIP3    H129163   1.744   0.696   0.041
 9740TIP3    H229164   1.822   0.568   0.059
 9741TIP3   OH229165   2.385   1.243   0.064
 9741TIP3    H129166   2.328   1.175   0.028
 9741TIP3    H229167   2.473   1.213   0.044
 9742TIP3   OH229168   5.985   2.315   2.328
 9742TIP3    H129169   6.003   2.228   2.292
 9742TIP3    H229170   5.892   2.312   2.351
 9743TIP3   OH229171   3.232   4.409   3.471
 9743TIP3    H129172   3.239   4.497   3.434
 9743TIP3    H229173   3.317   4.392   3.510
 9744TIP3   OH229174   4.077   5.790   3.041
 9744TIP3    H129175   3.987   5.788   3.074
 9744TIP3    H229176   4.093   5.702   3.008
 9745TIP3   OH229177   0.106   7.703   3.086
 9745TIP3    H129178   0.087   7.681   2.995
 9745TIP3    H229179   0.021   7.718   3.126
 9746TIP3   OH229180   7.503   2.653   0.922
 9746TIP3    H129181   7.472   2.712   0.991
 9746TIP3    H229182   7.464   2.568   0.943
 9747TIP3   OH229183   5.185   6.038   3.958
 9747TIP3    H129184   5.123   6.085   3.903
 9747TIP3    H229185   5.261   6.096   3.963
 9748TIP3   OH229186   0.715   4.739   1.842
 9748TIP3    H129187   0.717   4.681   1.766
 9748TIP3    H229188   0.743   4.684   1.915
 9749TIP3   OH229189   2.013   5.357   5.702
 9749TIP3    H129190   1.963   5.284   5.738
 9749TIP3    H229191   1.987   5.432   5.755
 9750TIP3   OH229192   1.804   3.853   6.449
 9750TIP3    H129193   1.781   3.878   6.539
 9750TIP3    H229194   1.890   3.812   6.457
 9751TIP3   OH229195   4.997   1.264   4.628
 9751TIP3    H129196   5.062   1.255   4.698
 9751TIP3    H229197   4.986   1.175   4.594
 9752TIP3   OH229198   7.012   3.341   6.063
 9752TIP3    H129199   6.969   3.286   5.998
 9752TIP3    H229200   7.105   3.338   6.039
 9753TIP3   OH229201   0.138   4.991   5.705
 9753TIP3    H129202   0.078   4.917   5.703
 9753TIP3    H229203   0.084   5.065   5.731
 9754TIP3   OH229204   5.924   4.582   4.204
 9754TIP3    H129205   5.980   4.511   4.173
 9754TIP3    H229206   5.835   4.550   4.190
 9755TIP3   OH229207   0.145   0.591   2.601
 9755TIP3    H129208   0.219   0.651   2.613
 9755TIP3    H229209   0.165   0.518   2.659
 9756TIP3   OH229210   2.679   6.505   0.058
 9756TIP3    H129211   2.710   6.587   0.097
 9756TIP3    H229212   2.620   6.468   0.123
 9757TIP3   OH229213   5.797   1.051   2.616
 9757TIP3    H129214   5.783   1.129   2.671
 9757TIP3    H229215   5.865   1.002   2.662
 9758TIP3   OH229216   7.628   7.206   2.776
 9758TIP3    H129217   7.653   7.114   2.763
 9758TIP3    H229218   7.604   7.211   2.868
 9759TIP3   OH229219   2.202   2.634   0.017
 9759TIP3    H129220   2.140   2.707   0.020
 9759TIP3    H229221   2.263   2.651   0.089
 9760TIP3   OH229222   4.156   3.230   1.896
 9760TIP3    H129223   4.067   3.242   1.862
 9760TIP3    H229224   4.193   3.160   1.842
 9761TIP3   OH229225   5.292   6.157   1.373
 9761TIP3    H129226   5.328   6.132   1.458
 9761TIP3    H229227   5.200   6.178   1.391
 9762TIP3   OH229228   5.221   2.620   0.218
 9762TIP3    H129229   5.180   2.704   0.199
 9762TIP3    H229230   5.174   2.588   0.296
 9763TIP3   OH229231   1.514   3.487   2.851
 9763TIP3    H129232   1.499   3.420   2.918
 9763TIP3    H229233   1.567   3.444   2.784
 9764TIP3   OH229234   0.629   4.887   0.109
 9764TIP3    H129235   0.680   4.957   0.150
 9764TIP3    H229236   0.601   4.923   0.025
 9765TIP3   OH229237   2.279   6.772   1.124
 9765TIP3    H129238   2.372   6.756   1.134
 9765TIP3    H229239   2.243   6.688   1.093
 9766TIP3   OH229240   1.640   1.562   6.336
 9766TIP3    H129241   1.613   1.633   6.393
 9766TIP3    H229242   1.596   1.580   6.253
 9767TIP3   OH229243   1.550   7.100   0.756
 9767TIP3    H129244   1.642   7.092   0.729
 9767TIP3    H229245   1.541   7.038   0.828
 9768TIP3   OH229246   3.169   2.892   0.159
 9768TIP3    H129247   3.141   2.802   0.178
 9768TIP3    H229248   3.262   2.892   0.179
 9769TIP3   OH229249   5.105   7.484   1.862
 9769TIP3    H129250   5.159   7.406   1.859
 9769TIP3    H229251   5.145   7.539   1.929
 9770TIP3   OH229252   3.449   3.348   0.575
 9770TIP3    H129253   3.457   3.266   0.624
 9770TIP3    H229254   3.395   3.404   0.631
 9771TIP3   OH229255   4.616   2.568   3.618
 9771TIP3    H129256   4.527   2.557   3.650
 9771TIP3    H229257   4.610   2.551   3.524
 9772TIP3   OH229258   1.941   2.491   2.435
 9772TIP3    H129259   2.007   2.549   2.474
 9772TIP3    H229260   1.914   2.537   2.355
 9773TIP3   OH229261   0.638   6.335   3.839
 9773TIP3    H129262   0.602   6.324   3.927
 9773TIP3    H229263   0.599   6.264   3.788
 9774TIP3   OH229264   6.682   3.132   5.366
 9774TIP3    H129265   6.734   3.192   5.419
 9774TIP3    H229266   6.711   3.045   5.394
 9775TIP3   OH229267   0.642   7.251   6.744
 9775TIP3    H129268   0.607   7.162   6.756
 9775TIP3    H229269   0.564   7.305   6.729
 9776TIP3   OH229270   4.241   7.335   1.499
 9776TIP3    H129271   4.198   7.416   1.527
 9776TIP3    H229272   4.323   7.364   1.459
 9777TIP3   OH229273   2.433   5.182   0.228
 9777TIP3    H129274   2.501   5.197   0.294
 9777TIP3    H229275   2.371   5.124   0.270
 9778TIP3   OH229276   4.347   1.648   1.243
 9778TIP3    H129277   4.278   1.582   1.246
 9778TIP3    H229278   4.418   1.612   1.296
 9779TIP3   OH229279   5.177   5.636   5.811
 9779TIP3    H129280   5.199   5.656   5.720
 9779TIP3    H229281   5.235   5.693   5.862
 9780TIP3   OH229282   5.993   4.939   1.622
 9780TIP3    H129283   5.973   4.908   1.710
 9780TIP3    H229284   6.006   5.033   1.631
 9781TIP3   OH229285   1.228   3.535   3.094
 9781TIP3    H129286   1.185   3.452   3.072
 9781TIP3    H229287   1.164   3.602   3.072
 9782TIP3   OH229288   7.915   6.897   5.928
 9782TIP3    H129289   7.895   6.847   5.848
 9782TIP3    H229290   7.998   6.859   5.959
 9783TIP3   OH229291   0.062   2.409   2.034
 9783TIP3    H129292   0.072   2.497   2.069
 9783TIP3    H229293  -0.032   2.391   2.040
 9784TIP3   OH229294   4.091   0.751   4.243
 9784TIP3    H129295   4.057   0.730   4.330
 9784TIP3    H229296   4.027   0.811   4.205
 9785TIP3   OH229297   1.385   7.080   1.345
 9785TIP3    H129298   1.437   7.159   1.331
 9785TIP3    H229299   1.317   7.084   1.278
 9786TIP3   OH229300   7.065   6.399   6.144
 9786TIP3    H129301   7.158   6.416   6.130
 9786TIP3    H229302   7.022   6.481   6.121
 9787TIP3   OH229303   3.108   0.688   2.168
 9787TIP3    H129304   3.181   0.630   2.189
 9787TIP3    H229305   3.076   0.658   2.083
 9788TIP3   OH229306   4.511   6.828   0.052
 9788TIP3    H129307   4.437   6.870   0.009
 9788TIP3    H229308   4.586   6.848  -0.004
 9789TIP3   OH229309   0.820   0.123   2.769
 9789TIP3    H129310   0.767   0.074   2.706
 9789TIP3    H229311   0.831   0.063   2.843
 9790TIP3   OH229312   7.112   3.358   3.940
 9790TIP3    H129313   7.170   3.333   3.869
 9790TIP3    H229314   7.104   3.453   3.933
 9791TIP3   OH229315   3.529   5.139   3.522
 9791TIP3    H129316   3.479   5.221   3.521
 9791TIP3    H229317   3.614   5.163   3.485
 9792TIP3   OH229318   5.782   1.111   1.712
 9792TIP3    H129319   5.720   1.178   1.740
 9792TIP3    H229320   5.823   1.080   1.793
 9793TIP3   OH229321   1.706   0.366   6.680
 9793TIP3    H129322   1.673   0.306   6.613
 9793TIP3    H229323   1.798   0.342   6.690
 9794TIP3   OH229324   3.626   3.472   4.753
 9794TIP3    H129325   3.598   3.524   4.678
 9794TIP3    H229326   3.719   3.454   4.736
 9795TIP3   OH229327   5.370   5.586   3.915
 9795TIP3    H129328   5.448   5.563   3.865
 9795TIP3    H229329   5.334   5.662   3.869
 9796TIP3   OH229330   2.889   4.003   3.549
 9796TIP3    H129331   2.971   3.957   3.529
 9796TIP3    H229332   2.915   4.095   3.556
 9797TIP3   OH229333   2.776   5.031   3.147
 9797TIP3    H129334   2.826   4.974   3.090
 9797TIP3    H229335   2.807   5.010   3.235
 9798TIP3   OH229336   4.218   3.838   0.132
 9798TIP3    H129337   4.245   3.929   0.142
 9798TIP3    H229338   4.150   3.826   0.198
 9799TIP3   OH229339   1.376   0.025   1.519
 9799TIP3    H129340   1.453   0.045   1.572
 9799TIP3    H229341   1.385  -0.068   1.497
 9800TIP3   OH229342   6.661   3.869   1.688
 9800TIP3    H129343   6.602   3.881   1.762
 9800TIP3    H229344   6.673   3.957   1.652
 9801TIP3   OH229345   4.326   0.693   4.026
 9801TIP3    H129346   4.409   0.705   3.981
 9801TIP3    H229347   4.285   0.780   4.026
 9802TIP3   OH229348   5.250   2.934   5.563
 9802TIP3    H129349   5.163   2.895   5.555
 9802TIP3    H229350   5.310   2.859   5.562
 9803TIP3   OH229351   2.390   6.088   2.774
 9803TIP3    H129352   2.469   6.047   2.809
 9803TIP3    H229353   2.410   6.105   2.682
 9804TIP3   OH229354   4.864   7.095   1.227
 9804TIP3    H129355   4.942   7.091   1.282
 9804TIP3    H229356   4.863   7.011   1.181
 9805TIP3   OH229357   2.315   6.612   4.375
 9805TIP3    H129358   2.253   6.604   4.449
 9805TIP3    H229359   2.347   6.523   4.362
 9806TIP3   OH229360   3.928   2.816   5.841
 9806TIP3    H129361   3.959   2.897   5.799
 9806TIP3    H229362   3.909   2.758   5.767
 9807TIP3   OH229363   5.064   3.201   5.405
 9807TIP3    H129364   5.144   3.155   5.430
 9807TIP3    H229365   5.001   3.179   5.473
 9808TIP3   OH229366   0.088   1.547   4.175
 9808TIP3    H129367   0.102   1.606   4.248
 9808TIP3    H229368  -0.007   1.535   4.171
 9809TIP3   OH229369   3.064   2.019   1.653
 9809TIP3    H129370   3.106   1.951   1.706
 9809TIP3    H229371   2.974   2.023   1.686
 9810TIP3   OH229372   5.681   7.408   4.207
 9810TIP3    H129373   5.603   7.370   4.248
 9810TIP3    H229374   5.745   7.337   4.206
 9811TIP3   OH229375   3.831   2.866   3.757
 9811TIP3    H129376   3.887   2.943   3.749
 9811TIP3    H229377   3.839   2.841   3.850
 9812TIP3   OH229378   3.148   7.294   3.528
 9812TIP3    H129379   3.184   7.333   3.449
 9812TIP3    H229380   3.188   7.344   3.600
 9813TIP3   OH229381   4.207   5.605   3.375
 9813TIP3    H129382   4.217   5.593   3.281
 9813TIP3    H229383   4.287   5.569   3.413
 9814TIP3   OH229384   6.413   0.478   3.158
 9814TIP3    H129385   6.320   0.467   3.179
 9814TIP3    H229386   6.455   0.487   3.244
 9815TIP3   OH229387   7.986   7.771   4.534
 9815TIP3    H129388   8.018   7.707   4.471
 9815TIP3    H229389   7.905   7.804   4.497
 9816TIP3   OH229390   7.480   4.762   6.587
 9816TIP3    H129391   7.394   4.799   6.567
 9816TIP3    H229392   7.521   4.749   6.502
 9817TIP3   OH229393   7.769   6.409   2.440
 9817TIP3    H129394   7.787   6.499   2.467
 9817TIP3    H229395   7.677   6.395   2.461
 9818TIP3   OH229396   3.764   2.439   5.735
 9818TIP3    H129397   3.854   2.427   5.763
 9818TIP3    H229398   3.737   2.353   5.703
 9819TIP3   OH229399   5.996   6.586   1.795
 9819TIP3    H129400   6.065   6.521   1.779
 9819TIP3    H229401   6.040   6.657   1.842
 9820TIP3   OH229402   6.371   5.049  -0.049
 9820TIP3    H129403   6.347   5.112   0.019
 9820TIP3    H229404   6.447   5.002  -0.013
 9821TIP3   OH229405   6.853   1.963   4.796
 9821TIP3    H129406   6.826   1.950   4.887
 9821TIP3    H229407   6.910   1.889   4.777
 9822TIP3   OH229408   2.824   2.974   4.926
 9822TIP3    H129409   2.798   2.888   4.959
 9822TIP3    H229410   2.902   2.957   4.874
 9823TIP3   OH229411   6.889   2.786   2.334
 9823TIP3    H129412   6.878   2.823   2.246
 9823TIP3    H229413   6.909   2.693   2.318
 9824TIP3   OH229414   2.043   3.735   6.576
 9824TIP3    H129415   2.073   3.688   6.498
 9824TIP3    H229416   2.011   3.667   6.635
 9825TIP3   OH229417   1.370   1.873   3.047
 9825TIP3    H129418   1.313   1.948   3.028
 9825TIP3    H229419   1.327   1.828   3.120
 9826TIP3   OH229420   2.898   2.880   3.932
 9826TIP3    H129421   2.833   2.867   3.862
 9826TIP3    H229422   2.955   2.949   3.899
 9827TIP3   OH229423   1.362   4.940   6.026
 9827TIP3    H129424   1.409   4.863   5.995
 9827TIP3    H229425   1.430   5.003   6.048
 9828TIP3   OH229426   6.501   7.624   6.524
 9828TIP3    H129427   6.493   7.534   6.492
 9828TIP3    H229428   6.492   7.678   6.446
 9829TIP3   OH229429   1.660   5.516   2.467
 9829TIP3    H129430   1.745   5.492   2.505
 9829TIP3    H229431   1.645   5.605   2.497
 9830TIP3   OH229432   2.200   6.573   3.526
 9830TIP3    H129433   2.275   6.633   3.530
 9830TIP3    H229434   2.223   6.512   3.457
 9831TIP3   OH229435   1.704   3.553   6.613
 9831TIP3    H129436   1.732   3.560   6.522
 9831TIP3    H229437   1.609   3.552   6.609
 9832TIP3   OH229438   0.116   3.952   6.637
 9832TIP3    H129439   0.198   3.979   6.596
 9832TIP3    H229440   0.136   3.867   6.677
 9833TIP3   OH229441   3.932   4.976   2.529
 9833TIP3    H129442   3.909   4.886   2.552
 9833TIP3    H229443   3.967   4.970   2.440
 9834TIP3   OH229444   1.351   4.783   5.337
 9834TIP3    H129445   1.422   4.778   5.273
 9834TIP3    H229446   1.343   4.877   5.356
 9835TIP3   OH229447   6.413   6.308   0.302
 9835TIP3    H129448   6.405   6.214   0.292
 9835TIP3    H229449   6.386   6.325   0.392
 9836TIP3   OH229450   6.332   7.603   0.037
 9836TIP3    H129451   6.267   7.603  -0.032
 9836TIP3    H229452   6.392   7.675   0.014
 9837TIP3   OH229453   8.090   2.501   1.177
 9837TIP3    H129454   8.011   2.479   1.129
 9837TIP3    H229455   8.161   2.460   1.127
 9838TIP3   OH229456   1.581   4.047   3.672
 9838TIP3    H129457   1.589   4.044   3.767
 9838TIP3    H229458   1.588   4.141   3.651
 9839TIP3   OH229459   5.339   4.811   4.988
 9839TIP3    H129460   5.363   4.794   4.897
 9839TIP3    H229461   5.398   4.882   5.015
 9840TIP3   OH229462   3.200   4.775   5.836
 9840TIP3    H129463   3.293   4.786   5.816
 9840TIP3    H229464   3.176   4.692   5.794
 9841TIP3   OH229465   4.823   7.158   2.754
 9841TIP3    H129466   4.742   7.108   2.753
 9841TIP3    H229467   4.794   7.249   2.767
 9842TIP3   OH229468   4.801   2.288   0.422
 9842TIP3    H129469   4.780   2.195   0.428
 9842TIP3    H229470   4.716   2.332   0.421
 9843TIP3   OH229471   4.259   1.892   1.393
 9843TIP3    H129472   4.303   1.821   1.347
 9843TIP3    H229473   4.248   1.860   1.483
 9844TIP3   OH229474   3.785   3.958   2.794
 9844TIP3    H129475   3.871   3.918   2.780
 9844TIP3    H229476   3.756   3.924   2.878
 9845TIP3   OH229477   1.862   2.788   3.670
 9845TIP3    H129478   1.843   2.864   3.615
 9845TIP3    H229479   1.836   2.713   3.617
 9846TIP3   OH229480   5.566   1.659   4.135
 9846TIP3    H129481   5.488   1.664   4.192
 9846TIP3    H229482   5.622   1.729   4.165
 9847TIP3   OH229483   3.412   6.778   5.337
 9847TIP3    H129484   3.434   6.741   5.423
 9847TIP3    H229485   3.319   6.759   5.326
 9848TIP3   OH229486   8.091   5.901   1.183
 9848TIP3    H129487   8.060   5.992   1.183
 9848TIP3    H229488   8.180   5.906   1.146
 9849TIP3   OH229489   4.817   6.985   3.392
 9849TIP3    H129490   4.901   7.003   3.350
 9849TIP3    H229491   4.838   6.924   3.463
 9850TIP3   OH229492   4.309   4.487   5.056
 9850TIP3    H129493   4.245   4.557   5.074
 9850TIP3    H229494   4.390   4.534   5.034
 9851TIP3   OH229495   2.275   1.598   1.450
 9851TIP3    H129496   2.316   1.528   1.500
 9851TIP3    H229497   2.285   1.572   1.359
 9852TIP3   OH229498   0.831   4.527   6.117
 9852TIP3    H129499   0.836   4.548   6.023
 9852TIP3    H229500   0.903   4.465   6.131
 9853TIP3   OH229501   3.885   6.182   6.442
 9853TIP3    H129502   3.837   6.249   6.490
 9853TIP3    H229503   3.839   6.175   6.358
 9854TIP3   OH229504   5.277   0.806   6.297
 9854TIP3    H129505   5.320   0.730   6.259
 9854TIP3    H229506   5.301   0.878   6.239
 9855TIP3   OH229507   2.502   2.563   4.635
 9855TIP3    H129508   2.459   2.639   4.674
 9855TIP3    H229509   2.514   2.587   4.543
 9856TIP3   OH229510   5.443   3.753   4.460
 9856TIP3    H129511   5.437   3.742   4.365
 9856TIP3    H229512   5.352   3.750   4.491
 9857TIP3   OH229513   0.515   2.765   1.965
 9857TIP3    H129514   0.603   2.728   1.959
 9857TIP3    H229515   0.460   2.704   1.916
 9858TIP3   OH229516   0.598   6.898   4.250
 9858TIP3    H129517   0.567   6.972   4.198
 9858TIP3    H229518   0.649   6.938   4.321
 9859TIP3   OH229519   1.273   5.655   2.704
 9859TIP3    H129520   1.205   5.707   2.748
 9859TIP3    H229521   1.320   5.718   2.649
 9860TIP3   OH229522   5.311   6.013   5.774
 9860TIP3    H129523   5.393   5.969   5.753
 9860TIP3    H229524   5.246   5.969   5.720
 9861TIP3   OH229525   6.136   1.260   4.034
 9861TIP3    H129526   6.123   1.352   4.011
 9861TIP3    H229527   6.049   1.229   4.059
 9862TIP3   OH229528   7.861  -0.010   5.793
 9862TIP3    H129529   7.864  -0.104   5.778
 9862TIP3    H229530   7.953   0.017   5.796
 9863TIP3   OH229531   7.415   6.561   1.465
 9863TIP3    H129532   7.479   6.508   1.513
 9863TIP3    H229533   7.364   6.498   1.415
 9864TIP3   OH229534   0.886   2.307   4.243
 9864TIP3    H129535   0.978   2.288   4.228
 9864TIP3    H229536   0.875   2.303   4.338
 9865TIP3   OH229537   2.330   0.199   3.883
 9865TIP3    H129538   2.391   0.129   3.863
 9865TIP3    H229539   2.304   0.234   3.797
 9866TIP3   OH229540   4.496   6.084   4.828
 9866TIP3    H129541   4.572   6.027   4.842
 9866TIP3    H229542   4.426   6.024   4.802
 9867TIP3   OH229543   0.104   1.080   4.931
 9867TIP3    H129544   0.142   0.993   4.920
 9867TIP3    H229545   0.123   1.126   4.850
 9868TIP3   OH229546   7.027   0.433   6.188
 9868TIP3    H129547   7.072   0.426   6.103
 9868TIP3    H229548   6.991   0.521   6.189
 9869TIP3   OH229549   4.588   4.429   4.082
 9869TIP3    H129550   4.652   4.500   4.081
 9869TIP3    H229551   4.626   4.363   4.024
 9870TIP3   OH229552   5.321   4.673   0.528
 9870TIP3    H129553   5.295   4.650   0.439
 9870TIP3    H229554   5.338   4.767   0.525
 9871TIP3   OH229555   3.206   1.057   5.851
 9871TIP3    H129556   3.173   1.142   5.881
 9871TIP3    H229557   3.156   1.037   5.772
 9872TIP3   OH229558   2.134   7.448   4.991
 9872TIP3    H129559   2.158   7.537   4.963
 9872TIP3    H229560   2.150   7.447   5.085
 9873TIP3   OH229561   5.500   0.830   0.365
 9873TIP3    H129562   5.512   0.903   0.426
 9873TIP3    H229563   5.446   0.866   0.295
 9874TIP3   OH229564   7.794   3.065   1.347
 9874TIP3    H129565   7.843   3.011   1.409
 9874TIP3    H229566   7.861   3.102   1.289
 9875TIP3   OH229567   2.622   6.897   1.385
 9875TIP3    H129568   2.588   6.885   1.296
 9875TIP3    H229569   2.544   6.911   1.438
 9876TIP3   OH229570   7.863   7.267   4.498
 9876TIP3    H129571   7.838   7.358   4.514
 9876TIP3    H229572   7.953   7.261   4.530
 9877TIP3   OH229573   0.593   2.414   5.661
 9877TIP3    H129574   0.636   2.482   5.609
 9877TIP3    H229575   0.538   2.367   5.599
 9878TIP3   OH229576   5.482   1.954   0.210
 9878TIP3    H129577   5.428   1.913   0.142
 9878TIP3    H229578   5.488   1.887   0.279
 9879TIP3   OH229579   1.888   3.245   3.628
 9879TIP3    H129580   1.972   3.262   3.672
 9879TIP3    H229581   1.825   3.241   3.700
 9880TIP3   OH229582   4.328   6.058   4.368
 9880TIP3    H129583   4.263   5.999   4.328
 9880TIP3    H229584   4.307   6.144   4.331
 9881TIP3   OH229585   1.692   5.600   4.406
 9881TIP3    H129586   1.777   5.611   4.448
 9881TIP3    H229587   1.711   5.604   4.312
 9882TIP3   OH229588   4.268   5.815   2.642
 9882TIP3    H129589   4.203   5.873   2.683
 9882TIP3    H229590   4.252   5.825   2.548
 9883TIP3   OH229591   1.212   4.932   0.523
 9883TIP3    H129592   1.230   4.871   0.594
 9883TIP3    H229593   1.223   4.880   0.443
 9884TIP3   OH229594   7.019   0.212   4.885
 9884TIP3    H129595   6.967   0.150   4.936
 9884TIP3    H229596   6.985   0.205   4.796
 9885TIP3   OH229597   2.074   1.726   0.885
 9885TIP3    H129598   2.145   1.755   0.828
 9885TIP3    H229599   2.106   1.643   0.922
 9886TIP3   OH229600   1.944   7.838   2.348
 9886TIP3    H129601   1.853   7.827   2.376
 9886TIP3    H229602   1.959   7.767   2.286
 9887TIP3   OH229603   7.885   7.136   2.971
 9887TIP3    H129604   7.907   7.101   3.057
 9887TIP3    H229605   7.945   7.092   2.911
 9888TIP3   OH229606   6.713   0.842   4.914
 9888TIP3    H129607   6.628   0.807   4.943
 9888TIP3    H229608   6.719   0.928   4.956
 9889TIP3   OH229609   2.284   1.357   4.425
 9889TIP3    H129610   2.344   1.395   4.489
 9889TIP3    H229611   2.197   1.380   4.458
 9890TIP3   OH229612   8.115   6.551   3.108
 9890TIP3    H129613   8.189   6.574   3.052
 9890TIP3    H229614   8.109   6.456   3.103
 9891TIP3   OH229615   1.569   4.373   5.766
 9891TIP3    H129616   1.584   4.293   5.716
 9891TIP3    H229617   1.622   4.361   5.846
 9892TIP3   OH229618   4.502   3.397   5.049
 9892TIP3    H129619   4.503   3.336   5.122
 9892TIP3    H229620   4.550   3.473   5.081
 9893TIP3   OH229621   3.546   4.708   3.653
 9893TIP3    H129622   3.568   4.702   3.560
 9893TIP3    H229623   3.588   4.790   3.681
 9894TIP3   OH229624   4.889   4.856   1.480
 9894TIP3    H129625   4.952   4.897   1.421
 9894TIP3    H229626   4.812   4.913   1.476
 9895TIP3   OH229627   8.105   1.658   3.505
 9895TIP3    H129628   8.043   1.730   3.494
 9895TIP3    H229629   8.054   1.580   3.484
 9896TIP3   OH229630   5.153   0.934   5.338
 9896TIP3    H129631   5.150   0.946   5.243
 9896TIP3    H229632   5.101   0.855   5.354
 9897TIP3   OH229633   6.284   7.230   4.065
 9897TIP3    H129634   6.262   7.278   4.146
 9897TIP3    H229635   6.364   7.272   4.034
 9898TIP3   OH229636   5.267   5.318   6.472
 9898TIP3    H129637   5.358   5.333   6.447
 9898TIP3    H229638   5.216   5.337   6.393
 9899TIP3   OH229639   4.847   2.698   3.531
 9899TIP3    H129640   4.805   2.755   3.467
 9899TIP3    H229641   4.777   2.642   3.564
 9900TIP3   OH229642   2.764   4.544   2.997
 9900TIP3    H129643   2.729   4.601   3.066
 9900TIP3    H229644   2.859   4.553   3.005
 9901TIP3   OH229645   6.226   7.622   6.378
 9901TIP3    H129646   6.255   7.531   6.369
 9901TIP3    H229647   6.157   7.631   6.313
 9902TIP3   OH229648   2.815   5.200   0.738
 9902TIP3    H129649   2.782   5.149   0.812
 9902TIP3    H229650   2.746   5.263   0.718
 9903TIP3   OH229651   1.350   4.505   5.629
 9903TIP3    H129652   1.412   4.449   5.676
 9903TIP3    H229653   1.283   4.445   5.597
 9904TIP3   OH229654   0.418   6.661   0.376
 9904TIP3    H129655   0.473   6.597   0.330
 9904TIP3    H229656   0.466   6.680   0.456
 9905TIP3   OH229657   0.956   2.556   4.700
 9905TIP3    H129658   1.015   2.567   4.774
 9905TIP3    H229659   0.877   2.518   4.739
 9906TIP3   OH229660   5.596   2.736   6.287
 9906TIP3    H129661   5.606   2.801   6.218
 9906TIP3    H229662   5.575   2.786   6.365
 9907TIP3   OH229663   0.740   4.617   0.499
 9907TIP3    H129664   0.785   4.640   0.418
 9907TIP3    H229665   0.769   4.527   0.517
 9908TIP3   OH229666   1.663   5.421   1.015
 9908TIP3    H129667   1.737   5.468   1.053
 9908TIP3    H229668   1.655   5.342   1.069
 9909TIP3   OH229669   0.628   7.159   4.874
 9909TIP3    H129670   0.623   7.065   4.856
 9909TIP3    H229671   0.595   7.167   4.964
 9910TIP3   OH229672   0.688   4.066   4.909
 9910TIP3    H129673   0.729   4.039   4.991
 9910TIP3    H229674   0.601   4.098   4.934
 9911TIP3   OH229675   5.815   5.415   4.875
 9911TIP3    H129676   5.865   5.395   4.954
 9911TIP3    H229677   5.866   5.378   4.804
 9912TIP3   OH229678   1.123   1.720   1.518
 9912TIP3    H129679   1.202   1.765   1.488
 9912TIP3    H229680   1.099   1.766   1.598
 9913TIP3   OH229681   0.962   0.580   0.020
 9913TIP3    H129682   1.054   0.607   0.018
 9913TIP3    H229683   0.960   0.504   0.078
 9914TIP3   OH229684   4.314   5.747   5.548
 9914TIP3    H129685   4.314   5.842   5.557
 9914TIP3    H229686   4.240   5.728   5.491
 9915TIP3   OH229687   5.231   4.269   0.638
 9915TIP3    H129688   5.166   4.223   0.585
 9915TIP3    H229689   5.207   4.249   0.728
 9916TIP3   OH229690   4.383   0.220   0.215
 9916TIP3    H129691   4.330   0.148   0.180
 9916TIP3    H229692   4.450   0.177   0.268
 9917TIP3   OH229693   3.175   5.185   2.250
 9917TIP3    H129694   3.239   5.247   2.286
 9917TIP3    H229695   3.104   5.240   2.219
 9918TIP3   OH229696   2.909   2.948   0.999
 9918TIP3    H129697   2.904   2.865   0.952
 9918TIP3    H229698   2.934   2.924   1.088
 9919TIP3   OH229699   5.718   7.811   4.639
 9919TIP3    H129700   5.746   7.720   4.648
 9919TIP3    H229701   5.797   7.858   4.612
 9920TIP3   OH229702   7.009   6.417   0.355
 9920TIP3    H129703   7.053   6.373   0.282
 9920TIP3    H229704   7.040   6.371   0.433
 9921TIP3   OH229705   6.292   6.099  -0.036
 9921TIP3    H129706   6.387   6.102  -0.025
 9921TIP3    H229707   6.258   6.151   0.037
 9922TIP3   OH229708   0.513   0.187   2.167
 9922TIP3    H129709   0.603   0.217   2.181
 9922TIP3    H229710   0.507   0.174   2.072
 9923TIP3   OH229711   4.011   6.304   2.579
 9923TIP3    H129712   3.959   6.377   2.615
 9923TIP3    H229713   4.000   6.311   2.484
 9924TIP3   OH229714   6.731   7.285   4.685
 9924TIP3    H129715   6.645   7.311   4.719
 9924TIP3    H229716   6.781   7.367   4.682
 9925TIP3   OH229717   1.326   6.195   6.646
 9925TIP3    H129718   1.238   6.233   6.647
 9925TIP3    H229719   1.312   6.101   6.659
 9926TIP3   OH229720   1.933   2.177   4.931
 9926TIP3    H129721   1.876   2.222   4.994
 9926TIP3    H229722   2.011   2.153   4.982
 9927TIP3   OH229723   2.621   1.088   5.203
 9927TIP3    H129724   2.641   1.129   5.118
 9927TIP3    H229725   2.706   1.077   5.245
 9928TIP3   OH229726   3.192   5.127   0.965
 9928TIP3    H129727   3.223   5.202   0.914
 9928TIP3    H229728   3.202   5.052   0.907
 9929TIP3   OH229729   3.822   1.826   3.479
 9929TIP3    H129730   3.744   1.790   3.436
 9929TIP3    H229731   3.788   1.885   3.546
 9930TIP3   OH229732   6.302   2.214   3.072
 9930TIP3    H129733   6.246   2.197   2.997
 9930TIP3    H229734   6.283   2.305   3.096
 9931TIP3   OH229735   0.703   4.252   3.246
 9931TIP3    H129736   0.677   4.189   3.179
 9931TIP3    H229737   0.796   4.268   3.229
 9932TIP3   OH229738   4.645   1.063   1.441
 9932TIP3    H129739   4.592   1.125   1.492
 9932TIP3    H229740   4.672   1.112   1.364
 9933TIP3   OH229741   0.516   6.778   5.608
 9933TIP3    H129742   0.449   6.795   5.542
 9933TIP3    H229743   0.479   6.709   5.663
 9934TIP3   OH229744   1.492   3.321   3.306
 9934TIP3    H129745   1.520   3.413   3.315
 9934TIP3    H229746   1.515   3.281   3.390
 9935TIP3   OH229747   2.234   7.605   3.007
 9935TIP3    H129748   2.280   7.523   2.992
 9935TIP3    H229749   2.143   7.586   2.985
 9936TIP3   OH229750   3.287   0.814   2.364
 9936TIP3    H129751   3.243   0.803   2.448
 9936TIP3    H229752   3.218   0.799   2.299
 9937TIP3   OH229753   3.683   1.461   4.811
 9937TIP3    H129754   3.647   1.511   4.884
 9937TIP3    H229755   3.609   1.448   4.753
 9938TIP3   OH229756   5.479   1.830   1.538
 9938TIP3    H129757   5.475   1.900   1.473
 9938TIP3    H229758   5.388   1.815   1.562
 9939TIP3   OH229759   0.850   0.106   3.089
 9939TIP3    H129760   0.872   0.172   3.024
 9939TIP3    H229761   0.826   0.029   3.039
 9940TIP3   OH229762   1.305   2.310   0.088
 9940TIP3    H129763   1.337   2.318   0.178
 9940TIP3    H229764   1.218   2.271   0.097
 9941TIP3   OH229765   3.490   3.489   5.454
 9941TIP3    H129766   3.462   3.428   5.386
 9941TIP3    H229767   3.585   3.480   5.458
 9942TIP3   OH229768   7.975   1.898   3.243
 9942TIP3    H129769   8.007   1.873   3.157
 9942TIP3    H229770   8.002   1.989   3.254
 9943TIP3   OH229771   3.974   7.382   0.443
 9943TIP3    H129772   4.024   7.454   0.483
 9943TIP3    H229773   4.017   7.367   0.358
 9944TIP3   OH229774   6.499   3.863   5.952
 9944TIP3    H129775   6.534   3.952   5.947
 9944TIP3    H229776   6.407   3.873   5.976
 9945TIP3   OH229777   0.104   0.723   1.104
 9945TIP3    H129778   0.129   0.684   1.188
 9945TIP3    H229779   0.088   0.648   1.047
 9946TIP3   OH229780   2.079   2.116   4.006
 9946TIP3    H129781   2.014   2.185   4.021
 9946TIP3    H229782   2.137   2.151   3.938
 9947TIP3   OH229783   7.280   5.067   5.866
 9947TIP3    H129784   7.257   4.983   5.828
 9947TIP3    H229785   7.336   5.109   5.801
 9948TIP3   OH229786   0.740   0.912   1.263
 9948TIP3    H129787   0.755   0.889   1.172
 9948TIP3    H229788   0.645   0.904   1.275
 9949TIP3   OH229789   3.207   4.991   4.700
 9949TIP3    H129790   3.148   4.968   4.628
 9949TIP3    H229791   3.223   5.085   4.689
 9950TIP3   OH229792   0.137   1.137   4.679
 9950TIP3    H129793   0.097   1.224   4.681
 9950TIP3    H229794   0.089   1.089   4.611
 9951TIP3   OH229795   1.506   1.115   3.610
 9951TIP3    H129796   1.539   1.047   3.551
 9951TIP3    H229797   1.562   1.108   3.687
 9952TIP3   OH229798   5.032   3.760   6.528
 9952TIP3    H129799   5.082   3.680   6.516
 9952TIP3    H229800   5.014   3.763   6.623
 9953TIP3   OH229801   6.828   4.852   1.220
 9953TIP3    H129802   6.873   4.935   1.202
 9953TIP3    H229803   6.759   4.877   1.281
 9954TIP3   OH229804   4.858   7.243   1.539
 9954TIP3    H129805   4.781   7.296   1.522
 9954TIP3    H229806   4.828   7.153   1.526
 9955TIP3   OH229807   1.741   3.332   0.351
 9955TIP3    H129808   1.714   3.395   0.418
 9955TIP3    H229809   1.785   3.263   0.399
 9956TIP3   OH229810   7.076   4.038   0.894
 9956TIP3    H129811   7.104   3.947   0.879
 9956TIP3    H229812   7.038   4.037   0.981
 9957TIP3   OH229813   4.356   4.680   5.715
 9957TIP3    H129814   4.285   4.743   5.712
 9957TIP3    H229815   4.431   4.730   5.747
 9958TIP3   OH229816   2.399   5.232   4.324
 9958TIP3    H129817   2.482   5.198   4.357
 9958TIP3    H229818   2.424   5.283   4.247
 9959TIP3   OH229819   8.264   6.030   3.111
 9959TIP3    H129820   8.355   6.003   3.124
 9959TIP3    H229821   8.213   5.951   3.126
 9960TIP3   OH229822   6.593   6.678   6.608
 9960TIP3    H129823   6.517   6.736   6.610
 9960TIP3    H229824   6.556   6.590   6.613
 9961TIP3   OH229825   0.873   7.459   4.359
 9961TIP3    H129826   0.806   7.433   4.421
 9961TIP3    H229827   0.876   7.388   4.295
 9962TIP3   OH229828   0.902   3.216   4.966
 9962TIP3    H129829   0.908   3.279   5.038
 9962TIP3    H229830   0.988   3.173   4.965
 9963TIP3   OH229831   5.438   5.937   6.854
 9963TIP3    H129832   5.377   5.864   6.866
 9963TIP3    H229833   5.491   5.912   6.779
 9964TIP3   OH229834   6.273   0.802   1.369
 9964TIP3    H129835   6.242   0.836   1.453
 9964TIP3    H229836   6.291   0.709   1.385
 9965TIP3   OH229837  -0.006   2.215   6.261
 9965TIP3    H129838   0.089   2.214   6.251
 9965TIP3    H229839  -0.032   2.124   6.248
 9966TIP3   OH229840   3.450   4.857   4.673
 9966TIP3    H129841   3.359   4.881   4.690
 9966TIP3    H229842   3.459   4.862   4.578
 9967TIP3   OH229843   5.565   5.485   4.954
 9967TIP3    H129844   5.652   5.462   4.920
 9967TIP3    H229845   5.566   5.581   4.957
 9968TIP3   OH229846   6.663   5.907   4.884
 9968TIP3    H129847   6.621   5.991   4.865
 9968TIP3    H229848   6.615   5.843   4.831
 9969TIP3   OH229849   5.997   2.487   5.304
 9969TIP3    H129850   6.015   2.439   5.385
 9969TIP3    H229851   5.913   2.451   5.274
 9970TIP3   OH229852   4.599   3.770   3.683
 9970TIP3    H129853   4.664   3.732   3.742
 9970TIP3    H229854   4.527   3.708   3.683
 9971TIP3   OH229855   0.816   4.492   0.798
 9971TIP3    H129856   0.779   4.574   0.831
 9971TIP3    H229857   0.855   4.517   0.714
 9972TIP3   OH229858   7.866   4.505   6.171
 9972TIP3    H129859   7.933   4.459   6.121
 9972TIP3    H229860   7.810   4.436   6.205
 9973TIP3   OH229861   5.884   5.437   3.702
 9973TIP3    H129862   5.908   5.345   3.688
 9973TIP3    H229863   5.798   5.446   3.662
 9974TIP3   OH229864   6.848   2.268   3.920
 9974TIP3    H129865   6.888   2.296   4.002
 9974TIP3    H229866   6.772   2.216   3.947
 9975TIP3   OH229867   3.071   5.824   1.823
 9975TIP3    H129868   3.024   5.793   1.901
 9975TIP3    H229869   3.119   5.901   1.853
 9976TIP3   OH229870   6.451   7.556   1.634
 9976TIP3    H129871   6.515   7.603   1.687
 9976TIP3    H229872   6.391   7.518   1.697
 9977TIP3   OH229873   4.802   7.665   5.981
 9977TIP3    H129874   4.822   7.630   5.895
 9977TIP3    H229875   4.796   7.588   6.038
 9978TIP3   OH229876   3.392   5.944   1.726
 9978TIP3    H129877   3.401   5.852   1.754
 9978TIP3    H229878   3.447   5.951   1.648
 9979TIP3   OH229879   1.601   6.293   2.235
 9979TIP3    H129880   1.696   6.302   2.226
 9979TIP3    H229881   1.586   6.297   2.330
 9980TIP3   OH229882   3.295   5.661   6.617
 9980TIP3    H129883   3.373   5.688   6.665
 9980TIP3    H229884   3.230   5.728   6.636
 9981TIP3   OH229885   0.883   3.219   0.365
 9981TIP3    H129886   0.945   3.149   0.340
 9981TIP3    H229887   0.939   3.294   0.385
 9982TIP3   OH229888   8.332   6.277   6.593
 9982TIP3    H129889   8.319   6.188   6.627
 9982TIP3    H229890   8.244   6.307   6.569
 9983TIP3   OH229891   0.352   0.677   4.373
 9983TIP3    H129892   0.372   0.769   4.390
 9983TIP3    H229893   0.430   0.643   4.330
 9984TIP3   OH229894   1.291   5.640   3.644
 9984TIP3    H129895   1.321   5.715   3.696
 9984TIP3    H229896   1.365   5.579   3.647
 9985TIP3   OH229897   0.140   2.014   1.463
 9985TIP3    H129898   0.129   2.070   1.540
 9985TIP3    H229899   0.055   2.018   1.419
 9986TIP3   OH229900   3.250   3.239   3.893
 9986TIP3    H129901   3.338   3.210   3.870
 9986TIP3    H229902   3.257   3.270   3.983
 9987TIP3   OH229903   8.229   3.642   6.626
 9987TIP3    H129904   8.149   3.668   6.580
 9987TIP3    H229905   8.282   3.598   6.559
 9988TIP3   OH229906   2.908   1.375   5.510
 9988TIP3    H129907   2.973   1.345   5.447
 9988TIP3    H229908   2.826   1.381   5.461
 9989TIP3   OH229909   0.318   2.732   0.306
 9989TIP3    H129910   0.374   2.666   0.266
 9989TIP3    H229911   0.376   2.808   0.319
 9990TIP3   OH229912   3.265   2.804   4.212
 9990TIP3    H129913   3.177   2.838   4.197
 9990TIP3    H229914   3.292   2.769   4.127
 9991TIP3   OH229915   4.708   2.290   3.486
 9991TIP3    H129916   4.614   2.274   3.480
 9991TIP3    H229917   4.722   2.318   3.577
 9992TIP3   OH229918   3.742   5.246   0.104
 9992TIP3    H129919   3.748   5.327   0.053
 9992TIP3    H229920   3.819   5.249   0.162
 9993TIP3   OH229921   5.069   0.613   4.374
 9993TIP3    H129922   5.154   0.625   4.417
 9993TIP3    H229923   5.091   0.600   4.282
 9994TIP3   OH229924   7.598   0.024   2.768
 9994TIP3    H129925   7.693   0.013   2.766
 9994TIP3    H229926   7.583   0.108   2.724
 9995TIP3   OH229927   3.255   6.326   6.351
 9995TIP3    H129928   3.242   6.256   6.414
 9995TIP3    H229929   3.170   6.337   6.308
 9996TIP3   OH229930   7.213   0.214   6.227
 9996TIP3    H129931   7.179   0.304   6.232
 9996TIP3    H229932   7.264   0.213   6.146
 9997TIP3   OH229933   6.320   1.820   3.819
 9997TIP3    H129934   6.319   1.828   3.914
 9997TIP3    H229935   6.413   1.813   3.797
 9998TIP3   OH229936   0.379   7.147   4.536
 9998TIP3    H129937   0.375   7.196   4.618
 9998TIP3    H229938   0.327   7.068   4.553
 9999TIP3   OH229939   6.814   5.893   4.460
 9999TIP3    H129940   6.889   5.915   4.405
 9999TIP3    H229941   6.846   5.901   4.550
10000TIP3   OH229942   0.737   7.538   3.228
10000TIP3    H129943   0.754   7.475   3.299
10000TIP3    H229944   0.776   7.497   3.151
10001TIP3   OH229945   5.470   1.630   2.461
10001TIP3    H129946   5.457   1.574   2.537
10001TIP3    H229947   5.546   1.684   2.483
10002TIP3   OH229948   3.218   1.814   6.064
10002TIP3    H129949   3.270   1.733   6.065
10002TIP3    H229950   3.129   1.785   6.043
10003TIP3   OH229951   6.488   2.566   4.652
10003TIP3    H129952   6.524   2.526   4.573
10003TIP3    H229953   6.517   2.657   4.648
10004TIP3   OH229954   3.573   7.752   5.126
10004TIP3    H129955   3.500   7.777   5.182
10004TIP3    H229956   3.585   7.658   5.143
10005TIP3   OH229957   4.231   3.436   3.766
10005TIP3    H129958   4.150   3.458   3.813
10005TIP3    H229959   4.258   3.518   3.726
10006TIP3   OH229960   4.738   0.151   1.444
10006TIP3    H129961   4.699   0.099   1.515
10006TIP3    H229962   4.759   0.235   1.485
10007TIP3   OH229963   3.579   7.035   6.297
10007TIP3    H129964   3.534   6.974   6.356
10007TIP3    H229965   3.620   6.978   6.231
10008TIP3   OH229966   6.169   5.473   4.628
10008TIP3    H129967   6.262   5.468   4.647
10008TIP3    H229968   6.145   5.564   4.644
10009TIP3   OH229969   3.432   6.509   5.169
10009TIP3    H129970   3.479   6.543   5.245
10009TIP3    H229971   3.344   6.491   5.201
10010TIP3   OH229972   1.888   3.243   1.851
10010TIP3    H129973   1.854   3.322   1.810
10010TIP3    H229974   1.906   3.268   1.941
10011TIP3   OH229975   6.527   1.338   3.854
10011TIP3    H129976   6.569   1.403   3.797
10011TIP3    H229977   6.433   1.356   3.847
10012TIP3   OH229978   4.707   0.230   3.128
10012TIP3    H129979   4.703   0.325   3.129
10012TIP3    H229980   4.638   0.204   3.067
10013TIP3   OH229981   6.519   7.431   0.171
10013TIP3    H129982   6.444   7.474   0.129
10013TIP3    H229983   6.580   7.414   0.099
10014TIP3   OH229984   5.719   4.214   5.242
10014TIP3    H129985   5.772   4.146   5.202
10014TIP3    H229986   5.782   4.271   5.286
10015TIP3   OH229987   7.608   6.349   4.961
10015TIP3    H129988   7.562   6.333   4.878
10015TIP3    H229989   7.540   6.345   5.027
10016TIP3   OH229990   1.634   0.759   1.963
10016TIP3    H129991   1.692   0.820   2.009
10016TIP3    H229992   1.561   0.812   1.934
10017TIP3   OH229993   6.866   3.246   3.181
10017TIP3    H129994   6.892   3.156   3.159
10017TIP3    H229995   6.784   3.259   3.134
10018TIP3   OH229996   1.719   6.721   3.254
10018TIP3    H129997   1.790   6.729   3.318
10018TIP3    H229998   1.750   6.771   3.178
10019TIP3   OH229999   2.082   5.310   0.488
10019TIP3    H130000   2.120   5.269   0.566
10019TIP3    H230001   2.120   5.261   0.414
10020TIP3   OH230002   3.639   0.536   0.051
10020TIP3    H130003   3.641   0.478  -0.025
10020TIP3    H230004   3.641   0.477   0.127
10021TIP3   OH230005   0.943   2.808   0.207
10021TIP3    H130006   0.990   2.751   0.146
10021TIP3    H230007   0.873   2.753   0.242
10022TIP3   OH230008   8.099   2.615   2.426
10022TIP3    H130009   8.103   2.520   2.426
10022TIP3    H230010   8.015   2.636   2.467
10023TIP3   OH230011   8.305   3.299   6.488
10023TIP3    H130012   8.308   3.393   6.472
10023TIP3    H230013   8.214   3.274   6.473
10024TIP3   OH230014   0.528   4.534   0.991
10024TIP3    H130015   0.493   4.547   0.903
10024TIP3    H230016   0.622   4.549   0.982
10025TIP3   OH230017   0.424   4.165   1.937
10025TIP3    H130018   0.475   4.245   1.922
10025TIP3    H230019   0.425   4.121   1.852
10026TIP3   OH230020   5.899   7.549   3.436
10026TIP3    H130021   5.839   7.477   3.455
10026TIP3    H230022   5.867   7.621   3.490
10027TIP3   OH230023   2.884   2.275   3.601
10027TIP3    H130024   2.954   2.225   3.643
10027TIP3    H230025   2.848   2.216   3.535
10028TIP3   OH230026   0.095   7.384   4.600
10028TIP3    H130027   0.117   7.293   4.619
10028TIP3    H230028   0.140   7.435   4.667
10029TIP3   OH230029   6.308   0.017   4.340
10029TIP3    H130030   6.301   0.024   4.245
10029TIP3    H230031   6.308   0.108   4.371
10030TIP3   OH230032   3.466   3.746   5.289
10030TIP3    H130033   3.433   3.658   5.307
10030TIP3    H230034   3.402   3.805   5.328
10031TIP3   OH230035   1.044   3.324   3.112
10031TIP3    H130036   1.007   3.386   3.174
10031TIP3    H230037   0.969   3.289   3.065
10032TIP3   OH230038   0.717   2.352   3.885
10032TIP3    H130039   0.623   2.339   3.901
10032TIP3    H230040   0.749   2.395   3.964
10033TIP3   OH230041   0.089   6.019   6.699
10033TIP3    H130042   0.153   6.046   6.764
10033TIP3    H230043   0.142   5.991   6.624
10034TIP3   OH230044   7.297   1.549   3.395
10034TIP3    H130045   7.278   1.474   3.338
10034TIP3    H230046   7.214   1.568   3.439
10035TIP3   OH230047   3.739   7.206   1.741
10035TIP3    H130048   3.710   7.209   1.832
10035TIP3    H230049   3.658   7.209   1.689
10036TIP3   OH230050   5.697   1.599   1.812
10036TIP3    H130051   5.767   1.597   1.746
10036TIP3    H230052   5.723   1.534   1.876
10037TIP3   OH230053   4.419   1.586   6.506
10037TIP3    H130054   4.441   1.535   6.584
10037TIP3    H230055   4.481   1.556   6.440
10038TIP3   OH230056   3.043   5.981   3.568
10038TIP3    H130057   3.016   5.895   3.536
10038TIP3    H230058   3.124   5.999   3.521
10039TIP3   OH230059   6.342   2.594   2.569
10039TIP3    H130060   6.308   2.683   2.558
10039TIP3    H230061   6.437   2.605   2.580
10040TIP3   OH230062   4.065   2.076   3.361
10040TIP3    H130063   4.154   2.054   3.333
10040TIP3    H230064   4.017   1.993   3.356
10041TIP3   OH230065   4.211   5.906   5.902
10041TIP3    H130066   4.306   5.905   5.899
10041TIP3    H230067   4.186   5.816   5.923
10042TIP3   OH230068   5.093   3.456   0.741
10042TIP3    H130069   5.148   3.389   0.701
10042TIP3    H230070   5.148   3.534   0.744
10043TIP3   OH230071   8.213   7.747   5.687
10043TIP3    H130072   8.152   7.722   5.757
10043TIP3    H230073   8.240   7.664   5.648
10044TIP3   OH230074   5.173   2.766   4.896
10044TIP3    H130075   5.116   2.780   4.821
10044TIP3    H230076   5.117   2.780   4.972
10045TIP3   OH230077   3.648   4.738   6.218
10045TIP3    H130078   3.676   4.650   6.192
10045TIP3    H230079   3.696   4.797   6.161
10046TIP3   OH230080   7.569   4.322   2.123
10046TIP3    H130081   7.649   4.298   2.171
10046TIP3    H230082   7.503   4.260   2.154
10047TIP3   OH230083   0.870   0.351   2.934
10047TIP3    H130084   0.788   0.386   2.967
10047TIP3    H230085   0.846   0.304   2.854
10048TIP3   OH230086   3.310   7.298   1.501
10048TIP3    H130087   3.350   7.374   1.543
10048TIP3    H230088   3.302   7.324   1.409
10049TIP3   OH230089   4.260   0.617   1.280
10049TIP3    H130090   4.305   0.662   1.209
10049TIP3    H230091   4.174   0.661   1.285
10050TIP3   OH230092   1.997   7.054   4.288
10050TIP3    H130093   1.923   7.058   4.227
10050TIP3    H230094   2.004   7.144   4.321
10051TIP3   OH230095   7.646   0.707   5.249
10051TIP3    H130096   7.704   0.630   5.249
10051TIP3    H230097   7.706   0.782   5.249
10052TIP3   OH230098   7.721   1.038   2.351
10052TIP3    H130099   7.773   1.051   2.430
10052TIP3    H230100   7.676   0.955   2.366
10053TIP3   OH230101   4.965   1.949   0.361
10053TIP3    H130102   5.005   1.871   0.322
10053TIP3    H230103   4.928   1.997   0.286
10054TIP3   OH230104   4.045   2.777   2.758
10054TIP3    H130105   4.038   2.872   2.751
10054TIP3    H230106   4.033   2.758   2.851
10055TIP3   OH230107   5.270   2.926   4.342
10055TIP3    H130108   5.292   2.906   4.433
10055TIP3    H230109   5.328   2.870   4.290
10056TIP3   OH230110   8.144   6.499   6.136
10056TIP3    H130111   8.059   6.488   6.178
10056TIP3    H230112   8.202   6.527   6.207
10057TIP3   OH230113   2.263   7.831   2.158
10057TIP3    H130114   2.261   7.923   2.132
10057TIP3    H230115   2.176   7.798   2.135
10058TIP3   OH230116   3.199   0.038   2.164
10058TIP3    H130117   3.173   0.117   2.211
10058TIP3    H230118   3.288   0.057   2.134
10059TIP3   OH230119   0.256   2.684   1.407
10059TIP3    H130120   0.244   2.769   1.365
10059TIP3    H230121   0.328   2.698   1.470
10060TIP3   OH230122   4.868   7.684   5.177
10060TIP3    H130123   4.835   7.599   5.205
10060TIP3    H230124   4.791   7.733   5.150
10061TIP3   OH230125   6.361   3.527   0.034
10061TIP3    H130126   6.301   3.454   0.018
10061TIP3    H230127   6.370   3.531   0.129
10062TIP3   OH230128   4.325   5.107   4.661
10062TIP3    H130129   4.298   5.141   4.575
10062TIP3    H230130   4.277   5.160   4.724
10063TIP3   OH230131   1.237   7.355   3.634
10063TIP3    H130132   1.265   7.385   3.547
10063TIP3    H230133   1.203   7.267   3.620
10064TIP3   OH230134   5.257   0.545   4.971
10064TIP3    H130135   5.308   0.545   5.052
10064TIP3    H230136   5.266   0.634   4.936
10065TIP3   OH230137   1.007   6.337   2.114
10065TIP3    H130138   1.001   6.248   2.081
10065TIP3    H230139   1.036   6.328   2.205
10066TIP3   OH230140   2.339   5.014   3.698
10066TIP3    H130141   2.391   5.027   3.777
10066TIP3    H230142   2.382   4.943   3.652
10067TIP3   OH230143   7.811   5.559   6.180
10067TIP3    H130144   7.851   5.582   6.264
10067TIP3    H230145   7.812   5.641   6.130
10068TIP3   OH230146   0.535   1.691   0.667
10068TIP3    H130147   0.589   1.669   0.591
10068TIP3    H230148   0.491   1.773   0.643
10069TIP3   OH230149   0.906   5.496   1.991
10069TIP3    H130150   0.860   5.421   1.952
10069TIP3    H230151   0.984   5.458   2.032
10070TIP3   OH230152   7.454   1.593   6.355
10070TIP3    H130153   7.503   1.675   6.351
10070TIP3    H230154   7.510   1.529   6.312
10071TIP3   OH230155   7.331   4.017   3.179
10071TIP3    H130156   7.372   4.071   3.246
10071TIP3    H230157   7.247   3.991   3.217
10072TIP3   OH230158   1.818   7.154   5.595
10072TIP3    H130159   1.844   7.224   5.656
10072TIP3    H230160   1.722   7.158   5.595
10073TIP3   OH230161   1.547   3.785   4.294
10073TIP3    H130162   1.590   3.870   4.296
10073TIP3    H230163   1.522   3.773   4.203
10074TIP3   OH230164   1.967   4.908   4.293
10074TIP3    H130165   2.013   4.863   4.364
10074TIP3    H230166   1.935   4.989   4.332
10075TIP3   OH230167   2.595   1.910   6.066
10075TIP3    H130168   2.584   2.004   6.059
10075TIP3    H230169   2.687   1.898   6.088
10076TIP3   OH230170   0.753   1.603   3.497
10076TIP3    H130171   0.701   1.645   3.566
10076TIP3    H230172   0.715   1.516   3.489
10077TIP3   OH230173   4.937   0.057   4.688
10077TIP3    H130174   4.950   0.075   4.595
10077TIP3    H230175   4.993  -0.018   4.706
10078TIP3   OH230176   0.536   4.394   0.610
10078TIP3    H130177   0.561   4.484   0.629
10078TIP3    H230178   0.521   4.354   0.696
10079TIP3   OH230179   3.203   1.833   4.551
10079TIP3    H130180   3.155   1.858   4.630
10079TIP3    H230181   3.225   1.917   4.509
10080TIP3   OH230182   2.394   5.621   4.546
10080TIP3    H130183   2.337   5.676   4.599
10080TIP3    H230184   2.380   5.532   4.578
10081TIP3   OH230185   6.587   6.164   4.812
10081TIP3    H130186   6.519   6.228   4.793
10081TIP3    H230187   6.667   6.215   4.821
10082TIP3   OH230188   4.538   0.100   0.380
10082TIP3    H130189   4.602   0.126   0.446
10082TIP3    H230190   4.520   0.008   0.400
10083TIP3   OH230191   3.261   3.720   2.320
10083TIP3    H130192   3.357   3.712   2.322
10083TIP3    H230193   3.246   3.815   2.314
10084TIP3   OH230194   7.670   2.984   2.550
10084TIP3    H130195   7.610   2.919   2.588
10084TIP3    H230196   7.757   2.958   2.582
10085TIP3   OH230197   3.308   5.817   0.492
10085TIP3    H130198   3.325   5.822   0.586
10085TIP3    H230199   3.379   5.763   0.458
10086TIP3   OH230200   6.638   6.205   1.585
10086TIP3    H130201   6.616   6.180   1.675
10086TIP3    H230202   6.652   6.122   1.540
10087TIP3   OH230203   6.942   4.556   0.546
10087TIP3    H130204   6.966   4.609   0.622
10087TIP3    H230205   6.939   4.466   0.580
10088TIP3   OH230206   2.191   1.957   6.588
10088TIP3    H130207   2.184   1.875   6.637
10088TIP3    H230208   2.187   1.930   6.496
10089TIP3   OH230209   6.465   7.467   1.371
10089TIP3    H130210   6.416   7.515   1.305
10089TIP3    H230211   6.445   7.512   1.453
10090TIP3   OH230212   7.193   0.364   5.027
10090TIP3    H130213   7.132   0.321   4.967
10090TIP3    H230214   7.278   0.361   4.982
10091TIP3   OH230215   1.832   4.401   1.747
10091TIP3    H130216   1.867   4.443   1.668
10091TIP3    H230217   1.781   4.470   1.789
10092TIP3   OH230218   6.387   3.918   1.782
10092TIP3    H130219   6.321   3.944   1.846
10092TIP3    H230220   6.376   3.979   1.709
10093TIP3   OH230221   4.847   3.294   0.749
10093TIP3    H130222   4.876   3.244   0.825
10093TIP3    H230223   4.927   3.335   0.715
10094TIP3   OH230224   4.231   6.457   3.558
10094TIP3    H130225   4.285   6.511   3.614
10094TIP3    H230226   4.164   6.421   3.616
10095TIP3   OH230227   5.714   6.882   0.143
10095TIP3    H130228   5.798   6.841   0.163
10095TIP3    H230229   5.716   6.893   0.048
10096TIP3   OH230230   3.723   2.178   5.628
10096TIP3    H130231   3.693   2.159   5.539
10096TIP3    H230232   3.818   2.162   5.625
10097TIP3   OH230233   5.362   7.292   1.883
10097TIP3    H130234   5.387   7.374   1.926
10097TIP3    H230235   5.438   7.269   1.829
10098TIP3   OH230236   3.243   1.507   2.023
10098TIP3    H130237   3.272   1.459   2.101
10098TIP3    H230238   3.228   1.596   2.055
10099TIP3   OH230239   0.253   0.194   6.573
10099TIP3    H130240   0.192   0.257   6.611
10099TIP3    H230241   0.207   0.159   6.496
10100TIP3   OH230242   5.523   2.403   5.473
10100TIP3    H130243   5.446   2.347   5.475
10100TIP3    H230244   5.574   2.376   5.550
10101TIP3   OH230245   6.669   0.658   0.950
10101TIP3    H130246   6.761   0.682   0.962
10101TIP3    H230247   6.635   0.723   0.889
10102TIP3   OH230248   6.448   3.801   0.974
10102TIP3    H130249   6.511   3.796   0.902
10102TIP3    H230250   6.369   3.839   0.935
10103TIP3   OH230251   6.324   2.644   6.344
10103TIP3    H130252   6.389   2.715   6.337
10103TIP3    H230253   6.357   2.588   6.414
10104TIP3   OH230254   0.711   3.321   0.119
10104TIP3    H130255   0.685   3.229   0.111
10104TIP3    H230256   0.793   3.319   0.168
10105TIP3   OH230257   0.209   5.128   5.242
10105TIP3    H130258   0.231   5.164   5.328
10105TIP3    H230259   0.266   5.052   5.232
10106TIP3   OH230260   3.561   2.537   5.897
10106TIP3    H130261   3.638   2.530   5.954
10106TIP3    H230262   3.567   2.462   5.839
10107TIP3   OH230263   2.415   4.000   6.643
10107TIP3    H130264   2.428   4.095   6.639
10107TIP3    H230265   2.320   3.989   6.644
10108TIP3   OH230266   0.048   4.316   4.179
10108TIP3    H130267   0.090   4.302   4.094
10108TIP3    H230268   0.100   4.264   4.240
10109TIP3   OH230269   6.640   1.862   0.087
10109TIP3    H130270   6.600   1.775   0.087
10109TIP3    H230271   6.571   1.921   0.057
10110TIP3   OH230272   2.386   6.854  -0.012
10110TIP3    H130273   2.433   6.807   0.057
10110TIP3    H230274   2.431   6.938  -0.019
10111TIP3   OH230275   7.795   1.198   1.762
10111TIP3    H130276   7.851   1.274   1.777
10111TIP3    H230277   7.734   1.227   1.694
10112TIP3   OH230278   3.276   6.486   6.862
10112TIP3    H130279   3.339   6.443   6.805
10112TIP3    H230280   3.191   6.461   6.827
10113TIP3   OH230281   7.389   3.062   0.660
10113TIP3    H130282   7.335   3.141   0.664
10113TIP3    H230283   7.407   3.051   0.567
10114TIP3   OH230284   1.786   4.593   0.615
10114TIP3    H130285   1.769   4.687   0.611
10114TIP3    H230286   1.833   4.574   0.534
10115TIP3   OH230287   6.575   2.646   6.743
10115TIP3    H130288   6.562   2.672   6.835
10115TIP3    H230289   6.653   2.590   6.745
10116TIP3   OH230290   3.299   2.740   2.228
10116TIP3    H130291   3.379   2.687   2.223
10116TIP3    H230292   3.303   2.781   2.314
10117TIP3   OH230293   2.417   2.174   3.249
10117TIP3    H130294   2.491   2.181   3.188
10117TIP3    H230295   2.406   2.262   3.285
10118TIP3   OH230296   6.683   6.283   5.688
10118TIP3    H130297   6.740   6.220   5.645
10118TIP3    H230298   6.615   6.230   5.729
10119TIP3   OH230299   0.699   0.952   4.914
10119TIP3    H130300   0.711   0.879   4.975
10119TIP3    H230301   0.621   0.997   4.946
10120TIP3   OH230302   2.559   5.523   2.719
10120TIP3    H130303   2.623   5.472   2.669
10120TIP3    H230304   2.512   5.458   2.771
10121TIP3   OH230305   0.067   6.201   5.115
10121TIP3    H130306   0.088   6.114   5.147
10121TIP3    H230307  -0.013   6.225   5.161
10122TIP3   OH230308   2.990   2.492   2.087
10122TIP3    H130309   2.918   2.550   2.061
10122TIP3    H230310   2.987   2.421   2.023
10123TIP3   OH230311   4.512   5.704   2.350
10123TIP3    H130312   4.530   5.642   2.278
10123TIP3    H230313   4.558   5.667   2.425
10124TIP3   OH230314   1.996   2.238   4.469
10124TIP3    H130315   1.955   2.174   4.528
10124TIP3    H230316   1.922   2.284   4.429
10125TIP3   OH230317   0.666   1.796   6.644
10125TIP3    H130318   0.736   1.754   6.695
10125TIP3    H230319   0.713   1.848   6.579
10126TIP3   OH230320   4.332   6.201   3.809
10126TIP3    H130321   4.259   6.262   3.822
10126TIP3    H230322   4.292   6.115   3.814
10127TIP3   OH230323   7.580   6.815   1.473
10127TIP3    H130324   7.627   6.733   1.491
10127TIP3    H230325   7.501   6.788   1.426
10128TIP3   OH230326   0.475   0.207   1.328
10128TIP3    H130327   0.451   0.244   1.243
10128TIP3    H230328   0.571   0.208   1.328
10129TIP3   OH230329   5.156   0.628   6.665
10129TIP3    H130330   5.170   0.550   6.718
10129TIP3    H230331   5.064   0.624   6.638
10130TIP3   OH230332   7.920   2.648   3.033
10130TIP3    H130333   7.854   2.596   3.080
10130TIP3    H230334   8.004   2.614   3.065
10131TIP3   OH230335   5.875   0.974   6.486
10131TIP3    H130336   5.840   0.971   6.576
10131TIP3    H230337   5.809   0.931   6.433
10132TIP3   OH230338   1.334   2.345   4.177
10132TIP3    H130339   1.241   2.320   4.176
10132TIP3    H230340   1.341   2.413   4.109
10133TIP3   OH230341   7.185   1.767   5.260
10133TIP3    H130342   7.218   1.678   5.245
10133TIP3    H230343   7.138   1.789   5.179
10134TIP3   OH230344   1.106   3.894   5.566
10134TIP3    H130345   1.061   3.894   5.651
10134TIP3    H230346   1.167   3.820   5.571
10135TIP3   OH230347   0.483   1.877   3.256
10135TIP3    H130348   0.478   1.940   3.184
10135TIP3    H230349   0.557   1.906   3.308
10136TIP3   OH230350   0.675   2.154   6.205
10136TIP3    H130351   0.591   2.193   6.178
10136TIP3    H230352   0.696   2.198   6.287
10137TIP3   OH230353   7.881   6.235   4.260
10137TIP3    H130354   7.898   6.287   4.182
10137TIP3    H230355   7.966   6.229   4.304
10138TIP3   OH230356   2.752   4.781   3.888
10138TIP3    H130357   2.678   4.760   3.946
10138TIP3    H230358   2.828   4.782   3.946
10139TIP3   OH230359   3.054   1.013   3.370
10139TIP3    H130360   2.968   0.985   3.403
10139TIP3    H230361   3.110   1.016   3.448
10140TIP3   OH230362   7.665   0.270   6.226
10140TIP3    H130363   7.695   0.236   6.142
10140TIP3    H230364   7.578   0.231   6.238
10141TIP3   OH230365   5.871   5.895   3.432
10141TIP3    H130366   5.883   5.804   3.459
10141TIP3    H230367   5.851   5.891   3.339
10142TIP3   OH230368   0.411   3.728   5.618
10142TIP3    H130369   0.470   3.769   5.682
10142TIP3    H230370   0.327   3.722   5.663
10143TIP3   OH230371   8.159   0.106   3.305
10143TIP3    H130372   8.222   0.047   3.265
10143TIP3    H230373   8.102   0.133   3.232
10144TIP3   OH230374   5.876   2.731   5.521
10144TIP3    H130375   5.876   2.806   5.461
10144TIP3    H230376   5.814   2.669   5.482
10145TIP3   OH230377   7.052   5.026   0.861
10145TIP3    H130378   7.100   4.943   0.853
10145TIP3    H230379   7.012   5.022   0.948
10146TIP3   OH230380   7.709   6.457   1.526
10146TIP3    H130381   7.702   6.489   1.616
10146TIP3    H230382   7.658   6.377   1.525
10147TIP3   OH230383   2.800   3.343   0.386
10147TIP3    H130384   2.834   3.430   0.365
10147TIP3    H230385   2.710   3.358   0.416
10148TIP3   OH230386   7.812   4.314   2.235
10148TIP3    H130387   7.832   4.344   2.146
10148TIP3    H230388   7.889   4.341   2.287
10149TIP3   OH230389   4.207   1.241   0.762
10149TIP3    H130390   4.164   1.156   0.773
10149TIP3    H230391   4.143   1.293   0.714
10150TIP3   OH230392   5.777   7.218   5.502
10150TIP3    H130393   5.836   7.281   5.462
10150TIP3    H230394   5.819   7.133   5.489
10151TIP3   OH230395   6.768   4.528   4.326
10151TIP3    H130396   6.744   4.604   4.378
10151TIP3    H230397   6.861   4.541   4.304
10152TIP3   OH230398   4.521   3.708   2.704
10152TIP3    H130399   4.438   3.731   2.746
10152TIP3    H230400   4.587   3.726   2.771
10153TIP3   OH230401   6.412   4.517   0.756
10153TIP3    H130402   6.374   4.530   0.669
10153TIP3    H230403   6.337   4.512   0.815
10154TIP3   OH230404   3.184   1.263   5.301
10154TIP3    H130405   3.203   1.355   5.282
10154TIP3    H230406   3.214   1.216   5.224
10155TIP3   OH230407   6.677   6.806   0.423
10155TIP3    H130408   6.719   6.720   0.418
10155TIP3    H230409   6.725   6.859   0.358
10156TIP3   OH230410   6.890   6.772   2.977
10156TIP3    H130411   6.879   6.684   3.012
10156TIP3    H230412   6.918   6.825   3.052
10157TIP3   OH230413   2.677   7.413   2.676
10157TIP3    H130414   2.588   7.381   2.692
10157TIP3    H230415   2.709   7.440   2.762
10158TIP3   OH230416   3.957   0.324   3.965
10158TIP3    H130417   3.953   0.407   3.918
10158TIP3    H230418   4.013   0.342   4.041
10159TIP3   OH230419   1.660   5.872   2.171
10159TIP3    H130420   1.611   5.906   2.096
10159TIP3    H230421   1.669   5.779   2.153
10160TIP3   OH230422   4.463   7.429   5.993
10160TIP3    H130423   4.375   7.422   6.030
10160TIP3    H230424   4.500   7.509   6.031
10161TIP3   OH230425   3.808   6.455   2.796
10161TIP3    H130426   3.818   6.427   2.887
10161TIP3    H230427   3.719   6.429   2.772
10162TIP3   OH230428   7.243   6.097   3.290
10162TIP3    H130429   7.154   6.124   3.269
10162TIP3    H230430   7.273   6.050   3.212
10163TIP3   OH230431   5.128   7.589   0.513
10163TIP3    H130432   5.191   7.659   0.498
10163TIP3    H230433   5.123   7.543   0.430
10164TIP3   OH230434   6.588   0.449   1.368
10164TIP3    H130435   6.564   0.497   1.289
10164TIP3    H230436   6.522   0.380   1.375
10165TIP3   OH230437   3.548   7.805   2.075
10165TIP3    H130438   3.485   7.749   2.119
10165TIP3    H230439   3.560   7.765   1.989
10166TIP3   OH230440   0.541   3.462   2.280
10166TIP3    H130441   0.528   3.408   2.358
10166TIP3    H230442   0.456   3.504   2.266
10167TIP3   OH230443   3.670   5.726   5.652
10167TIP3    H130444   3.670   5.678   5.569
10167TIP3    H230445   3.751   5.777   5.650
10168TIP3   OH230446   1.500   0.852   6.556
10168TIP3    H130447   1.471   0.938   6.524
10168TIP3    H230448   1.535   0.870   6.643
10169TIP3   OH230449   5.613   4.476   5.357
10169TIP3    H130450   5.556   4.416   5.405
10169TIP3    H230451   5.701   4.442   5.371
10170TIP3   OH230452   4.535   3.230   2.960
10170TIP3    H130453   4.515   3.141   2.933
10170TIP3    H230454   4.600   3.260   2.897
10171TIP3   OH230455   3.549   1.304   2.734
10171TIP3    H130456   3.489   1.231   2.719
10171TIP3    H230457   3.498   1.367   2.785
10172TIP3   OH230458   8.280   7.239   5.394
10172TIP3    H130459   8.186   7.258   5.392
10172TIP3    H230460   8.305   7.252   5.486
10173TIP3   OH230461   4.348   7.737   1.938
10173TIP3    H130462   4.270   7.793   1.947
10173TIP3    H230463   4.407   7.787   1.882
10174TIP3   OH230464   5.197   6.414   2.229
10174TIP3    H130465   5.175   6.324   2.206
10174TIP3    H230466   5.266   6.406   2.295
10175TIP3   OH230467   2.960   1.264   0.069
10175TIP3    H130468   2.934   1.352   0.097
10175TIP3    H230469   2.932   1.260  -0.023
10176TIP3   OH230470   2.818   2.105   5.909
10176TIP3    H130471   2.856   2.139   5.828
10176TIP3    H230472   2.842   2.170   5.976
10177TIP3   OH230473   5.248   1.114   3.828
10177TIP3    H130474   5.294   1.137   3.908
10177TIP3    H230475   5.158   1.096   3.856
10178TIP3   OH230476   7.914   5.379   0.808
10178TIP3    H130477   7.943   5.346   0.723
10178TIP3    H230478   7.881   5.466   0.790
10179TIP3   OH230479   7.454   4.670   3.121
10179TIP3    H130480   7.511   4.689   3.196
10179TIP3    H230481   7.366   4.663   3.158
10180TIP3   OH230482   5.863   7.598   4.346
10180TIP3    H130483   5.861   7.594   4.442
10180TIP3    H230484   5.784   7.552   4.319
10181TIP3   OH230485   0.329   0.937   0.707
10181TIP3    H130486   0.270   0.905   0.639
10181TIP3    H230487   0.284   0.917   0.789
10182TIP3   OH230488   5.511   5.706   0.679
10182TIP3    H130489   5.523   5.753   0.762
10182TIP3    H230490   5.558   5.624   0.691
10183TIP3   OH230491   7.622   1.494   0.652
10183TIP3    H130492   7.622   1.401   0.675
10183TIP3    H230493   7.547   1.505   0.594
10184TIP3   OH230494   3.685   0.550   3.286
10184TIP3    H130495   3.774   0.514   3.287
10184TIP3    H230496   3.628   0.473   3.284
10185TIP3   OH230497   5.013   0.859   4.078
10185TIP3    H130498   4.983   0.802   4.007
10185TIP3    H230499   5.067   0.802   4.133
10186TIP3   OH230500   6.969   4.185   1.106
10186TIP3    H130501   7.057   4.202   1.139
10186TIP3    H230502   6.920   4.264   1.127
10187TIP3   OH230503   1.754   6.687   3.816
10187TIP3    H130504   1.766   6.707   3.909
10187TIP3    H230505   1.825   6.734   3.772
10188TIP3   OH230506   1.461   6.242   0.423
10188TIP3    H130507   1.415   6.176   0.475
10188TIP3    H230508   1.547   6.249   0.464
10189TIP3   OH230509   0.651   3.393   2.847
10189TIP3    H130510   0.624   3.438   2.767
10189TIP3    H230511   0.596   3.431   2.915
10190TIP3   OH230512   0.702   2.715   3.139
10190TIP3    H130513   0.784   2.721   3.188
10190TIP3    H230514   0.722   2.752   3.054
10191TIP3   OH230515   8.271   4.246   1.473
10191TIP3    H130516   8.248   4.320   1.529
10191TIP3    H230517   8.199   4.184   1.483
10192TIP3   OH230518   2.385   6.372   3.687
10192TIP3    H130519   2.447   6.419   3.742
10192TIP3    H230520   2.353   6.437   3.625
10193TIP3   OH230521   1.550   5.890   6.728
10193TIP3    H130522   1.465   5.909   6.688
10193TIP3    H230523   1.614   5.929   6.668
10194TIP3   OH230524   5.492   2.498   3.227
10194TIP3    H130525   5.520   2.524   3.314
10194TIP3    H230526   5.528   2.566   3.169
10195TIP3   OH230527   5.983   4.893   2.658
10195TIP3    H130528   6.028   4.962   2.707
10195TIP3    H230529   5.979   4.819   2.718
10196TIP3   OH230530   7.933   4.395   1.518
10196TIP3    H130531   7.985   4.407   1.597
10196TIP3    H230532   7.843   4.388   1.550
10197TIP3   OH230533   6.503   6.057   5.971
10197TIP3    H130534   6.473   6.067   5.881
10197TIP3    H230535   6.598   6.068   5.967
10198TIP3   OH230536   2.467   1.791   3.371
10198TIP3    H130537   2.495   1.818   3.283
10198TIP3    H230538   2.469   1.871   3.423
10199TIP3   OH230539   3.290   6.778   0.283
10199TIP3    H130540   3.228   6.815   0.346
10199TIP3    H230541   3.372   6.770   0.331
10200TIP3   OH230542   4.858   7.693   3.003
10200TIP3    H130543   4.879   7.769   3.057
10200TIP3    H230544   4.844   7.728   2.915
10201TIP3   OH230545   2.021   0.891   6.328
10201TIP3    H130546   2.017   0.817   6.268
10201TIP3    H230547   2.044   0.966   6.272
10202TIP3   OH230548   0.399   1.251   5.921
10202TIP3    H130549   0.434   1.207   5.999
10202TIP3    H230550   0.327   1.195   5.893
10203TIP3   OH230551   2.159   5.967   4.898
10203TIP3    H130552   2.085   6.011   4.939
10203TIP3    H230553   2.236   6.007   4.938
10204TIP3   OH230554   6.429   4.122   4.234
10204TIP3    H130555   6.491   4.182   4.276
10204TIP3    H230556   6.458   4.118   4.143
10205TIP3   OH230557   6.860   6.277   2.517
10205TIP3    H130558   6.891   6.321   2.596
10205TIP3    H230559   6.901   6.324   2.445
10206TIP3   OH230560   3.010   0.753   0.447
10206TIP3    H130561   3.003   0.745   0.352
10206TIP3    H230562   2.920   0.752   0.479
10207TIP3   OH230563   3.522   2.552   2.931
10207TIP3    H130564   3.457   2.498   2.887
10207TIP3    H230565   3.578   2.490   2.977
10208TIP3   OH230566   6.273   2.138   0.639
10208TIP3    H130567   6.270   2.221   0.592
10208TIP3    H230568   6.241   2.159   0.727
10209TIP3   OH230569   6.632   3.810   3.909
10209TIP3    H130570   6.722   3.802   3.878
10209TIP3    H230571   6.580   3.765   3.842
10210TIP3   OH230572   7.197   1.788   3.213
10210TIP3    H130573   7.237   1.873   3.229
10210TIP3    H230574   7.165   1.759   3.298
10211TIP3   OH230575   1.583   0.909   3.454
10211TIP3    H130576   1.553   0.880   3.368
10211TIP3    H230577   1.673   0.878   3.461
10212TIP3   OH230578   6.264   7.064   6.581
10212TIP3    H130579   6.343   7.117   6.579
10212TIP3    H230580   6.201   7.117   6.630
10213TIP3   OH230581   6.299   6.326   4.045
10213TIP3    H130582   6.378   6.349   3.995
10213TIP3    H230583   6.241   6.287   3.980
10214TIP3   OH230584   4.864   3.639   0.598
10214TIP3    H130585   4.872   3.543   0.598
10214TIP3    H230586   4.932   3.669   0.658
10215TIP3   OH230587   6.597   4.451   4.826
10215TIP3    H130588   6.600   4.368   4.779
10215TIP3    H230589   6.508   4.484   4.811
10216TIP3   OH230590   0.152   2.756   0.549
10216TIP3    H130591   0.223   2.770   0.612
10216TIP3    H230592   0.196   2.751   0.464
10217TIP3   OH230593   1.525   1.813   6.448
10217TIP3    H130594   1.491   1.801   6.537
10217TIP3    H230595   1.512   1.906   6.430
10218TIP3   OH230596   5.462   1.151   4.321
10218TIP3    H130597   5.385   1.168   4.265
10218TIP3    H230598   5.528   1.118   4.260
10219TIP3   OH230599   2.993   0.044   1.924
10219TIP3    H130600   3.040   0.030   2.006
10219TIP3    H230601   3.059   0.079   1.864
10220TIP3   OH230602   6.748   7.825   5.045
10220TIP3    H130603   6.828   7.796   5.003
10220TIP3    H230604   6.716   7.748   5.092
10221TIP3   OH230605   5.206   5.437   4.413
10221TIP3    H130606   5.262   5.510   4.386
10221TIP3    H230607   5.120   5.457   4.376
10222TIP3   OH230608   2.161   0.527   6.684
10222TIP3    H130609   2.254   0.506   6.691
10222TIP3    H230610   2.158   0.607   6.632
10223TIP3   OH230611   5.954   2.420   0.215
10223TIP3    H130612   5.997   2.363   0.278
10223TIP3    H230613   5.980   2.508   0.240
10224TIP3   OH230614   5.997   2.729   0.180
10224TIP3    H130615   6.028   2.755   0.093
10224TIP3    H230616   6.073   2.688   0.221
10225TIP3   OH230617   4.688   3.045   5.008
10225TIP3    H130618   4.757   3.005   5.061
10225TIP3    H230619   4.616   3.059   5.069
10226TIP3   OH230620   2.115   7.528   4.535
10226TIP3    H130621   2.209   7.533   4.516
10226TIP3    H230622   2.078   7.603   4.489
10227TIP3   OH230623   6.811   6.891   3.735
10227TIP3    H130624   6.829   6.797   3.728
10227TIP3    H230625   6.715   6.897   3.732
10228TIP3   OH230626   4.197   1.880   3.747
10228TIP3    H130627   4.246   1.962   3.750
10228TIP3    H230628   4.239   1.824   3.812
10229TIP3   OH230629   7.326   0.258   3.948
10229TIP3    H130630   7.388   0.198   3.988
10229TIP3    H230631   7.310   0.324   4.016
10230TIP3   OH230632   5.450   2.737   3.733
10230TIP3    H130633   5.468   2.651   3.771
10230TIP3    H230634   5.356   2.734   3.712
10231TIP3   OH230635   1.126   4.173   6.407
10231TIP3    H130636   1.113   4.107   6.475
10231TIP3    H230637   1.179   4.129   6.340
10232TIP3   OH230638   2.751   1.047   3.541
10232TIP3    H130639   2.761   1.007   3.627
10232TIP3    H230640   2.708   1.131   3.559
10233TIP3   OH230641   1.009   4.713   6.508
10233TIP3    H130642   1.046   4.674   6.429
10233TIP3    H230643   1.054   4.798   6.516
10234TIP3   OH230644   2.486   0.811   6.717
10234TIP3    H130645   2.558   0.838   6.660
10234TIP3    H230646   2.413   0.868   6.692
10235TIP3   OH230647   2.298   5.690   0.447
10235TIP3    H130648   2.288   5.651   0.360
10235TIP3    H230649   2.365   5.758   0.435
10236TIP3   OH230650   1.917   2.126   2.195
10236TIP3    H130651   1.930   2.075   2.115
10236TIP3    H230652   1.985   2.094   2.255
10237TIP3   OH230653   5.163   3.298   2.718
10237TIP3    H130654   5.115   3.371   2.677
10237TIP3    H230655   5.190   3.332   2.803
10238TIP3   OH230656   5.700   3.895   5.921
10238TIP3    H130657   5.686   3.841   5.843
10238TIP3    H230658   5.791   3.924   5.914
10239TIP3   OH230659   2.084   7.198   5.367
10239TIP3    H130660   2.100   7.209   5.461
10239TIP3    H230661   2.100   7.285   5.329
10240TIP3   OH230662   6.776   4.311   5.770
10240TIP3    H130663   6.825   4.351   5.698
10240TIP3    H230664   6.842   4.295   5.838
10241TIP3   OH230665   2.389   4.049   2.207
10241TIP3    H130666   2.322   4.116   2.219
10241TIP3    H230667   2.445   4.083   2.138
10242TIP3   OH230668   0.096   5.346   2.093
10242TIP3    H130669   0.002   5.365   2.097
10242TIP3    H230670   0.130   5.407   2.027
10243TIP3   OH230671   0.539   3.661   6.641
10243TIP3    H130672   0.495   3.746   6.644
10243TIP3    H230673   0.632   3.682   6.648
10244TIP3   OH230674   0.073   7.132   6.309
10244TIP3    H130675   0.071   7.118   6.404
10244TIP3    H230676   0.158   7.172   6.293
10245TIP3   OH230677   1.912   5.484   0.631
10245TIP3    H130678   1.975   5.547   0.667
10245TIP3    H230679   1.964   5.423   0.579
10246TIP3   OH230680   4.307   6.736   4.205
10246TIP3    H130681   4.254   6.660   4.182
10246TIP3    H230682   4.289   6.800   4.136
10247TIP3   OH230683   2.426   2.041   3.472
10247TIP3    H130684   2.458   2.072   3.388
10247TIP3    H230685   2.342   2.086   3.484
10248TIP3   OH230686   4.265   7.469   0.679
10248TIP3    H130687   4.188   7.520   0.703
10248TIP3    H230688   4.259   7.461   0.584
10249TIP3   OH230689   1.802   0.452   4.308
10249TIP3    H130690   1.779   0.516   4.375
10249TIP3    H230691   1.751   0.374   4.330
10250TIP3   OH230692   6.270   0.249   2.820
10250TIP3    H130693   6.244   0.328   2.868
10250TIP3    H230694   6.234   0.262   2.732
10251TIP3   OH230695   3.485   6.971   5.194
10251TIP3    H130696   3.443   6.899   5.241
10251TIP3    H230697   3.430   6.984   5.116
10252TIP3   OH230698   3.730   4.037   2.518
10252TIP3    H130699   3.761   4.051   2.607
10252TIP3    H230700   3.809   4.026   2.466
10253TIP3   OH230701   3.494   7.274   0.915
10253TIP3    H130702   3.553   7.310   0.981
10253TIP3    H230703   3.517   7.319   0.834
10254TIP3   OH230704   5.392   2.849   0.329
10254TIP3    H130705   5.370   2.759   0.307
10254TIP3    H230706   5.369   2.857   0.422
10255TIP3   OH230707   6.755   3.141   3.543
10255TIP3    H130708   6.733   3.234   3.530
10255TIP3    H230709   6.841   3.142   3.583
10256TIP3   OH230710   3.877   2.562   1.793
10256TIP3    H130711   3.945   2.622   1.762
10256TIP3    H230712   3.888   2.484   1.738
10257TIP3   OH230713   1.586   1.232   1.458
10257TIP3    H130714   1.643   1.244   1.382
10257TIP3    H230715   1.501   1.266   1.430
10258TIP3   OH230716   3.006   0.806   6.081
10258TIP3    H130717   2.978   0.874   6.143
10258TIP3    H230718   3.074   0.758   6.128
10259TIP3   OH230719   0.384   7.484   4.087
10259TIP3    H130720   0.324   7.552   4.119
10259TIP3    H230721   0.332   7.436   4.022
10260TIP3   OH230722   1.178   2.350   3.564
10260TIP3    H130723   1.181   2.333   3.659
10260TIP3    H230724   1.120   2.426   3.555
10261TIP3   OH230725   4.509   7.630   6.606
10261TIP3    H130726   4.422   7.670   6.602
10261TIP3    H230727   4.520   7.588   6.520
10262TIP3   OH230728   1.666   0.792   2.958
10262TIP3    H130729   1.669   0.871   2.903
10262TIP3    H230730   1.730   0.809   3.027
10263TIP3   OH230731   1.375   0.161   0.295
10263TIP3    H130732   1.407   0.233   0.348
10263TIP3    H230733   1.454   0.121   0.258
10264TIP3   OH230734   3.276   5.242   6.636
10264TIP3    H130735   3.306   5.295   6.710
10264TIP3    H230736   3.222   5.302   6.585
10265TIP3   OH230737   1.511   1.616   0.821
10265TIP3    H130738   1.546   1.647   0.737
10265TIP3    H230739   1.565   1.659   0.887
10266TIP3   OH230740   5.133   7.063   0.363
10266TIP3    H130741   5.060   7.044   0.422
10266TIP3    H230742   5.134   7.158   0.356
10267TIP3   OH230743   2.284   3.611   2.051
10267TIP3    H130744   2.193   3.640   2.054
10267TIP3    H230745   2.283   3.537   1.990
10268TIP3   OH230746   6.069   0.086   3.588
10268TIP3    H130747   6.021   0.018   3.541
10268TIP3    H230748   6.144   0.041   3.627
10269TIP3   OH230749   7.191   7.684   1.954
10269TIP3    H130750   7.230   7.767   1.981
10269TIP3    H230751   7.115   7.673   2.011
10270TIP3   OH230752   2.593   5.240   3.209
10270TIP3    H130753   2.650   5.166   3.187
10270TIP3    H230754   2.504   5.205   3.202
10271TIP3   OH230755   1.191   6.839   3.082
10271TIP3    H130756   1.241   6.772   3.036
10271TIP3    H230757   1.131   6.790   3.137
10272TIP3   OH230758   7.068   2.660   4.321
10272TIP3    H130759   7.095   2.657   4.413
10272TIP3    H230760   7.125   2.725   4.281
10273TIP3   OH230761   4.745   5.927   2.625
10273TIP3    H130762   4.799   5.865   2.672
10273TIP3    H230763   4.763   6.012   2.666
10274TIP3   OH230764   3.265   3.392   5.602
10274TIP3    H130765   3.322   3.467   5.588
10274TIP3    H230766   3.324   3.323   5.634
10275TIP3   OH230767   1.785   0.669   6.565
10275TIP3    H130768   1.691   0.656   6.552
10275TIP3    H230769   1.826   0.616   6.497
10276TIP3   OH230770   1.036   2.411   5.428
10276TIP3    H130771   1.116   2.418   5.480
10276TIP3    H230772   0.985   2.342   5.470
10277TIP3   OH230773   4.308   2.407   4.095
10277TIP3    H130774   4.312   2.426   4.001
10277TIP3    H230775   4.231   2.351   4.105
10278TIP3   OH230776   2.356   0.222   2.771
10278TIP3    H130777   2.371   0.308   2.809
10278TIP3    H230778   2.362   0.236   2.676
10279TIP3   OH230779   8.152   4.678   1.695
10279TIP3    H130780   8.089   4.716   1.635
10279TIP3    H230781   8.130   4.585   1.697
10280TIP3   OH230782   5.606   6.933   0.775
10280TIP3    H130783   5.593   6.848   0.817
10280TIP3    H230784   5.541   6.990   0.815
10281TIP3   OH230785   2.451   1.772   4.726
10281TIP3    H130786   2.440   1.704   4.793
10281TIP3    H230787   2.545   1.789   4.725
10282TIP3   OH230788   2.839   2.347   2.927
10282TIP3    H130789   2.836   2.274   2.866
10282TIP3    H230790   2.789   2.317   3.003
10283TIP3   OH230791   6.308   2.690   4.050
10283TIP3    H130792   6.378   2.746   4.014
10283TIP3    H230793   6.308   2.613   3.993
10284TIP3   OH230794   6.876   1.719   5.935
10284TIP3    H130795   6.948   1.767   5.894
10284TIP3    H230796   6.820   1.694   5.861
10285TIP3   OH230797   4.619   7.179   2.423
10285TIP3    H130798   4.598   7.089   2.449
10285TIP3    H230799   4.537   7.213   2.386
10286TIP3   OH230800   3.373   7.316   0.003
10286TIP3    H130801   3.292   7.360  -0.021
10286TIP3    H230802   3.406   7.365   0.079
10287TIP3   OH230803   1.679   0.620   4.106
10287TIP3    H130804   1.604   0.617   4.166
10287TIP3    H230805   1.751   0.582   4.156
10288TIP3   OH230806   7.182   7.351   3.272
10288TIP3    H130807   7.120   7.297   3.222
10288TIP3    H230808   7.249   7.376   3.207
10289TIP3   OH230809   6.960   4.954   5.563
10289TIP3    H130810   7.028   5.021   5.565
10289TIP3    H230811   6.956   4.921   5.653
10290TIP3   OH230812   7.615   5.432   1.172
10290TIP3    H130813   7.551   5.451   1.241
10290TIP3    H230814   7.694   5.403   1.220
10291TIP3   OH230815   2.911   4.957   0.616
10291TIP3    H130816   2.914   5.045   0.655
10291TIP3    H230817   2.954   4.967   0.531
10292TIP3   OH230818   0.559   3.385   5.760
10292TIP3    H130819   0.493   3.320   5.786
10292TIP3    H230820   0.622   3.385   5.831
10293TIP3   OH230821   6.232   6.764   3.590
10293TIP3    H130822   6.267   6.725   3.671
10293TIP3    H230823   6.248   6.698   3.523
10294TIP3   OH230824   7.804   5.710   2.732
10294TIP3    H130825   7.887   5.668   2.710
10294TIP3    H230826   7.742   5.638   2.740
10295TIP3   OH230827   6.204   3.602   3.324
10295TIP3    H130828   6.217   3.584   3.231
10295TIP3    H230829   6.166   3.690   3.327
10296TIP3   OH230830   3.439   5.431   5.428
10296TIP3    H130831   3.499   5.409   5.499
10296TIP3    H230832   3.419   5.347   5.386
10297TIP3   OH230833   8.060   0.719   2.428
10297TIP3    H130834   8.127   0.755   2.486
10297TIP3    H230835   8.052   0.783   2.357
10298TIP3   OH230836   4.854   0.360   2.430
10298TIP3    H130837   4.869   0.395   2.342
10298TIP3    H230838   4.934   0.382   2.478
10299TIP3   OH230839   6.949   0.882   1.767
10299TIP3    H130840   6.894   0.834   1.829
10299TIP3    H230841   6.889   0.940   1.720
10300TIP3   OH230842   2.782   4.364   4.483
10300TIP3    H130843   2.735   4.286   4.512
10300TIP3    H230844   2.755   4.432   4.544
10301TIP3   OH230845   6.844   5.364   6.441
10301TIP3    H130846   6.860   5.279   6.480
10301TIP3    H230847   6.868   5.427   6.509
10302TIP3   OH230848   7.138   3.936   2.417
10302TIP3    H130849   7.200   3.999   2.455
10302TIP3    H230850   7.157   3.937   2.323
10303TIP3   OH230851   8.042   1.147   6.782
10303TIP3    H130852   8.006   1.186   6.862
10303TIP3    H230853   7.992   1.067   6.769
10304TIP3   OH230854   7.976   5.953   4.106
10304TIP3    H130855   8.034   6.027   4.090
10304TIP3    H230856   7.939   5.969   4.192
10305TIP3   OH230857   7.221   4.216   0.456
10305TIP3    H130858   7.304   4.236   0.413
10305TIP3    H230859   7.226   4.123   0.476
10306TIP3   OH230860   2.412   7.332   2.670
10306TIP3    H130861   2.393   7.270   2.599
10306TIP3    H230862   2.336   7.391   2.670
10307TIP3   OH230863   5.411   1.710   2.043
10307TIP3    H130864   5.411   1.620   2.074
10307TIP3    H230865   5.491   1.748   2.079
10308TIP3   OH230866   6.990   6.103   2.171
10308TIP3    H130867   6.919   6.063   2.221
10308TIP3    H230868   6.951   6.183   2.135
10309TIP3   OH230869   0.978   1.398   5.739
10309TIP3    H130870   0.963   1.329   5.804
10309TIP3    H230871   0.981   1.479   5.789
10310TIP3   OH230872   0.497   3.251   4.699
10310TIP3    H130873   0.581   3.295   4.687
10310TIP3    H230874   0.432   3.320   4.686
10311TIP3   OH230875   7.241   3.196   1.407
10311TIP3    H130876   7.229   3.133   1.337
10311TIP3    H230877   7.323   3.170   1.450
10312TIP3   OH230878   6.173   2.600   1.369
10312TIP3    H130879   6.096   2.656   1.385
10312TIP3    H230880   6.246   2.650   1.404
10313TIP3   OH230881   5.762   5.357   4.608
10313TIP3    H130882   5.693   5.417   4.637
10313TIP3    H230883   5.798   5.399   4.529
10314TIP3   OH230884   3.351   1.083   0.698
10314TIP3    H130885   3.348   1.010   0.759
10314TIP3    H230886   3.271   1.073   0.645
10315TIP3   OH230887   2.507   2.752   2.628
10315TIP3    H130888   2.562   2.809   2.682
10315TIP3    H230889   2.568   2.695   2.583
10316TIP3   OH230890   2.585   0.526   3.669
10316TIP3    H130891   2.549   0.438   3.681
10316TIP3    H230892   2.541   0.580   3.735
10317TIP3   OH230893   2.116   4.785   2.665
10317TIP3    H130894   2.131   4.780   2.759
10317TIP3    H230895   2.202   4.770   2.626
10318TIP3   OH230896   4.476   0.232   1.295
10318TIP3    H130897   4.546   0.180   1.334
10318TIP3    H230898   4.483   0.214   1.201
10319TIP3   OH230899   5.405   3.312   0.141
10319TIP3    H130900   5.315   3.339   0.125
10319TIP3    H230901   5.399   3.217   0.158
10320TIP3   OH230902   6.719   6.619   2.451
10320TIP3    H130903   6.707   6.585   2.539
10320TIP3    H230904   6.761   6.547   2.403
10321TIP3   OH230905   6.098   2.576   2.108
10321TIP3    H130906   6.123   2.532   2.189
10321TIP3    H230907   6.039   2.515   2.064
10322TIP3   OH230908   7.242   4.592   3.683
10322TIP3    H130909   7.261   4.550   3.600
10322TIP3    H230910   7.169   4.542   3.719
10323TIP3   OH230911   0.743   0.409   6.144
10323TIP3    H130912   0.838   0.405   6.155
10323TIP3    H230913   0.721   0.327   6.101
10324TIP3   OH230914   0.589   0.326   3.736
10324TIP3    H130915   0.656   0.267   3.769
10324TIP3    H230916   0.621   0.352   3.649
10325TIP3   OH230917   4.288   1.662   3.915
10325TIP3    H130918   4.359   1.633   3.972
10325TIP3    H230919   4.208   1.641   3.963
10326TIP3   OH230920   2.581   2.241   0.639
10326TIP3    H130921   2.589   2.282   0.553
10326TIP3    H230922   2.641   2.290   0.695
10327TIP3   OH230923   6.308   6.524   5.603
10327TIP3    H130924   6.331   6.522   5.511
10327TIP3    H230925   6.282   6.434   5.624
10328TIP3   OH230926   3.527   0.713   2.247
10328TIP3    H130927   3.447   0.745   2.288
10328TIP3    H230928   3.595   0.774   2.276
10329TIP3   OH230929   7.118   7.405   4.747
10329TIP3    H130930   7.129   7.317   4.711
10329TIP3    H230931   7.177   7.408   4.822
10330TIP3   OH230932   8.135   2.146   5.285
10330TIP3    H130933   8.106   2.237   5.295
10330TIP3    H230934   8.082   2.097   5.348
10331TIP3   OH230935   7.834   7.621   1.971
10331TIP3    H130936   7.766   7.626   2.038
10331TIP3    H230937   7.830   7.531   1.939
10332TIP3   OH230938   1.866   1.115   3.074
10332TIP3    H130939   1.932   1.175   3.041
10332TIP3    H230940   1.821   1.163   3.143
10333TIP3   OH230941   2.478   5.892   1.680
10333TIP3    H130942   2.484   5.890   1.776
10333TIP3    H230943   2.539   5.824   1.651
10334TIP3   OH230944   2.652   5.626   4.155
10334TIP3    H130945   2.638   5.719   4.167
10334TIP3    H230946   2.654   5.590   4.244
10335TIP3   OH230947   2.360   5.989   2.361
10335TIP3    H130948   2.301   6.025   2.427
10335TIP3    H230949   2.304   5.933   2.307
10336TIP3   OH230950   4.041   3.285   2.850
10336TIP3    H130951   3.993   3.330   2.781
10336TIP3    H230952   4.126   3.329   2.852
10337TIP3   OH230953   2.094   4.213   2.986
10337TIP3    H130954   2.183   4.248   2.988
10337TIP3    H230955   2.051   4.252   3.061
10338TIP3   OH230956   3.154   1.063   4.602
10338TIP3    H130957   3.155   0.968   4.614
10338TIP3    H230958   3.093   1.094   4.669
10339TIP3   OH230959   4.996   7.497   6.499
10339TIP3    H130960   5.044   7.456   6.427
10339TIP3    H230961   4.904   7.490   6.475
10340TIP3   OH230962   7.758   7.387   0.035
10340TIP3    H130963   7.852   7.405   0.036
10340TIP3    H230964   7.747   7.318   0.101
10341TIP3   OH230965   0.862   7.583   0.053
10341TIP3    H130966   0.901   7.496   0.044
10341TIP3    H230967   0.904   7.620   0.131
10342TIP3   OH230968   1.678   2.243   3.729
10342TIP3    H130969   1.770   2.224   3.749
10342TIP3    H230970   1.655   2.314   3.789
10343TIP3   OH230971   3.050   4.438   3.827
10343TIP3    H130972   3.009   4.497   3.763
10343TIP3    H230973   3.140   4.469   3.834
10344TIP3   OH230974   7.533   1.656   0.129
10344TIP3    H130975   7.483   1.604   0.066
10344TIP3    H230976   7.467   1.700   0.182
10345TIP3   OH230977   3.175   1.203   4.103
10345TIP3    H130978   3.101   1.183   4.160
10345TIP3    H230979   3.159   1.149   4.025
10346TIP3   OH230980   4.518   3.003   5.230
10346TIP3    H130981   4.475   3.089   5.232
10346TIP3    H230982   4.460   2.947   5.282
10347TIP3   OH230983   6.754   1.236   3.579
10347TIP3    H130984   6.795   1.322   3.571
10347TIP3    H230985   6.789   1.200   3.661
10348TIP3   OH230986   6.523   4.353   1.422
10348TIP3    H130987   6.521   4.258   1.409
10348TIP3    H230988   6.432   4.376   1.443
10349TIP3   OH230989   1.195   4.657   0.438
10349TIP3    H130990   1.210   4.608   0.357
10349TIP3    H230991   1.238   4.606   0.506
10350TIP3   OH230992   0.193   6.213   4.839
10350TIP3    H130993   0.150   6.138   4.797
10350TIP3    H230994   0.143   6.227   4.920
10351TIP3   OH230995   8.239   2.670   1.858
10351TIP3    H130996   8.266   2.592   1.810
10351TIP3    H230997   8.145   2.677   1.840
10352TIP3   OH230998   2.582   5.343  -0.001
10352TIP3    H130999   2.540   5.424   0.027
10352TIP3    H231000   2.512   5.278  -0.002
10353TIP3   OH231001   6.321   3.862   4.228
10353TIP3    H131002   6.386   3.795   4.207
10353TIP3    H231003   6.370   3.945   4.221
10354TIP3   OH231004   6.458   6.933   6.287
10354TIP3    H131005   6.513   6.869   6.241
10354TIP3    H231006   6.369   6.904   6.268
10355TIP3   OH231007   6.528   0.760   6.005
10355TIP3    H131008   6.523   0.673   6.045
10355TIP3    H231009   6.614   0.763   5.963
10356TIP3   OH231010   1.726   5.540   4.115
10356TIP3    H131011   1.786   5.610   4.087
10356TIP3    H231012   1.761   5.461   4.075
10357TIP3   OH231013   2.470   0.959   5.871
10357TIP3    H131014   2.461   1.051   5.845
10357TIP3    H231015   2.379   0.929   5.881
10358TIP3   OH231016   4.489   5.566   2.964
10358TIP3    H131017   4.529   5.506   3.026
10358TIP3    H231018   4.476   5.513   2.885
10359TIP3   OH231019   2.568   0.614   2.110
10359TIP3    H131020   2.578   0.529   2.067
10359TIP3    H231021   2.542   0.592   2.200
10360TIP3   OH231022   0.070   6.400   1.454
10360TIP3    H131023   0.125   6.463   1.503
10360TIP3    H231024  -0.004   6.384   1.512
10361TIP3   OH231025   6.501   1.553   4.140
10361TIP3    H131026   6.575   1.550   4.078
10361TIP3    H231027   6.463   1.465   4.136
10362TIP3   OH231028   6.418   6.147   5.720
10362TIP3    H131029   6.325   6.170   5.716
10362TIP3    H231030   6.443   6.131   5.629
10363TIP3   OH231031   1.755   3.544   4.363
10363TIP3    H131032   1.684   3.479   4.366
10363TIP3    H231033   1.711   3.628   4.381
10364TIP3   OH231034   5.438   5.736   1.392
10364TIP3    H131035   5.466   5.808   1.449
10364TIP3    H231036   5.447   5.771   1.303
10365TIP3   OH231037   7.728   6.557   1.040
10365TIP3    H131038   7.669   6.593   0.974
10365TIP3    H231039   7.707   6.463   1.042
10366TIP3   OH231040   4.323   0.669   3.562
10366TIP3    H131041   4.278   0.744   3.601
10366TIP3    H231042   4.401   0.658   3.617
10367TIP3   OH231043   3.698   3.830   3.030
10367TIP3    H131044   3.622   3.785   3.066
10367TIP3    H231045   3.745   3.864   3.106
10368TIP3   OH231046   7.495   4.896   2.686
10368TIP3    H131047   7.528   4.986   2.684
10368TIP3    H231048   7.555   4.846   2.631
10369TIP3   OH231049   2.603   6.240   3.053
10369TIP3    H131050   2.539   6.222   2.983
10369TIP3    H231051   2.688   6.236   3.009
10370TIP3   OH231052   1.171   4.740   5.568
10370TIP3    H131053   1.203   4.696   5.646
10370TIP3    H231054   1.251   4.768   5.522
10371TIP3   OH231055   8.175   1.617   0.725
10371TIP3    H131056   8.122   1.538   0.715
10371TIP3    H231057   8.113   1.682   0.760
10372TIP3   OH231058   2.521   7.777   4.046
10372TIP3    H131059   2.561   7.729   3.974
10372TIP3    H231060   2.590   7.836   4.077
10373TIP3   OH231061   0.791   1.891   1.927
10373TIP3    H131062   0.748   1.957   1.872
10373TIP3    H231063   0.720   1.832   1.952
10374TIP3   OH231064   2.018   6.699   1.286
10374TIP3    H131065   1.969   6.778   1.308
10374TIP3    H231066   2.094   6.701   1.344
10375TIP3   OH231067   5.712   6.185   5.856
10375TIP3    H131068   5.697   6.108   5.911
10375TIP3    H231069   5.707   6.259   5.917
10376TIP3   OH231070   4.364   2.879   1.782
10376TIP3    H131071   4.415   2.799   1.772
10376TIP3    H231072   4.426   2.950   1.766
10377TIP3   OH231073   5.129   6.899   6.525
10377TIP3    H131074   5.206   6.955   6.518
10377TIP3    H231075   5.098   6.912   6.615
10378TIP3   OH231076   1.448   1.920   3.401
10378TIP3    H131077   1.387   1.856   3.364
10378TIP3    H231078   1.416   2.005   3.369
10379TIP3   OH231079   3.577   5.111   5.484
10379TIP3    H131080   3.488   5.082   5.468
10379TIP3    H231081   3.570   5.173   5.557
10380TIP3   OH231082   5.197   4.895   2.816
10380TIP3    H131083   5.261   4.908   2.885
10380TIP3    H231084   5.231   4.823   2.764
10381TIP3   OH231085   0.123   6.957   2.071
10381TIP3    H131086   0.099   7.044   2.104
10381TIP3    H231087   0.082   6.896   2.133
10382TIP3   OH231088   5.561   4.426   5.840
10382TIP3    H131089   5.504   4.358   5.876
10382TIP3    H231090   5.513   4.461   5.766
10383TIP3   OH231091   4.799   6.553   2.489
10383TIP3    H131092   4.717   6.572   2.443
10383TIP3    H231093   4.808   6.458   2.485
10384TIP3   OH231094   4.961   5.880   6.535
10384TIP3    H131095   4.897   5.915   6.473
10384TIP3    H231096   4.960   5.785   6.519
10385TIP3   OH231097   2.496   7.685   4.311
10385TIP3    H131098   2.571   7.745   4.311
10385TIP3    H231099   2.472   7.676   4.219
10386TIP3   OH231100   8.222   0.022   2.941
10386TIP3    H131101   8.236   0.098   2.884
10386TIP3    H231102   8.142   0.044   2.990
10387TIP3   OH231103   0.629   0.699   3.562
10387TIP3    H131104   0.649   0.725   3.472
10387TIP3    H231105   0.657   0.607   3.566
10388TIP3   OH231106   5.291   7.280   3.956
10388TIP3    H131107   5.235   7.337   4.009
10388TIP3    H231108   5.337   7.339   3.897
10389TIP3   OH231109   6.647   0.921   3.866
10389TIP3    H131110   6.589   0.964   3.803
10389TIP3    H231111   6.593   0.910   3.944
10390TIP3   OH231112   5.520   0.210   3.923
10390TIP3    H131113   5.587   0.149   3.893
10390TIP3    H231114   5.544   0.229   4.014
10391TIP3   OH231115   2.996   7.568   3.039
10391TIP3    H131116   2.994   7.621   2.960
10391TIP3    H231117   3.081   7.524   3.037
10392TIP3   OH231118   0.744   2.113   2.143
10392TIP3    H131119   0.754   2.027   2.183
10392TIP3    H231120   0.670   2.104   2.083
10393TIP3   OH231121   7.193   6.736   2.502
10393TIP3    H131122   7.213   6.829   2.512
10393TIP3    H231123   7.109   6.734   2.456
10394TIP3   OH231124   1.152   5.978   5.036
10394TIP3    H131125   1.145   6.059   4.985
10394TIP3    H231126   1.092   5.917   4.993
10395TIP3   OH231127   1.945   3.523   3.278
10395TIP3    H131128   1.910   3.596   3.328
10395TIP3    H231129   1.960   3.560   3.190
10396TIP3   OH231130   5.752   3.276   5.625
10396TIP3    H131131   5.750   3.292   5.530
10396TIP3    H231132   5.757   3.181   5.633
10397TIP3   OH231133   3.352   0.373   1.954
10397TIP3    H131134   3.343   0.444   2.017
10397TIP3    H231135   3.392   0.302   2.004
10398TIP3   OH231136   6.249   2.389   4.410
10398TIP3    H131137   6.319   2.377   4.345
10398TIP3    H231138   6.233   2.483   4.410
10399TIP3   OH231139   2.810   2.131   4.151
10399TIP3    H131140   2.873   2.200   4.126
10399TIP3    H231141   2.793   2.084   4.069
10400TIP3   OH231142   2.900   1.541   0.076
10400TIP3    H131143   2.874   1.566   0.165
10400TIP3    H231144   2.818   1.526   0.030
10401TIP3   OH231145   4.365   4.633   2.757
10401TIP3    H131146   4.429   4.704   2.769
10401TIP3    H231147   4.290   4.659   2.810
10402TIP3   OH231148   1.878   1.845   2.448
10402TIP3    H131149   1.954   1.802   2.407
10402TIP3    H231150   1.917   1.915   2.501
10403TIP3   OH231151   8.141   6.594   4.084
10403TIP3    H131152   8.226   6.636   4.088
10403TIP3    H231153   8.090   6.636   4.154
10404TIP3   OH231154   2.800   6.787   2.301
10404TIP3    H131155   2.829   6.698   2.320
10404TIP3    H231156   2.778   6.823   2.387
10405TIP3   OH231157   6.913   4.616   3.205
10405TIP3    H131158   6.842   4.552   3.203
10405TIP3    H231159   6.871   4.698   3.230
10406TIP3   OH231160   7.662   1.615   1.403
10406TIP3    H131161   7.581   1.612   1.454
10406TIP3    H231162   7.724   1.563   1.454
10407TIP3   OH231163   5.031   6.579   1.416
10407TIP3    H131164   5.068   6.595   1.330
10407TIP3    H231165   4.955   6.638   1.421
10408TIP3   OH231166   1.684   5.255   0.802
10408TIP3    H131167   1.615   5.279   0.740
10408TIP3    H231168   1.669   5.311   0.877
10409TIP3   OH231169   6.380   6.329   4.812
10409TIP3    H131170   6.324   6.349   4.887
10409TIP3    H231171   6.322   6.288   4.748
10410TIP3   OH231172   5.770   6.575   4.259
10410TIP3    H131173   5.793   6.512   4.191
10410TIP3    H231174   5.750   6.521   4.336
10411TIP3   OH231175   2.688   1.270   0.910
10411TIP3    H131176   2.621   1.205   0.888
10411TIP3    H231177   2.769   1.234   0.874
10412TIP3   OH231178   5.347   1.615   4.337
10412TIP3    H131179   5.282   1.545   4.330
10412TIP3    H231180   5.297   1.692   4.365
10413TIP3   OH231181   6.929   3.335   4.700
10413TIP3    H131182   6.871   3.387   4.755
10413TIP3    H231183   6.871   3.276   4.652
10414TIP3   OH231184   1.376   5.254   2.981
10414TIP3    H131185   1.296   5.226   3.025
10414TIP3    H231186   1.347   5.283   2.894
10415TIP3   OH231187   4.688   2.386   5.399
10415TIP3    H131188   4.749   2.321   5.435
10415TIP3    H231189   4.662   2.438   5.475
10416TIP3   OH231190   4.703   2.022   2.041
10416TIP3    H131191   4.711   2.111   2.008
10416TIP3    H231192   4.609   2.003   2.037
10417TIP3   OH231193   0.908   1.967   6.722
10417TIP3    H131194   0.971   1.932   6.658
10417TIP3    H231195   0.944   1.941   6.807
10418TIP3   OH231196   6.126   4.121   0.534
10418TIP3    H131197   6.039   4.147   0.567
10418TIP3    H231198   6.111   4.037   0.492
10419TIP3   OH231199   6.260   1.010   2.883
10419TIP3    H131200   6.247   1.049   2.969
10419TIP3    H231201   6.183   1.036   2.833
10420TIP3   OH231202   7.409   0.199   2.960
10420TIP3    H131203   7.402   0.288   2.994
10420TIP3    H231204   7.455   0.208   2.877
10421TIP3   OH231205   6.928   7.631   1.347
10421TIP3    H131206   6.954   7.542   1.321
10421TIP3    H231207   6.851   7.650   1.293
10422TIP3   OH231208   4.463   0.763   2.038
10422TIP3    H131209   4.409   0.756   1.959
10422TIP3    H231210   4.418   0.828   2.092
10423TIP3   OH231211   8.027   2.605   4.153
10423TIP3    H131212   8.003   2.619   4.245
10423TIP3    H231213   7.955   2.554   4.117
10424TIP3   OH231214   4.148   7.046   6.214
10424TIP3    H131215   4.191   7.044   6.300
10424TIP3    H231216   4.218   7.063   6.152
10425TIP3   OH231217   5.184   6.762   6.144
10425TIP3    H131218   5.153   6.723   6.062
10425TIP3    H231219   5.249   6.699   6.177
10426TIP3   OH231220   1.319   2.603   1.001
10426TIP3    H131221   1.267   2.542   0.949
10426TIP3    H231222   1.401   2.558   1.017
10427TIP3   OH231223   6.760   1.800   4.208
10427TIP3    H131224   6.721   1.874   4.161
10427TIP3    H231225   6.787   1.836   4.292
10428TIP3   OH231226   3.498   5.881   3.293
10428TIP3    H131227   3.569   5.922   3.342
10428TIP3    H231228   3.533   5.797   3.264
10429TIP3   OH231229   0.311   0.765   2.210
10429TIP3    H131230   0.215   0.773   2.211
10429TIP3    H231231   0.339   0.820   2.137
10430TIP3   OH231232   0.468   4.630   0.463
10430TIP3    H131233   0.564   4.631   0.468
10430TIP3    H231234   0.449   4.606   0.373
10431TIP3   OH231235   1.842   6.376   2.335
10431TIP3    H131236   1.918   6.432   2.320
10431TIP3    H231237   1.839   6.364   2.430
10432TIP3   OH231238   4.690   2.265   1.926
10432TIP3    H131239   4.637   2.322   1.870
10432TIP3    H231240   4.777   2.304   1.926
10433TIP3   OH231241   3.813   5.221   6.729
10433TIP3    H131242   3.899   5.187   6.755
10433TIP3    H231243   3.779   5.157   6.667
10434TIP3   OH231244   5.896   7.048   6.718
10434TIP3    H131245   5.830   7.114   6.740
10434TIP3    H231246   5.887   6.982   6.786
10435TIP3   OH231247   0.408   2.048   6.388
10435TIP3    H131248   0.402   1.954   6.367
10435TIP3    H231249   0.426   2.050   6.482
10436TIP3   OH231250   3.570   2.193   0.153
10436TIP3    H131251   3.519   2.227   0.225
10436TIP3    H231252   3.586   2.101   0.175
10437TIP3   OH231253   0.747   2.382   3.021
10437TIP3    H131254   0.701   2.459   2.987
10437TIP3    H231255   0.678   2.321   3.046
10438TIP3   OH231256   6.537   4.059   3.986
10438TIP3    H131257   6.613   4.116   3.996
10438TIP3    H231258   6.573   3.976   3.954
10439TIP3   OH231259   7.816   6.323   5.129
10439TIP3    H131260   7.758   6.340   5.055
10439TIP3    H231261   7.779   6.244   5.170
10440TIP3   OH231262   6.773   2.091   0.180
10440TIP3    H131263   6.765   2.021   0.115
10440TIP3    H231264   6.682   2.114   0.201
10441TIP3   OH231265   0.783   4.145   6.701
10441TIP3    H131266   0.718   4.136   6.632
10441TIP3    H231267   0.753   4.220   6.753
10442TIP3   OH231268   0.144   3.244   3.589
10442TIP3    H131269   0.128   3.203   3.504
10442TIP3    H231270   0.179   3.174   3.644
10443TIP3   OH231271   6.761   2.871   5.438
10443TIP3    H131272   6.819   2.879   5.514
10443TIP3    H231273   6.731   2.780   5.441
10444TIP3   OH231274   0.729   2.978   4.994
10444TIP3    H131275   0.677   3.013   5.066
10444TIP3    H231276   0.775   3.054   4.959
10445TIP3   OH231277   3.752   5.526   0.769
10445TIP3    H131278   3.785   5.516   0.680
10445TIP3    H231279   3.830   5.546   0.821
10446TIP3   OH231280   3.805   0.902   3.633
10446TIP3    H131281   3.772   0.821   3.593
10446TIP3    H231282   3.900   0.899   3.618
10447TIP3   OH231283   6.859   1.992   1.966
10447TIP3    H131284   6.813   2.075   1.983
10447TIP3    H231285   6.875   1.955   2.052
10448TIP3   OH231286   2.338   1.366   0.535
10448TIP3    H131287   2.291   1.448   0.551
10448TIP3    H231288   2.375   1.377   0.447
10449TIP3   OH231289   0.426   6.472   3.215
10449TIP3    H131290   0.462   6.551   3.255
10449TIP3    H231291   0.502   6.425   3.180
10450TIP3   OH231292   2.262   1.137   4.926
10450TIP3    H131293   2.179   1.120   4.970
10450TIP3    H231294   2.243   1.211   4.868
10451TIP3   OH231295   0.373   1.095   3.071
10451TIP3    H131296   0.411   1.048   3.145
10451TIP3    H231297   0.429   1.072   2.997
10452TIP3   OH231298   7.995   5.678   5.129
10452TIP3    H131299   7.973   5.595   5.088
10452TIP3    H231300   7.977   5.664   5.222
10453TIP3   OH231301   3.126   7.084   2.905
10453TIP3    H131302   3.040   7.120   2.885
10453TIP3    H231303   3.180   7.107   2.829
10454TIP3   OH231304   1.686   0.509   1.036
10454TIP3    H131305   1.681   0.546   1.124
10454TIP3    H231306   1.596   0.492   1.011
10455TIP3   OH231307   0.161   2.613   6.483
10455TIP3    H131308   0.094   2.560   6.527
10455TIP3    H231309   0.182   2.563   6.404
10456TIP3   OH231310   3.248   6.803   3.054
10456TIP3    H131311   3.290   6.846   2.980
10456TIP3    H231312   3.214   6.874   3.107
10457TIP3   OH231313   3.713   4.353   5.468
10457TIP3    H131314   3.790   4.313   5.428
10457TIP3    H231315   3.747   4.401   5.543
10458TIP3   OH231316   3.706   3.226   3.318
10458TIP3    H131317   3.761   3.294   3.279
10458TIP3    H231318   3.617   3.250   3.293
10459TIP3   OH231319   2.172   7.627   5.544
10459TIP3    H131320   2.103   7.567   5.573
10459TIP3    H231321   2.126   7.707   5.519
10460TIP3   OH231322   1.374   0.107   3.085
10460TIP3    H131323   1.431   0.067   3.151
10460TIP3    H231324   1.401   0.065   3.003
10461TIP3   OH231325   3.900   4.997   0.291
10461TIP3    H131326   3.806   4.983   0.286
10461TIP3    H231327   3.936   4.939   0.224
10462TIP3   OH231328   7.823   1.310   5.456
10462TIP3    H131329   7.797   1.247   5.389
10462TIP3    H231330   7.751   1.309   5.519
10463TIP3   OH231331   7.994   0.559   4.246
10463TIP3    H131332   7.996   0.509   4.328
10463TIP3    H231333   8.076   0.538   4.202
10464TIP3   OH231334   4.196   6.535   1.414
10464TIP3    H131335   4.146   6.557   1.335
10464TIP3    H231336   4.252   6.611   1.429
10465TIP3   OH231337   0.854   2.114   3.355
10465TIP3    H131338   0.852   2.104   3.450
10465TIP3    H231339   0.833   2.027   3.321
10466TIP3   OH231340   4.418   3.627   3.103
10466TIP3    H131341   4.430   3.701   3.164
10466TIP3    H231342   4.502   3.618   3.060
10467TIP3   OH231343   7.629   1.084   0.921
10467TIP3    H131344   7.618   1.115   1.011
10467TIP3    H231345   7.585   1.000   0.918
10468TIP3   OH231346   5.751   3.623   0.624
10468TIP3    H131347   5.733   3.580   0.540
10468TIP3    H231348   5.779   3.553   0.682
10469TIP3   OH231349   5.704   5.124   6.540
10469TIP3    H131350   5.785   5.072   6.536
10469TIP3    H231351   5.708   5.180   6.462
10470TIP3   OH231352   5.070   4.512   0.966
10470TIP3    H131353   4.998   4.448   0.965
10470TIP3    H231354   5.096   4.516   1.058
10471TIP3   OH231355   4.620   4.028   2.663
10471TIP3    H131356   4.615   3.935   2.686
10471TIP3    H231357   4.529   4.058   2.661
10472TIP3   OH231358   1.192   5.056   2.299
10472TIP3    H131359   1.198   5.075   2.393
10472TIP3    H231360   1.098   5.042   2.284
10473TIP3   OH231361   1.945   2.886   5.067
10473TIP3    H131362   2.017   2.894   5.005
10473TIP3    H231363   1.921   2.976   5.088
10474TIP3   OH231364   6.627   4.662   5.662
10474TIP3    H131365   6.572   4.598   5.706
10474TIP3    H231366   6.672   4.613   5.594
10475TIP3   OH231367   1.039   7.774   1.666
10475TIP3    H131368   0.992   7.691   1.664
10475TIP3    H231369   1.114   7.762   1.607
10476TIP3   OH231370   7.931   2.254   0.262
10476TIP3    H131371   7.918   2.325   0.199
10476TIP3    H231372   7.848   2.206   0.260
10477TIP3   OH231373   4.333   3.530   0.746
10477TIP3    H131374   4.282   3.517   0.826
10477TIP3    H231375   4.424   3.521   0.774
10478TIP3   OH231376   4.810   2.653   1.759
10478TIP3    H131377   4.862   2.714   1.707
10478TIP3    H231378   4.874   2.593   1.797
10479TIP3   OH231379   1.064   3.821   3.397
10479TIP3    H131380   1.109   3.853   3.474
10479TIP3    H231381   0.996   3.886   3.379
10480TIP3   OH231382   3.013   4.167   2.298
10480TIP3    H131383   3.022   4.148   2.205
10480TIP3    H231384   3.101   4.158   2.333
10481TIP3   OH231385   1.164   6.057   5.696
10481TIP3    H131386   1.081   6.016   5.717
10481TIP3    H231387   1.229   5.987   5.706
10482TIP3   OH231388   2.688   7.234   6.100
10482TIP3    H131389   2.708   7.298   6.031
10482TIP3    H231390   2.630   7.281   6.160
10483TIP3   OH231391   7.446   1.548   6.628
10483TIP3    H131392   7.482   1.637   6.631
10483TIP3    H231393   7.440   1.528   6.534
10484TIP3   OH231394   4.166   5.070   6.584
10484TIP3    H131395   4.135   5.065   6.675
10484TIP3    H231396   4.188   5.162   6.572
10485TIP3   OH231397   6.182   7.161   1.661
10485TIP3    H131398   6.256   7.204   1.617
10485TIP3    H231399   6.106   7.214   1.636
10486TIP3   OH231400   8.214   5.795   6.396
10486TIP3    H131401   8.300   5.832   6.418
10486TIP3    H231402   8.233   5.727   6.331
10487TIP3   OH231403   0.289   4.946   0.602
10487TIP3    H131404   0.382   4.952   0.580
10487TIP3    H231405   0.254   5.033   0.582
10488TIP3   OH231406   5.738   6.172   3.908
10488TIP3    H131407   5.670   6.104   3.909
10488TIP3    H231408   5.702   6.241   3.853
10489TIP3   OH231409   4.010   6.755   4.347
10489TIP3    H131410   3.924   6.715   4.360
10489TIP3    H231411   4.015   6.770   4.252
10490TIP3   OH231412   3.775   5.202   1.875
10490TIP3    H131413   3.789   5.220   1.968
10490TIP3    H231414   3.863   5.204   1.837
10491TIP3   OH231415   0.695   1.923   0.031
10491TIP3    H131416   0.636   1.978   0.082
10491TIP3    H231417   0.775   1.918   0.085
10492TIP3   OH231418   3.190   2.795   1.259
10492TIP3    H131419   3.192   2.756   1.171
10492TIP3    H231420   3.273   2.841   1.266
10493TIP3   OH231421   5.133   6.266   0.973
10493TIP3    H131422   5.087   6.345   0.944
10493TIP3    H231423   5.068   6.216   1.022
10494TIP3   OH231424   5.770   7.720   2.409
10494TIP3    H131425   5.680   7.694   2.389
10494TIP3    H231426   5.815   7.720   2.324
10495TIP3   OH231427   7.487   5.214   5.170
10495TIP3    H131428   7.421   5.264   5.122
10495TIP3    H231429   7.482   5.126   5.132
10496TIP3   OH231430   6.805   0.978   4.120
10496TIP3    H131431   6.760   0.967   4.036
10496TIP3    H231432   6.734   0.977   4.185
10497TIP3   OH231433   7.519   4.987   5.029
10497TIP3    H131434   7.518   4.894   5.006
10497TIP3    H231435   7.584   5.026   4.971
10498TIP3   OH231436   6.231   7.444   5.195
10498TIP3    H131437   6.222   7.540   5.202
10498TIP3    H231438   6.313   7.424   5.239
10499TIP3   OH231439   2.874   6.406   1.787
10499TIP3    H131440   2.960   6.393   1.826
10499TIP3    H231441   2.881   6.367   1.700
10500TIP3   OH231442   7.494   6.258   2.020
10500TIP3    H131443   7.529   6.316   1.953
10500TIP3    H231444   7.399   6.268   2.015
10501TIP3   OH231445   5.266   2.948   2.895
10501TIP3    H131446   5.171   2.942   2.908
10501TIP3    H231447   5.279   2.921   2.804
10502TIP3   OH231448   2.016   3.693   0.617
10502TIP3    H131449   2.066   3.618   0.584
10502TIP3    H231450   2.033   3.762   0.553
10503TIP3   OH231451   4.345   5.761   3.651
10503TIP3    H131452   4.303   5.796   3.572
10503TIP3    H231453   4.439   5.775   3.636
10504TIP3   OH231454   3.893   2.536   3.508
10504TIP3    H131455   3.950   2.496   3.574
10504TIP3    H231456   3.822   2.576   3.558
10505TIP3   OH231457   5.805   6.910   3.043
10505TIP3    H131458   5.782   6.928   2.952
10505TIP3    H231459   5.722   6.893   3.087
10506TIP3   OH231460   7.548   5.909   3.911
10506TIP3    H131461   7.463   5.917   3.868
10506TIP3    H231462   7.604   5.972   3.865
10507TIP3   OH231463   3.639   2.086   1.578
10507TIP3    H131464   3.593   2.016   1.532
10507TIP3    H231465   3.584   2.106   1.653
10508TIP3   OH231466   4.002   7.445   2.418
10508TIP3    H131467   4.035   7.383   2.483
10508TIP3    H231468   4.036   7.413   2.335
10509TIP3   OH231469   7.987   5.442   3.112
10509TIP3    H131470   8.075   5.413   3.132
10509TIP3    H231471   7.985   5.451   3.016
10510TIP3   OH231472   0.734   0.593   5.702
10510TIP3    H131473   0.810   0.557   5.748
10510TIP3    H231474   0.714   0.674   5.748
10511TIP3   OH231475   3.056   5.883   0.308
10511TIP3    H131476   3.086   5.956   0.360
10511TIP3    H231477   3.070   5.806   0.363
10512TIP3   OH231478   6.247   0.734   2.981
10512TIP3    H131479   6.257   0.766   3.070
10512TIP3    H231480   6.243   0.813   2.927
10513TIP3   OH231481   3.114   4.003   5.744
10513TIP3    H131482   3.059   4.028   5.818
10513TIP3    H231483   3.188   4.064   5.747
10514TIP3   OH231484   2.880   4.261   2.759
10514TIP3    H131485   2.894   4.217   2.675
10514TIP3    H231486   2.923   4.346   2.749
10515TIP3   OH231487   8.061   0.863   5.204
10515TIP3    H131488   7.998   0.886   5.272
10515TIP3    H231489   8.085   0.946   5.164
10516TIP3   OH231490   2.798   4.795   4.439
10516TIP3    H131491   2.736   4.815   4.509
10516TIP3    H231492   2.759   4.721   4.393
10517TIP3   OH231493   0.537   0.592   3.865
10517TIP3    H131494   0.627   0.609   3.895
10517TIP3    H231495   0.538   0.500   3.839
10518TIP3   OH231496   0.406   5.293   3.282
10518TIP3    H131497   0.381   5.245   3.361
10518TIP3    H231498   0.502   5.290   3.282
10519TIP3   OH231499   3.563   1.410   4.257
10519TIP3    H131500   3.658   1.394   4.252
10519TIP3    H231501   3.524   1.331   4.219
10520TIP3   OH231502   0.752   2.654   0.860
10520TIP3    H131503   0.762   2.667   0.954
10520TIP3    H231504   0.768   2.741   0.822
10521TIP3   OH231505   7.988   5.568   3.833
10521TIP3    H131506   8.011   5.604   3.919
10521TIP3    H231507   8.073   5.548   3.793
10522TIP3   OH231508   4.959   4.559   0.390
10522TIP3    H131509   4.999   4.502   0.456
10522TIP3    H231510   4.946   4.642   0.435
10523TIP3   OH231511   2.704   0.485   3.333
10523TIP3    H131512   2.796   0.493   3.307
10523TIP3    H231513   2.700   0.525   3.419
10524TIP3   OH231514   1.700   5.610   4.945
10524TIP3    H131515   1.786   5.650   4.959
10524TIP3    H231516   1.656   5.619   5.029
10525TIP3   OH231517   6.796   3.513   4.406
10525TIP3    H131518   6.883   3.478   4.388
10525TIP3    H231519   6.738   3.438   4.397
10526TIP3   OH231520   0.656   7.034   4.500
10526TIP3    H131521   0.676   7.115   4.548
10526TIP3    H231522   0.561   7.034   4.490
10527TIP3   OH231523   2.898   3.867   5.656
10527TIP3    H131524   2.958   3.941   5.652
10527TIP3    H231525   2.917   3.825   5.740
10528TIP3   OH231526   5.130   1.016   2.567
10528TIP3    H131527   5.050   1.029   2.618
10528TIP3    H231528   5.189   1.084   2.597
10529TIP3   OH231529   6.991   1.601   0.674
10529TIP3    H131530   6.903   1.635   0.659
10529TIP3    H231531   7.035   1.608   0.589
10530TIP3   OH231532   2.170   6.192   3.641
10530TIP3    H131533   2.215   6.275   3.649
10530TIP3    H231534   2.237   6.126   3.656
10531TIP3   OH231535   8.122   0.776   1.058
10531TIP3    H131536   8.076   0.758   1.139
10531TIP3    H231537   8.215   0.770   1.081
10532TIP3   OH231538   4.182   5.198   0.475
10532TIP3    H131539   4.106   5.149   0.505
10532TIP3    H231540   4.246   5.190   0.547
10533TIP3   OH231541   0.544   1.101   0.639
10533TIP3    H131542   0.478   1.049   0.685
10533TIP3    H231543   0.515   1.101   0.548
10534TIP3   OH231544   8.164   4.983   5.252
10534TIP3    H131545   8.180   4.999   5.345
10534TIP3    H231546   8.088   4.925   5.250
10535TIP3   OH231547   6.251   7.136   0.850
10535TIP3    H131548   6.273   7.223   0.817
10535TIP3    H231549   6.292   7.076   0.787
10536TIP3   OH231550   0.364   4.294   1.659
10536TIP3    H131551   0.345   4.313   1.567
10536TIP3    H231552   0.381   4.200   1.660
10537TIP3   OH231553   1.481   0.327   0.506
10537TIP3    H131554   1.453   0.418   0.512
10537TIP3    H231555   1.568   0.326   0.547
10538TIP3   OH231556   4.105   2.718   2.366
10538TIP3    H131557   4.068   2.800   2.334
10538TIP3    H231558   4.191   2.713   2.325
10539TIP3   OH231559   0.313   4.054   0.489
10539TIP3    H131560   0.279   4.051   0.579
10539TIP3    H231561   0.245   4.099   0.439
10540TIP3   OH231562   0.286   0.188   3.810
10540TIP3    H131563   0.376   0.199   3.841
10540TIP3    H231564   0.239   0.262   3.849
10541TIP3   OH231565   6.846   7.537   4.684
10541TIP3    H131566   6.896   7.559   4.606
10541TIP3    H231567   6.912   7.519   4.751
10542TIP3   OH231568   5.408   6.390   3.214
10542TIP3    H131569   5.460   6.312   3.194
10542TIP3    H231570   5.371   6.416   3.129
10543TIP3   OH231571   1.628   1.843   4.952
10543TIP3    H131572   1.710   1.841   4.903
10543TIP3    H231573   1.646   1.901   5.027
10544TIP3   OH231574   7.873   4.607   4.827
10544TIP3    H131575   7.900   4.569   4.744
10544TIP3    H231576   7.872   4.533   4.888
10545TIP3   OH231577   0.907   4.339   1.839
10545TIP3    H131578   0.945   4.367   1.922
10545TIP3    H231579   0.893   4.421   1.791
10546TIP3   OH231580   3.790   3.752   0.338
10546TIP3    H131581   3.748   3.669   0.317
10546TIP3    H231582   3.883   3.735   0.328
10547TIP3   OH231583   5.697   0.522   1.126
10547TIP3    H131584   5.647   0.590   1.082
10547TIP3    H231585   5.719   0.560   1.211
10548TIP3   OH231586   3.464   7.211   6.502
10548TIP3    H131587   3.461   7.256   6.418
10548TIP3    H231588   3.430   7.275   6.565
10549TIP3   OH231589   2.571   2.341   6.690
10549TIP3    H131590   2.482   2.375   6.701
10549TIP3    H231591   2.559   2.246   6.682
10550TIP3   OH231592   7.542   0.291   2.402
10550TIP3    H131593   7.619   0.234   2.402
10550TIP3    H231594   7.495   0.268   2.321
10551TIP3   OH231595   1.316   3.728   0.065
10551TIP3    H131596   1.295   3.636   0.054
10551TIP3    H231597   1.235   3.775   0.044
10552TIP3   OH231598   5.960   4.334   2.409
10552TIP3    H131599   6.007   4.383   2.342
10552TIP3    H231600   5.909   4.400   2.456
10553TIP3   OH231601   6.435   7.314   5.742
10553TIP3    H131602   6.430   7.305   5.646
10553TIP3    H231603   6.517   7.361   5.756
10554TIP3   OH231604   3.819   1.838  -0.010
10554TIP3    H131605   3.903   1.792  -0.008
10554TIP3    H231606   3.822   1.897   0.066
10555TIP3   OH231607   7.494   6.333   4.700
10555TIP3    H131608   7.475   6.331   4.607
10555TIP3    H231609   7.408   6.335   4.743
10556TIP3   OH231610   2.077   7.054   3.380
10556TIP3    H131611   2.017   7.116   3.339
10556TIP3    H231612   2.142   7.035   3.312
10557TIP3   OH231613   0.871   4.678   4.023
10557TIP3    H131614   0.878   4.583   4.018
10557TIP3    H231615   0.859   4.707   3.933
10558TIP3   OH231616   4.273   1.436   0.120
10558TIP3    H131617   4.198   1.414   0.065
10558TIP3    H231618   4.286   1.359   0.175
10559TIP3   OH231619   7.412   3.406   3.216
10559TIP3    H131620   7.457   3.490   3.218
10559TIP3    H231621   7.482   3.341   3.206
10560TIP3   OH231622   5.384   7.714   1.557
10560TIP3    H131623   5.349   7.796   1.523
10560TIP3    H231624   5.320   7.648   1.529
10561TIP3   OH231625   6.913   6.478   2.310
10561TIP3    H131626   7.005   6.496   2.290
10561TIP3    H231627   6.867   6.491   2.226
10562TIP3   OH231628   7.589   1.229   4.364
10562TIP3    H131629   7.665   1.175   4.341
10562TIP3    H231630   7.564   1.200   4.451
10563TIP3   OH231631   0.505   0.544   5.273
10563TIP3    H131632   0.500   0.555   5.368
10563TIP3    H231633   0.559   0.466   5.260
10564TIP3   OH231634   7.962   4.368   4.138
10564TIP3    H131635   7.901   4.294   4.134
10564TIP3    H231636   8.040   4.338   4.092
10565TIP3   OH231637   6.808   2.415   3.211
10565TIP3    H131638   6.860   2.366   3.276
10565TIP3    H231639   6.858   2.496   3.197
10566TIP3   OH231640   7.462   7.503   2.557
10566TIP3    H131641   7.526   7.526   2.489
10566TIP3    H231642   7.514   7.495   2.637
10567TIP3   OH231643   0.019   3.477   6.136
10567TIP3    H131644   0.080   3.461   6.064
10567TIP3    H231645  -0.056   3.520   6.094
10568TIP3   OH231646   8.009   6.937   5.385
10568TIP3    H131647   7.988   6.844   5.378
10568TIP3    H231648   8.045   6.947   5.474
10569TIP3   OH231649   2.876   4.032   5.419
10569TIP3    H131650   2.813   3.968   5.453
10569TIP3    H231651   2.867   4.107   5.478
10570TIP3   OH231652   8.064   1.595   2.445
10570TIP3    H131653   8.123   1.563   2.513
10570TIP3    H231654   8.122   1.620   2.373
10571TIP3   OH231655   1.345   0.271   5.121
10571TIP3    H131656   1.428   0.233   5.152
10571TIP3    H231657   1.294   0.196   5.092
10572TIP3   OH231658   7.692   4.063   2.110
10572TIP3    H131659   7.750   4.127   2.068
10572TIP3    H231660   7.748   4.021   2.176
10573TIP3   OH231661   1.106   0.896   4.416
10573TIP3    H131662   1.163   0.858   4.349
10573TIP3    H231663   1.122   0.990   4.410
10574TIP3   OH231664   3.329   6.764   6.720
10574TIP3    H131665   3.410   6.805   6.750
10574TIP3    H231666   3.328   6.679   6.763
10575TIP3   OH231667   4.272   4.285   4.477
10575TIP3    H131668   4.318   4.362   4.511
10575TIP3    H231669   4.254   4.231   4.554
10576TIP3   OH231670   5.765   7.187   2.034
10576TIP3    H131671   5.774   7.093   2.051
10576TIP3    H231672   5.773   7.227   2.121
10577TIP3   OH231673   0.638   5.194   6.214
10577TIP3    H131674   0.567   5.239   6.259
10577TIP3    H231675   0.643   5.236   6.129
10578TIP3   OH231676   6.824   3.406   1.675
10578TIP3    H131677   6.827   3.478   1.737
10578TIP3    H231678   6.838   3.328   1.728
10579TIP3   OH231679   7.906   3.229   2.496
10579TIP3    H131680   7.957   3.288   2.440
10579TIP3    H231681   7.837   3.283   2.532
10580TIP3   OH231682   5.048   2.567   4.375
10580TIP3    H131683   5.089   2.539   4.456
10580TIP3    H231684   5.023   2.486   4.331
10581TIP3   OH231685   3.801   1.388   4.052
10581TIP3    H131686   3.802   1.365   4.145
10581TIP3    H231687   3.756   1.314   4.010
10582TIP3   OH231688   7.546   1.348   2.481
10582TIP3    H131689   7.641   1.360   2.475
10582TIP3    H231690   7.510   1.412   2.419
10583TIP3   OH231691   8.022   1.587   2.801
10583TIP3    H131692   7.950   1.549   2.752
10583TIP3    H231693   8.073   1.512   2.832
10584TIP3   OH231694   7.954   6.392   4.035
10584TIP3    H131695   8.005   6.352   3.964
10584TIP3    H231696   7.995   6.478   4.047
10585TIP3   OH231697   6.381   4.077   0.386
10585TIP3    H131698   6.296   4.072   0.430
10585TIP3    H231699   6.367   4.141   0.316
10586TIP3   OH231700   4.076   7.765   3.189
10586TIP3    H131701   4.039   7.829   3.128
10586TIP3    H231702   4.030   7.683   3.168
10587TIP3   OH231703   2.209   7.288   0.511
10587TIP3    H131704   2.211   7.200   0.548
10587TIP3    H231705   2.301   7.308   0.492
10588TIP3   OH231706   0.937   3.454   6.635
10588TIP3    H131707   0.931   3.452   6.540
10588TIP3    H231708   0.877   3.523   6.662
10589TIP3   OH231709   1.203   4.093   2.487
10589TIP3    H131710   1.195   4.039   2.565
10589TIP3    H231711   1.256   4.168   2.514
10590TIP3   OH231712   6.874   3.752   3.766
10590TIP3    H131713   6.842   3.745   3.676
10590TIP3    H231714   6.964   3.721   3.763
10591TIP3   OH231715   1.218   7.655   1.409
10591TIP3    H131716   1.261   7.713   1.471
10591TIP3    H231717   1.203   7.710   1.331
10592TIP3   OH231718   1.455   6.333   1.031
10592TIP3    H131719   1.475   6.376   0.948
10592TIP3    H231720   1.477   6.241   1.016
10593TIP3   OH231721   0.897   0.235   3.335
10593TIP3    H131722   0.953   0.243   3.258
10593TIP3    H231723   0.820   0.187   3.304
10594TIP3   OH231724   3.577   0.903   5.795
10594TIP3    H131725   3.515   0.876   5.727
10594TIP3    H231726   3.624   0.823   5.819
10595TIP3   OH231727   6.266   0.062   2.993
10595TIP3    H131728   6.283   0.121   2.919
10595TIP3    H231729   6.171   0.066   3.005
10596TIP3   OH231730   1.752   2.802   0.037
10596TIP3    H131731   1.808   2.773  -0.035
10596TIP3    H231732   1.693   2.728   0.053
10597TIP3   OH231733   1.181   4.055   2.211
10597TIP3    H131734   1.266   4.083   2.176
10597TIP3    H231735   1.198   4.033   2.302
10598TIP3   OH231736   3.973   0.578   4.431
10598TIP3    H131737   3.923   0.621   4.500
10598TIP3    H231738   3.910   0.564   4.361
10599TIP3   OH231739   3.000   3.126   3.843
10599TIP3    H131740   2.976   3.103   3.754
10599TIP3    H231741   3.074   3.187   3.833
10600TIP3   OH231742   4.544   2.693   1.850
10600TIP3    H131743   4.632   2.679   1.814
10600TIP3    H231744   4.559   2.739   1.933
10601TIP3   OH231745   3.777   6.006   0.301
10601TIP3    H131746   3.803   6.002   0.393
10601TIP3    H231747   3.682   6.011   0.304
10602TIP3   OH231748   3.815   0.136   6.695
10602TIP3    H131749   3.739   0.151   6.639
10602TIP3    H231750   3.780   0.092   6.773
10603TIP3   OH231751   3.650   3.173   4.108
10603TIP3    H131752   3.598   3.100   4.141
10603TIP3    H231753   3.641   3.168   4.013
10604TIP3   OH231754   5.945   5.028   4.978
10604TIP3    H131755   5.946   5.122   4.995
10604TIP3    H231756   5.856   5.009   4.949
10605TIP3   OH231757   7.818   5.715   5.958
10605TIP3    H131758   7.805   5.793   5.903
10605TIP3    H231759   7.912   5.696   5.949
10606TIP3   OH231760   3.766   4.385   3.986
10606TIP3    H131761   3.796   4.294   3.991
10606TIP3    H231762   3.846   4.437   3.997
10607TIP3   OH231763   1.063   0.799   6.728
10607TIP3    H131764   0.991   0.739   6.750
10607TIP3    H231765   1.108   0.814   6.811
10608TIP3   OH231766   2.641   6.098   5.472
10608TIP3    H131767   2.586   6.176   5.464
10608TIP3    H231768   2.601   6.047   5.543
10609TIP3   OH231769   1.219   6.747   1.685
10609TIP3    H131770   1.271   6.727   1.763
10609TIP3    H231771   1.262   6.825   1.647
10610TIP3   OH231772   0.734   4.550   2.060
10610TIP3    H131773   0.792   4.493   2.111
10610TIP3    H231774   0.667   4.492   2.025
10611TIP3   OH231775   6.826   2.014   5.767
10611TIP3    H131776   6.770   1.973   5.700
10611TIP3    H231777   6.904   2.042   5.719
10612TIP3   OH231778   0.797   7.626   3.902
10612TIP3    H131779   0.874   7.569   3.900
10612TIP3    H231780   0.804   7.678   3.821
10613TIP3   OH231781   4.775   4.530   6.254
10613TIP3    H131782   4.864   4.500   6.237
10613TIP3    H231783   4.769   4.536   6.350
10614TIP3   OH231784   5.023   6.288   5.033
10614TIP3    H131785   5.022   6.246   5.119
10614TIP3    H231786   5.057   6.376   5.050
10615TIP3   OH231787   7.546   0.012   4.250
10615TIP3    H131788   7.454  -0.011   4.235
10615TIP3    H231789   7.543   0.084   4.313
10616TIP3   OH231790   3.665   7.480   1.022
10616TIP3    H131791   3.750   7.473   1.066
10616TIP3    H231792   3.682   7.540   0.949
10617TIP3   OH231793   0.537   7.741   3.948
10617TIP3    H131794   0.616   7.687   3.948
10617TIP3    H231795   0.465   7.680   3.963
10618TIP3   OH231796   1.670   3.311   0.067
10618TIP3    H131797   1.685   3.322   0.161
10618TIP3    H231798   1.754   3.279   0.033
10619TIP3   OH231799   7.275   1.356   2.239
10619TIP3    H131800   7.283   1.371   2.145
10619TIP3    H231801   7.321   1.430   2.279
10620TIP3   OH231802   1.886   6.234   3.661
10620TIP3    H131803   1.897   6.329   3.663
10620TIP3    H231804   1.973   6.199   3.676
10621TIP3   OH231805   0.880   2.383   3.283
10621TIP3    H131806   0.865   2.424   3.198
10621TIP3    H231807   0.836   2.298   3.277
10622TIP3   OH231808   6.591   6.995   5.773
10622TIP3    H131809   6.510   7.001   5.823
10622TIP3    H231810   6.648   7.063   5.808
10623TIP3   OH231811   4.907   6.916   2.917
10623TIP3    H131812   4.969   6.869   2.862
10623TIP3    H231813   4.901   7.003   2.877
10624TIP3   OH231814   5.418   7.416   2.296
10624TIP3    H131815   5.466   7.491   2.331
10624TIP3    H231816   5.472   7.341   2.319
10625TIP3   OH231817   0.835   7.693   4.177
10625TIP3    H131818   0.856   7.687   4.083
10625TIP3    H231819   0.823   7.602   4.204
10626TIP3   OH231820   0.558   0.145   4.487
10626TIP3    H131821   0.498   0.218   4.478
10626TIP3    H231822   0.585   0.124   4.398
10627TIP3   OH231823   2.661   4.857   2.866
10627TIP3    H131824   2.655   4.801   2.943
10627TIP3    H231825   2.602   4.818   2.802
10628TIP3   OH231826   5.255   5.885   4.191
10628TIP3    H131827   5.249   5.943   4.267
10628TIP3    H231828   5.232   5.941   4.116
10629TIP3   OH231829   7.452   6.523   3.383
10629TIP3    H131830   7.517   6.545   3.316
10629TIP3    H231831   7.454   6.428   3.388
10630TIP3   OH231832   4.296   2.238   0.461
10630TIP3    H131833   4.376   2.217   0.509
10630TIP3    H231834   4.226   2.227   0.525
10631TIP3   OH231835   7.299   7.027   2.038
10631TIP3    H131836   7.297   7.051   1.945
10631TIP3    H231837   7.341   7.102   2.081
10632TIP3   OH231838   1.731   5.287   2.301
10632TIP3    H131839   1.709   5.372   2.339
10632TIP3    H231840   1.675   5.225   2.348
10633TIP3   OH231841   3.015   4.556   6.721
10633TIP3    H131842   2.998   4.518   6.807
10633TIP3    H231843   2.940   4.614   6.705
10634TIP3   OH231844   2.276   4.279   4.708
10634TIP3    H131845   2.287   4.209   4.772
10634TIP3    H231846   2.290   4.237   4.623
10635TIP3   OH231847   6.020   6.658   4.192
10635TIP3    H131848   5.929   6.637   4.214
10635TIP3    H231849   6.040   6.736   4.243
10636TIP3   OH231850   5.565  -0.008   1.623
10636TIP3    H131851   5.582   0.078   1.584
10636TIP3    H231852   5.511   0.010   1.700
10637TIP3   OH231853   4.630   2.418   3.982
10637TIP3    H131854   4.598   2.328   3.988
10637TIP3    H231855   4.553   2.471   3.964
10638TIP3   OH231856   1.919   5.486   1.089
10638TIP3    H131857   1.968   5.489   1.171
10638TIP3    H231858   1.929   5.396   1.058
10639TIP3   OH231859   3.177   3.228   1.608
10639TIP3    H131860   3.157   3.135   1.595
10639TIP3    H231861   3.094   3.266   1.637
10640TIP3   OH231862   5.736   0.785   5.204
10640TIP3    H131863   5.767   0.824   5.122
10640TIP3    H231864   5.812   0.735   5.236
10641TIP3   OH231865   7.638   2.136   5.625
10641TIP3    H131866   7.604   2.194   5.693
10641TIP3    H231867   7.566   2.129   5.561
10642TIP3   OH231868   3.002   1.388   0.398
10642TIP3    H131869   3.041   1.466   0.435
10642TIP3    H231870   3.077   1.340   0.360
10643TIP3   OH231871   2.712   6.806   6.519
10643TIP3    H131872   2.742   6.856   6.595
10643TIP3    H231873   2.780   6.818   6.454
10644TIP3   OH231874   3.487   3.811   1.310
10644TIP3    H131875   3.446   3.861   1.239
10644TIP3    H231876   3.578   3.801   1.283
10645TIP3   OH231877   0.576   0.875   5.215
10645TIP3    H131878   0.481   0.870   5.226
10645TIP3    H231879   0.599   0.794   5.169
10646TIP3   OH231880   2.334   5.478   0.622
10646TIP3    H131881   2.298   5.554   0.577
10646TIP3    H231882   2.393   5.437   0.558
10647TIP3   OH231883   3.025   1.521   2.532
10647TIP3    H131884   3.110   1.487   2.507
10647TIP3    H231885   3.031   1.532   2.627
10648TIP3   OH231886   0.242   3.614   5.295
10648TIP3    H131887   0.319   3.568   5.329
10648TIP3    H231888   0.198   3.549   5.240
10649TIP3   OH231889   1.874   2.971   5.361
10649TIP3    H131890   1.818   2.956   5.285
10649TIP3    H231891   1.824   3.031   5.416
10650TIP3   OH231892   7.843   0.580   6.277
10650TIP3    H131893   7.823   0.503   6.224
10650TIP3    H231894   7.780   0.576   6.349
10651TIP3   OH231895   0.236   3.146   5.282
10651TIP3    H131896   0.174   3.093   5.332
10651TIP3    H231897   0.202   3.146   5.193
10652TIP3   OH231898   4.260   1.655   2.403
10652TIP3    H131899   4.248   1.649   2.498
10652TIP3    H231900   4.207   1.583   2.368
10653TIP3   OH231901   0.971   0.922   1.776
10653TIP3    H131902   1.015   0.934   1.860
10653TIP3    H231903   0.881   0.900   1.799
10654TIP3   OH231904   7.026   4.319   0.652
10654TIP3    H131905   7.092   4.282   0.593
10654TIP3    H231906   6.980   4.243   0.686
10655TIP3   OH231907   3.655   3.191   2.398
10655TIP3    H131908   3.749   3.181   2.408
10655TIP3    H231909   3.622   3.102   2.384
10656TIP3   OH231910   7.422   2.476   0.184
10656TIP3    H131911   7.383   2.563   0.182
10656TIP3    H231912   7.468   2.471   0.268
10657TIP3   OH231913   8.116   5.417   6.164
10657TIP3    H131914   8.087   5.508   6.173
10657TIP3    H231915   8.185   5.407   6.229
10658TIP3   OH231916   0.286   2.860   4.827
10658TIP3    H131917   0.370   2.893   4.794
10658TIP3    H231918   0.220   2.904   4.773
10659TIP3   OH231919   4.821   1.505   5.013
10659TIP3    H131920   4.797   1.415   4.992
10659TIP3    H231921   4.914   1.501   5.035
10660TIP3   OH231922   7.765   5.596   0.416
10660TIP3    H131923   7.793   5.618   0.505
10660TIP3    H231924   7.710   5.669   0.389
10661TIP3   OH231925   7.181   5.261   1.823
10661TIP3    H131926   7.100   5.213   1.838
10661TIP3    H231927   7.191   5.316   1.901
10662TIP3   OH231928   3.577   5.961   3.999
10662TIP3    H131929   3.510   6.027   4.016
10662TIP3    H231930   3.555   5.889   4.058
10663TIP3   OH231931   2.875   7.682   5.768
10663TIP3    H131932   2.862   7.690   5.674
10663TIP3    H231933   2.964   7.650   5.778
10664TIP3   OH231934   3.466   3.712   6.237
10664TIP3    H131935   3.455   3.772   6.311
10664TIP3    H231936   3.388   3.656   6.240
10665TIP3   OH231937   6.704   5.990   5.404
10665TIP3    H131938   6.730   6.015   5.315
10665TIP3    H231939   6.681   5.898   5.397
10666TIP3   OH231940   1.682   5.491   0.465
10666TIP3    H131941   1.620   5.555   0.501
10666TIP3    H231942   1.752   5.486   0.530
10667TIP3   OH231943   4.578   6.123   6.525
10667TIP3    H131944   4.530   6.079   6.455
10667TIP3    H231945   4.511   6.140   6.593
10668TIP3   OH231946   3.675   6.781   1.049
10668TIP3    H131947   3.621   6.858   1.032
10668TIP3    H231948   3.762   6.804   1.017
10669TIP3   OH231949   7.041   0.609   3.945
10669TIP3    H131950   7.087   0.594   3.862
10669TIP3    H231951   7.070   0.695   3.973
10670TIP3   OH231952   6.003   6.088   5.056
10670TIP3    H131953   5.999   6.181   5.032
10670TIP3    H231954   6.090   6.060   5.028
10671TIP3   OH231955   0.205   0.614   1.333
10671TIP3    H131956   0.261   0.545   1.368
10671TIP3    H231957   0.116   0.584   1.350
10672TIP3   OH231958   6.291   3.357   2.111
10672TIP3    H131959   6.346   3.330   2.185
10672TIP3    H231960   6.340   3.427   2.069
10673TIP3   OH231961   1.514   0.807   2.599
10673TIP3    H131962   1.501   0.731   2.656
10673TIP3    H231963   1.442   0.866   2.622
10674TIP3   OH231964   7.815   4.939   0.821
10674TIP3    H131965   7.774   5.014   0.777
10674TIP3    H231966   7.797   4.955   0.914
10675TIP3   OH231967   3.043   4.571   3.044
10675TIP3    H131968   3.113   4.506   3.042
10675TIP3    H231969   3.087   4.656   3.038
10676TIP3   OH231970   6.395   3.453   4.162
10676TIP3    H131971   6.336   3.529   4.164
10676TIP3    H231972   6.470   3.482   4.112
10677TIP3   OH231973   7.972   1.810   0.725
10677TIP3    H131974   8.009   1.880   0.671
10677TIP3    H231975   7.904   1.771   0.670
10678TIP3   OH231976   6.816   3.495   6.207
10678TIP3    H131977   6.869   3.450   6.140
10678TIP3    H231978   6.765   3.559   6.158
10679TIP3   OH231979   3.535   1.526   6.442
10679TIP3    H131980   3.517   1.433   6.456
10679TIP3    H231981   3.603   1.548   6.506
10680TIP3   OH231982   4.969   2.667   5.840
10680TIP3    H131983   5.055   2.626   5.828
10680TIP3    H231984   4.945   2.646   5.930
10681TIP3   OH231985   6.674   1.041   6.208
10681TIP3    H131986   6.585   1.076   6.211
10681TIP3    H231987   6.716   1.077   6.286
10682TIP3   OH231988   5.656   0.816   2.897
10682TIP3    H131989   5.731   0.812   2.956
10682TIP3    H231990   5.672   0.746   2.834
10683TIP3   OH231991   0.916   4.045   2.129
10683TIP3    H131992   1.009   4.039   2.107
10683TIP3    H231993   0.913   4.111   2.198
10684TIP3   OH231994   5.914   4.110   2.039
10684TIP3    H131995   5.850   4.047   2.007
10684TIP3    H231996   5.899   4.189   1.986
10685TIP3   OH231997   5.756   3.465   1.578
10685TIP3    H131998   5.666   3.436   1.594
10685TIP3    H231999   5.810   3.403   1.629
10686TIP3   OH232000   5.323   6.008   5.422
10686TIP3    H132001   5.232   5.982   5.404
10686TIP3    H232002   5.318   6.103   5.435
10687TIP3   OH232003   7.826   5.532   2.069
10687TIP3    H132004   7.743   5.485   2.066
10687TIP3    H232005   7.835   5.561   2.159
10688TIP3   OH232006   0.135   6.464   3.807
10688TIP3    H132007   0.060   6.406   3.807
10688TIP3    H232008   0.199   6.423   3.865
10689TIP3   OH232009   7.044   0.072   3.340
10689TIP3    H132010   6.983   0.112   3.278
10689TIP3    H232011   7.029  -0.023   3.330
10690TIP3   OH232012   1.042   0.420   0.233
10690TIP3    H132013   1.014   0.330   0.213
10690TIP3    H232014   0.980   0.451   0.298
10691TIP3   OH232015   1.740   2.763   5.210
10691TIP3    H132016   1.750   2.687   5.268
10691TIP3    H232017   1.828   2.779   5.176
10692TIP3   OH232018   0.010   7.586   3.437
10692TIP3    H132019   0.099   7.562   3.460
10692TIP3    H232020  -0.002   7.554   3.348
10693TIP3   OH232021   2.634   7.359   3.240
10693TIP3    H132022   2.587   7.299   3.297
10693TIP3    H232023   2.709   7.308   3.208
10694TIP3   OH232024   6.295   6.975   0.310
10694TIP3    H132025   6.204   6.953   0.328
10694TIP3    H232026   6.297   6.996   0.217
10695TIP3   OH232027   4.087   3.903   5.696
10695TIP3    H132028   4.006   3.917   5.647
10695TIP3    H232029   4.094   3.808   5.704
10696TIP3   OH232030   2.498   1.647   6.726
10696TIP3    H132031   2.560   1.717   6.747
10696TIP3    H232032   2.448   1.635   6.806
10697TIP3   OH232033   6.088   6.524   3.445
10697TIP3    H132034   6.007   6.535   3.495
10697TIP3    H232035   6.068   6.559   3.358
10698TIP3   OH232036   0.522   2.755   1.558
10698TIP3    H132037   0.581   2.810   1.506
10698TIP3    H232038   0.479   2.816   1.618
10699TIP3   OH232039   7.706   4.252   4.776
10699TIP3    H132040   7.688   4.196   4.851
10699TIP3    H232041   7.783   4.212   4.734
10700TIP3   OH232042   6.125   3.597   4.560
10700TIP3    H132043   6.168   3.511   4.559
10700TIP3    H232044   6.159   3.640   4.638
10701TIP3   OH232045   7.640   1.144   5.287
10701TIP3    H132046   7.683   1.064   5.317
10701TIP3    H232047   7.547   1.122   5.285
10702TIP3   OH232048   1.434   4.887   0.239
10702TIP3    H132049   1.493   4.956   0.208
10702TIP3    H232050   1.478   4.806   0.216
10703TIP3   OH232051   3.418   5.895   2.708
10703TIP3    H132052   3.478   5.851   2.768
10703TIP3    H232053   3.420   5.841   2.629
10704TIP3   OH232054   2.794   4.797   2.398
10704TIP3    H132055   2.721   4.762   2.448
10704TIP3    H232056   2.801   4.888   2.426
10705TIP3   OH232057   7.952   5.557   4.310
10705TIP3    H132058   7.863   5.556   4.274
10705TIP3    H232059   7.971   5.465   4.331
10706TIP3   OH232060   8.134   2.287   2.382
10706TIP3    H132061   8.200   2.303   2.315
10706TIP3    H232062   8.115   2.193   2.376
10707TIP3   OH232063   1.460   2.973   6.158
10707TIP3    H132064   1.548   2.935   6.154
10707TIP3    H232065   1.415   2.938   6.081
10708TIP3   OH232066   6.442   4.105   3.302
10708TIP3    H132067   6.443   4.140   3.391
10708TIP3    H232068   6.419   4.013   3.312
10709TIP3   OH232069   3.381   5.044   4.102
10709TIP3    H132070   3.440   5.112   4.135
10709TIP3    H232071   3.364   5.068   4.011
10710TIP3   OH232072   4.683   5.801   0.167
10710TIP3    H132073   4.702   5.766   0.254
10710TIP3    H232074   4.704   5.895   0.173
10711TIP3   OH232075   3.135   3.384   2.699
10711TIP3    H132076   3.115   3.415   2.610
10711TIP3    H232077   3.173   3.460   2.743
10712TIP3   OH232078   7.322   4.894   4.668
10712TIP3    H132079   7.385   4.911   4.598
10712TIP3    H232080   7.289   4.806   4.650
10713TIP3   OH232081   7.561   5.517   6.360
10713TIP3    H132082   7.621   5.590   6.372
10713TIP3    H232083   7.493   5.531   6.426
10714TIP3   OH232084   0.088   5.144   1.515
10714TIP3    H132085   0.029   5.148   1.590
10714TIP3    H232086   0.033   5.170   1.441
10715TIP3   OH232087   3.394   4.612   0.785
10715TIP3    H132088   3.478   4.607   0.830
10715TIP3    H232089   3.329   4.619   0.855
10716TIP3   OH232090   7.570   7.230   3.398
10716TIP3    H132091   7.611   7.229   3.484
10716TIP3    H232092   7.480   7.201   3.414
10717TIP3   OH232093   1.499   7.662   6.729
10717TIP3    H132094   1.412   7.645   6.692
10717TIP3    H232095   1.557   7.667   6.653
10718TIP3   OH232096   8.287   0.445   1.364
10718TIP3    H132097   8.332   0.362   1.351
10718TIP3    H232098   8.245   0.463   1.280
10719TIP3   OH232099   1.218   2.898   5.113
10719TIP3    H132100   1.126   2.874   5.096
10719TIP3    H232101   1.225   2.988   5.083
10720TIP3   OH232102   3.565   5.911   1.491
10720TIP3    H132103   3.642   5.867   1.457
10720TIP3    H232104   3.516   5.938   1.414
10721TIP3   OH232105   3.487   6.961   2.221
10721TIP3    H132106   3.573   7.004   2.220
10721TIP3    H232107   3.465   6.949   2.129
10722TIP3   OH232108   7.541   4.662   2.851
10722TIP3    H132109   7.539   4.747   2.807
10722TIP3    H232110   7.495   4.676   2.933
10723TIP3   OH232111   0.428   2.214   0.870
10723TIP3    H132112   0.427   2.120   0.891
10723TIP3    H232113   0.490   2.221   0.797
10724TIP3   OH232114   3.288   3.053   1.847
10724TIP3    H132115   3.337   2.978   1.880
10724TIP3    H232116   3.268   3.031   1.756
10725TIP3   OH232117   5.323   0.973   1.304
10725TIP3    H132118   5.237   0.992   1.341
10725TIP3    H232119   5.330   1.030   1.228
10726TIP3   OH232120   4.341   6.255   5.372
10726TIP3    H132121   4.327   6.305   5.292
10726TIP3    H232122   4.368   6.319   5.437
10727TIP3   OH232123   4.873   2.773   4.421
10727TIP3    H132124   4.820   2.783   4.341
10727TIP3    H232125   4.942   2.712   4.397
10728TIP3   OH232126   0.744   4.651   5.322
10728TIP3    H132127   0.770   4.608   5.403
10728TIP3    H232128   0.654   4.624   5.308
10729TIP3   OH232129   4.657   6.154   1.540
10729TIP3    H132130   4.707   6.211   1.597
10729TIP3    H232131   4.585   6.208   1.507
10730TIP3   OH232132   2.964   7.084   3.568
10730TIP3    H132133   3.008   7.163   3.538
10730TIP3    H232134   2.959   7.094   3.663
10731TIP3   OH232135   1.792   2.094   3.351
10731TIP3    H132136   1.776   2.002   3.375
10731TIP3    H232137   1.723   2.143   3.397
10732TIP3   OH232138   6.820   6.418   0.935
10732TIP3    H132139   6.888   6.485   0.944
10732TIP3    H232140   6.754   6.443   0.999
10733TIP3   OH232141   2.133   5.250   5.304
10733TIP3    H132142   2.160   5.262   5.213
10733TIP3    H232143   2.213   5.228   5.351
10734TIP3   OH232144   0.791   1.274   0.988
10734TIP3    H132145   0.720   1.333   1.014
10734TIP3    H232146   0.798   1.212   1.061
10735TIP3   OH232147   7.312   3.739   1.720
10735TIP3    H132148   7.315   3.753   1.815
10735TIP3    H232149   7.278   3.821   1.685
10736TIP3   OH232150   7.801   0.167   6.002
10736TIP3    H132151   7.787   0.102   5.932
10736TIP3    H232152   7.839   0.242   5.957
10737TIP3   OH232153   3.327   6.255   0.996
10737TIP3    H132154   3.418   6.286   0.992
10737TIP3    H232155   3.335   6.160   1.008
10738TIP3   OH232156   7.401   7.368   3.051
10738TIP3    H132157   7.485   7.321   3.058
10738TIP3    H232158   7.421   7.456   3.081
10739TIP3   OH232159   6.580   2.844   2.219
10739TIP3    H132160   6.569   2.750   2.230
10739TIP3    H232161   6.633   2.853   2.139
10740TIP3   OH232162   0.736   4.314   3.807
10740TIP3    H132163   0.787   4.233   3.806
10740TIP3    H232164   0.769   4.362   3.883
10741TIP3   OH232165   7.024   1.790   5.021
10741TIP3    H132166   6.946   1.740   5.044
10741TIP3    H232167   7.035   1.776   4.927
10742TIP3   OH232168   3.099   6.847   0.459
10742TIP3    H132169   3.084   6.914   0.526
10742TIP3    H232170   3.049   6.771   0.489
10743TIP3   OH232171   5.658   1.014   3.202
10743TIP3    H132172   5.729   0.975   3.150
10743TIP3    H232173   5.593   0.944   3.210
10744TIP3   OH232174   3.953   5.168   4.945
10744TIP3    H132175   3.895   5.120   5.004
10744TIP3    H232176   3.898   5.190   4.870
10745TIP3   OH232177   6.164   0.750   4.341
10745TIP3    H132178   6.184   0.657   4.338
10745TIP3    H232179   6.191   0.783   4.256
10746TIP3   OH232180   2.155   1.388   3.958
10746TIP3    H132181   2.240   1.383   3.915
10746TIP3    H232182   2.159   1.322   4.027
10747TIP3   OH232183   5.729   2.571   6.550
10747TIP3    H132184   5.754   2.492   6.502
10747TIP3    H232185   5.633   2.570   6.549
10748TIP3   OH232186   0.492   2.392   2.263
10748TIP3    H132187   0.543   2.417   2.340
10748TIP3    H232188   0.553   2.401   2.190
10749TIP3   OH232189   0.835   5.816   1.665
10749TIP3    H132190   0.874   5.901   1.645
10749TIP3    H232191   0.754   5.814   1.614
10750TIP3   OH232192   4.882   0.289   2.879
10750TIP3    H132193   4.831   0.245   2.947
10750TIP3    H232194   4.971   0.295   2.916
10751TIP3   OH232195   1.148   6.090   0.403
10751TIP3    H132196   1.216   6.034   0.442
10751TIP3    H232197   1.068   6.038   0.409
10752TIP3   OH232198   5.745   7.829   4.221
10752TIP3    H132199   5.804   7.756   4.205
10752TIP3    H232200   5.670   7.791   4.268
10753TIP3   OH232201   6.919   0.661   0.279
10753TIP3    H132202   6.940   0.615   0.197
10753TIP3    H232203   6.901   0.591   0.342
10754TIP3   OH232204   3.296   5.473   3.148
10754TIP3    H132205   3.351   5.528   3.204
10754TIP3    H232206   3.357   5.438   3.083
10755TIP3   OH232207   5.040   5.110   3.230
10755TIP3    H132208   4.992   5.164   3.292
10755TIP3    H232209   5.010   5.138   3.144
10756TIP3   OH232210   0.768   1.196   4.515
10756TIP3    H132211   0.681   1.236   4.506
10756TIP3    H232212   0.820   1.262   4.561
10757TIP3   OH232213   4.423   2.927   3.030
10757TIP3    H132214   4.501   2.872   3.033
10757TIP3    H232215   4.360   2.883   3.088
10758TIP3   OH232216   6.631   6.439   1.449
10758TIP3    H132217   6.624   6.351   1.486
10758TIP3    H232218   6.540   6.466   1.435
10759TIP3   OH232219   5.601   1.620   0.150
10759TIP3    H132220   5.642   1.658   0.073
10759TIP3    H232221   5.511   1.652   0.147
10760TIP3   OH232222   4.137   4.346   2.897
10760TIP3    H132223   4.123   4.440   2.905
10760TIP3    H232224   4.228   4.333   2.923
10761TIP3   OH232225   2.718   4.734   3.610
10761TIP3    H132226   2.789   4.670   3.608
10761TIP3    H232227   2.712   4.760   3.702
10762TIP3   OH232228   5.558   1.787   6.318
10762TIP3    H132229   5.639   1.747   6.350
10762TIP3    H232230   5.514   1.817   6.397
10763TIP3   OH232231   3.438   3.736   5.004
10763TIP3    H132232   3.449   3.760   5.096
10763TIP3    H232233   3.450   3.817   4.956
10764TIP3   OH232234   0.276   4.541   5.539
10764TIP3    H132235   0.196   4.553   5.590
10764TIP3    H232236   0.287   4.446   5.532
10765TIP3   OH232237   3.069   5.725   5.183
10765TIP3    H132238   3.010   5.677   5.241
10765TIP3    H232239   3.153   5.728   5.230
10766TIP3   OH232240   2.151   7.757   0.561
10766TIP3    H132241   2.221   7.817   0.536
10766TIP3    H232242   2.195   7.689   0.613
10767TIP3   OH232243   7.604   3.157   4.513
10767TIP3    H132244   7.536   3.092   4.496
10767TIP3    H232245   7.680   3.105   4.539
10768TIP3   OH232246   1.374   2.986   1.104
10768TIP3    H132247   1.363   2.925   1.176
10768TIP3    H232248   1.401   3.068   1.146
10769TIP3   OH232249   0.282   5.040   3.699
10769TIP3    H132250   0.325   5.114   3.744
10769TIP3    H232251   0.279   4.971   3.765
10770TIP3   OH232252   7.339   2.536   6.775
10770TIP3    H132253   7.407   2.590   6.816
10770TIP3    H232254   7.385   2.489   6.706
10771TIP3   OH232255   4.105   3.991   0.411
10771TIP3    H132256   4.167   4.017   0.479
10771TIP3    H232257   4.035   4.057   0.417
10772TIP3   OH232258   1.652   1.214   6.673
10772TIP3    H132259   1.734   1.210   6.624
10772TIP3    H232260   1.652   1.135   6.727
10773TIP3   OH232261   1.379   3.488   0.241
10773TIP3    H132262   1.424   3.405   0.258
10773TIP3    H232263   1.317   3.466   0.171
10774TIP3   OH232264   1.056   1.537   5.517
10774TIP3    H132265   1.054   1.630   5.540
10774TIP3    H232266   1.043   1.492   5.600
10775TIP3   OH232267   7.790   3.650   2.466
10775TIP3    H132268   7.776   3.573   2.411
10775TIP3    H232269   7.747   3.722   2.420
10776TIP3   OH232270   1.823   2.966   0.973
10776TIP3    H132271   1.894   3.004   1.024
10776TIP3    H232272   1.817   2.875   1.003
10777TIP3   OH232273   1.307   6.608   6.503
10777TIP3    H132274   1.368   6.640   6.568
10777TIP3    H232275   1.220   6.627   6.540
10778TIP3   OH232276   0.035   2.938   2.164
10778TIP3    H132277  -0.052   2.900   2.177
10778TIP3    H232278   0.052   2.929   2.071
10779TIP3   OH232279   0.950   3.883   1.825
10779TIP3    H132280   1.014   3.954   1.821
10779TIP3    H232281   0.867   3.926   1.846
10780TIP3   OH232282   6.605   3.391   1.510
10780TIP3    H132283   6.595   3.486   1.521
10780TIP3    H232284   6.678   3.369   1.568
10781TIP3   OH232285   2.183   4.273   5.540
10781TIP3    H132286   2.274   4.263   5.568
10781TIP3    H232287   2.188   4.324   5.460
10782TIP3   OH232288   5.192   1.787   1.584
10782TIP3    H132289   5.118   1.842   1.557
10782TIP3    H232290   5.162   1.697   1.568
10783TIP3   OH232291   2.322   4.420   3.832
10783TIP3    H132292   2.354   4.366   3.904
10783TIP3    H232293   2.392   4.419   3.767
10784TIP3   OH232294   4.324   6.231   4.135
10784TIP3    H132295   4.344   6.309   4.187
10784TIP3    H232296   4.408   6.202   4.100
10785TIP3   OH232297   5.436   7.110   4.133
10785TIP3    H132298   5.393   7.182   4.088
10785TIP3    H232299   5.465   7.147   4.216
10786TIP3   OH232300   5.829   6.033   0.552
10786TIP3    H132301   5.846   6.089   0.477
10786TIP3    H232302   5.735   6.042   0.569
10787TIP3   OH232303   3.083   2.896   2.109
10787TIP3    H132304   3.146   2.867   2.175
10787TIP3    H232305   3.071   2.820   2.052
10788TIP3   OH232306   1.177   5.572   1.838
10788TIP3    H132307   1.148   5.555   1.928
10788TIP3    H232308   1.197   5.485   1.803
10789TIP3   OH232309   0.792  -0.016   3.594
10789TIP3    H132310   0.747  -0.015   3.509
10789TIP3    H232311   0.851   0.059   3.590
10790TIP3   OH232312   4.135   1.433   2.850
10790TIP3    H132313   4.077   1.376   2.799
10790TIP3    H232314   4.145   1.388   2.934
10791TIP3   OH232315   6.018   6.976   0.457
10791TIP3    H132316   5.964   6.940   0.528
10791TIP3    H232317   6.032   7.067   0.483
10792TIP3   OH232318   8.243   5.318   1.341
10792TIP3    H132319   8.202   5.385   1.395
10792TIP3    H232320   8.195   5.321   1.258
10793TIP3   OH232321   2.241   6.294   1.351
10793TIP3    H132322   2.218   6.278   1.443
10793TIP3    H232323   2.182   6.365   1.324
10794TIP3   OH232324   6.776   4.144   5.381
10794TIP3    H132325   6.705   4.085   5.355
10794TIP3    H232326   6.785   4.204   5.308
10795TIP3   OH232327   0.762   4.694   3.749
10795TIP3    H132328   0.776   4.664   3.660
10795TIP3    H232329   0.668   4.717   3.752
10796TIP3   OH232330   3.393   5.130   5.922
10796TIP3    H132331   3.403   5.043   5.883
10796TIP3    H232332   3.336   5.116   5.997
10797TIP3   OH232333   4.843   2.654   4.003
10797TIP3    H132334   4.813   2.566   4.026
10797TIP3    H232335   4.804   2.671   3.917
10798TIP3   OH232336   6.689   4.526   0.429
10798TIP3    H132337   6.768   4.572   0.458
10798TIP3    H232338   6.682   4.549   0.336
10799TIP3   OH232339   6.760   0.028   1.177
10799TIP3    H132340   6.697   0.069   1.118
10799TIP3    H232341   6.783   0.097   1.238
10800TIP3   OH232342   1.403   7.406   3.386
10800TIP3    H132343   1.352   7.381   3.309
10800TIP3    H232344   1.491   7.421   3.352
10801TIP3   OH232345   1.065   0.765   3.723
10801TIP3    H132346   1.075   0.786   3.816
10801TIP3    H232347   1.144   0.800   3.682
10802TIP3   OH232348   6.381   6.639   3.839
10802TIP3    H132349   6.307   6.631   3.899
10802TIP3    H232350   6.401   6.548   3.814
10803TIP3   OH232351   2.408   2.499   5.375
10803TIP3    H132352   2.389   2.405   5.370
10803TIP3    H232353   2.474   2.507   5.443
10804TIP3   OH232354   0.107   4.338   5.106
10804TIP3    H132355   0.050   4.310   5.178
10804TIP3    H232356   0.139   4.424   5.133
10805TIP3   OH232357   5.714   6.264   2.040
10805TIP3    H132358   5.802   6.297   2.021
10805TIP3    H232359   5.657   6.339   2.023
10806TIP3   OH232360   2.927   6.779   2.046
10806TIP3    H132361   2.922   6.687   2.074
10806TIP3    H232362   2.867   6.825   2.105
10807TIP3   OH232363   6.321   0.765   0.133
10807TIP3    H132364   6.312   0.767   0.038
10807TIP3    H232365   6.414   0.780   0.149
10808TIP3   OH232366   6.559   3.859   0.617
10808TIP3    H132367   6.617   3.845   0.691
10808TIP3    H232368   6.575   3.950   0.591
10809TIP3   OH232369   6.592   5.738   4.487
10809TIP3    H132370   6.661   5.799   4.461
10809TIP3    H232371   6.631   5.651   4.475
10810TIP3   OH232372   3.271   2.047   6.237
10810TIP3    H132373   3.264   1.975   6.175
10810TIP3    H232374   3.312   2.118   6.187
10811TIP3   OH232375   3.407   7.398   6.681
10811TIP3    H132376   3.426   7.349   6.761
10811TIP3    H232377   3.342   7.463   6.708
10812TIP3   OH232378   6.717   4.913   5.780
10812TIP3    H132379   6.698   4.831   5.735
10812TIP3    H232380   6.652   4.975   5.747
10813TIP3   OH232381   4.130   4.137   1.510
10813TIP3    H132382   4.137   4.196   1.435
10813TIP3    H232383   4.074   4.065   1.480
10814TIP3   OH232384   0.878   0.535   1.123
10814TIP3    H132385   0.866   0.619   1.078
10814TIP3    H232386   0.795   0.490   1.110
10815TIP3   OH232387   3.800   2.455   3.942
10815TIP3    H132388   3.806   2.369   3.901
10815TIP3    H232389   3.713   2.458   3.981
10816TIP3   OH232390   8.151   7.425   3.854
10816TIP3    H132391   8.205   7.496   3.817
10816TIP3    H232392   8.167   7.430   3.949
10817TIP3   OH232393   7.552   1.451   4.783
10817TIP3    H132394   7.629   1.450   4.725
10817TIP3    H232395   7.549   1.540   4.817
10818TIP3   OH232396   5.975   5.432   3.159
10818TIP3    H132397   6.056   5.387   3.181
10818TIP3    H232398   5.920   5.365   3.118
10819TIP3   OH232399   5.906   5.717   3.660
10819TIP3    H132400   5.921   5.622   3.660
10819TIP3    H232401   5.983   5.753   3.704
10820TIP3   OH232402   8.101   2.351   3.475
10820TIP3    H132403   8.177   2.305   3.510
10820TIP3    H232404   8.048   2.373   3.552
10821TIP3   OH232405   7.258   2.049   3.396
10821TIP3    H132406   7.249   2.142   3.418
10821TIP3    H232407   7.181   2.008   3.436
10822TIP3   OH232408   0.954   2.856   2.761
10822TIP3    H132409   1.018   2.928   2.758
10822TIP3    H232410   1.005   2.778   2.738
10823TIP3   OH232411   1.554   1.366   5.113
10823TIP3    H132412   1.530   1.313   5.037
10823TIP3    H232413   1.533   1.456   5.087
10824TIP3   OH232414   8.214   5.138   0.849
10824TIP3    H132415   8.300   5.105   0.874
10824TIP3    H232416   8.174   5.065   0.802
10825TIP3   OH232417   0.464   1.546   2.663
10825TIP3    H132418   0.415   1.501   2.594
10825TIP3    H232419   0.418   1.524   2.744
10826TIP3   OH232420   6.122   3.676   1.817
10826TIP3    H132421   6.215   3.658   1.800
10826TIP3    H232422   6.119   3.703   1.908
10827TIP3   OH232423   5.904   2.977   5.344
10827TIP3    H132424   5.930   2.938   5.260
10827TIP3    H232425   5.842   3.046   5.319
10828TIP3   OH232426   5.346   2.784   2.307
10828TIP3    H132427   5.376   2.848   2.371
10828TIP3    H232428   5.307   2.713   2.359
10829TIP3   OH232429   7.933   2.006   2.708
10829TIP3    H132430   7.976   2.051   2.635
10829TIP3    H232431   7.908   1.921   2.672
10830TIP3   OH232432   8.021   4.631   1.385
10830TIP3    H132433   8.114   4.639   1.362
10830TIP3    H232434   8.014   4.545   1.425
10831TIP3   OH232435   5.830   2.442   4.236
10831TIP3    H132436   5.872   2.528   4.241
10831TIP3    H232437   5.873   2.398   4.163
10832TIP3   OH232438   3.979   5.641   0.070
10832TIP3    H132439   3.987   5.547   0.058
10832TIP3    H232440   4.050   5.678   0.017
10833TIP3   OH232441   4.632   4.240   5.692
10833TIP3    H132442   4.565   4.306   5.676
10833TIP3    H232443   4.620   4.175   5.623
10834TIP3   OH232444   1.140   0.085   0.419
10834TIP3    H132445   1.219   0.085   0.365
10834TIP3    H232446   1.172   0.084   0.509
10835TIP3   OH232447   8.162   4.270   5.727
10835TIP3    H132448   8.108   4.335   5.682
10835TIP3    H232449   8.234   4.252   5.667
10836TIP3   OH232450   6.805   3.126   1.548
10836TIP3    H132451   6.805   3.202   1.489
10836TIP3    H232452   6.897   3.116   1.573
10837TIP3   OH232453   8.143   5.254   5.453
10837TIP3    H132454   8.118   5.162   5.454
10837TIP3    H232455   8.119   5.286   5.540
10838TIP3   OH232456   0.974   4.382   2.146
10838TIP3    H132457   0.911   4.378   2.218
10838TIP3    H232458   1.058   4.359   2.187
10839TIP3   OH232459   1.271   4.231   0.259
10839TIP3    H132460   1.359   4.215   0.291
10839TIP3    H232461   1.238   4.144   0.235
10840TIP3   OH232462   1.511   7.444   0.346
10840TIP3    H132463   1.466   7.388   0.409
10840TIP3    H232464   1.602   7.417   0.350
10841TIP3   OH232465   4.387   0.260   3.573
10841TIP3    H132466   4.426   0.306   3.646
10841TIP3    H232467   4.327   0.323   3.533
10842TIP3   OH232468   1.197   2.051   1.506
10842TIP3    H132469   1.215   2.139   1.537
10842TIP3    H232470   1.174   2.062   1.413
10843TIP3   OH232471   6.978   4.550   6.024
10843TIP3    H132472   6.909   4.545   6.091
10843TIP3    H232473   7.034   4.621   6.054
10844TIP3   OH232474   8.265   2.598   5.688
10844TIP3    H132475   8.328   2.623   5.755
10844TIP3    H232476   8.180   2.601   5.733
10845TIP3   OH232477   3.396   6.509   0.465
10845TIP3    H132478   3.411   6.600   0.491
10845TIP3    H232479   3.406   6.510   0.370
10846TIP3   OH232480   0.163   6.014   5.730
10846TIP3    H132481   0.169   6.066   5.810
10846TIP3    H232482   0.246   6.030   5.684
10847TIP3   OH232483   5.405   5.372   1.983
10847TIP3    H132484   5.482   5.346   2.033
10847TIP3    H232485   5.425   5.460   1.951
10848TIP3   OH232486   2.574   2.867   3.300
10848TIP3    H132487   2.529   2.940   3.343
10848TIP3    H232488   2.613   2.817   3.373
10849TIP3   OH232489   1.292   0.901   3.621
10849TIP3    H132490   1.349   0.976   3.638
10849TIP3    H232491   1.352   0.828   3.607
10850TIP3   OH232492   1.293   4.272   4.754
10850TIP3    H132493   1.312   4.307   4.667
10850TIP3    H232494   1.311   4.344   4.813
10851TIP3   OH232495   7.455   6.082   5.638
10851TIP3    H132496   7.378   6.026   5.649
10851TIP3    H232497   7.484   6.101   5.727
10852TIP3   OH232498   5.210   1.575   0.470
10852TIP3    H132499   5.298   1.543   0.489
10852TIP3    H232500   5.176   1.514   0.405
10853TIP3   OH232501   3.845   3.309   1.481
10853TIP3    H132502   3.839   3.403   1.497
10853TIP3    H232503   3.848   3.269   1.568
10854TIP3   OH232504   1.315   5.032   1.015
10854TIP3    H132505   1.356   5.100   1.069
10854TIP3    H232506   1.223   5.056   1.010
10855TIP3   OH232507   0.393   5.616   1.691
10855TIP3    H132508   0.433   5.533   1.718
10855TIP3    H232509   0.454   5.683   1.720
10856TIP3   OH232510   4.519   7.760   0.722
10856TIP3    H132511   4.468   7.702   0.779
10856TIP3    H232512   4.571   7.813   0.782
10857TIP3   OH232513   3.474   3.841   3.936
10857TIP3    H132514   3.431   3.792   4.005
10857TIP3    H232515   3.536   3.898   3.982
10858TIP3   OH232516   1.567   1.319   6.076
10858TIP3    H132517   1.619   1.260   6.131
10858TIP3    H232518   1.577   1.405   6.117
10859TIP3   OH232519   4.657   7.666   2.305
10859TIP3    H132520   4.731   7.608   2.285
10859TIP3    H232521   4.640   7.652   2.398
10860TIP3   OH232522   6.374   1.601   4.424
10860TIP3    H132523   6.469   1.591   4.413
10860TIP3    H232524   6.365   1.670   4.490
10861TIP3   OH232525   7.203   5.536   3.869
10861TIP3    H132526   7.130   5.589   3.837
10861TIP3    H232527   7.271   5.546   3.802
10862TIP3   OH232528   4.930   6.948   1.917
10862TIP3    H132529   4.930   7.025   1.973
10862TIP3    H232530   5.010   6.956   1.865
10863TIP3   OH232531   6.010   2.403   5.797
10863TIP3    H132532   5.935   2.361   5.841
10863TIP3    H232533   6.083   2.388   5.856
10864TIP3   OH232534   2.375   6.710   5.558
10864TIP3    H132535   2.289   6.706   5.517
10864TIP3    H232536   2.374   6.639   5.622
10865TIP3   OH232537   6.800   2.932   2.047
10865TIP3    H132538   6.800   3.016   2.093
10865TIP3    H232539   6.805   2.956   1.954
10866TIP3   OH232540   1.516   0.301   2.804
10866TIP3    H132541   1.517   0.218   2.757
10866TIP3    H232542   1.429   0.338   2.787
10867TIP3   OH232543   0.805   0.057   4.264
10867TIP3    H132544   0.740  -0.011   4.282
10867TIP3    H232545   0.879   0.008   4.225
10868TIP3   OH232546   2.265   6.028   6.562
10868TIP3    H132547   2.297   6.019   6.472
10868TIP3    H232548   2.198   6.096   6.557
10869TIP3   OH232549   4.209   0.938   1.196
10869TIP3    H132550   4.142   0.870   1.206
10869TIP3    H232551   4.238   0.956   1.285
10870TIP3   OH232552   6.991   3.674   0.502
10870TIP3    H132553   6.983   3.695   0.409
10870TIP3    H232554   7.013   3.758   0.543
10871TIP3   OH232555   2.414   5.780   4.972
10871TIP3    H132556   2.415   5.732   5.055
10871TIP3    H232557   2.412   5.872   4.998
10872TIP3   OH232558   2.846   0.519   6.058
10872TIP3    H132559   2.935   0.541   6.086
10872TIP3    H232560   2.815   0.597   6.013
10873TIP3   OH232561   1.447   4.396   3.394
10873TIP3    H132562   1.357   4.412   3.423
10873TIP3    H232563   1.440   4.379   3.300
10874TIP3   OH232564   7.417   5.804   6.304
10874TIP3    H132565   7.444   5.747   6.231
10874TIP3    H232566   7.334   5.768   6.334
10875TIP3   OH232567   5.967   3.188   3.237
10875TIP3    H132568   5.944   3.095   3.241
10875TIP3    H232569   5.896   3.229   3.188
10876TIP3   OH232570   5.304   6.522   6.178
10876TIP3    H132571   5.265   6.434   6.173
10876TIP3    H232572   5.343   6.527   6.265
10877TIP3   OH232573   5.858   7.114   6.434
10877TIP3    H132574   5.900   7.099   6.519
10877TIP3    H232575   5.915   7.067   6.372
10878TIP3   OH232576   7.073   5.289   3.639
10878TIP3    H132577   7.014   5.217   3.619
10878TIP3    H232578   7.062   5.304   3.733
10879TIP3   OH232579   4.487   7.100   5.054
10879TIP3    H132580   4.527   7.068   4.973
10879TIP3    H232581   4.418   7.037   5.073
10880TIP3   OH232582   6.345   1.491   2.348
10880TIP3    H132583   6.294   1.419   2.312
10880TIP3    H232584   6.284   1.565   2.348
10881TIP3   OH232585   7.804   2.893   3.600
10881TIP3    H132586   7.787   2.861   3.689
10881TIP3    H232587   7.718   2.924   3.570
10882TIP3   OH232588   3.334   0.531   3.364
10882TIP3    H132589   3.391   0.595   3.405
10882TIP3    H232590   3.393   0.472   3.317
10883TIP3   OH232591   6.507   2.853   6.305
10883TIP3    H132592   6.550   2.808   6.232
10883TIP3    H232593   6.561   2.931   6.321
10884TIP3   OH232594   7.124   6.788   3.721
10884TIP3    H132595   7.043   6.760   3.763
10884TIP3    H232596   7.145   6.718   3.660
10885TIP3   OH232597   7.493   1.965   4.797
10885TIP3    H132598   7.528   2.010   4.719
10885TIP3    H232599   7.499   2.031   4.866
10886TIP3   OH232600   1.829   4.911   4.887
10886TIP3    H132601   1.918   4.905   4.921
10886TIP3    H232602   1.776   4.937   4.962
10887TIP3   OH232603   3.869   2.577   4.730
10887TIP3    H132604   3.924   2.508   4.694
10887TIP3    H232605   3.926   2.653   4.735
10888TIP3   OH232606   3.814   3.650   5.101
10888TIP3    H132607   3.775   3.565   5.081
10888TIP3    H232608   3.905   3.642   5.071
10889TIP3   OH232609   3.752   0.097   4.146
10889TIP3    H132610   3.702   0.023   4.180
10889TIP3    H232611   3.809   0.060   4.079
10890TIP3   OH232612   6.425   6.123   3.304
10890TIP3    H132613   6.330   6.119   3.293
10890TIP3    H232614   6.443   6.068   3.380
10891TIP3   OH232615   2.291   2.197   4.435
10891TIP3    H132616   2.198   2.220   4.427
10891TIP3    H232617   2.337   2.267   4.389
10892TIP3   OH232618   0.345   3.168   2.142
10892TIP3    H132619   0.347   3.106   2.069
10892TIP3    H232620   0.348   3.113   2.221
10893TIP3   OH232621   1.648   5.278   6.620
10893TIP3    H132622   1.724   5.335   6.631
10893TIP3    H232623   1.608   5.274   6.707
10894TIP3   OH232624   6.220   7.401   1.115
10894TIP3    H132625   6.242   7.325   1.170
10894TIP3    H232626   6.131   7.383   1.085
10895TIP3   OH232627   3.625   6.622   0.811
10895TIP3    H132628   3.717   6.640   0.790
10895TIP3    H232629   3.610   6.532   0.782
10896TIP3   OH232630   4.858   7.541   1.959
10896TIP3    H132631   4.779   7.497   1.926
10896TIP3    H232632   4.927   7.515   1.899
10897TIP3   OH232633   7.032   2.488   4.099
10897TIP3    H132634   7.042   2.517   4.189
10897TIP3    H232635   7.116   2.449   4.076
10898TIP3   OH232636   6.502   7.210   1.823
10898TIP3    H132637   6.487   7.120   1.794
10898TIP3    H232638   6.572   7.203   1.888
10899TIP3   OH232639   3.902   7.775   0.495
10899TIP3    H132640   3.841   7.844   0.520
10899TIP3    H232641   3.880   7.754   0.404
10900TIP3   OH232642   2.106   6.228   4.275
10900TIP3    H132643   2.087   6.319   4.253
10900TIP3    H232644   2.176   6.203   4.215
10901TIP3   OH232645   2.748   2.491   1.448
10901TIP3    H132646   2.725   2.423   1.512
10901TIP3    H232647   2.793   2.445   1.378
10902TIP3   OH232648   2.537   6.986   0.832
10902TIP3    H132649   2.547   7.067   0.780
10902TIP3    H232650   2.589   7.002   0.911
10903TIP3   OH232651   3.880   2.146   1.937
10903TIP3    H132652   3.817   2.185   1.877
10903TIP3    H232653   3.936   2.218   1.964
10904TIP3   OH232654   0.869   1.166   2.562
10904TIP3    H132655   0.844   1.117   2.484
10904TIP3    H232656   0.958   1.197   2.543
10905TIP3   OH232657   1.052  -0.008   2.367
10905TIP3    H132658   1.001   0.072   2.380
10905TIP3    H232659   1.103   0.009   2.288
10906TIP3   OH232660   3.322   7.398   4.353
10906TIP3    H132661   3.406   7.432   4.323
10906TIP3    H232662   3.287   7.350   4.278
10907TIP3   OH232663   2.072   5.477   1.320
10907TIP3    H132664   2.035   5.431   1.395
10907TIP3    H232665   2.056   5.569   1.338
10908TIP3   OH232666   0.843   3.047   3.729
10908TIP3    H132667   0.808   2.981   3.668
10908TIP3    H232668   0.807   3.130   3.698
10909TIP3   OH232669   1.033   3.230   6.427
10909TIP3    H132670   1.118   3.265   6.452
10909TIP3    H232671   1.051   3.142   6.395
10910TIP3   OH232672   2.914   5.475   2.781
10910TIP3    H132673   2.977   5.520   2.837
10910TIP3    H232674   2.853   5.434   2.841
10911TIP3   OH232675   6.608   7.370   2.704
10911TIP3    H132676   6.662   7.407   2.773
10911TIP3    H232677   6.651   7.288   2.681
10912TIP3   OH232678   4.105   1.020   4.915
10912TIP3    H132679   4.146   1.034   4.829
10912TIP3    H232680   4.106   1.107   4.956
10913TIP3   OH232681   6.573   4.368   3.466
10913TIP3    H132682   6.481   4.360   3.441
10913TIP3    H232683   6.601   4.278   3.485
10914TIP3   OH232684   4.964   4.822   3.712
10914TIP3    H132685   4.965   4.817   3.808
10914TIP3    H232686   4.880   4.783   3.687
10915TIP3   OH232687   7.961   6.828   4.265
10915TIP3    H132688   7.867   6.827   4.285
10915TIP3    H232689   7.967   6.871   4.180
10916TIP3   OH232690   6.749   4.114   0.942
10916TIP3    H132691   6.747   4.203   0.909
10916TIP3    H232692   6.814   4.115   1.012
10917TIP3   OH232693   7.147   4.536   5.347
10917TIP3    H132694   7.221   4.517   5.290
10917TIP3    H232695   7.160   4.626   5.376
10918TIP3   OH232696   4.254   2.359   6.377
10918TIP3    H132697   4.315   2.287   6.363
10918TIP3    H232698   4.272   2.420   6.305
10919TIP3   OH232699   4.071   5.405   3.173
10919TIP3    H132700   4.138   5.336   3.174
10919TIP3    H232701   4.096   5.462   3.100
10920TIP3   OH232702   1.994   5.482   2.867
10920TIP3    H132703   2.082   5.483   2.906
10920TIP3    H232704   1.939   5.529   2.930
10921TIP3   OH232705   7.277   4.282   6.763
10921TIP3    H132706   7.208   4.243   6.708
10921TIP3    H232707   7.244   4.271   6.852
10922TIP3   OH232708   7.996   1.914   1.994
10922TIP3    H132709   8.066   1.933   1.932
10922TIP3    H232710   8.035   1.929   2.080
10923TIP3   OH232711   2.114   3.917   0.462
10923TIP3    H132712   2.136   3.967   0.384
10923TIP3    H232713   2.129   3.978   0.535
10924TIP3   OH232714   5.709   4.716   4.458
10924TIP3    H132715   5.652   4.639   4.466
10924TIP3    H232716   5.658   4.777   4.405
10925TIP3   OH232717   3.850   6.456   4.925
10925TIP3    H132718   3.780   6.496   4.977
10925TIP3    H232719   3.902   6.406   4.987
10926TIP3   OH232720   2.878   6.098   4.500
10926TIP3    H132721   2.934   6.136   4.433
10926TIP3    H232722   2.939   6.057   4.562
10927TIP3   OH232723   1.889   5.801   0.419
10927TIP3    H132724   1.925   5.778   0.334
10927TIP3    H232725   1.803   5.837   0.400
10928TIP3   OH232726   6.878   3.143   5.876
10928TIP3    H132727   6.790   3.110   5.898
10928TIP3    H232728   6.863   3.206   5.806
10929TIP3   OH232729   1.369   7.265   0.509
10929TIP3    H132730   1.301   7.205   0.480
10929TIP3    H232731   1.370   7.257   0.604
10930TIP3   OH232732   2.186   4.740   3.200
10930TIP3    H132733   2.185   4.659   3.251
10930TIP3    H232734   2.232   4.717   3.120
10931TIP3   OH232735   4.347   3.098   4.566
10931TIP3    H132736   4.389   3.126   4.647
10931TIP3    H232737   4.403   3.132   4.496
10932TIP3   OH232738   2.620   1.509   5.968
10932TIP3    H132739   2.622   1.565   6.045
10932TIP3    H232740   2.527   1.488   5.956
10933TIP3   OH232741   5.688   0.546   0.153
10933TIP3    H132742   5.773   0.578   0.124
10933TIP3    H232743   5.643   0.519   0.073
10934TIP3   OH232744   4.929   7.380   6.049
10934TIP3    H132745   4.989   7.406   5.979
10934TIP3    H232746   4.974   7.310   6.095
10935TIP3   OH232747   2.301   1.279   3.527
10935TIP3    H132748   2.339   1.365   3.507
10935TIP3    H232749   2.283   1.241   3.441
10936TIP3   OH232750   5.320   3.295   3.713
10936TIP3    H132751   5.297   3.211   3.751
10936TIP3    H232752   5.357   3.345   3.785
10937TIP3   OH232753   7.788   7.092   3.837
10937TIP3    H132754   7.830   7.024   3.888
10937TIP3    H232755   7.762   7.158   3.901
10938TIP3   OH232756   2.058   4.872   1.111
10938TIP3    H132757   2.008   4.836   1.184
10938TIP3    H232758   2.005   4.853   1.034
10939TIP3   OH232759   4.471   6.224   2.035
10939TIP3    H132760   4.547   6.280   2.020
10939TIP3    H232761   4.414   6.275   2.093
10940TIP3   OH232762   4.143   3.252   5.409
10940TIP3    H132763   4.133   3.158   5.423
10940TIP3    H232764   4.130   3.291   5.495
10941TIP3   OH232765   5.197   4.971   0.420
10941TIP3    H132766   5.125   4.916   0.390
10941TIP3    H232767   5.231   5.011   0.340
10942TIP3   OH232768   4.908   7.224   5.384
10942TIP3    H132769   4.866   7.253   5.302
10942TIP3    H232770   5.001   7.222   5.364
10943TIP3   OH232771   4.651   2.132   6.539
10943TIP3    H132772   4.609   2.165   6.619
10943TIP3    H232773   4.596   2.166   6.468
10944TIP3   OH232774   4.494   2.429   1.798
10944TIP3    H132775   4.412   2.395   1.834
10944TIP3    H232776   4.508   2.511   1.845
10945TIP3   OH232777   6.377   2.744   1.957
10945TIP3    H132778   6.429   2.706   1.887
10945TIP3    H232779   6.370   2.674   2.022
10946TIP3   OH232780   1.275   0.600   5.820
10946TIP3    H132781   1.248   0.613   5.911
10946TIP3    H232782   1.269   0.505   5.807
10947TIP3   OH232783   7.914   4.562   1.768
10947TIP3    H132784   7.819   4.575   1.771
10947TIP3    H232785   7.949   4.637   1.817
10948TIP3   OH232786   2.446   3.711   4.013
10948TIP3    H132787   2.426   3.804   4.011
10948TIP3    H232788   2.454   3.686   3.921
10949TIP3   OH232789   6.285   1.120   5.252
10949TIP3    H132790   6.227   1.129   5.176
10949TIP3    H232791   6.338   1.199   5.252
10950TIP3   OH232792   7.190   1.285   3.326
10950TIP3    H132793   7.154   1.239   3.250
10950TIP3    H232794   7.220   1.216   3.384
10951TIP3   OH232795   6.848   6.540   1.849
10951TIP3    H132796   6.795   6.619   1.848
10951TIP3    H232797   6.874   6.527   1.757
10952TIP3   OH232798   7.595   2.384   1.160
10952TIP3    H132799   7.514   2.407   1.114
10952TIP3    H232800   7.636   2.467   1.181
10953TIP3   OH232801   4.856   5.039   0.764
10953TIP3    H132802   4.948   5.034   0.792
10953TIP3    H232803   4.856   5.004   0.675
10954TIP3   OH232804   4.033   7.146   1.468
10954TIP3    H132805   4.031   7.076   1.533
10954TIP3    H232806   4.086   7.215   1.508
10955TIP3   OH232807   5.302   6.322   5.176
10955TIP3    H132808   5.256   6.395   5.219
10955TIP3    H232809   5.369   6.364   5.123
10956TIP3   OH232810   5.089   5.924   4.555
10956TIP3    H132811   5.092   5.877   4.639
10956TIP3    H232812   5.000   5.911   4.523
10957TIP3   OH232813   6.609   4.140   0.554
10957TIP3    H132814   6.640   4.219   0.598
10957TIP3    H232815   6.543   4.171   0.492
10958TIP3   OH232816   7.524   2.022   4.469
10958TIP3    H132817   7.564   2.108   4.472
10958TIP3    H232818   7.551   1.985   4.385
10959TIP3   OH232819   5.333   6.685   4.568
10959TIP3    H132820   5.343   6.779   4.551
10959TIP3    H232821   5.239   6.673   4.584
10960TIP3   OH232822   6.352   5.034   3.234
10960TIP3    H132823   6.428   5.065   3.284
10960TIP3    H232824   6.387   4.967   3.175
10961TIP3   OH232825   7.057   7.665   5.175
10961TIP3    H132826   7.018   7.695   5.092
10961TIP3    H232827   7.017   7.721   5.242
10962TIP3   OH232828   5.239   3.104   1.361
10962TIP3    H132829   5.222   3.162   1.436
10962TIP3    H232830   5.208   3.018   1.390
10963TIP3   OH232831   6.637   1.229   5.863
10963TIP3    H132832   6.556   1.180   5.849
10963TIP3    H232833   6.707   1.166   5.845
10964TIP3   OH232834   6.929   2.073   3.001
10964TIP3    H132835   6.887   2.006   2.946
10964TIP3    H232836   6.876   2.152   2.987
10965TIP3   OH232837   2.665   2.886   3.789
10965TIP3    H132838   2.687   2.885   3.695
10965TIP3    H232839   2.581   2.841   3.794
10966TIP3   OH232840   6.425   0.912   2.377
10966TIP3    H132841   6.330   0.921   2.379
10966TIP3    H232842   6.450   0.898   2.468
10967TIP3   OH232843   7.132   6.048   2.793
10967TIP3    H132844   7.145   5.994   2.714
10967TIP3    H232845   7.174   6.131   2.771
10968TIP3   OH232846   6.205   6.225   5.289
10968TIP3    H132847   6.221   6.174   5.368
10968TIP3    H232848   6.196   6.315   5.320
10969TIP3   OH232849   7.494   3.971   4.528
10969TIP3    H132850   7.464   4.061   4.536
10969TIP3    H232851   7.431   3.920   4.578
10970TIP3   OH232852   3.795   5.062   2.243
10970TIP3    H132853   3.727   5.061   2.310
10970TIP3    H232854   3.797   5.152   2.211
10971TIP3   OH232855   3.621   0.148   3.487
10971TIP3    H132856   3.606   0.188   3.401
10971TIP3    H232857   3.698   0.192   3.521
10972TIP3   OH232858   1.128   2.021   3.398
10972TIP3    H132859   1.085   2.027   3.313
10972TIP3    H232860   1.197   2.087   3.395
10973TIP3   OH232861   3.343   0.504   2.190
10973TIP3    H132862   3.334   0.472   2.279
10973TIP3    H232863   3.415   0.567   2.193
10974TIP3   OH232864   6.299   2.399   0.584
10974TIP3    H132865   6.387   2.414   0.618
10974TIP3    H232866   6.254   2.483   0.596
10975TIP3   OH232867   3.316   7.149   4.729
10975TIP3    H132868   3.364   7.086   4.675
10975TIP3    H232869   3.348   7.235   4.700
10976TIP3   OH232870   6.032   6.146   5.820
10976TIP3    H132871   5.990   6.070   5.779
10976TIP3    H232872   5.968   6.217   5.811
10977TIP3   OH232873   1.606   3.252   1.506
10977TIP3    H132874   1.530   3.293   1.547
10977TIP3    H232875   1.603   3.161   1.534
10978TIP3   OH232876   1.902   4.177   5.872
10978TIP3    H132877   1.822   4.161   5.822
10978TIP3    H232878   1.875   4.170   5.964
10979TIP3   OH232879   0.135   5.719   0.124
10979TIP3    H132880   0.152   5.625   0.135
10979TIP3    H232881   0.055   5.723   0.072
10980TIP3   OH232882   6.672   2.184   6.159
10980TIP3    H132883   6.626   2.138   6.089
10980TIP3    H232884   6.762   2.153   6.153
10981TIP3   OH232885   5.033   1.699   1.912
10981TIP3    H132886   5.060   1.618   1.869
10981TIP3    H232887   4.956   1.727   1.862
10982TIP3   OH232888   7.555   2.637   3.262
10982TIP3    H132889   7.562   2.728   3.234
10982TIP3    H232890   7.620   2.591   3.209
10983TIP3   OH232891   8.049   6.304   6.489
10983TIP3    H132892   8.051   6.392   6.452
10983TIP3    H232893   7.992   6.312   6.566
10984TIP3   OH232894   5.645   7.239   3.207
10984TIP3    H132895   5.550   7.226   3.205
10984TIP3    H232896   5.658   7.309   3.271
10985TIP3   OH232897   4.470   4.506   2.559
10985TIP3    H132898   4.539   4.476   2.618
10985TIP3    H232899   4.415   4.562   2.613
10986TIP3   OH232900   0.072   4.388   3.578
10986TIP3    H132901   0.043   4.377   3.669
10986TIP3    H232902   0.060   4.481   3.560
10987TIP3   OH232903   6.241   5.440   5.080
10987TIP3    H132904   6.212   5.531   5.088
10987TIP3    H232905   6.315   5.444   5.019
10988TIP3   OH232906   6.561   5.608   2.496
10988TIP3    H132907   6.503   5.659   2.552
10988TIP3    H232908   6.535   5.517   2.511
10989TIP3   OH232909   6.888   5.853   4.733
10989TIP3    H132910   6.954   5.887   4.793
10989TIP3    H232911   6.805   5.876   4.774
10990TIP3   OH232912   6.403   0.899   1.115
10990TIP3    H132913   6.449   0.982   1.105
10990TIP3    H232914   6.367   0.903   1.204
10991TIP3   OH232915   4.757   6.015   6.718
10991TIP3    H132916   4.752   6.070   6.796
10991TIP3    H232917   4.709   6.064   6.651
10992TIP3   OH232918   2.122   6.056   2.819
10992TIP3    H132919   2.142   5.967   2.848
10992TIP3    H232920   2.207   6.099   2.816
10993TIP3   OH232921   4.519   5.429   6.249
10993TIP3    H132922   4.453   5.361   6.265
10993TIP3    H232923   4.596   5.400   6.297
10994TIP3   OH232924   3.244   7.434   3.765
10994TIP3    H132925   3.334   7.416   3.790
10994TIP3    H232926   3.191   7.377   3.821
10995TIP3   OH232927   2.885   2.355   1.016
10995TIP3    H132928   2.818   2.347   1.083
10995TIP3    H232929   2.966   2.368   1.065
10996TIP3   OH232930   5.825   2.177   3.218
10996TIP3    H132931   5.903   2.219   3.183
10996TIP3    H232932   5.756   2.198   3.155
10997TIP3   OH232933   6.698   1.466   0.882
10997TIP3    H132934   6.744   1.533   0.932
10997TIP3    H232935   6.717   1.384   0.927
10998TIP3   OH232936   1.782   0.316   1.995
10998TIP3    H132937   1.794   0.401   2.038
10998TIP3    H232938   1.804   0.333   1.903
10999TIP3   OH232939   7.289   4.575   2.316
10999TIP3    H132940   7.282   4.540   2.227
10999TIP3    H232941   7.244   4.511   2.371
11000TIP3   OH232942   6.591   1.383   6.103
11000TIP3    H132943   6.619   1.335   6.025
11000TIP3    H232944   6.666   1.378   6.163
11001TIP3   OH232945   3.279   0.231   2.524
11001TIP3    H132946   3.279   0.318   2.484
11001TIP3    H232947   3.187   0.208   2.533
11002TIP3   OH232948   4.462   4.816   0.830
11002TIP3    H132949   4.524   4.888   0.831
11002TIP3    H232950   4.383   4.851   0.871
11003TIP3   OH232951   4.833   0.898   0.833
11003TIP3    H132952   4.866   0.988   0.834
11003TIP3    H232953   4.754   0.900   0.886
11004TIP3   OH232954   3.985   1.153   0.160
11004TIP3    H132955   3.909   1.113   0.117
11004TIP3    H232956   4.056   1.090   0.145
11005TIP3   OH232957   4.481   6.910   6.588
11005TIP3    H132958   4.565   6.901   6.543
11005TIP3    H232959   4.489   6.854   6.666
11006TIP3   OH232960   7.854   1.397   1.181
11006TIP3    H132961   7.852   1.407   1.276
11006TIP3    H232962   7.941   1.428   1.155
11007TIP3   OH232963   4.423   5.695   1.611
11007TIP3    H132964   4.414   5.662   1.701
11007TIP3    H232965   4.469   5.778   1.621
11008TIP3   OH232966   2.028   4.660   6.706
11008TIP3    H132967   2.041   4.687   6.796
11008TIP3    H232968   2.064   4.732   6.654
11009TIP3   OH232969   3.539   2.572   5.216
11009TIP3    H132970   3.487   2.639   5.173
11009TIP3    H232971   3.534   2.594   5.309
11010TIP3   OH232972   1.358   3.213   4.429
11010TIP3    H132973   1.305   3.281   4.387
11010TIP3    H232974   1.294   3.158   4.474
11011TIP3   OH232975   0.420   2.886   4.481
11011TIP3    H132976   0.364   2.951   4.438
11011TIP3    H232977   0.431   2.919   4.570
11012TIP3   OH232978   7.887   2.419   2.316
11012TIP3    H132979   7.963   2.369   2.346
11012TIP3    H232980   7.841   2.443   2.397
11013TIP3   OH232981   7.236   5.936   2.200
11013TIP3    H132982   7.170   5.988   2.154
11013TIP3    H232983   7.201   5.926   2.288
11014TIP3   OH232984   1.608   2.020   5.773
11014TIP3    H132985   1.608   1.927   5.795
11014TIP3    H232986   1.555   2.025   5.693
11015TIP3   OH232987   0.180   2.800   5.198
11015TIP3    H132988   0.187   2.793   5.293
11015TIP3    H232989   0.193   2.710   5.167
11016TIP3   OH232990   3.972   1.062   0.477
11016TIP3    H132991   3.964   1.100   0.390
11016TIP3    H232992   4.065   1.070   0.498
11017TIP3   OH232993   5.768   0.662   5.540
11017TIP3    H132994   5.808   0.647   5.454
11017TIP3    H232995   5.831   0.624   5.602
11018TIP3   OH232996   0.739   2.899   5.328
11018TIP3    H132997   0.789   2.968   5.285
11018TIP3    H232998   0.796   2.822   5.323
11019TIP3   OH232999   3.873   4.738   4.959
11019TIP3    H133000   3.809   4.695   5.016
11019TIP3    H233001   3.823   4.807   4.915
11020TIP3   OH233002   5.264   5.122   4.604
11020TIP3    H133003   5.295   5.147   4.517
11020TIP3    H233004   5.309   5.039   4.623
11021TIP3   OH233005   0.318   5.325   3.015
11021TIP3    H133006   0.333   5.305   3.107
11021TIP3    H233007   0.392   5.380   2.989
11022TIP3   OH233008   4.408   1.787   5.294
11022TIP3    H133009   4.422   1.830   5.209
11022TIP3    H233010   4.317   1.806   5.316
11023TIP3   OH233011   0.167   5.070   0.942
11023TIP3    H133012   0.139   5.121   1.018
11023TIP3    H233013   0.231   5.125   0.897
11024TIP3   OH233014   6.094   5.805   3.224
11024TIP3    H133015   6.087   5.748   3.147
11024TIP3    H233016   6.111   5.745   3.297
11025TIP3   OH233017   4.134   4.579   3.559
11025TIP3    H133018   4.159   4.656   3.610
11025TIP3    H233019   4.042   4.565   3.580
11026TIP3   OH233020   5.424   1.607   6.129
11026TIP3    H133021   5.471   1.652   6.199
11026TIP3    H233022   5.338   1.588   6.166
11027TIP3   OH233023   1.794   4.831   4.105
11027TIP3    H133024   1.849   4.860   4.177
11027TIP3    H233025   1.833   4.748   4.076
11028TIP3   OH233026   4.923   1.275   2.555
11028TIP3    H133027   5.017   1.293   2.543
11028TIP3    H233028   4.904   1.305   2.643
11029TIP3   OH233029   2.794   6.849   3.335
11029TIP3    H133030   2.743   6.897   3.270
11029TIP3    H233031   2.782   6.757   3.311
11030TIP3   OH233032   1.571   7.808   6.375
11030TIP3    H133033   1.571   7.716   6.346
11030TIP3    H233034   1.632   7.852   6.316
11031TIP3   OH233035   2.690   5.930   4.179
11031TIP3    H133036   2.674   5.929   4.273
11031TIP3    H233037   2.675   6.020   4.152
11032TIP3   OH233038   3.889   4.707   2.519
11032TIP3    H133039   3.843   4.678   2.598
11032TIP3    H233040   3.827   4.692   2.448
11033TIP3   OH233041   5.031   0.924   6.543
11033TIP3    H133042   4.952   0.926   6.489
11033TIP3    H233043   5.001   0.892   6.628
11034TIP3   OH233044   3.584   2.752   2.749
11034TIP3    H133045   3.497   2.791   2.755
11034TIP3    H233046   3.580   2.675   2.806
11035TIP3   OH233047   0.350   2.404   1.035
11035TIP3    H133048   0.359   2.330   0.975
11035TIP3    H233049   0.308   2.473   0.983
11036TIP3   OH233050   3.055   4.115   3.869
11036TIP3    H133051   3.085   4.102   3.779
11036TIP3    H233052   3.061   4.029   3.909
11037TIP3   OH233053   2.592   4.203   2.417
11037TIP3    H133054   2.540   4.242   2.346
11037TIP3    H233055   2.539   4.130   2.448
11038TIP3   OH233056   4.488   1.328   3.980
11038TIP3    H133057   4.532   1.347   3.897
11038TIP3    H233058   4.505   1.404   4.035
11039TIP3   OH233059   4.538   1.054   0.345
11039TIP3    H133060   4.612   1.025   0.399
11039TIP3    H233061   4.528   0.985   0.279
11040TIP3   OH233062   6.230   1.221   3.731
11040TIP3    H133063   6.173   1.250   3.661
11040TIP3    H233064   6.249   1.300   3.782
11041TIP3   OH233065   0.170   4.558   1.533
11041TIP3    H133066   0.105   4.557   1.603
11041TIP3    H233067   0.127   4.604   1.461
11042TIP3   OH233068   1.569   1.612   3.208
11042TIP3    H133069   1.518   1.691   3.189
11042TIP3    H233070   1.530   1.577   3.289
11043TIP3   OH233071   1.521   7.269   5.839
11043TIP3    H133072   1.467   7.219   5.778
11043TIP3    H233073   1.582   7.206   5.876
11044TIP3   OH233074   6.530   7.176   6.180
11044TIP3    H133075   6.481   7.098   6.206
11044TIP3    H233076   6.472   7.249   6.203
11045TIP3   OH233077   5.587   2.797   3.995
11045TIP3    H133078   5.497   2.764   3.996
11045TIP3    H233079   5.579   2.888   4.023
11046TIP3   OH233080   2.755   4.351   5.156
11046TIP3    H133081   2.711   4.321   5.235
11046TIP3    H233082   2.778   4.271   5.109
11047TIP3   OH233083   2.768   4.613   5.068
11047TIP3    H133084   2.787   4.598   4.975
11047TIP3    H233085   2.775   4.526   5.108
11048TIP3   OH233086   6.402   4.214   2.077
11048TIP3    H133087   6.377   4.126   2.047
11048TIP3    H233088   6.327   4.269   2.056
11049TIP3   OH233089   6.569   4.025   1.126
11049TIP3    H133090   6.522   3.954   1.083
11049TIP3    H233091   6.622   4.064   1.056
11050TIP3   OH233092   3.804   5.678   2.301
11050TIP3    H133093   3.847   5.666   2.216
11050TIP3    H233094   3.852   5.622   2.361
11051TIP3   OH233095   4.770   6.947   4.897
11051TIP3    H133096   4.818   6.868   4.872
11051TIP3    H233097   4.681   6.933   4.863
11052TIP3   OH233098   1.538   2.778   1.860
11052TIP3    H133099   1.466   2.798   1.800
11052TIP3    H233100   1.495   2.750   1.941
11053TIP3   OH233101   8.098   2.694   0.714
11053TIP3    H133102   8.026   2.719   0.656
11053TIP3    H233103   8.073   2.608   0.748
11054TIP3   OH233104   7.939   3.253   0.542
11054TIP3    H133105   7.910   3.258   0.633
11054TIP3    H233106   7.862   3.221   0.495
11055TIP3   OH233107   2.273   1.143   0.696
11055TIP3    H133108   2.278   1.064   0.642
11055TIP3    H233109   2.266   1.215   0.633
11056TIP3   OH233110   1.665   5.634   0.148
11056TIP3    H133111   1.757   5.657   0.141
11056TIP3    H233112   1.649   5.575   0.075
11057TIP3   OH233113   0.280   0.080   2.905
11057TIP3    H133114   0.223   0.069   2.829
11057TIP3    H233115   0.326  -0.004   2.913
11058TIP3   OH233116   1.333   5.030   5.461
11058TIP3    H133117   1.324   5.001   5.552
11058TIP3    H233118   1.397   5.100   5.464
11059TIP3   OH233119   1.350   6.258   2.089
11059TIP3    H133120   1.441   6.260   2.120
11059TIP3    H233121   1.330   6.165   2.078
11060TIP3   OH233122   4.967   6.656   5.656
11060TIP3    H133123   4.875   6.667   5.681
11060TIP3    H233124   4.992   6.571   5.691
11061TIP3   OH233125   1.579   1.148   4.568
11061TIP3    H133126   1.502   1.204   4.579
11061TIP3    H233127   1.652   1.210   4.564
11062TIP3   OH233128   6.998   5.038   4.261
11062TIP3    H133129   6.929   5.053   4.197
11062TIP3    H233130   7.040   4.956   4.234
11063TIP3   OH233131   2.106   3.908   3.042
11063TIP3    H133132   2.130   3.998   3.021
11063TIP3    H233133   2.171   3.855   2.997
11064TIP3   OH233134   4.291   2.781   1.466
11064TIP3    H133135   4.348   2.789   1.389
11064TIP3    H233136   4.232   2.856   1.460
11065TIP3   OH233137   5.421   4.738   1.419
11065TIP3    H133138   5.434   4.830   1.438
11065TIP3    H233139   5.346   4.712   1.473
11066TIP3   OH233140   7.758   0.357   3.691
11066TIP3    H133141   7.801   0.369   3.776
11066TIP3    H233142   7.830   0.345   3.629
11067TIP3   OH233143   3.142   4.900   5.382
11067TIP3    H133144   3.152   4.827   5.321
11067TIP3    H233145   3.225   4.903   5.430
11068TIP3   OH233146   1.682   3.832   5.344
11068TIP3    H133147   1.672   3.896   5.273
11068TIP3    H233148   1.776   3.811   5.345
11069TIP3   OH233149   8.284   4.143   4.917
11069TIP3    H133150   8.315   4.210   4.978
11069TIP3    H233151   8.270   4.189   4.835
11070TIP3   OH233152   4.895   5.715   2.996
11070TIP3    H133153   4.887   5.711   3.091
11070TIP3    H233154   4.923   5.627   2.970
11071TIP3   OH233155   0.341   0.247   5.029
11071TIP3    H133156   0.338   0.342   5.039
11071TIP3    H233157   0.249   0.220   5.035
11072TIP3   OH233158   4.672   0.796   6.236
11072TIP3    H133159   4.619   0.853   6.292
11072TIP3    H233160   4.676   0.841   6.152
11073TIP3   OH233161   7.221   1.507   0.819
11073TIP3    H133162   7.257   1.595   0.827
11073TIP3    H233163   7.131   1.521   0.790
11074TIP3   OH233164   4.722   0.563   4.553
11074TIP3    H133165   4.708   0.608   4.470
11074TIP3    H233166   4.668   0.611   4.616
11075TIP3   OH233167   1.633   7.261   1.971
11075TIP3    H133168   1.722   7.293   1.986
11075TIP3    H233169   1.633   7.230   1.881
11076TIP3   OH233170   6.507   5.043   4.278
11076TIP3    H133171   6.571   4.976   4.303
11076TIP3    H233172   6.471   5.013   4.194
11077TIP3   OH233173   1.112   5.440   4.449
11077TIP3    H133174   1.189   5.486   4.481
11077TIP3    H233175   1.063   5.418   4.528
11078TIP3   OH233176   0.436   4.618   5.854
11078TIP3    H133177   0.427   4.664   5.937
11078TIP3    H233178   0.411   4.682   5.788
11079TIP3   OH233179   6.369   6.808   6.547
11079TIP3    H133180   6.316   6.869   6.598
11079TIP3    H233181   6.409   6.863   6.479
11080TIP3   OH233182   0.308   4.381   0.435
11080TIP3    H133183   0.376   4.392   0.501
11080TIP3    H233184   0.350   4.404   0.353
11081TIP3   OH233185   4.358   2.329   0.933
11081TIP3    H133186   4.376   2.368   0.847
11081TIP3    H233187   4.435   2.275   0.951
11082TIP3   OH233188   4.024   5.354   5.886
11082TIP3    H133189   4.011   5.410   5.962
11082TIP3    H233190   3.999   5.267   5.917
11083TIP3   OH233191   1.221   4.010   6.211
11083TIP3    H133192   1.303   4.030   6.166
11083TIP3    H233193   1.213   3.915   6.206
11084TIP3   OH233194   2.835   4.237   6.135
11084TIP3    H133195   2.831   4.284   6.218
11084TIP3    H233196   2.762   4.175   6.138
11085TIP3   OH233197   1.591   2.049   5.159
11085TIP3    H133198   1.628   1.994   5.228
11085TIP3    H233199   1.614   2.138   5.186
11086TIP3   OH233200   2.684   7.614   1.875
11086TIP3    H133201   2.600   7.570   1.885
11086TIP3    H233202   2.715   7.588   1.788
11087TIP3   OH233203   5.025   2.805   0.377
11087TIP3    H133204   5.092   2.861   0.416
11087TIP3    H233205   5.001   2.744   0.447
11088TIP3   OH233206   7.501   5.829   1.424
11088TIP3    H133207   7.458   5.889   1.363
11088TIP3    H233208   7.511   5.880   1.505
11089TIP3   OH233209   0.349   1.979   5.137
11089TIP3    H133210   0.371   2.065   5.104
11089TIP3    H233211   0.364   1.920   5.063
11090TIP3   OH233212   0.190   5.223   0.588
11090TIP3    H133213   0.115   5.249   0.642
11090TIP3    H233214   0.227   5.306   0.557
11091TIP3   OH233215   3.564   1.201   1.270
11091TIP3    H133216   3.489   1.257   1.292
11091TIP3    H233217   3.536   1.154   1.192
11092TIP3   OH233218   2.167   5.649   1.780
11092TIP3    H133219   2.238   5.636   1.717
11092TIP3    H233220   2.200   5.716   1.840
11093TIP3   OH233221   7.793   6.292   3.181
11093TIP3    H133222   7.753   6.217   3.135
11093TIP3    H233223   7.797   6.265   3.272
11094TIP3   OH233224   7.261   4.650   1.610
11094TIP3    H133225   7.336   4.693   1.569
11094TIP3    H233226   7.185   4.692   1.569
11095TIP3   OH233227   1.248   1.356   3.937
11095TIP3    H133228   1.329   1.400   3.963
11095TIP3    H233229   1.179   1.420   3.958
11096TIP3   OH233230   5.879   6.643   4.530
11096TIP3    H133231   5.887   6.645   4.626
11096TIP3    H233232   5.969   6.652   4.499
11097TIP3   OH233233   2.319   3.656   6.703
11097TIP3    H133234   2.302   3.697   6.618
11097TIP3    H233235   2.402   3.610   6.691
11098TIP3   OH233236   2.879   6.139   2.905
11098TIP3    H133237   2.889   6.075   2.976
11098TIP3    H233238   2.959   6.131   2.854
11099TIP3   OH233239   0.776   3.069   5.808
11099TIP3    H133240   0.783   3.164   5.823
11099TIP3    H233241   0.735   3.062   5.722
11100TIP3   OH233242   5.478   3.165   3.243
11100TIP3    H133243   5.556   3.212   3.214
11100TIP3    H233244   5.446   3.215   3.318
11101TIP3   OH233245   5.642   1.423   6.090
11101TIP3    H133246   5.648   1.385   6.002
11101TIP3    H233247   5.560   1.473   6.088
11102TIP3   OH233248   5.342   2.523   3.849
11102TIP3    H133249   5.357   2.542   3.942
11102TIP3    H233250   5.366   2.431   3.839
11103TIP3   OH233251   1.878   1.947   1.971
11103TIP3    H133252   1.804   1.972   1.917
11103TIP3    H233253   1.955   1.960   1.916
11104TIP3   OH233254   1.770   4.410   4.328
11104TIP3    H133255   1.832   4.403   4.400
11104TIP3    H233256   1.809   4.473   4.268
11105TIP3   OH233257   6.484   3.171   1.380
11105TIP3    H133258   6.509   3.247   1.433
11105TIP3    H233259   6.501   3.198   1.290
11106TIP3   OH233260   2.098   3.337   6.176
11106TIP3    H133261   2.073   3.394   6.104
11106TIP3    H233262   2.193   3.347   6.184
11107TIP3   OH233263   2.244   0.021   3.193
11107TIP3    H133264   2.214  -0.011   3.278
11107TIP3    H233265   2.164   0.055   3.151
11108TIP3   OH233266   0.905   7.585   2.214
11108TIP3    H133267   0.879   7.665   2.170
11108TIP3    H233268   0.955   7.536   2.148
11109TIP3   OH233269   5.269   7.496   4.330
11109TIP3    H133270   5.281   7.508   4.236
11109TIP3    H233271   5.211   7.568   4.356
11110TIP3   OH233272   4.902   6.230   1.137
11110TIP3    H133273   4.828   6.179   1.105
11110TIP3    H233274   4.871   6.321   1.134
11111TIP3   OH233275   4.190   4.024   5.315
11111TIP3    H133276   4.277   4.001   5.347
11111TIP3    H233277   4.159   3.943   5.273
11112TIP3   OH233278   2.301   0.409   4.062
11112TIP3    H133279   2.222   0.370   4.099
11112TIP3    H233280   2.343   0.338   4.015
11113TIP3   OH233281   4.336   6.344   2.937
11113TIP3    H133282   4.320   6.308   3.024
11113TIP3    H233283   4.420   6.305   2.911
11114TIP3   OH233284   0.250   7.715   4.164
11114TIP3    H133285   0.255   7.796   4.113
11114TIP3    H233286   0.159   7.709   4.191
11115TIP3   OH233287   5.905   3.655   5.272
11115TIP3    H133288   5.829   3.601   5.247
11115TIP3    H233289   5.908   3.648   5.368
11116TIP3   OH233290   6.828   4.836   0.888
11116TIP3    H133291   6.821   4.854   0.981
11116TIP3    H233292   6.742   4.859   0.853
11117TIP3   OH233293   1.989   4.287   0.075
11117TIP3    H133294   2.027   4.313   0.159
11117TIP3    H233295   1.896   4.274   0.093
11118TIP3   OH233296   1.288   5.290   1.770
11118TIP3    H133297   1.219   5.256   1.827
11118TIP3    H233298   1.260   5.267   1.681
11119TIP3   OH233299   2.421   1.128   6.155
11119TIP3    H133300   2.479   1.183   6.102
11119TIP3    H233301   2.465   1.120   6.239
11120TIP3   OH233302   3.579   2.780   0.987
11120TIP3    H133303   3.484   2.792   0.980
11120TIP3    H233304   3.597   2.787   1.081
11121TIP3   OH233305   1.369   4.998   5.738
11121TIP3    H133306   1.464   4.992   5.728
11121TIP3    H233307   1.350   4.947   5.817
11122TIP3   OH233308   2.746   1.740   2.264
11122TIP3    H133309   2.832   1.708   2.237
11122TIP3    H233310   2.745   1.728   2.359
11123TIP3   OH233311   2.433   1.435   1.937
11123TIP3    H133312   2.364   1.495   1.967
11123TIP3    H233313   2.434   1.445   1.842
11124TIP3   OH233314   4.354   2.511   0.068
11124TIP3    H133315   4.426   2.497   0.130
11124TIP3    H233316   4.276   2.485   0.116
11125TIP3   OH233317   3.606   6.083   0.743
11125TIP3    H133318   3.576   6.141   0.674
11125TIP3    H233319   3.644   6.008   0.697
11126TIP3   OH233320   5.292   6.040   4.412
11126TIP3    H133321   5.229   5.993   4.467
11126TIP3    H233322   5.363   6.064   4.472
11127TIP3   OH233323   0.359   0.800   2.613
11127TIP3    H133324   0.367   0.849   2.694
11127TIP3    H233325   0.450   0.780   2.588
11128TIP3   OH233326   3.984   4.988   6.402
11128TIP3    H133327   4.022   5.015   6.319
11128TIP3    H233328   4.053   5.003   6.467
11129TIP3   OH233329   4.263   1.972   3.175
11129TIP3    H133330   4.231   1.882   3.172
11129TIP3    H233331   4.296   1.989   3.086
11130TIP3   OH233332   4.187   1.030   1.911
11130TIP3    H133333   4.201   1.119   1.942
11130TIP3    H233334   4.095   1.028   1.885
11131TIP3   OH233335   2.183   1.075   0.333
11131TIP3    H133336   2.272   1.049   0.308
11131TIP3    H233337   2.140   0.994   0.359
11132TIP3   OH233338   2.698   2.505   4.079
11132TIP3    H133339   2.783   2.545   4.099
11132TIP3    H233340   2.716   2.447   4.005
11133TIP3   OH233341   6.744   2.713   1.485
11133TIP3    H133342   6.690   2.791   1.494
11133TIP3    H233343   6.829   2.738   1.521
11134TIP3   OH233344   5.477   7.108   4.811
11134TIP3    H133345   5.465   7.018   4.842
11134TIP3    H233346   5.548   7.143   4.865
11135TIP3   OH233347   3.453   5.009   0.801
11135TIP3    H133348   3.370   4.995   0.757
11135TIP3    H233349   3.470   5.103   0.793
11136TIP3   OH233350   1.417   4.896   4.096
11136TIP3    H133351   1.486   4.935   4.041
11136TIP3    H233352   1.403   4.960   4.166
11137TIP3   OH233353   2.336   5.364   4.552
11137TIP3    H133354   2.348   5.278   4.592
11137TIP3    H233355   2.342   5.348   4.458
11138TIP3   OH233356   6.080   3.397   3.680
11138TIP3    H133357   6.161   3.425   3.638
11138TIP3    H233358   6.026   3.362   3.608
11139TIP3   OH233359   1.789   3.322   1.118
11139TIP3    H133360   1.806   3.384   1.189
11139TIP3    H233361   1.709   3.276   1.146
11140TIP3   OH233362   1.222   2.990   4.482
11140TIP3    H133363   1.142   3.020   4.525
11140TIP3    H233364   1.205   2.898   4.461
11141TIP3   OH233365   0.762   2.000   2.638
11141TIP3    H133366   0.696   1.964   2.580
11141TIP3    H233367   0.822   1.927   2.655
11142TIP3   OH233368   0.678   2.924   1.415
11142TIP3    H133369   0.767   2.895   1.432
11142TIP3    H233370   0.682   3.019   1.423
11143TIP3   OH233371   5.798   3.997   1.429
11143TIP3    H133372   5.889   3.998   1.457
11143TIP3    H233373   5.751   4.042   1.499
11144TIP3   OH233374   3.320   2.034   4.413
11144TIP3    H133375   3.347   2.031   4.321
11144TIP3    H233376   3.381   2.095   4.454
11145TIP3   OH233377   7.447   2.074   2.597
11145TIP3    H133378   7.474   2.008   2.662
11145TIP3    H233379   7.395   2.137   2.647
11146TIP3   OH233380   3.657   6.409   4.729
11146TIP3    H133381   3.724   6.437   4.792
11146TIP3    H233382   3.701   6.343   4.676
11147TIP3   OH233383   4.741   3.553   5.658
11147TIP3    H133384   4.790   3.547   5.576
11147TIP3    H233385   4.779   3.485   5.714
11148TIP3   OH233386   2.998   4.624   2.306
11148TIP3    H133387   2.939   4.695   2.330
11148TIP3    H233388   3.076   4.639   2.360
11149TIP3   OH233389   5.630   3.792   4.895
11149TIP3    H133390   5.631   3.868   4.836
11149TIP3    H233391   5.586   3.823   4.974
11150TIP3   OH233392   1.028   6.255   2.381
11150TIP3    H133393   1.066   6.170   2.404
11150TIP3    H233394   1.095   6.319   2.406
11151TIP3   OH233395   7.475   6.250   3.328
11151TIP3    H133396   7.545   6.186   3.316
11151TIP3    H233397   7.398   6.208   3.290
11152TIP3   OH233398   4.630   5.613   6.042
11152TIP3    H133399   4.592   5.539   6.089
11152TIP3    H233400   4.659   5.576   5.958
11153TIP3   OH233401   6.515   2.081   4.264
11153TIP3    H133402   6.573   2.051   4.334
11153TIP3    H233403   6.427   2.064   4.297
11154TIP3   OH233404   1.350   7.611   3.642
11154TIP3    H133405   1.353   7.592   3.548
11154TIP3    H233406   1.366   7.705   3.648
11155TIP3   OH233407   0.135   5.413   2.377
11155TIP3    H133408   0.229   5.423   2.386
11155TIP3    H233409   0.120   5.407   2.282
11156TIP3   OH233410   4.769   4.644   1.001
11156TIP3    H133411   4.702   4.711   1.015
11156TIP3    H233412   4.794   4.616   1.089
11157TIP3   OH233413   4.232   0.196   2.829
11157TIP3    H133414   4.198   0.187   2.740
11157TIP3    H233415   4.193   0.123   2.877
11158TIP3   OH233416   7.762   6.730   1.240
11158TIP3    H133417   7.687   6.772   1.199
11158TIP3    H233418   7.784   6.657   1.181
11159TIP3   OH233419   1.554   5.350   2.043
11159TIP3    H133420   1.638   5.328   2.082
11159TIP3    H233421   1.493   5.287   2.082
11160TIP3   OH233422   1.031   4.852   3.741
11160TIP3    H133423   0.955   4.794   3.734
11160TIP3    H233424   1.097   4.813   3.684
11161TIP3   OH233425   2.992   3.917   4.287
11161TIP3    H133426   3.019   4.005   4.315
11161TIP3    H233427   2.999   3.863   4.366
11162TIP3   OH233428   3.975   4.401   6.664
11162TIP3    H133429   4.068   4.386   6.646
11162TIP3    H233430   3.952   4.476   6.608
11163TIP3   OH233431   1.822   2.870   2.021
11163TIP3    H133432   1.726   2.867   2.016
11163TIP3    H233433   1.841   2.913   2.104
11164TIP3   OH233434   2.468   3.176   1.011
11164TIP3    H133435   2.471   3.098   0.955
11164TIP3    H233436   2.525   3.155   1.085
11165TIP3   OH233437   0.707   5.848   3.048
11165TIP3    H133438   0.802   5.847   3.036
11165TIP3    H233439   0.672   5.873   2.963
11166TIP3   OH233440   3.235   5.821   4.087
11166TIP3    H133441   3.172   5.877   4.132
11166TIP3    H233442   3.202   5.814   3.998
11167TIP3   OH233443   3.680   0.950   1.654
11167TIP3    H133444   3.742   1.000   1.707
11167TIP3    H233445   3.659   0.873   1.708
11168TIP3   OH233446   4.547   4.132   1.167
11168TIP3    H133447   4.527   4.215   1.212
11168TIP3    H233448   4.535   4.152   1.074
11169TIP3   OH233449   5.432   1.641   0.775
11169TIP3    H133450   5.410   1.734   0.777
11169TIP3    H233451   5.353   1.597   0.806
11170TIP3   OH233452   0.052   7.723   2.536
11170TIP3    H133453   0.004   7.778   2.475
11170TIP3    H233454   0.141   7.721   2.502
11171TIP3   OH233455   3.913   6.036   0.790
11171TIP3    H133456   3.912   5.944   0.764
11171TIP3    H233457   4.002   6.065   0.771
11172TIP3   OH233458   1.926   7.197   1.766
11172TIP3    H133459   1.945   7.181   1.859
11172TIP3    H233460   1.884   7.283   1.765
11173TIP3   OH233461   4.720   0.876   3.643
11173TIP3    H133462   4.775   0.926   3.582
11173TIP3    H233463   4.640   0.927   3.650
11174TIP3   OH233464   7.058   2.947   3.965
11174TIP3    H133465   7.004   3.021   3.937
11174TIP3    H233466   7.146   2.969   3.936
11175TIP3   OH233467   2.652   5.765   6.336
11175TIP3    H133468   2.722   5.771   6.271
11175TIP3    H233469   2.571   5.761   6.285
11176TIP3   OH233470   7.696   5.084   2.196
11176TIP3    H133471   7.646   5.063   2.274
11176TIP3    H233472   7.659   5.029   2.127
11177TIP3   OH233473   2.762   3.774   2.466
11177TIP3    H133474   2.744   3.826   2.387
11177TIP3    H233475   2.713   3.817   2.535
11178TIP3   OH233476   1.232   3.857   2.019
11178TIP3    H133477   1.216   3.880   2.110
11178TIP3    H233478   1.193   3.929   1.969
11179TIP3   OH233479   2.214   7.692   6.738
11179TIP3    H133480   2.236   7.649   6.655
11179TIP3    H233481   2.120   7.680   6.747
11180TIP3   OH233482   1.331   3.671   3.554
11180TIP3    H133483   1.239   3.660   3.528
11180TIP3    H233484   1.353   3.760   3.526
11181TIP3   OH233485   3.200   6.321   3.151
11181TIP3    H133486   3.287   6.286   3.128
11181TIP3    H233487   3.218   6.409   3.182
11182TIP3   OH233488   5.077   4.956   5.082
11182TIP3    H133489   4.997   4.907   5.100
11182TIP3    H233490   5.108   4.921   4.998
11183TIP3   OH233491   1.506   0.813   6.290
11183TIP3    H133492   1.460   0.815   6.374
11183TIP3    H233493   1.570   0.743   6.300
11184TIP3   OH233494   2.921   7.234   0.845
11184TIP3    H133495   2.914   7.213   0.752
11184TIP3    H233496   3.005   7.278   0.854
11185TIP3   OH233497   3.748   5.533   1.514
11185TIP3    H133498   3.764   5.560   1.423
11185TIP3    H233499   3.729   5.440   1.507
11186TIP3   OH233500   5.348   3.216   1.956
11186TIP3    H133501   5.354   3.168   2.039
11186TIP3    H233502   5.439   3.222   1.925
11187TIP3   OH233503   1.847   2.888   0.281
11187TIP3    H133504   1.802   2.875   0.365
11187TIP3    H233505   1.781   2.866   0.216
11188TIP3   OH233506   2.814   6.260   2.363
11188TIP3    H133507   2.899   6.216   2.368
11188TIP3    H233508   2.750   6.190   2.378
11189TIP3   OH233509   1.138   6.526   5.628
11189TIP3    H133510   1.070   6.460   5.610
11189TIP3    H233511   1.218   6.476   5.639
11190TIP3   OH233512   6.505   7.522   1.080
11190TIP3    H133513   6.515   7.542   0.987
11190TIP3    H233514   6.428   7.464   1.083
11191TIP3   OH233515   2.953   5.667   3.205
11191TIP3    H133516   2.878   5.709   3.246
11191TIP3    H233517   3.021   5.734   3.203
11192TIP3   OH233518   0.746   1.550   6.517
11192TIP3    H133519   0.722   1.612   6.586
11192TIP3    H233520   0.728   1.596   6.435
11193TIP3   OH233521   3.200   7.392   2.452
11193TIP3    H133522   3.243   7.327   2.397
11193TIP3    H233523   3.110   7.362   2.460
11194TIP3   OH233524   1.133   2.673   2.590
11194TIP3    H133525   1.189   2.745   2.620
11194TIP3    H233526   1.194   2.605   2.562
11195TIP3   OH233527   2.348   6.808   6.765
11195TIP3    H133528   2.418   6.746   6.744
11195TIP3    H233529   2.392   6.893   6.770
11196TIP3   OH233530   6.297   4.525   2.513
11196TIP3    H133531   6.273   4.618   2.507
11196TIP3    H233532   6.287   4.503   2.605
11197TIP3   OH233533   5.598   3.199   0.350
11197TIP3    H133534   5.519   3.156   0.383
11197TIP3    H233535   5.592   3.189   0.255
11198TIP3   OH233536   5.866   4.220   1.692
11198TIP3    H133537   5.825   4.250   1.773
11198TIP3    H233538   5.792   4.193   1.637
11199TIP3   OH233539   7.270   1.543   3.969
11199TIP3    H133540   7.336   1.492   4.016
11199TIP3    H233541   7.223   1.590   4.037
11200TIP3   OH233542   7.267   3.698   6.399
11200TIP3    H133543   7.313   3.636   6.456
11200TIP3    H233544   7.282   3.666   6.310
11201TIP3   OH233545   1.136   2.404   6.698
11201TIP3    H133546   1.114   2.486   6.741
11201TIP3    H233547   1.195   2.360   6.760
11202TIP3   OH233548   8.037   7.028   5.659
11202TIP3    H133549   7.993   7.090   5.602
11202TIP3    H233550   7.977   6.953   5.664
11203TIP3   OH233551   4.391   1.249   6.413
11203TIP3    H133552   4.371   1.323   6.357
11203TIP3    H233553   4.479   1.268   6.447
11204TIP3   OH233554   6.407   2.964   4.097
11204TIP3    H133555   6.412   3.059   4.080
11204TIP3    H233556   6.362   2.957   4.181
11205TIP3   OH233557   2.347   2.116   0.715
11205TIP3    H133558   2.430   2.163   0.711
11205TIP3    H233559   2.301   2.153   0.790
11206TIP3   OH233560   0.987   4.944   5.550
11206TIP3    H133561   1.059   4.890   5.581
11206TIP3    H233562   1.017   4.979   5.466
11207TIP3   OH233563   6.853   4.183   4.892
11207TIP3    H133564   6.817   4.127   4.961
11207TIP3    H233565   6.779   4.236   4.863
11208TIP3   OH233566   1.219   6.119   0.101
11208TIP3    H133567   1.294   6.076   0.061
11208TIP3    H233568   1.225   6.096   0.194
11209TIP3   OH233569   3.338   5.314   4.126
11209TIP3    H133570   3.376   5.339   4.210
11209TIP3    H233571   3.250   5.283   4.148
11210TIP3   OH233572   5.234   1.855   0.910
11210TIP3    H133573   5.226   1.772   0.958
11210TIP3    H233574   5.190   1.838   0.827
11211TIP3   OH233575   0.119   6.000   1.666
11211TIP3    H133576   0.074   6.080   1.636
11211TIP3    H233577   0.060   5.963   1.731
11212TIP3   OH233578   5.599   6.519   0.736
11212TIP3    H133579   5.588   6.456   0.808
11212TIP3    H233580   5.537   6.589   0.756
11213TIP3   OH233581   2.424   6.936   3.927
11213TIP3    H133582   2.333   6.956   3.903
11213TIP3    H233583   2.460   6.893   3.849
11214TIP3   OH233584   5.409   0.538   4.052
11214TIP3    H133585   5.504   0.528   4.043
11214TIP3    H233586   5.389   0.622   4.012
11215TIP3   OH233587   4.623   5.787   2.874
11215TIP3    H133588   4.557   5.728   2.910
11215TIP3    H233589   4.700   5.773   2.929
11216TIP3   OH233590   5.951   1.990   0.626
11216TIP3    H133591   5.957   2.043   0.706
11216TIP3    H233592   5.866   1.946   0.633
11217TIP3   OH233593   5.593   3.001   5.100
11217TIP3    H133594   5.570   2.945   5.026
11217TIP3    H233595   5.531   3.074   5.095
11218TIP3   OH233596   6.731   7.054   3.036
11218TIP3    H133597   6.801   7.119   3.041
11218TIP3    H233598   6.741   7.015   2.948
11219TIP3   OH233599   4.325   5.091   5.450
11219TIP3    H133600   4.274   5.115   5.528
11219TIP3    H233601   4.261   5.048   5.393
11220TIP3   OH233602   4.055   3.846   6.485
11220TIP3    H133603   4.005   3.790   6.426
11220TIP3    H233604   4.147   3.829   6.463
11221TIP3   OH233605   0.558   2.841   5.731
11221TIP3    H133606   0.497   2.881   5.670
11221TIP3    H233607   0.644   2.856   5.692
11222TIP3   OH233608   1.861   3.280   3.343
11222TIP3    H133609   1.861   3.278   3.438
11222TIP3    H233610   1.877   3.371   3.320
11223TIP3   OH233611   7.455   2.883   6.362
11223TIP3    H133612   7.455   2.788   6.352
11223TIP3    H233613   7.529   2.912   6.308
11224TIP3   OH233614   3.764   5.028   6.560
11224TIP3    H133615   3.701   5.025   6.488
11224TIP3    H233616   3.848   5.008   6.519
11225TIP3   OH233617   2.342   4.945   6.206
11225TIP3    H133618   2.315   5.036   6.219
11225TIP3    H233619   2.297   4.918   6.125
11226TIP3   OH233620   3.714   1.144   4.512
11226TIP3    H133621   3.620   1.139   4.525
11226TIP3    H233622   3.725   1.159   4.418
11227TIP3   OH233623   7.039   5.368   3.272
11227TIP3    H133624   7.084   5.373   3.188
11227TIP3    H233625   7.026   5.275   3.287
11228TIP3   OH233626   4.358   0.511   6.416
11228TIP3    H133627   4.379   0.536   6.326
11228TIP3    H233628   4.302   0.434   6.406
11229TIP3   OH233629   5.776   2.200   2.770
11229TIP3    H133630   5.723   2.190   2.849
11229TIP3    H233631   5.754   2.287   2.737
11230TIP3   OH233632   5.391   6.086   2.410
11230TIP3    H133633   5.410   6.067   2.318
11230TIP3    H233634   5.301   6.119   2.409
11231TIP3   OH233635   2.046   6.619   1.019
11231TIP3    H133636   1.960   6.584   0.998
11231TIP3    H233637   2.032   6.671   1.099
11232TIP3   OH233638   7.902   2.483   0.110
11232TIP3    H133639   7.840   2.477   0.037
11232TIP3    H233640   7.871   2.557   0.162
11233TIP3   OH233641   0.585   4.253   4.638
11233TIP3    H133642   0.536   4.258   4.556
11233TIP3    H233643   0.590   4.159   4.657
11234TIP3   OH233644   0.586   5.582   1.168
11234TIP3    H133645   0.572   5.643   1.241
11234TIP3    H233646   0.591   5.496   1.209
11235TIP3   OH233647   0.706   4.516   5.810
11235TIP3    H133648   0.737   4.528   5.720
11235TIP3    H233649   0.611   4.516   5.803
11236TIP3   OH233650   3.045   4.461   5.224
11236TIP3    H133651   2.993   4.387   5.192
11236TIP3    H233652   2.989   4.504   5.288
11237TIP3   OH233653   3.619   7.655   2.776
11237TIP3    H133654   3.539   7.603   2.781
11237TIP3    H233655   3.689   7.591   2.775
11238TIP3   OH233656   7.042   6.667   6.625
11238TIP3    H133657   7.063   6.740   6.566
11238TIP3    H233658   7.126   6.625   6.641
11239TIP3   OH233659   1.146   1.042   1.052
11239TIP3    H133660   1.052   1.038   1.070
11239TIP3    H233661   1.177   1.118   1.101
11240TIP3   OH233662   1.884   0.940   2.229
11240TIP3    H133663   1.944   0.925   2.302
11240TIP3    H233664   1.815   0.995   2.266
11241TIP3   OH233665   7.034   0.034   0.616
11241TIP3    H133666   7.126   0.021   0.638
11241TIP3    H233667   7.024  -0.001   0.528
11242TIP3   OH233668   7.099   7.068   1.536
11242TIP3    H133669   7.016   7.019   1.534
11242TIP3    H233670   7.074   7.158   1.512
11243TIP3   OH233671   5.442   3.583   3.678
11243TIP3    H133672   5.445   3.650   3.610
11243TIP3    H233673   5.516   3.526   3.660
11244TIP3   OH233674   4.380   0.467   2.242
11244TIP3    H133675   4.434   0.388   2.242
11244TIP3    H233676   4.311   0.449   2.179
11245TIP3   OH233677   3.134   4.887   1.080
11245TIP3    H133678   3.115   4.979   1.064
11245TIP3    H233679   3.230   4.882   1.083
11246TIP3   OH233680   4.923   0.700   0.670
11246TIP3    H133681   5.012   0.677   0.695
11246TIP3    H233682   4.893   0.759   0.739
11247TIP3   OH233683   3.698   1.224   1.721
11247TIP3    H133684   3.627   1.164   1.697
11247TIP3    H233685   3.677   1.254   1.809
11248TIP3   OH233686   2.356   5.151   5.050
11248TIP3    H133687   2.341   5.076   5.108
11248TIP3    H233688   2.421   5.204   5.096
11249TIP3   OH233689   2.716   6.887   5.062
11249TIP3    H133690   2.774   6.956   5.030
11249TIP3    H233691   2.773   6.831   5.114
11250TIP3   OH233692   6.210   0.437   4.949
11250TIP3    H133693   6.268   0.364   4.931
11250TIP3    H233694   6.196   0.479   4.863
11251TIP3   OH233695   7.058   0.585   5.131
11251TIP3    H133696   6.983   0.596   5.072
11251TIP3    H233697   7.117   0.527   5.084
11252TIP3   OH233698   8.141   6.985   6.641
11252TIP3    H133699   8.091   7.062   6.612
11252TIP3    H233700   8.232   7.013   6.639
11253TIP3   OH233701   0.264   6.690   4.872
11253TIP3    H133702   0.312   6.756   4.823
11253TIP3    H233703   0.242   6.733   4.955
11254TIP3   OH233704   2.893   5.351   2.265
11254TIP3    H133705   2.869   5.361   2.172
11254TIP3    H233706   2.877   5.438   2.303
11255TIP3   OH233707   6.482   6.380   3.837
11255TIP3    H133708   6.465   6.323   3.762
11255TIP3    H233709   6.568   6.352   3.869
11256TIP3   OH233710   2.325   1.690   2.983
11256TIP3    H133711   2.305   1.683   3.076
11256TIP3    H233712   2.242   1.715   2.942
11257TIP3   OH233713  -0.014   7.349   1.657
11257TIP3    H133714  -0.040   7.292   1.584
11257TIP3    H233715   0.066   7.310   1.691
11258TIP3   OH233716   1.929   1.975   0.849
11258TIP3    H133717   1.988   1.937   0.915
11258TIP3    H233718   1.937   1.917   0.774
11259TIP3   OH233719   7.645   1.745   2.301
11259TIP3    H133720   7.708   1.682   2.267
11259TIP3    H233721   7.678   1.767   2.388
11260TIP3   OH233722   5.576   3.513   3.321
11260TIP3    H133723   5.623   3.430   3.332
11260TIP3    H233724   5.560   3.543   3.410
11261TIP3   OH233725   2.854   1.201   6.401
11261TIP3    H133726   2.845   1.193   6.496
11261TIP3    H233727   2.948   1.217   6.388
11262TIP3   OH233728   1.686   2.642   5.676
11262TIP3    H133729   1.709   2.728   5.640
11262TIP3    H233730   1.619   2.661   5.742
11263TIP3   OH233731   4.475   5.349   2.578
11263TIP3    H133732   4.469   5.257   2.554
11263TIP3    H233733   4.568   5.366   2.588
11264TIP3   OH233734   5.145   2.964   3.532
11264TIP3    H133735   5.182   2.880   3.557
11264TIP3    H233736   5.198   3.029   3.578
11265TIP3   OH233737   6.220   5.312   2.942
11265TIP3    H133738   6.304   5.270   2.924
11265TIP3    H233739   6.242   5.396   2.981
11266TIP3   OH233740   0.473   1.326   4.047
11266TIP3    H133741   0.483   1.365   3.960
11266TIP3    H233742   0.404   1.261   4.036
11267TIP3   OH233743   3.851   7.267   0.675
11267TIP3    H133744   3.909   7.319   0.620
11267TIP3    H233745   3.763   7.296   0.652
11268TIP3   OH233746   0.238   4.204   4.386
11268TIP3    H133747   0.283   4.281   4.352
11268TIP3    H233748   0.223   4.225   4.479
11269TIP3   OH233749   5.475   0.338   0.858
11269TIP3    H133750   5.548   0.372   0.909
11269TIP3    H233751   5.402   0.336   0.920
11270TIP3   OH233752   7.920   2.954   0.310
11270TIP3    H133753   7.878   3.036   0.283
11270TIP3    H233754   8.010   2.962   0.280
11271TIP3   OH233755   2.196   6.224   1.682
11271TIP3    H133756   2.286   6.240   1.710
11271TIP3    H233757   2.163   6.158   1.743
11272TIP3   OH233758   1.402   4.628   3.694
11272TIP3    H133759   1.333   4.647   3.631
11272TIP3    H233760   1.362   4.647   3.779
11273TIP3   OH233761   0.619   0.352   4.052
11273TIP3    H133762   0.536   0.307   4.066
11273TIP3    H233763   0.669   0.295   3.994
11274TIP3   OH233764   7.436   4.810   2.325
11274TIP3    H133765   7.511   4.800   2.384
11274TIP3    H233766   7.395   4.724   2.323
11275TIP3   OH233767   1.864   0.568   5.144
11275TIP3    H133768   1.818   0.491   5.109
11275TIP3    H233769   1.947   0.570   5.096
11276TIP3   OH233770   0.545   5.989   3.313
11276TIP3    H133771   0.534   5.981   3.219
11276TIP3    H233772   0.473   6.046   3.341
11277TIP3   OH233773   3.664   2.686   1.438
11277TIP3    H133774   3.703   2.726   1.516
11277TIP3    H233775   3.730   2.700   1.369
11278TIP3   OH233776   2.521   0.257   1.090
11278TIP3    H133777   2.572   0.274   1.170
11278TIP3    H233778   2.572   0.192   1.043
11279TIP3   OH233779   4.750   7.432   3.343
11279TIP3    H133780   4.815   7.502   3.353
11279TIP3    H233781   4.771   7.392   3.259
11280TIP3   OH233782   3.464   5.767   4.926
11280TIP3    H133783   3.396   5.701   4.914
11280TIP3    H233784   3.443   5.808   5.010
11281TIP3   OH233785   1.774   1.573   3.048
11281TIP3    H133786   1.690   1.561   3.093
11281TIP3    H233787   1.801   1.662   3.071
11282TIP3   OH233788   5.402   6.485   0.314
11282TIP3    H133789   5.474   6.432   0.349
11282TIP3    H233790   5.444   6.565   0.284
11283TIP3   OH233791   6.503   4.440   6.032
11283TIP3    H133792   6.424   4.475   6.073
11283TIP3    H233793   6.552   4.517   6.004
11284TIP3   OH233794   6.073   0.765   3.966
11284TIP3    H133795   6.163   0.777   3.998
11284TIP3    H233796   6.060   0.837   3.905
11285TIP3   OH233797   0.710   2.497   2.144
11285TIP3    H133798   0.729   2.590   2.154
11285TIP3    H233799   0.792   2.453   2.166
11286TIP3   OH233800   4.749   2.943   0.396
11286TIP3    H133801   4.697   3.024   0.395
11286TIP3    H233802   4.702   2.884   0.337
11287TIP3   OH233803   5.231   3.712   3.047
11287TIP3    H133804   5.325   3.695   3.043
11287TIP3    H233805   5.190   3.634   3.009
11288TIP3   OH233806   0.656   3.505   4.422
11288TIP3    H133807   0.580   3.525   4.477
11288TIP3    H233808   0.726   3.486   4.485
11289TIP3   OH233809   4.957   0.906   0.006
11289TIP3    H133810   4.922   0.988   0.040
11289TIP3    H233811   4.903   0.887  -0.071
11290TIP3   OH233812   3.719   6.043   3.357
11290TIP3    H133813   3.656   6.113   3.373
11290TIP3    H233814   3.762   6.067   3.275
11291TIP3   OH233815   4.660   3.670   4.915
11291TIP3    H133816   4.687   3.694   4.826
11291TIP3    H233817   4.669   3.575   4.918
11292TIP3   OH233818   8.113   2.282   1.564
11292TIP3    H133819   8.141   2.368   1.595
11292TIP3    H233820   8.051   2.252   1.631
11293TIP3   OH233821   6.193   0.110   3.306
11293TIP3    H133822   6.171   0.068   3.389
11293TIP3    H233823   6.228   0.039   3.251
11294TIP3   OH233824   6.186   6.151   6.703
11294TIP3    H133825   6.094   6.125   6.704
11294TIP3    H233826   6.223   6.113   6.782
11295TIP3   OH233827   6.472   0.588   0.402
11295TIP3    H133828   6.406   0.519   0.410
11295TIP3    H233829   6.429   0.666   0.435
11296TIP3   OH233830   5.321   2.414   5.100
11296TIP3    H133831   5.232   2.404   5.065
11296TIP3    H233832   5.357   2.489   5.053
11297TIP3   OH233833   7.579   6.063   6.179
11297TIP3    H133834   7.534   5.985   6.211
11297TIP3    H233835   7.666   6.057   6.218
11298TIP3   OH233836   6.960   4.387   5.590
11298TIP3    H133837   6.924   4.379   5.502
11298TIP3    H233838   7.034   4.326   5.591
11299TIP3   OH233839   8.061   0.889   5.768
11299TIP3    H133840   8.058   0.974   5.812
11299TIP3    H233841   8.023   0.828   5.830
11300TIP3   OH233842   4.040   4.061   0.100
11300TIP3    H133843   4.091   4.074   0.181
11300TIP3    H233844   4.023   4.150   0.068
11301TIP3   OH233845   7.382   1.853   0.270
11301TIP3    H133846   7.392   1.944   0.243
11301TIP3    H233847   7.317   1.855   0.340
11302TIP3   OH233848   0.254   2.724   5.451
11302TIP3    H133849   0.257   2.629   5.465
11302TIP3    H233850   0.294   2.761   5.529
11303TIP3   OH233851   4.506   7.187   0.681
11303TIP3    H133852   4.447   7.263   0.677
11303TIP3    H233853   4.593   7.224   0.663
11304TIP3   OH233854   2.965   4.943   4.889
11304TIP3    H133855   3.058   4.965   4.892
11304TIP3    H233856   2.956   4.865   4.943
11305TIP3   OH233857   5.180   4.450   4.767
11305TIP3    H133858   5.093   4.459   4.729
11305TIP3    H233859   5.239   4.446   4.691
11306TIP3   OH233860   3.859   4.586   3.204
11306TIP3    H133861   3.846   4.519   3.272
11306TIP3    H233862   3.931   4.639   3.237
11307TIP3   OH233863   4.007   7.263   2.150
11307TIP3    H133864   3.962   7.273   2.066
11307TIP3    H233865   4.085   7.319   2.142
11308TIP3   OH233866   0.194   2.436   5.448
11308TIP3    H133867   0.229   2.417   5.361
11308TIP3    H233868   0.100   2.446   5.434
11309TIP3   OH233869   0.131   6.781   4.351
11309TIP3    H133870   0.224   6.785   4.374
11309TIP3    H233871   0.098   6.705   4.398
11310TIP3   OH233872   0.117   3.835   3.152
11310TIP3    H133873   0.089   3.849   3.062
11310TIP3    H233874   0.036   3.834   3.203
11311TIP3   OH233875   3.399   6.697   4.950
11311TIP3    H133876   3.398   6.659   5.038
11311TIP3    H233877   3.353   6.634   4.895
11312TIP3   OH233878   6.272   6.897   5.611
11312TIP3    H133879   6.233   6.966   5.664
11312TIP3    H233880   6.356   6.934   5.582
11313TIP3   OH233881   1.426   0.841   0.364
11313TIP3    H133882   1.332   0.822   0.368
11313TIP3    H233883   1.455   0.795   0.285
11314TIP3   OH233884   5.967   7.391   6.334
11314TIP3    H133885   6.008   7.345   6.261
11314TIP3    H233886   5.913   7.325   6.377
11315TIP3   OH233887   6.471   3.563   5.042
11315TIP3    H133888   6.456   3.651   5.075
11315TIP3    H233889   6.486   3.510   5.120
11316TIP3   OH233890   1.105   7.130   1.596
11316TIP3    H133891   1.051   7.079   1.536
11316TIP3    H233892   1.153   7.191   1.540
11317TIP3   OH233893   3.233   3.480   4.621
11317TIP3    H133894   3.262   3.457   4.709
11317TIP3    H233895   3.156   3.535   4.635
11318TIP3   OH233896   6.002   6.118   0.761
11318TIP3    H133897   5.960   6.095   0.679
11318TIP3    H233898   5.935   6.165   0.810
11319TIP3   OH233899   2.765   6.409   2.889
11319TIP3    H133900   2.857   6.399   2.916
11319TIP3    H233901   2.754   6.345   2.819
11320TIP3   OH233902   3.828   0.313   3.595
11320TIP3    H133903   3.869   0.383   3.544
11320TIP3    H233904   3.879   0.235   3.574
11321TIP3   OH233905   6.765   6.776   5.660
11321TIP3    H133906   6.716   6.834   5.718
11321TIP3    H233907   6.779   6.828   5.581
11322TIP3   OH233908   4.708   2.368   1.373
11322TIP3    H133909   4.796   2.349   1.406
11322TIP3    H233910   4.650   2.337   1.443
11323TIP3   OH233911   7.574   5.268   4.640
11323TIP3    H133912   7.617   5.213   4.705
11323TIP3    H233913   7.484   5.275   4.670
11324TIP3   OH233914   2.032   5.788   6.576
11324TIP3    H133915   2.015   5.704   6.534
11324TIP3    H233916   2.126   5.802   6.564
11325TIP3   OH233917   7.369   6.439   1.160
11325TIP3    H133918   7.411   6.431   1.074
11325TIP3    H233919   7.316   6.518   1.154
11326TIP3   OH233920   4.057   1.674   4.742
11326TIP3    H133921   4.026   1.663   4.832
11326TIP3    H233922   3.998   1.620   4.690
11327TIP3   OH233923   0.966   1.659   5.861
11327TIP3    H133924   0.974   1.753   5.871
11327TIP3    H233925   0.876   1.645   5.830
11328TIP3   OH233926   2.441   7.665   2.535
11328TIP3    H133927   2.403   7.726   2.598
11328TIP3    H233928   2.428   7.578   2.574
11329TIP3   OH233929   4.882   2.189   5.825
11329TIP3    H133930   4.907   2.262   5.882
11329TIP3    H233931   4.966   2.149   5.801
11330TIP3   OH233932   3.240   6.311   2.209
11330TIP3    H133933   3.303   6.244   2.182
11330TIP3    H233934   3.194   6.272   2.284
11331TIP3   OH233935   5.683   6.577   3.184
11331TIP3    H133936   5.738   6.551   3.258
11331TIP3    H233937   5.669   6.671   3.196
11332TIP3   OH233938   2.199   0.353   5.853
11332TIP3    H133939   2.112   0.369   5.888
11332TIP3    H233940   2.191   0.370   5.759
11333TIP3   OH233941   4.924   0.572   0.344
11333TIP3    H133942   4.949   0.515   0.271
11333TIP3    H233943   4.970   0.654   0.327
11334TIP3   OH233944   7.789   0.694   0.125
11334TIP3    H133945   7.871   0.678   0.171
11334TIP3    H233946   7.797   0.645   0.043
11335TIP3   OH233947   6.435   2.139   0.333
11335TIP3    H133948   6.508   2.197   0.353
11335TIP3    H233949   6.446   2.065   0.392
11336TIP3   OH233950   6.433   1.685   0.137
11336TIP3    H133951   6.350   1.725   0.111
11336TIP3    H233952   6.423   1.669   0.231
11337TIP3   OH233953   2.810   1.254   4.430
11337TIP3    H133954   2.819   1.220   4.341
11337TIP3    H233955   2.793   1.348   4.418
11338TIP3   OH233956   5.446   4.286   5.578
11338TIP3    H133957   5.525   4.259   5.626
11338TIP3    H233958   5.407   4.204   5.548
11339TIP3   OH233959   8.127   3.717   0.175
11339TIP3    H133960   8.136   3.813   0.176
11339TIP3    H233961   8.063   3.699   0.244
11340TIP3   OH233962   5.059   3.732   1.032
11340TIP3    H133963   5.015   3.743   1.116
11340TIP3    H233964   5.151   3.718   1.056
11341TIP3   OH233965   4.681   2.050   2.803
11341TIP3    H133966   4.748   1.992   2.768
11341TIP3    H233967   4.619   1.992   2.848
11342TIP3   OH233968   4.323   4.736   1.872
11342TIP3    H133969   4.339   4.658   1.818
11342TIP3    H233970   4.399   4.792   1.857
11343TIP3   OH233971   3.545   1.560   1.382
11343TIP3    H133972   3.613   1.499   1.352
11343TIP3    H233973   3.551   1.557   1.477
11344TIP3   OH233974   6.740   2.118   4.491
11344TIP3    H133975   6.820   2.097   4.442
11344TIP3    H233976   6.766   2.187   4.552
11345TIP3   OH233977   5.805   4.060   6.182
11345TIP3    H133978   5.767   4.132   6.131
11345TIP3    H233979   5.762   3.982   6.147
11346TIP3   OH233980   0.965   2.155   0.699
11346TIP3    H133981   0.913   2.235   0.706
11346TIP3    H233982   1.056   2.183   0.706
11347TIP3   OH233983   2.102   1.318   6.796
11347TIP3    H133984   2.077   1.273   6.715
11347TIP3    H233985   2.149   1.396   6.766
11348TIP3   OH233986   6.078   5.934   0.181
11348TIP3    H133987   6.064   5.877   0.257
11348TIP3    H233988   6.154   5.987   0.204
11349TIP3   OH233989   3.491   3.698   0.624
11349TIP3    H133990   3.432   3.709   0.550
11349TIP3    H233991   3.442   3.642   0.685
11350TIP3   OH233992   1.346   3.075   3.858
11350TIP3    H133993   1.429   3.064   3.811
11350TIP3    H233994   1.279   3.070   3.789
11351TIP3   OH233995   2.832   5.137   1.716
11351TIP3    H133996   2.853   5.222   1.678
11351TIP3    H233997   2.915   5.104   1.749
11352TIP3   OH233998   5.950   6.776   5.175
11352TIP3    H133999   6.011   6.824   5.120
11352TIP3    H234000   5.983   6.686   5.176
11353TIP3   OH234001   7.163   3.559   0.234
11353TIP3    H134002   7.074   3.591   0.251
11353TIP3    H234003   7.216   3.638   0.227
11354TIP3   OH234004   2.696   2.156   3.159
11354TIP3    H134005   2.698   2.248   3.185
11354TIP3    H234006   2.763   2.114   3.213
11355TIP3   OH234007   6.829   5.642   6.309
11355TIP3    H134008   6.877   5.564   6.336
11355TIP3    H234009   6.740   5.628   6.341
11356TIP3   OH234010   4.125   5.494   0.824
11356TIP3    H134011   4.204   5.549   0.817
11356TIP3    H234012   4.061   5.551   0.867
11357TIP3   OH234013   1.818   1.309   6.437
11357TIP3    H134014   1.748   1.260   6.393
11357TIP3    H234015   1.896   1.293   6.385
11358TIP3   OH234016   4.388   0.964   5.971
11358TIP3    H134017   4.347   0.961   6.057
11358TIP3    H234018   4.482   0.966   5.990
11359TIP3   OH234019   3.273   1.345   0.277
11359TIP3    H134020   3.317   1.357   0.361
11359TIP3    H234021   3.326   1.280   0.231
11360TIP3   OH234022   7.937   4.464   4.622
11360TIP3    H134023   7.925   4.373   4.594
11360TIP3    H234024   7.918   4.516   4.544
11361TIP3   OH234025   2.897   0.878   0.036
11361TIP3    H134026   2.815   0.858   0.082
11361TIP3    H234027   2.965   0.832   0.086
11362TIP3   OH234028   5.309   4.448   2.161
11362TIP3    H134029   5.347   4.451   2.248
11362TIP3    H234030   5.359   4.380   2.115
11363TIP3   OH234031   2.665   2.136   5.257
11363TIP3    H134032   2.744   2.172   5.216
11363TIP3    H234033   2.691   2.117   5.347
11364TIP3   OH234034   2.010   7.685   2.105
11364TIP3    H134035   1.933   7.640   2.142
11364TIP3    H234036   2.059   7.615   2.062
11365TIP3   OH234037   4.595   3.736   0.609
11365TIP3    H134038   4.566   3.776   0.527
11365TIP3    H234039   4.677   3.693   0.587
11366TIP3   OH234040   2.034   1.336   2.329
11366TIP3    H134041   2.001   1.424   2.348
11366TIP3    H234042   1.964   1.277   2.357
11367TIP3   OH234043   2.032   0.195   4.032
11367TIP3    H134044   2.057   0.107   4.062
11367TIP3    H234045   2.061   0.198   3.941
11368TIP3   OH234046   1.300   7.688   5.905
11368TIP3    H134047   1.269   7.632   5.976
11368TIP3    H234048   1.375   7.640   5.869
11369TIP3   OH234049   3.314   0.210   5.912
11369TIP3    H134050   3.224   0.191   5.938
11369TIP3    H234051   3.348   0.125   5.883
11370TIP3   OH234052   3.451   1.034   1.933
11370TIP3    H134053   3.458   1.067   1.843
11370TIP3    H234054   3.466   1.111   1.987
11371TIP3   OH234055   0.327   6.855   5.449
11371TIP3    H134056   0.242   6.899   5.458
11371TIP3    H234057   0.306   6.765   5.425
11372TIP3   OH234058   7.376   7.213   1.292
11372TIP3    H134059   7.293   7.171   1.267
11372TIP3    H234060   7.355   7.262   1.371
11373TIP3   OH234061   6.174   3.673   3.835
11373TIP3    H134062   6.227   3.660   3.914
11373TIP3    H234063   6.141   3.585   3.814
11374TIP3   OH234064   5.861   0.756   5.921
11374TIP3    H134065   5.814   0.678   5.891
11374TIP3    H234066   5.795   0.810   5.962
11375TIP3   OH234067   7.104   3.436   0.005
11375TIP3    H134068   7.010   3.448   0.018
11375TIP3    H234069   7.144   3.473   0.083
11376TIP3   OH234070   2.239   0.806   5.883
11376TIP3    H134071   2.193   0.873   5.933
11376TIP3    H234072   2.172   0.740   5.865
11377TIP3   OH234073   7.196   6.297   2.675
11377TIP3    H134074   7.209   6.276   2.582
11377TIP3    H234075   7.241   6.381   2.687
11378TIP3   OH234076   2.791   2.609   1.750
11378TIP3    H134077   2.850   2.535   1.766
11378TIP3    H234078   2.704   2.570   1.744
11379TIP3   OH234079   1.011   3.420   1.624
11379TIP3    H134080   0.921   3.387   1.614
11379TIP3    H234081   1.002   3.497   1.680
11380TIP3   OH234082   4.564   6.533   3.608
11380TIP3    H134083   4.643   6.479   3.604
11380TIP3    H234084   4.516   6.510   3.529
11381TIP3   OH234085   5.055   3.471   1.046
11381TIP3    H134086   5.039   3.561   1.019
11381TIP3    H234087   5.067   3.423   0.963
11382TIP3   OH234088   3.011   0.607   6.349
11382TIP3    H134089   2.984   0.586   6.438
11382TIP3    H234090   2.943   0.665   6.316
11383TIP3   OH234091   7.613   0.042   5.473
11383TIP3    H134092   7.653  -0.041   5.445
11383TIP3    H234093   7.521   0.022   5.485
11384TIP3   OH234094   0.249   1.085   1.186
11384TIP3    H134095   0.214   1.029   1.256
11384TIP3    H234096   0.334   1.113   1.219
11385TIP3   OH234097   2.055   3.361   5.174
11385TIP3    H134098   2.081   3.356   5.082
11385TIP3    H234099   1.994   3.288   5.185
11386TIP3   OH234100   6.296   3.960   3.757
11386TIP3    H134101   6.261   4.008   3.832
11386TIP3    H234102   6.316   3.873   3.791
11387TIP3   OH234103   8.151   1.550   3.774
11387TIP3    H134104   8.194   1.616   3.828
11387TIP3    H234105   8.141   1.592   3.688
11388TIP3   OH234106   5.127   6.785   3.188
11388TIP3    H134107   5.136   6.700   3.231
11388TIP3    H234108   5.033   6.799   3.180
11389TIP3   OH234109   6.207   5.736   6.540
11389TIP3    H134110   6.113   5.750   6.539
11389TIP3    H234111   6.228   5.718   6.632
11390TIP3   OH234112   3.003   6.673   5.040
11390TIP3    H134113   3.029   6.590   5.001
11390TIP3    H234114   2.938   6.649   5.106
11391TIP3   OH234115   5.216   6.262   6.204
11391TIP3    H134116   5.185   6.198   6.268
11391TIP3    H234117   5.263   6.209   6.139
11392TIP3   OH234118   3.701   5.440   6.629
11392TIP3    H134119   3.628   5.393   6.588
11392TIP3    H234120   3.757   5.370   6.663
11393TIP3   OH234121   4.614   7.675   0.501
11393TIP3    H134122   4.583   7.713   0.583
11393TIP3    H234123   4.560   7.716   0.434
11394TIP3   OH234124   6.217   1.767   6.038
11394TIP3    H134125   6.133   1.808   6.017
11394TIP3    H234126   6.225   1.774   6.133
11395TIP3   OH234127   7.181   5.179   1.562
11395TIP3    H134128   7.203   5.229   1.641
11395TIP3    H234129   7.199   5.088   1.586
11396TIP3   OH234130   5.176   3.944   4.121
11396TIP3    H134131   5.257   3.989   4.144
11396TIP3    H234132   5.129   3.935   4.204
11397TIP3   OH234133   3.715   1.961   4.680
11397TIP3    H134134   3.805   1.976   4.651
11397TIP3    H234135   3.717   1.874   4.721
11398TIP3   OH234136   1.836   7.528   1.497
11398TIP3    H134137   1.846   7.602   1.557
11398TIP3    H234138   1.921   7.521   1.453
11399TIP3   OH234139   1.092   4.846   1.837
11399TIP3    H134140   1.138   4.840   1.920
11399TIP3    H234141   1.160   4.870   1.773
11400TIP3   OH234142   2.984   1.953   5.300
11400TIP3    H134143   2.921   1.964   5.228
11400TIP3    H234144   3.005   2.043   5.326
11401TIP3   OH234145   4.599   3.126   1.277
11401TIP3    H134146   4.649   3.177   1.340
11401TIP3    H234147   4.534   3.187   1.242
11402TIP3   OH234148   0.695   1.446   2.746
11402TIP3    H134149   0.772   1.466   2.693
11402TIP3    H234150   0.624   1.492   2.702
11403TIP3   OH234151   0.195   5.055   0.123
11403TIP3    H134152   0.179   4.998   0.198
11403TIP3    H234153   0.262   5.116   0.154
11404TIP3   OH234154   7.512   0.869   1.802
11404TIP3    H134155   7.487   0.860   1.710
11404TIP3    H234156   7.588   0.927   1.800
11405TIP3   OH234157   0.639   1.688   2.897
11405TIP3    H134158   0.681   1.672   2.981
11405TIP3    H234159   0.586   1.610   2.881
11406TIP3   OH234160   3.950   1.364   3.095
11406TIP3    H134161   3.928   1.271   3.085
11406TIP3    H234162   4.025   1.365   3.154
11407TIP3   OH234163   0.190   0.554   6.180
11407TIP3    H134164   0.250   0.491   6.220
11407TIP3    H234165   0.124   0.570   6.247
11408TIP3   OH234166   2.552   7.523   1.234
11408TIP3    H134167   2.557   7.488   1.323
11408TIP3    H234168   2.466   7.565   1.229
11409TIP3   OH234169   0.088   1.595   5.525
11409TIP3    H134170   0.103   1.689   5.518
11409TIP3    H234171   0.165   1.556   5.484
11410TIP3   OH234172   1.657   7.280   1.103
11410TIP3    H134173   1.623   7.297   1.015
11410TIP3    H234174   1.670   7.185   1.105
11411TIP3   OH234175   2.674   0.160   1.315
11411TIP3    H134176   2.648   0.084   1.368
11411TIP3    H234177   2.735   0.125   1.250
11412TIP3   OH234178   6.072   1.378   5.512
11412TIP3    H134179   6.147   1.384   5.453
11412TIP3    H234180   6.069   1.286   5.538
11413TIP3   OH234181   6.980   2.220   0.719
11413TIP3    H134182   6.942   2.232   0.632
11413TIP3    H234183   6.945   2.136   0.749
11414TIP3   OH234184   3.826   0.227   1.368
11414TIP3    H134185   3.764   0.251   1.437
11414TIP3    H234186   3.770   0.204   1.293
11415TIP3   OH234187   2.275   5.717   6.301
11415TIP3    H134188   2.204   5.708   6.237
11415TIP3    H234189   2.278   5.632   6.345
11416TIP3   OH234190   2.485   1.053   0.309
11416TIP3    H134191   2.549   1.078   0.243
11416TIP3    H234192   2.507   1.107   0.385
11417TIP3   OH234193   4.187   1.885   1.887
11417TIP3    H134194   4.100   1.846   1.893
11417TIP3    H234195   4.175   1.961   1.830
11418TIP3   OH234196   7.106   3.379   5.774
11418TIP3    H134197   7.107   3.469   5.808
11418TIP3    H234198   7.150   3.385   5.690
11419TIP3   OH234199   6.384   5.240   0.242
11419TIP3    H134200   6.449   5.298   0.282
11419TIP3    H234201   6.339   5.296   0.178
11420TIP3   OH234202   4.464   5.039   2.894
11420TIP3    H134203   4.408   5.058   2.819
11420TIP3    H234204   4.482   4.945   2.888
11421TIP3   OH234205   2.632   3.763   5.516
11421TIP3    H134206   2.559   3.823   5.505
11421TIP3    H234207   2.698   3.814   5.563
11422TIP3   OH234208   5.147   3.362   0.101
11422TIP3    H134209   5.079   3.298   0.081
11422TIP3    H234210   5.128   3.436   0.045
11423TIP3   OH234211   2.991   1.493   3.140
11423TIP3    H134212   3.043   1.565   3.174
11423TIP3    H234213   3.055   1.426   3.115
11424TIP3   OH234214   0.674   3.850   0.033
11424TIP3    H134215   0.765   3.850   0.063
11424TIP3    H234216   0.628   3.797   0.098
11425TIP3   OH234217   1.910   3.552   5.989
11425TIP3    H134218   1.921   3.480   5.926
11425TIP3    H234219   1.880   3.626   5.937
11426TIP3   OH234220   6.314   5.588   6.351
11426TIP3    H134221   6.267   5.645   6.412
11426TIP3    H234222   6.405   5.590   6.381
11427TIP3   OH234223   5.613   1.663   3.865
11427TIP3    H134224   5.614   1.748   3.820
11427TIP3    H234225   5.579   1.683   3.953
11428TIP3   OH234226   5.179   5.662   1.437
11428TIP3    H134227   5.268   5.691   1.421
11428TIP3    H234228   5.136   5.669   1.352
11429TIP3   OH234229   1.876   4.174   6.504
11429TIP3    H134230   1.869   4.263   6.538
11429TIP3    H234231   1.822   4.121   6.563
11430TIP3   OH234232   0.832   4.007   5.140
11430TIP3    H134233   0.845   4.085   5.194
11430TIP3    H234234   0.918   3.965   5.138
11431TIP3   OH234235   3.808   6.444   1.103
11431TIP3    H134236   3.840   6.522   1.057
11431TIP3    H234237   3.723   6.426   1.063
11432TIP3   OH234238   2.668   5.230   2.668
11432TIP3    H134239   2.764   5.236   2.670
11432TIP3    H234240   2.645   5.191   2.751
11433TIP3   OH234241   3.112   0.486   0.581
11433TIP3    H134242   3.100   0.569   0.534
11433TIP3    H234243   3.110   0.419   0.512
11434TIP3   OH234244   5.192   5.093   1.486
11434TIP3    H134245   5.282   5.087   1.518
11434TIP3    H234246   5.194   5.052   1.400
11435TIP3   OH234247   6.584   7.344   0.619
11435TIP3    H134248   6.542   7.259   0.603
11435TIP3    H234249   6.645   7.327   0.690
11436TIP3   OH234250   2.952   6.610   1.150
11436TIP3    H134251   3.019   6.677   1.141
11436TIP3    H234252   2.995   6.529   1.121
11437TIP3   OH234253   7.779   2.584   3.560
11437TIP3    H134254   7.762   2.672   3.529
11437TIP3    H234255   7.768   2.590   3.655
11438TIP3   OH234256   5.300   4.452   1.224
11438TIP3    H134257   5.356   4.516   1.181
11438TIP3    H234258   5.220   4.500   1.245
11439TIP3   OH234259   7.469   7.579   0.816
11439TIP3    H134260   7.469   7.586   0.911
11439TIP3    H234261   7.561   7.573   0.791
11440TIP3   OH234262   1.037   6.639   1.864
11440TIP3    H134263   1.129   6.618   1.885
11440TIP3    H234264   1.042   6.721   1.815
11441TIP3   OH234265   7.813   7.460   4.730
11441TIP3    H134266   7.770   7.380   4.758
11441TIP3    H234267   7.839   7.503   4.811
11442TIP3   OH234268   5.899   6.742   5.729
11442TIP3    H134269   5.890   6.714   5.638
11442TIP3    H234270   5.860   6.670   5.779
11443TIP3   OH234271   1.557   7.016   5.523
11443TIP3    H134272   1.475   6.969   5.535
11443TIP3    H234273   1.534   7.092   5.470
11444TIP3   OH234274   2.766   3.888   3.954
11444TIP3    H134275   2.857   3.890   3.982
11444TIP3    H234276   2.766   3.832   3.876
11445TIP3   OH234277   4.015   0.913   3.852
11445TIP3    H134278   4.094   0.930   3.903
11445TIP3    H234279   3.975   0.838   3.895
11446TIP3   OH234280   3.905   2.028   5.865
11446TIP3    H134281   3.942   2.039   5.777
11446TIP3    H234282   3.917   1.936   5.885
11447TIP3   OH234283   2.571   2.379   1.639
11447TIP3    H134284   2.498   2.346   1.691
11447TIP3    H234285   2.532   2.405   1.555
11448TIP3   OH234286   0.577   6.128   3.666
11448TIP3    H134287   0.648   6.081   3.622
11448TIP3    H234288   0.555   6.200   3.607
11449TIP3   OH234289   7.716   1.170   2.817
11449TIP3    H134290   7.683   1.254   2.848
11449TIP3    H234291   7.810   1.174   2.834
11450TIP3   OH234292   1.640   6.611   6.022
11450TIP3    H134293   1.716   6.590   6.075
11450TIP3    H234294   1.639   6.545   5.952
11451TIP3   OH234295   5.607   0.811   4.194
11451TIP3    H134296   5.694   0.851   4.187
11451TIP3    H234297   5.621   0.720   4.167
11452TIP3   OH234298   1.194   2.580   1.694
11452TIP3    H134299   1.153   2.563   1.610
11452TIP3    H234300   1.258   2.510   1.704
11453TIP3   OH234301   5.401   5.501   1.052
11453TIP3    H134302   5.409   5.416   1.095
11453TIP3    H234303   5.480   5.549   1.078
11454TIP3   OH234304   4.416   5.388   5.628
11454TIP3    H134305   4.355   5.440   5.576
11454TIP3    H234306   4.494   5.379   5.572
11455TIP3   OH234307   1.217   3.727   6.200
11455TIP3    H134308   1.212   3.635   6.176
11455TIP3    H234309   1.155   3.736   6.272
11456TIP3   OH234310   1.168   0.790   0.885
11456TIP3    H134311   1.175   0.866   0.942
11456TIP3    H234312   1.117   0.726   0.936
11457TIP3   OH234313   0.595   7.078   1.856
11457TIP3    H134314   0.597   7.019   1.932
11457TIP3    H234315   0.539   7.150   1.883
11458TIP3   OH234316   1.853   5.100   1.627
11458TIP3    H134317   1.936   5.128   1.666
11458TIP3    H234318   1.787   5.121   1.693
11459TIP3   OH234319   7.855   1.591   2.237
11459TIP3    H134320   7.815   1.518   2.191
11459TIP3    H234321   7.915   1.550   2.300
11460TIP3   OH234322   6.267   3.848   6.103
11460TIP3    H134323   6.257   3.942   6.117
11460TIP3    H234324   6.321   3.819   6.176
11461TIP3   OH234325   3.371   2.309   1.485
11461TIP3    H134326   3.355   2.352   1.401
11461TIP3    H234327   3.319   2.229   1.481
11462TIP3   OH234328   6.132   4.523   0.168
11462TIP3    H134329   6.117   4.458   0.099
11462TIP3    H234330   6.154   4.603   0.121
11463TIP3   OH234331   0.288   1.731   3.753
11463TIP3    H134332   0.253   1.672   3.819
11463TIP3    H234333   0.211   1.767   3.708
11464TIP3   OH234334   7.759   5.414   3.807
11464TIP3    H134335   7.701   5.484   3.836
11464TIP3    H234336   7.847   5.451   3.818
11465TIP3   OH234337   8.108   7.217   5.842
11465TIP3    H134338   8.105   7.129   5.805
11465TIP3    H234339   8.121   7.204   5.936
11466TIP3   OH234340   2.977   5.366   4.293
11466TIP3    H134341   3.014   5.368   4.381
11466TIP3    H234342   2.997   5.452   4.256
11467TIP3   OH234343   6.869   4.179   2.920
11467TIP3    H134344   6.865   4.133   2.836
11467TIP3    H234345   6.864   4.272   2.895
11468TIP3   OH234346   1.304   1.888   5.557
11468TIP3    H134347   1.379   1.843   5.516
11468TIP3    H234348   1.230   1.829   5.542
11469TIP3   OH234349   2.603   2.808   5.805
11469TIP3    H134350   2.652   2.820   5.886
11469TIP3    H234351   2.624   2.885   5.752
11470TIP3   OH234352   4.069   5.089   3.686
11470TIP3    H134353   4.129   5.044   3.746
11470TIP3    H234354   3.982   5.072   3.722
11471TIP3   OH234355   2.945   4.508   6.021
11471TIP3    H134356   3.001   4.496   5.944
11471TIP3    H234357   2.908   4.421   6.037
11472TIP3   OH234358   5.503   3.946   6.676
11472TIP3    H134359   5.467   3.968   6.590
11472TIP3    H234360   5.585   3.900   6.657
11473TIP3   OH234361   8.132   6.752   6.011
11473TIP3    H134362   8.129   6.668   6.056
11473TIP3    H234363   8.210   6.796   6.045
11474TIP3   OH234364   4.977   7.604   3.813
11474TIP3    H134365   4.977   7.699   3.831
11474TIP3    H234366   4.912   7.569   3.873
11475TIP3   OH234367   0.099   4.778   0.442
11475TIP3    H134368   0.155   4.825   0.503
11475TIP3    H234369   0.081   4.694   0.485
11476TIP3   OH234370   4.173   1.098   4.650
11476TIP3    H134371   4.088   1.142   4.652
11476TIP3    H234372   4.210   1.120   4.564
11477TIP3   OH234373   2.261   7.255   2.114
11477TIP3    H134374   2.306   7.174   2.090
11477TIP3    H234375   2.263   7.256   2.210
11478TIP3   OH234376   2.978   4.052   2.937
11478TIP3    H134377   2.963   3.987   2.869
11478TIP3    H234378   2.946   4.134   2.899
11479TIP3   OH234379   1.162   0.867   0.316
11479TIP3    H134380   1.067   0.862   0.328
11479TIP3    H234381   1.183   0.794   0.258
11480TIP3   OH234382   1.798   4.185   5.274
11480TIP3    H134383   1.738   4.258   5.263
11480TIP3    H234384   1.767   4.119   5.212
11481TIP3   OH234385   2.119   2.520   1.389
11481TIP3    H134386   2.093   2.438   1.348
11481TIP3    H234387   2.096   2.510   1.481
11482TIP3   OH234388   7.642   6.857   3.408
11482TIP3    H134389   7.574   6.859   3.475
11482TIP3    H234390   7.704   6.925   3.435
11483TIP3   OH234391   6.355   2.324   4.699
11483TIP3    H134392   6.266   2.358   4.712
11483TIP3    H234393   6.405   2.399   4.668
11484TIP3   OH234394   0.099   2.750   4.258
11484TIP3    H134395   0.030   2.747   4.192
11484TIP3    H234396   0.053   2.747   4.341
11485TIP3   OH234397   0.946   0.210   3.679
11485TIP3    H134398   0.961   0.288   3.625
11485TIP3    H234399   1.028   0.197   3.726
11486TIP3   OH234400   7.741   0.085   2.357
11486TIP3    H134401   7.796   0.161   2.338
11486TIP3    H234402   7.753   0.027   2.282
11487TIP3   OH234403   3.280   3.838   2.968
11487TIP3    H134404   3.329   3.914   2.937
11487TIP3    H234405   3.189   3.858   2.945
11488TIP3   OH234406   3.157   0.325   6.326
11488TIP3    H134407   3.212   0.366   6.393
11488TIP3    H234408   3.218   0.300   6.257
11489TIP3   OH234409   5.799   3.147   2.386
11489TIP3    H134410   5.861   3.210   2.424
11489TIP3    H234411   5.854   3.074   2.356
11490TIP3   OH234412   1.867   7.173   2.854
11490TIP3    H134413   1.857   7.092   2.803
11490TIP3    H234414   1.787   7.223   2.836
11491TIP3   OH234415   4.843   6.811   6.075
11491TIP3    H134416   4.884   6.793   6.160
11491TIP3    H234417   4.826   6.905   6.075
11492TIP3   OH234418   5.641   2.318   3.583
11492TIP3    H134419   5.599   2.297   3.666
11492TIP3    H234420   5.663   2.411   3.589
11493TIP3   OH234421   7.827   5.835   2.435
11493TIP3    H134422   7.865   5.791   2.511
11493TIP3    H234423   7.883   5.810   2.362
11494TIP3   OH234424   1.746   1.783   3.380
11494TIP3    H134425   1.684   1.710   3.382
11494TIP3    H234426   1.750   1.808   3.288
11495TIP3   OH234427   3.841   2.225   3.442
11495TIP3    H134428   3.919   2.173   3.421
11495TIP3    H234429   3.782   2.210   3.368
11496TIP3   OH234430   2.678   5.898   0.994
11496TIP3    H134431   2.700   5.901   1.087
11496TIP3    H234432   2.689   5.988   0.964
11497TIP3   OH234433   6.244   1.658   3.555
11497TIP3    H134434   6.268   1.724   3.620
11497TIP3    H234435   6.201   1.707   3.485
11498TIP3   OH234436   2.752   0.064   2.069
11498TIP3    H134437   2.820   0.042   2.005
11498TIP3    H234438   2.791   0.041   2.153
11499TIP3   OH234439   0.211   1.698   2.410
11499TIP3    H134440   0.147   1.727   2.474
11499TIP3    H234441   0.244   1.778   2.370
11500TIP3   OH234442   7.636   6.163   4.386
11500TIP3    H134443   7.716   6.199   4.347
11500TIP3    H234444   7.605   6.100   4.321
11501TIP3   OH234445   4.349   6.699   2.519
11501TIP3    H134446   4.331   6.632   2.584
11501TIP3    H234447   4.264   6.742   2.505
11502TIP3   OH234448   2.316   3.306   5.903
11502TIP3    H134449   2.356   3.376   5.851
11502TIP3    H234450   2.360   3.311   5.988
11503TIP3   OH234451   0.832   5.041   3.364
11503TIP3    H134452   0.902   5.100   3.395
11503TIP3    H234453   0.759   5.099   3.345
11504TIP3   OH234454   0.225   2.692   0.997
11504TIP3    H134455   0.152   2.655   0.948
11504TIP3    H234456   0.184   2.756   1.056
11505TIP3   OH234457   6.723   5.340   3.524
11505TIP3    H134458   6.762   5.410   3.576
11505TIP3    H234459   6.791   5.273   3.518
11506TIP3   OH234460   3.532   5.410   4.866
11506TIP3    H134461   3.488   5.366   4.793
11506TIP3    H234462   3.462   5.432   4.927
11507TIP3   OH234463   4.485   7.458   4.974
11507TIP3    H134464   4.408   7.472   5.029
11507TIP3    H234465   4.531   7.542   4.976
11508TIP3   OH234466   6.599   7.803   3.202
11508TIP3    H134467   6.641   7.872   3.151
11508TIP3    H234468   6.506   7.827   3.203
11509TIP3   OH234469   1.892   7.053   3.102
11509TIP3    H134470   1.902   6.962   3.074
11509TIP3    H234471   1.882   7.102   3.021
11510TIP3   OH234472   6.922   4.410   1.266
11510TIP3    H134473   6.880   4.366   1.339
11510TIP3    H234474   6.862   4.481   1.242
11511TIP3   OH234475   2.896   4.245   5.636
11511TIP3    H134476   2.951   4.247   5.714
11511TIP3    H234477   2.806   4.251   5.670
11512TIP3   OH234478   2.192   4.968   0.713
11512TIP3    H134479   2.204   5.060   0.688
11512TIP3    H234480   2.229   4.918   0.640
11513TIP3   OH234481   3.045   0.380   4.509
11513TIP3    H134482   3.056   0.339   4.423
11513TIP3    H234483   3.082   0.318   4.571
11514TIP3   OH234484   0.425   0.439   1.898
11514TIP3    H134485   0.349   0.382   1.908
11514TIP3    H234486   0.492   0.382   1.859
11515TIP3   OH234487   1.601   7.380   2.338
11515TIP3    H134488   1.562   7.341   2.260
11515TIP3    H234489   1.536   7.443   2.369
11516TIP3   OH234490   1.896   4.540   3.431
11516TIP3    H134491   1.956   4.614   3.440
11516TIP3    H234492   1.821   4.576   3.384
11517TIP3   OH234493   1.117   5.802   1.357
11517TIP3    H134494   1.107   5.709   1.379
11517TIP3    H234495   1.139   5.844   1.441
11518TIP3   OH234496   4.450   3.466   5.417
11518TIP3    H134497   4.533   3.500   5.383
11518TIP3    H234498   4.444   3.500   5.506
11519TIP3   OH234499   4.350   4.036   0.503
11519TIP3    H134500   4.333   3.977   0.577
11519TIP3    H234501   4.437   4.071   0.520
11520TIP3   OH234502   2.185   7.628   6.482
11520TIP3    H134503   2.134   7.550   6.462
11520TIP3    H234504   2.146   7.697   6.428
11521TIP3   OH234505   2.567   5.989   5.741
11521TIP3    H134506   2.488   6.031   5.707
11521TIP3    H234507   2.580   6.026   5.828
11522TIP3   OH234508   5.164   4.255   4.290
11522TIP3    H134509   5.191   4.332   4.240
11522TIP3    H234510   5.097   4.214   4.237
11523TIP3   OH234511   0.319   4.550   4.019
11523TIP3    H134512   0.408   4.585   4.031
11523TIP3    H234513   0.326   4.496   3.940
11524TIP3   OH234514   2.419   6.715   1.800
11524TIP3    H134515   2.346   6.729   1.861
11524TIP3    H234516   2.487   6.674   1.854
11525TIP3   OH234517   7.446   3.668   0.592
11525TIP3    H134518   7.475   3.610   0.521
11525TIP3    H234519   7.362   3.631   0.620
11526TIP3   OH234520   3.589   0.111   0.231
11526TIP3    H134521   3.588   0.195   0.276
11526TIP3    H234522   3.667   0.114   0.176
11527TIP3   OH234523   1.761   1.307   1.273
11527TIP3    H134524   1.846   1.311   1.317
11527TIP3    H234525   1.779   1.262   1.190
11528TIP3   OH234526   7.995   4.674   5.759
11528TIP3    H134527   7.899   4.676   5.757
11528TIP3    H234528   8.017   4.692   5.850
11529TIP3   OH234529   0.828   1.002   5.649
11529TIP3    H134530   0.774   1.013   5.571
11529TIP3    H234531   0.917   0.987   5.616
11530TIP3   OH234532   6.372   0.049   4.050
11530TIP3    H134533   6.316   0.112   4.006
11530TIP3    H234534   6.459   0.088   4.047
11531TIP3   OH234535   5.689   7.356   3.446
11531TIP3    H134536   5.717   7.273   3.485
11531TIP3    H234537   5.599   7.368   3.477
11532TIP3   OH234538   1.107   1.525   6.672
11532TIP3    H134539   1.111   1.557   6.582
11532TIP3    H234540   1.137   1.434   6.667
11533TIP3   OH234541   7.720   1.127   6.821
11533TIP3    H134542   7.775   1.203   6.840
11533TIP3    H234543   7.750   1.096   6.736
11534TIP3   OH234544   1.570   5.318   1.758
11534TIP3    H134545   1.608   5.334   1.845
11534TIP3    H234546   1.476   5.319   1.772
11535TIP3   OH234547   3.121   1.661   0.399
11535TIP3    H134548   3.151   1.639   0.311
11535TIP3    H234549   3.201   1.677   0.449
11536TIP3   OH234550   3.328   0.831   6.010
11536TIP3    H134551   3.353   0.837   6.102
11536TIP3    H234552   3.255   0.892   6.002
11537TIP3   OH234553   0.813   4.250   5.898
11537TIP3    H134554   0.772   4.333   5.876
11537TIP3    H234555   0.855   4.265   5.982
11538TIP3   OH234556   2.928   1.038   2.525
11538TIP3    H134557   2.905   0.955   2.484
11538TIP3    H234558   2.880   1.039   2.607
11539TIP3   OH234559   4.963   0.110   4.403
11539TIP3    H134560   4.939   0.197   4.371
11539TIP3    H234561   5.058   0.106   4.392
11540TIP3   OH234562   7.968   0.981   3.501
11540TIP3    H134563   7.933   1.024   3.423
11540TIP3    H234564   8.050   0.941   3.471
11541TIP3   OH234565   6.625   4.699   6.042
11541TIP3    H134566   6.706   4.749   6.027
11541TIP3    H234567   6.556   4.754   6.005
11542TIP3   OH234568   2.360   0.558   1.087
11542TIP3    H134569   2.397   0.627   1.143
11542TIP3    H234570   2.384   0.477   1.132
11543TIP3   OH234571   5.636   5.802   3.683
11543TIP3    H134572   5.725   5.813   3.650
11543TIP3    H234573   5.645   5.745   3.759
11544TIP3   OH234574   1.801   7.046   3.557
11544TIP3    H134575   1.855   6.978   3.516
11544TIP3    H234576   1.744   7.076   3.486
11545TIP3   OH234577   5.018   2.338   1.417
11545TIP3    H134578   5.032   2.295   1.501
11545TIP3    H234579   5.103   2.334   1.373
11546TIP3   OH234580   4.918   7.793   1.353
11546TIP3    H134581   4.842   7.827   1.401
11546TIP3    H234582   4.944   7.715   1.402
11547TIP3   OH234583   5.854   6.494   3.817
11547TIP3    H134584   5.850   6.559   3.747
11547TIP3    H234585   5.764   6.464   3.827
11548TIP3   OH234586   6.626   0.243   3.469
11548TIP3    H134587   6.580   0.315   3.426
11548TIP3    H234588   6.717   0.252   3.439
11549TIP3   OH234589   0.249   7.067   1.852
11549TIP3    H134590   0.187   7.054   1.923
11549TIP3    H234591   0.284   6.980   1.834
11550TIP3   OH234592   0.112   6.538   5.609
11550TIP3    H134593   0.046   6.590   5.656
11550TIP3    H234594   0.074   6.451   5.603
11551TIP3   OH234595   6.244   4.813   5.780
11551TIP3    H134596   6.299   4.828   5.857
11551TIP3    H234597   6.268   4.725   5.751
11552TIP3   OH234598   6.525   3.798   2.838
11552TIP3    H134599   6.519   3.712   2.797
11552TIP3    H234600   6.592   3.844   2.787
11553TIP3   OH234601   1.927   5.113   6.426
11553TIP3    H134602   1.990   5.123   6.498
11553TIP3    H234603   1.967   5.159   6.353
11554TIP3   OH234604   4.680   1.172   5.576
11554TIP3    H134605   4.688   1.226   5.498
11554TIP3    H234606   4.770   1.143   5.594
11555TIP3   OH234607   6.951   4.128   3.588
11555TIP3    H134608   6.856   4.139   3.586
11555TIP3    H234609   6.974   4.127   3.681
11556TIP3   OH234610   4.863   6.441   3.504
11556TIP3    H134611   4.854   6.491   3.423
11556TIP3    H234612   4.906   6.360   3.477
11557TIP3   OH234613   6.754   4.241   4.007
11557TIP3    H134614   6.766   4.335   3.997
11557TIP3    H234615   6.804   4.218   4.086
11558TIP3   OH234616   1.829   1.274   4.657
11558TIP3    H134617   1.863   1.185   4.649
11558TIP3    H234618   1.812   1.285   4.751
11559TIP3   OH234619   6.784   0.645   3.101
11559TIP3    H134620   6.831   0.569   3.135
11559TIP3    H234621   6.705   0.609   3.062
11560TIP3   OH234622   3.202   5.780   1.112
11560TIP3    H134623   3.136   5.846   1.094
11560TIP3    H234624   3.274   5.801   1.052
11561TIP3   OH234625   5.325   0.351   4.228
11561TIP3    H134626   5.354   0.418   4.166
11561TIP3    H234627   5.242   0.319   4.192
11562TIP3   OH234628   0.219   4.244   2.102
11562TIP3    H134629   0.294   4.201   2.060
11562TIP3    H234630   0.212   4.201   2.187
11563TIP3   OH234631   0.916   1.197   5.313
11563TIP3    H134632   1.009   1.206   5.334
11563TIP3    H234633   0.912   1.123   5.253
11564TIP3   OH234634   4.175   5.621   4.791
11564TIP3    H134635   4.145   5.638   4.881
11564TIP3    H234636   4.097   5.587   4.746
11565TIP3   OH234637   4.617   7.144   6.386
11565TIP3    H134638   4.632   7.210   6.453
11565TIP3    H234639   4.639   7.188   6.304
11566TIP3   OH234640   1.632   6.989   4.172
11566TIP3    H134641   1.539   6.991   4.150
11566TIP3    H234642   1.675   7.031   4.097
11567TIP3   OH234643   2.343   7.165   3.330
11567TIP3    H134644   2.267   7.223   3.324
11567TIP3    H234645   2.345   7.137   3.421
11568TIP3   OH234646   3.108   1.624   4.412
11568TIP3    H134647   3.195   1.630   4.371
11568TIP3    H234648   3.090   1.713   4.442
11569TIP3   OH234649   5.106   6.761   2.794
11569TIP3    H134650   5.058   6.682   2.769
11569TIP3    H234651   5.160   6.782   2.718
11570TIP3   OH234652   7.458   4.014   6.585
11570TIP3    H134653   7.428   4.089   6.635
11570TIP3    H234654   7.495   3.954   6.650
11571TIP3   OH234655   2.478   3.092   3.437
11571TIP3    H134656   2.458   3.172   3.389
11571TIP3    H234657   2.453   3.111   3.527
11572TIP3   OH234658   1.402   3.917   0.424
11572TIP3    H134659   1.448   3.892   0.343
11572TIP3    H234660   1.353   3.838   0.448
11573TIP3   OH234661   2.685   6.276   3.628
11573TIP3    H134662   2.744   6.232   3.690
11573TIP3    H234663   2.601   6.279   3.674
11574TIP3   OH234664   3.631   4.023   6.523
11574TIP3    H134665   3.703   3.970   6.560
11574TIP3    H234666   3.666   4.112   6.520
11575TIP3   OH234667   0.378   5.926   6.094
11575TIP3    H134668   0.441   5.931   6.166
11575TIP3    H234669   0.405   5.849   6.044
11576TIP3   OH234670   0.820   1.284   1.401
11576TIP3    H134671   0.736   1.328   1.388
11576TIP3    H234672   0.885   1.353   1.389
11577TIP3   OH234673   0.546   0.710   1.011
11577TIP3    H134674   0.510   0.622   1.010
11577TIP3    H234675   0.518   0.746   1.095
11578TIP3   OH234676   4.356   4.398   0.114
11578TIP3    H134677   4.369   4.355   0.199
11578TIP3    H234678   4.412   4.350   0.053
11579TIP3   OH234679   5.237   0.654   5.327
11579TIP3    H134680   5.295   0.721   5.291
11579TIP3    H234681   5.296   0.583   5.354
11580TIP3   OH234682   2.977   3.085   2.778
11580TIP3    H134683   2.976   3.179   2.796
11580TIP3    H234684   3.057   3.071   2.726
11581TIP3   OH234685   7.834   2.961   3.277
11581TIP3    H134686   7.868   2.928   3.194
11581TIP3    H234687   7.912   2.972   3.332
11582TIP3   OH234688   4.134   1.848   5.374
11582TIP3    H134689   4.039   1.842   5.365
11582TIP3    H234690   4.148   1.870   5.466
11583TIP3   OH234691   2.912   2.282   5.693
11583TIP3    H134692   2.915   2.340   5.617
11583TIP3    H234693   3.001   2.247   5.701
11584TIP3   OH234694   7.838   3.264   3.118
11584TIP3    H134695   7.905   3.199   3.137
11584TIP3    H234696   7.841   3.275   3.023
11585TIP3   OH234697   6.838   5.228   6.694
11585TIP3    H134698   6.806   5.198   6.779
11585TIP3    H234699   6.853   5.147   6.645
11586TIP3   OH234700   5.665   4.678   5.187
11586TIP3    H134701   5.622   4.665   5.103
11586TIP3    H234702   5.636   4.605   5.242
11587TIP3   OH234703   5.181   3.636   3.653
11587TIP3    H134704   5.163   3.641   3.747
11587TIP3    H234705   5.266   3.593   3.647
11588TIP3   OH234706   5.174   5.830   3.461
11588TIP3    H134707   5.119   5.768   3.509
11588TIP3    H234708   5.244   5.854   3.523
11589TIP3   OH234709   1.957   3.572   2.992
11589TIP3    H134710   1.867   3.600   2.976
11589TIP3    H234711   1.950   3.479   3.011
11590TIP3   OH234712   8.014   7.744   2.158
11590TIP3    H134713   8.110   7.749   2.151
11590TIP3    H234714   7.986   7.701   2.077
11591TIP3   OH234715   8.285   6.723   0.811
11591TIP3    H134716   8.252   6.726   0.721
11591TIP3    H234717   8.366   6.773   0.808
11592TIP3   OH234718   7.696   6.084   3.009
11592TIP3    H134719   7.653   6.044   2.934
11592TIP3    H234720   7.777   6.033   3.020
11593TIP3   OH234721   6.591   2.728   6.069
11593TIP3    H134722   6.501   2.696   6.063
11593TIP3    H234723   6.595   2.800   6.006
11594TIP3   OH234724   7.955   5.819   4.386
11594TIP3    H134725   8.031   5.846   4.335
11594TIP3    H234726   7.957   5.723   4.382
11595TIP3   OH234727   6.053   7.239   2.000
11595TIP3    H134728   6.038   7.166   1.941
11595TIP3    H234729   5.987   7.304   1.977
11596TIP3   OH234730   7.324   3.349   0.311
11596TIP3    H134731   7.395   3.372   0.370
11596TIP3    H234732   7.269   3.428   0.308
11597TIP3   OH234733   1.741   1.596   0.594
11597TIP3    H134734   1.773   1.612   0.683
11597TIP3    H234735   1.680   1.667   0.577
11598TIP3   OH234736   8.275   0.337   1.649
11598TIP3    H134737   8.214   0.263   1.640
11598TIP3    H234738   8.324   0.338   1.567
11599TIP3   OH234739   4.654   5.646   4.157
11599TIP3    H134740   4.626   5.733   4.128
11599TIP3    H234741   4.741   5.635   4.120
11600TIP3   OH234742   5.643   3.773   1.384
11600TIP3    H134743   5.621   3.803   1.296
11600TIP3    H234744   5.724   3.818   1.406
11601TIP3   OH234745   6.001   5.971   3.928
11601TIP3    H134746   5.923   5.930   3.966
11601TIP3    H234747   6.069   5.958   3.994
11602TIP3   OH234748   4.128   1.250   5.755
11602TIP3    H134749   4.103   1.258   5.662
11602TIP3    H234750   4.223   1.244   5.753
11603TIP3   OH234751   1.141   0.358   5.674
11603TIP3    H134752   1.057   0.391   5.707
11603TIP3    H234753   1.117   0.305   5.598
11604TIP3   OH234754   0.719   7.556   1.877
11604TIP3    H134755   0.691   7.468   1.902
11604TIP3    H234756   0.703   7.609   1.955
11605TIP3   OH234757   3.563   1.216   3.508
11605TIP3    H134758   3.531   1.159   3.578
11605TIP3    H234759   3.610   1.158   3.448
11606TIP3   OH234760   7.833   6.031   6.294
11606TIP3    H134761   7.903   6.013   6.231
11606TIP3    H234762   7.863   5.992   6.375
11607TIP3   OH234763   2.650   1.270   3.004
11607TIP3    H134764   2.630   1.324   3.081
11607TIP3    H234765   2.572   1.278   2.949
11608TIP3   OH234766   2.509   5.970   1.248
11608TIP3    H134767   2.577   6.030   1.217
11608TIP3    H234768   2.478   6.009   1.330
11609TIP3   OH234769   4.626   2.983   6.500
11609TIP3    H134770   4.680   3.062   6.511
11609TIP3    H234771   4.553   2.995   6.562
11610TIP3   OH234772   2.753   1.273   6.030
11610TIP3    H134773   2.696   1.349   6.022
11610TIP3    H234774   2.825   1.303   6.086
11611TIP3   OH234775   0.037   7.719   6.017
11611TIP3    H134776  -0.033   7.674   5.970
11611TIP3    H234777   0.090   7.761   5.949
11612TIP3   OH234778   3.853   1.526   4.625
11612TIP3    H134779   3.796   1.498   4.697
11612TIP3    H234780   3.799   1.586   4.574
11613TIP3   OH234781   3.395   7.398   5.582
11613TIP3    H134782   3.330   7.435   5.522
11613TIP3    H234783   3.448   7.340   5.527
11614TIP3   OH234784   4.428   3.714   5.117
11614TIP3    H134785   4.365   3.665   5.170
11614TIP3    H234786   4.419   3.677   5.029
11615TIP3   OH234787   5.658   5.335   2.069
11615TIP3    H134788   5.741   5.329   2.021
11615TIP3    H234789   5.676   5.291   2.152
11616TIP3   OH234790   1.878   6.155   2.885
11616TIP3    H134791   1.906   6.236   2.928
11616TIP3    H234792   1.960   6.111   2.862
11617TIP3   OH234793   0.630   2.719   4.713
11617TIP3    H134794   0.569   2.786   4.683
11617TIP3    H234795   0.636   2.656   4.641
11618TIP3   OH234796   5.974   4.182   0.199
11618TIP3    H134797   5.934   4.243   0.261
11618TIP3    H234798   5.931   4.099   0.216
11619TIP3   OH234799   1.976   6.066   0.574
11619TIP3    H134800   1.960   5.998   0.508
11619TIP3    H234801   2.015   6.139   0.525
11620TIP3   OH234802   0.534   7.033   3.469
11620TIP3    H134803   0.508   7.114   3.513
11620TIP3    H234804   0.598   7.061   3.404
11621TIP3   OH234805   2.131   4.209   2.104
11621TIP3    H134806   2.196   4.204   2.033
11621TIP3    H234807   2.143   4.296   2.142
11622TIP3   OH234808   1.269   5.159   3.236
11622TIP3    H134809   1.280   5.222   3.307
11622TIP3    H234810   1.336   5.093   3.253
11623TIP3   OH234811   0.582   4.562   6.235
11623TIP3    H134812   0.671   4.545   6.205
11623TIP3    H234813   0.588   4.563   6.330
11624TIP3   OH234814   2.589   6.657   6.724
11624TIP3    H134815   2.583   6.563   6.705
11624TIP3    H234816   2.633   6.694   6.647
11625TIP3   OH234817   7.703   7.588   6.366
11625TIP3    H134818   7.670   7.609   6.453
11625TIP3    H234819   7.685   7.667   6.315
11626TIP3   OH234820   2.346   4.341   5.762
11626TIP3    H134821   2.268   4.319   5.813
11626TIP3    H234822   2.419   4.304   5.812
11627TIP3   OH234823   2.480   6.489   6.451
11627TIP3    H134824   2.457   6.573   6.411
11627TIP3    H234825   2.398   6.439   6.452
11628TIP3   OH234826   8.023   0.620   6.499
11628TIP3    H134827   7.939   0.641   6.540
11628TIP3    H234828   8.015   0.528   6.474
11629TIP3   OH234829   6.678   4.089   3.503
11629TIP3    H134830   6.710   4.088   3.413
11629TIP3    H234831   6.675   3.997   3.529
11630TIP3   OH234832   5.619   3.214   1.884
11630TIP3    H134833   5.666   3.253   1.957
11630TIP3    H234834   5.623   3.120   1.899
11631TIP3   OH234835   8.068   3.510   5.377
11631TIP3    H134836   8.047   3.427   5.420
11631TIP3    H234837   8.010   3.573   5.420
11632TIP3   OH234838   3.384   0.422   0.473
11632TIP3    H134839   3.340   0.392   0.393
11632TIP3    H234840   3.347   0.508   0.490
11633TIP3   OH234841   1.482   4.883   2.428
11633TIP3    H134842   1.423   4.808   2.439
11633TIP3    H234843   1.544   4.876   2.500
11634TIP3   OH234844   0.249   0.590   3.655
11634TIP3    H134845   0.234   0.561   3.565
11634TIP3    H234846   0.266   0.684   3.648
11635TIP3   OH234847   6.182   0.700   0.355
11635TIP3    H134848   6.217   0.719   0.268
11635TIP3    H234849   6.202   0.608   0.369
11636TIP3   OH234850   1.881   2.494   3.593
11636TIP3    H134851   1.898   2.410   3.635
11636TIP3    H234852   1.840   2.471   3.509
11637TIP3   OH234853   0.727   4.262   0.248
11637TIP3    H134854   0.694   4.178   0.278
11637TIP3    H234855   0.822   4.251   0.243
11638TIP3   OH234856   4.699   0.620   4.832
11638TIP3    H134857   4.720   0.560   4.760
11638TIP3    H234858   4.735   0.577   4.910
11639TIP3   OH234859   0.910   5.914   3.463
11639TIP3    H134860   0.942   5.849   3.400
11639TIP3    H234861   0.959   5.896   3.543
11640TIP3   OH234862   2.867   7.317   2.110
11640TIP3    H134863   2.811   7.378   2.158
11640TIP3    H234864   2.856   7.233   2.156
11641TIP3   OH234865   7.268   0.837   0.171
11641TIP3    H134866   7.363   0.848   0.165
11641TIP3    H234867   7.257   0.759   0.226
11642TIP3   OH234868   4.807   5.251   5.645
11642TIP3    H134869   4.736   5.216   5.592
11642TIP3    H234870   4.782   5.230   5.735
11643TIP3   OH234871   0.489   5.336   1.291
11643TIP3    H134872   0.439   5.349   1.211
11643TIP3    H234873   0.424   5.333   1.360
11644TIP3   OH234874   7.770   3.133   5.796
11644TIP3    H134875   7.806   3.199   5.856
11644TIP3    H234876   7.726   3.070   5.853
11645TIP3   OH234877   0.343   3.132   3.166
11645TIP3    H134878   0.403   3.152   3.239
11645TIP3    H234879   0.356   3.038   3.151
11646TIP3   OH234880   2.190   7.196   3.616
11646TIP3    H134881   2.154   7.116   3.577
11646TIP3    H234882   2.284   7.187   3.607
11647TIP3   OH234883   7.910   4.914   2.854
11647TIP3    H134884   7.897   4.834   2.803
11647TIP3    H234885   8.004   4.917   2.871
11648TIP3   OH234886   5.155   5.002   6.485
11648TIP3    H134887   5.108   4.963   6.412
11648TIP3    H234888   5.098   4.989   6.561
11649TIP3   OH234889   7.767   2.350   3.416
11649TIP3    H134890   7.786   2.421   3.477
11649TIP3    H234891   7.686   2.311   3.449
11650TIP3   OH234892   5.524   5.583   1.878
11650TIP3    H134893   5.447   5.639   1.872
11650TIP3    H234894   5.581   5.612   1.806
11651TIP3   OH234895   7.280   2.916   3.542
11651TIP3    H134896   7.274   2.967   3.461
11651TIP3    H234897   7.242   2.831   3.519
11652TIP3   OH234898   0.767   5.273   5.034
11652TIP3    H134899   0.752   5.359   4.995
11652TIP3    H234900   0.723   5.212   4.975
11653TIP3   OH234901   1.943   6.506   3.405
11653TIP3    H134902   1.848   6.500   3.404
11653TIP3    H234903   1.972   6.415   3.415
11654TIP3   OH234904   7.534   0.730   4.310
11654TIP3    H134905   7.460   0.678   4.278
11654TIP3    H234906   7.588   0.745   4.233
11655TIP3   OH234907   0.700   6.793   1.546
11655TIP3    H134908   0.711   6.716   1.602
11655TIP3    H234909   0.609   6.789   1.517
11656TIP3   OH234910   6.433   3.549   3.085
11656TIP3    H134911   6.502   3.525   3.022
11656TIP3    H234912   6.439   3.644   3.091
11657TIP3   OH234913   0.758   6.477   5.381
11657TIP3    H134914   0.822   6.411   5.355
11657TIP3    H234915   0.774   6.550   5.321
11658TIP3   OH234916   5.587   6.624   2.862
11658TIP3    H134917   5.506   6.666   2.891
11658TIP3    H234918   5.559   6.540   2.826
11659TIP3   OH234919   5.189   7.633   6.656
11659TIP3    H134920   5.251   7.565   6.626
11659TIP3    H234921   5.113   7.623   6.598
11660TIP3   OH234922   3.230   2.488   5.340
11660TIP3    H134923   3.264   2.400   5.331
11660TIP3    H234924   3.299   2.536   5.386
11661TIP3   OH234925   5.179   7.268   2.269
11661TIP3    H134926   5.186   7.215   2.190
11661TIP3    H234927   5.268   7.299   2.285
11662TIP3   OH234928   6.335   5.641   0.510
11662TIP3    H134929   6.304   5.732   0.505
11662TIP3    H234930   6.369   5.633   0.599
11663TIP3   OH234931   2.574   0.208   6.192
11663TIP3    H134932   2.489   0.200   6.149
11663TIP3    H234933   2.602   0.298   6.175
11664TIP3   OH234934   2.159   0.408   0.471
11664TIP3    H134935   2.160   0.491   0.422
11664TIP3    H234936   2.250   0.380   0.473
11665TIP3   OH234937   5.679   7.263   0.916
11665TIP3    H134938   5.655   7.256   0.823
11665TIP3    H234939   5.696   7.172   0.942
11666TIP3   OH234940   3.702   6.202   1.391
11666TIP3    H134941   3.652   6.276   1.356
11666TIP3    H234942   3.782   6.241   1.424
11667TIP3   OH234943   1.887   5.021  -0.036
11667TIP3    H134944   1.928   5.102  -0.007
11667TIP3    H234945   1.946   4.952  -0.004
11668TIP3   OH234946   4.986   4.979   6.705
11668TIP3    H134947   4.919   5.024   6.756
11668TIP3    H234948   4.973   4.887   6.724
11669TIP3   OH234949   0.236   5.090   2.446
11669TIP3    H134950   0.324   5.125   2.437
11669TIP3    H234951   0.248   4.995   2.441
11670TIP3   OH234952   0.629   6.887   2.176
11670TIP3    H134953   0.719   6.916   2.166
11670TIP3    H234954   0.636   6.793   2.195
11671TIP3   OH234955   0.398   5.178   0.271
11671TIP3    H134956   0.431   5.260   0.306
11671TIP3    H234957   0.470   5.116   0.280
11672TIP3   OH234958   0.091   6.303   2.965
11672TIP3    H134959   0.086   6.210   2.942
11672TIP3    H234960   0.060   6.348   2.886
11673TIP3   OH234961   1.662   2.024   0.460
11673TIP3    H134962   1.755   2.003   0.451
11673TIP3    H234963   1.622   1.989   0.381
11674TIP3   OH234964   5.795   2.808   2.765
11674TIP3    H134965   5.879   2.775   2.798
11674TIP3    H234966   5.775   2.882   2.821
11675TIP3   OH234967   2.305   1.246   1.762
11675TIP3    H134968   2.234   1.191   1.729
11675TIP3    H234969   2.356   1.189   1.819
11676TIP3   OH234970   2.661   3.322   1.302
11676TIP3    H134971   2.594   3.346   1.366
11676TIP3    H234972   2.742   3.362   1.335
11677TIP3   OH234973   5.945   3.361   5.817
11677TIP3    H134974   5.868   3.331   5.769
11677TIP3    H234975   5.918   3.443   5.858
11678TIP3   OH234976   1.444   5.305   0.333
11678TIP3    H134977   1.382   5.358   0.382
11678TIP3    H234978   1.391   5.235   0.294
11679TIP3   OH234979   8.063   4.353   3.414
11679TIP3    H134980   8.147   4.379   3.454
11679TIP3    H234981   8.012   4.434   3.411
11680TIP3   OH234982   3.259   7.209   5.033
11680TIP3    H134983   3.217   7.156   5.101
11680TIP3    H234984   3.290   7.145   4.969
11681TIP3   OH234985   7.151   5.478   0.268
11681TIP3    H134986   7.139   5.518   0.182
11681TIP3    H234987   7.231   5.426   0.259
11682TIP3   OH234988   7.419   2.909   5.550
11682TIP3    H134989   7.389   2.889   5.462
11682TIP3    H234990   7.491   2.971   5.538
11683TIP3   OH234991   4.161   4.475   2.289
11683TIP3    H134992   4.150   4.560   2.332
11683TIP3    H234993   4.077   4.460   2.246
11684TIP3   OH234994   5.979   0.096   4.491
11684TIP3    H134995   5.890   0.088   4.526
11684TIP3    H234996   5.994   0.191   4.486
11685TIP3   OH234997   5.898   0.385   0.990
11685TIP3    H134998   5.817   0.425   1.023
11685TIP3    H234999   5.959   0.458   0.983
11686TIP3   OH235000   4.355   4.004   2.809
11686TIP3    H135001   4.381   4.064   2.879
11686TIP3    H235002   4.302   3.938   2.853
11687TIP3   OH235003   7.098   1.360   2.651
11687TIP3    H135004   7.189   1.333   2.665
11687TIP3    H235005   7.085   1.431   2.714
11688TIP3   OH235006   6.937   3.893   2.910
11688TIP3    H135007   6.918   3.860   2.822
11688TIP3    H235008   6.992   3.970   2.895
11689TIP3   OH235009   7.376   1.144   5.632
11689TIP3    H135010   7.416   1.062   5.662
11689TIP3    H235011   7.445   1.209   5.638
11690TIP3   OH235012   0.558   6.488   4.421
11690TIP3    H135013   0.551   6.559   4.484
11690TIP3    H235014   0.468   6.470   4.394
11691TIP3   OH235015   0.225   7.518   1.484
11691TIP3    H135016   0.294   7.544   1.545
11691TIP3    H235017   0.186   7.440   1.523
11692TIP3   OH235018   2.079   7.036   5.614
11692TIP3    H135019   1.988   7.046   5.588
11692TIP3    H235020   2.116   6.977   5.548
11693TIP3   OH235021   7.778   2.721   0.242
11693TIP3    H135022   7.822   2.802   0.217
11693TIP3    H235023   7.755   2.733   0.334
11694TIP3   OH235024   2.597   6.732   0.840
11694TIP3    H135025   2.594   6.825   0.814
11694TIP3    H235026   2.574   6.685   0.760
11695TIP3   OH235027   6.746   1.556   5.498
11695TIP3    H135028   6.820   1.502   5.470
11695TIP3    H235029   6.746   1.548   5.594
11696TIP3   OH235030   2.489   0.599   6.503
11696TIP3    H135031   2.491   0.602   6.598
11696TIP3    H235032   2.482   0.505   6.482
11697TIP3   OH235033   5.458   1.104   0.804
11697TIP3    H135034   5.553   1.100   0.818
11697TIP3    H235035   5.446   1.071   0.715
11698TIP3   OH235036   3.253   3.330   0.955
11698TIP3    H135037   3.284   3.240   0.960
11698TIP3    H235038   3.209   3.345   1.039
11699TIP3   OH235039   5.906   0.029   1.313
11699TIP3    H135040   5.834   0.015   1.251
11699TIP3    H235041   5.912  -0.054   1.361
11700TIP3   OH235042   0.456   3.311   6.047
11700TIP3    H135043   0.444   3.274   6.134
11700TIP3    H235044   0.395   3.262   5.992
11701TIP3   OH235045   6.958   7.509   3.826
11701TIP3    H135046   6.920   7.591   3.858
11701TIP3    H235047   6.882   7.454   3.805
11702TIP3   OH235048   5.923   7.438   1.879
11702TIP3    H135049   5.912   7.533   1.885
11702TIP3    H235050   5.967   7.425   1.795
11703TIP3   OH235051   7.708   4.826   4.816
11703TIP3    H135052   7.632   4.788   4.859
11703TIP3    H235053   7.759   4.750   4.786
11704TIP3   OH235054   2.862   7.507   0.969
11704TIP3    H135055   2.941   7.522   1.021
11704TIP3    H235056   2.892   7.458   0.892
11705TIP3   OH235057   5.890   6.133   3.673
11705TIP3    H135058   5.977   6.100   3.692
11705TIP3    H235059   5.843   6.126   3.756
11706TIP3   OH235060   7.138   6.673   0.349
11706TIP3    H135061   7.092   6.588   0.347
11706TIP3    H235062   7.086   6.729   0.291
11707TIP3   OH235063   7.780   7.476   6.687
11707TIP3    H135064   7.705   7.535   6.696
11707TIP3    H235065   7.744   7.398   6.645
11708TIP3   OH235066   7.709   2.473   3.081
11708TIP3    H135067   7.714   2.378   3.092
11708TIP3    H235068   7.667   2.486   2.996
11709TIP3   OH235069   2.185   0.664   4.651
11709TIP3    H135070   2.209   0.575   4.624
11709TIP3    H235071   2.220   0.672   4.740
11710TIP3   OH235072   6.679   5.241   4.821
11710TIP3    H135073   6.633   5.210   4.743
11710TIP3    H235074   6.684   5.336   4.810
11711TIP3   OH235075   8.216   7.772   3.930
11711TIP3    H135076   8.206   7.744   3.839
11711TIP3    H235077   8.126   7.780   3.963
11712TIP3   OH235078   7.513   5.763   3.248
11712TIP3    H135079   7.609   5.759   3.244
11712TIP3    H235080   7.489   5.690   3.305
11713TIP3   OH235081   0.875   5.422   4.272
11713TIP3    H135082   0.812   5.464   4.331
11713TIP3    H235083   0.954   5.412   4.324
11714TIP3   OH235084   5.679   4.086   5.489
11714TIP3    H135085   5.726   4.096   5.406
11714TIP3    H235086   5.587   4.074   5.463
11715TIP3   OH235087   3.339   7.275   2.001
11715TIP3    H135088   3.278   7.342   1.967
11715TIP3    H235089   3.352   7.299   2.093
11716TIP3   OH235090   1.859   2.723   6.294
11716TIP3    H135091   1.910   2.785   6.346
11716TIP3    H235092   1.912   2.644   6.292
11717TIP3   OH235093   2.243   7.299   1.533
11717TIP3    H135094   2.263   7.256   1.450
11717TIP3    H235095   2.212   7.228   1.589
11718TIP3   OH235096   4.452   4.395   6.509
11718TIP3    H135097   4.480   4.474   6.463
11718TIP3    H235098   4.358   4.407   6.523
11719TIP3   OH235099   2.505   4.557   3.317
11719TIP3    H135100   2.493   4.468   3.283
11719TIP3    H235101   2.416   4.588   3.333
11720TIP3   OH235102   4.393   5.352   6.551
11720TIP3    H135103   4.399   5.365   6.646
11720TIP3    H235104   4.468   5.400   6.516
11721TIP3   OH235105   1.591   6.843   5.220
11721TIP3    H135106   1.525   6.909   5.240
11721TIP3    H235107   1.670   6.874   5.264
11722TIP3   OH235108   3.228   3.110   0.384
11722TIP3    H135109   3.138   3.102   0.352
11722TIP3    H235110   3.278   3.138   0.308
11723TIP3   OH235111   5.485   5.166   5.291
11723TIP3    H135112   5.549   5.096   5.306
11723TIP3    H235113   5.461   5.195   5.379
11724TIP3   OH235114   3.455   2.231   5.721
11724TIP3    H135115   3.406   2.219   5.640
11724TIP3    H235116   3.535   2.180   5.709
11725TIP3   OH235117   7.052   2.302   6.306
11725TIP3    H135118   7.069   2.234   6.372
11725TIP3    H235119   6.984   2.357   6.345
11726TIP3   OH235120   0.830   6.331   6.336
11726TIP3    H135121   0.809   6.241   6.360
11726TIP3    H235122   0.908   6.324   6.281
11727TIP3   OH235123   4.632   1.890   5.084
11727TIP3    H135124   4.703   1.920   5.027
11727TIP3    H235125   4.553   1.922   5.042
11728TIP3   OH235126   6.616   7.003   4.292
11728TIP3    H135127   6.636   7.011   4.386
11728TIP3    H235128   6.521   7.011   4.287
11729TIP3   OH235129   0.370   5.622   4.566
11729TIP3    H135130   0.339   5.703   4.607
11729TIP3    H235131   0.410   5.651   4.484
11730TIP3   OH235132   1.754   5.605   5.481
11730TIP3    H135133   1.710   5.522   5.499
11730TIP3    H235134   1.838   5.598   5.525
11731TIP3   OH235135   1.108   5.150   4.398
11731TIP3    H135136   1.078   5.112   4.481
11731TIP3    H235137   1.133   5.240   4.421
11732TIP3   OH235138   6.904   1.256   1.744
11732TIP3    H135139   6.865   1.272   1.657
11732TIP3    H235140   6.878   1.332   1.796
11733TIP3   OH235141   5.743   5.004   1.564
11733TIP3    H135142   5.739   5.095   1.594
11733TIP3    H235143   5.836   4.986   1.552
11734TIP3   OH235144   1.049   1.922   6.452
11734TIP3    H135145   0.958   1.936   6.428
11734TIP3    H235146   1.087   2.010   6.457
11735TIP3   OH235147   4.180   5.157   2.502
11735TIP3    H135148   4.129   5.091   2.548
11735TIP3    H235149   4.193   5.120   2.414
11736TIP3   OH235150   5.847   4.860   0.346
11736TIP3    H135151   5.940   4.841   0.342
11736TIP3    H235152   5.833   4.899   0.432
11737TIP3   OH235153   8.083   3.334   1.579
11737TIP3    H135154   8.029   3.366   1.651
11737TIP3    H235155   8.153   3.399   1.571
11738TIP3   OH235156   5.388   3.606   2.721
11738TIP3    H135157   5.384   3.551   2.643
11738TIP3    H235158   5.453   3.564   2.778
11739TIP3   OH235159   2.401   1.212   2.105
11739TIP3    H135160   2.409   1.288   2.047
11739TIP3    H235161   2.367   1.249   2.187
11740TIP3   OH235162   0.642   4.769   2.718
11740TIP3    H135163   0.722   4.716   2.727
11740TIP3    H235164   0.614   4.785   2.808
11741TIP3   OH235165   7.401   4.904   2.089
11741TIP3    H135166   7.441   4.835   2.036
11741TIP3    H235167   7.418   4.877   2.179
11742TIP3   OH235168   4.413   5.480   1.443
11742TIP3    H135169   4.448   5.561   1.479
11742TIP3    H235170   4.382   5.505   1.355
11743TIP3   OH235171   5.462   4.450   3.067
11743TIP3    H135172   5.412   4.421   2.990
11743TIP3    H235173   5.408   4.424   3.142
11744TIP3   OH235174   3.926   2.448   3.250
11744TIP3    H135175   3.926   2.483   3.339
11744TIP3    H235176   3.834   2.444   3.225
11745TIP3   OH235177   6.375   7.070   0.011
11745TIP3    H135178   6.466   7.047   0.026
11745TIP3    H235179   6.378   7.137  -0.057
11746TIP3   OH235180   2.733   2.288   1.239
11746TIP3    H135181   2.672   2.217   1.219
11746TIP3    H235182   2.814   2.243   1.265
11747TIP3   OH235183   1.887   4.561   4.108
11747TIP3    H135184   1.941   4.533   4.034
11747TIP3    H235185   1.946   4.615   4.161
11748TIP3   OH235186   0.301   1.519   0.971
11748TIP3    H135187   0.236   1.565   0.919
11748TIP3    H235188   0.370   1.496   0.910
11749TIP3   OH235189   7.417   1.578   2.356
11749TIP3    H135190   7.378   1.660   2.384
11749TIP3    H235191   7.505   1.601   2.327
11750TIP3   OH235192   2.384   7.064   5.096
11750TIP3    H135193   2.424   7.147   5.121
11750TIP3    H235194   2.387   7.064   5.000
11751TIP3   OH235195   6.263   6.376   4.302
11751TIP3    H135196   6.298   6.382   4.213
11751TIP3    H235197   6.293   6.292   4.335
11752TIP3   OH235198   1.142   4.154   5.917
11752TIP3    H135199   1.172   4.220   5.979
11752TIP3    H235200   1.106   4.205   5.843
11753TIP3   OH235201   4.413   2.929   0.309
11753TIP3    H135202   4.481   2.875   0.269
11753TIP3    H235203   4.331   2.895   0.273
11754TIP3   OH235204   2.599   1.018   2.551
11754TIP3    H135205   2.669   1.021   2.486
11754TIP3    H235206   2.630   1.075   2.621
11755TIP3   OH235207   6.119   7.046   5.298
11755TIP3    H135208   6.145   7.118   5.241
11755TIP3    H235209   6.175   7.055   5.375
11756TIP3   OH235210   6.061   6.420   0.371
11756TIP3    H135211   6.072   6.513   0.353
11756TIP3    H235212   6.126   6.400   0.437
11757TIP3   OH235213   7.196   6.362   3.073
11757TIP3    H135214   7.145   6.284   3.052
11757TIP3    H235215   7.287   6.332   3.075
11758TIP3   OH235216   6.765   4.522   3.879
11758TIP3    H135217   6.794   4.613   3.875
11758TIP3    H235218   6.690   4.518   3.820
11759TIP3   OH235219   1.006   7.189   2.217
11759TIP3    H135220   0.965   7.200   2.131
11759TIP3    H235221   1.042   7.275   2.238
11760TIP3   OH235222   5.200   3.109   0.397
11760TIP3    H135223   5.115   3.091   0.438
11760TIP3    H235224   5.261   3.117   0.470
11761TIP3   OH235225   2.870   5.541   1.835
11761TIP3    H135226   2.908   5.607   1.892
11761TIP3    H235227   2.841   5.471   1.894
11762TIP3   OH235228   4.229   5.245   6.083
11762TIP3    H135229   4.194   5.309   6.146
11762TIP3    H235230   4.152   5.213   6.036
11763TIP3   OH235231   0.743   4.922   4.384
11763TIP3    H135232   0.768   5.005   4.343
11763TIP3    H235233   0.812   4.861   4.359
11764TIP3   OH235234   0.227   0.924   0.966
11764TIP3    H135235   0.248   0.994   1.028
11764TIP3    H235236   0.198   0.851   1.021
11765TIP3   OH235237   6.395   5.774   3.363
11765TIP3    H135238   6.351   5.690   3.373
11765TIP3    H235239   6.416   5.780   3.270
11766TIP3   OH235240   7.901   4.860   1.483
11766TIP3    H135241   7.930   4.785   1.432
11766TIP3    H235242   7.839   4.906   1.426
11767TIP3   OH235243   6.952   7.140   3.350
11767TIP3    H135244   6.927   7.224   3.390
11767TIP3    H235245   6.935   7.153   3.256
11768TIP3   OH235246   4.187   4.375   6.486
11768TIP3    H135247   4.127   4.301   6.482
11768TIP3    H235248   4.156   4.435   6.419
11769TIP3   OH235249   0.384   2.858   1.125
11769TIP3    H135250   0.464   2.812   1.152
11769TIP3    H235251   0.343   2.800   1.061
11770TIP3   OH235252   4.845   2.475   2.446
11770TIP3    H135253   4.777   2.467   2.511
11770TIP3    H235254   4.919   2.426   2.481
11771TIP3   OH235255   1.116   5.475   6.405
11771TIP3    H135256   1.143   5.461   6.495
11771TIP3    H235257   1.195   5.505   6.360
11772TIP3   OH235258   3.783   6.601   3.511
11772TIP3    H135259   3.768   6.584   3.418
11772TIP3    H235260   3.701   6.577   3.553
11773TIP3   OH235261   7.297   4.474   5.631
11773TIP3    H135262   7.223   4.520   5.592
11773TIP3    H235263   7.361   4.468   5.561
11774TIP3   OH235264   1.534   5.653   4.716
11774TIP3    H135265   1.592   5.711   4.669
11774TIP3    H235266   1.573   5.645   4.804
11775TIP3   OH235267   0.955   5.720   4.264
11775TIP3    H135268   1.027   5.726   4.327
11775TIP3    H235269   0.951   5.627   4.240
11776TIP3   OH235270   0.634   0.374   0.474
11776TIP3    H135271   0.660   0.305   0.412
11776TIP3    H235272   0.705   0.438   0.470
11777TIP3   OH235273   3.521   1.646   0.650
11777TIP3    H135274   3.532   1.554   0.628
11777TIP3    H235275   3.450   1.647   0.714
11778TIP3   OH235276   6.213   1.854   5.743
11778TIP3    H135277   6.131   1.805   5.741
11778TIP3    H235278   6.188   1.942   5.772
11779TIP3   OH235279   3.623   3.606   5.792
11779TIP3    H135280   3.624   3.648   5.878
11779TIP3    H235281   3.707   3.559   5.787
11780TIP3   OH235282   6.010   3.438   5.100
11780TIP3    H135283   5.940   3.414   5.039
11780TIP3    H235284   5.996   3.531   5.117
11781TIP3   OH235285   5.844   7.067   2.492
11781TIP3    H135286   5.756   7.032   2.479
11781TIP3    H235287   5.896   6.992   2.520
11782TIP3   OH235288   5.883   4.417   5.348
11782TIP3    H135289   5.955   4.415   5.412
11782TIP3    H235290   5.907   4.489   5.289
11783TIP3   OH235291   2.564   4.188   2.029
11783TIP3    H135292   2.599   4.270   2.062
11783TIP3    H235293   2.638   4.128   2.029
11784TIP3   OH235294   6.833   6.881   5.155
11784TIP3    H135295   6.891   6.819   5.198
11784TIP3    H235296   6.890   6.927   5.092
11785TIP3   OH235297   6.053   5.902   5.980
11785TIP3    H135298   5.976   5.880   6.033
11785TIP3    H235299   6.057   5.998   5.982
11786TIP3   OH235300   1.408   3.394   5.706
11786TIP3    H135301   1.477   3.460   5.705
11786TIP3    H235302   1.433   3.334   5.776
11787TIP3   OH235303   1.430   1.556   4.025
11787TIP3    H135304   1.396   1.638   3.988
11787TIP3    H235305   1.525   1.566   4.021
11788TIP3   OH235306   6.945   0.251   1.573
11788TIP3    H135307   6.909   0.167   1.599
11788TIP3    H235308   7.039   0.242   1.586
11789TIP3   OH235309   3.911   7.221   2.934
11789TIP3    H135310   3.942   7.242   3.022
11789TIP3    H235311   3.857   7.143   2.946
11790TIP3   OH235312   1.388   6.678   2.942
11790TIP3    H135313   1.350   6.716   2.863
11790TIP3    H235314   1.370   6.584   2.935
11791TIP3   OH235315   3.316   5.542   0.231
11791TIP3    H135316   3.252   5.563   0.300
11791TIP3    H235317   3.324   5.623   0.181
11792TIP3   OH235318   5.153   0.683   0.781
11792TIP3    H135319   5.196   0.765   0.807
11792TIP3    H235320   5.222   0.632   0.738
11793TIP3   OH235321   6.203   1.308   0.157
11793TIP3    H135322   6.112   1.292   0.182
11793TIP3    H235323   6.213   1.261   0.074
11794TIP3   OH235324   2.059   0.358   0.827
11794TIP3    H135325   2.075   0.452   0.818
11794TIP3    H235326   2.028   0.331   0.740
11795TIP3   OH235327   5.503   5.501   0.224
11795TIP3    H135328   5.588   5.535   0.252
11795TIP3    H235329   5.452   5.578   0.202
11796TIP3   OH235330   6.548   1.344   0.660
11796TIP3    H135331   6.473   1.403   0.667
11796TIP3    H235332   6.608   1.373   0.729
11797TIP3   OH235333   3.685   3.205   5.992
11797TIP3    H135334   3.702   3.111   5.987
11797TIP3    H235335   3.604   3.211   6.043
11798TIP3   OH235336   3.110   3.572   5.354
11798TIP3    H135337   3.090   3.555   5.446
11798TIP3    H235338   3.078   3.494   5.308
11799TIP3   OH235339   1.702   3.663   2.967
11799TIP3    H135340   1.641   3.642   3.038
11799TIP3    H235341   1.669   3.612   2.892
11800TIP3   OH235342   4.466   1.192   4.936
11800TIP3    H135343   4.548   1.238   4.956
11800TIP3    H235344   4.491   1.127   4.871
11801TIP3   OH235345   6.418   2.513   6.550
11801TIP3    H135346   6.476   2.557   6.612
11801TIP3    H235347   6.391   2.433   6.594
11802TIP3   OH235348   4.903   7.508   5.496
11802TIP3    H135349   4.981   7.496   5.443
11802TIP3    H235350   4.839   7.447   5.458
11803TIP3   OH235351   3.488   6.143   2.421
11803TIP3    H135352   3.442   6.064   2.393
11803TIP3    H235353   3.419   6.201   2.453
11804TIP3   OH235354   0.223   1.187   6.274
11804TIP3    H135355   0.182   1.230   6.348
11804TIP3    H235356   0.232   1.095   6.301
11805TIP3   OH235357   6.562   1.028   4.263
11805TIP3    H135358   6.481   1.068   4.233
11805TIP3    H235359   6.544   0.997   4.351
11806TIP3   OH235360   0.521   4.258   0.876
11806TIP3    H135361   0.508   4.304   0.959
11806TIP3    H235362   0.585   4.190   0.897
11807TIP3   OH235363   3.213   4.255   2.529
11807TIP3    H135364   3.302   4.221   2.543
11807TIP3    H235365   3.198   4.314   2.603
11808TIP3   OH235366   6.997   2.709   6.514
11808TIP3    H135367   7.083   2.693   6.474
11808TIP3    H235368   7.014   2.705   6.608
11809TIP3   OH235369   4.309   0.476   2.718
11809TIP3    H135370   4.369   0.446   2.650
11809TIP3    H235371   4.299   0.400   2.776
11810TIP3   OH235372   0.495   2.908   6.190
11810TIP3    H135373   0.505   2.956   6.108
11810TIP3    H235374   0.469   2.974   6.254
11811TIP3   OH235375   5.912   4.644   0.676
11811TIP3    H135376   5.823   4.678   0.667
11811TIP3    H235377   5.942   4.629   0.586
11812TIP3   OH235378   1.123   4.685   4.654
11812TIP3    H135379   1.174   4.765   4.653
11812TIP3    H235380   1.101   4.670   4.746
11813TIP3   OH235381   1.041   6.295   5.877
11813TIP3    H135382   1.012   6.361   5.940
11813TIP3    H235383   0.985   6.309   5.801
11814TIP3   OH235384   2.505   0.126   4.272
11814TIP3    H135385   2.500   0.149   4.179
11814TIP3    H235386   2.588   0.078   4.279
11815TIP3   OH235387   5.913   4.007   4.799
11815TIP3    H135388   5.886   3.919   4.773
11815TIP3    H235389   5.994   4.023   4.750
11816TIP3   OH235390   0.627   4.330   1.483
11816TIP3    H135391   0.585   4.414   1.502
11816TIP3    H235392   0.717   4.340   1.514
11817TIP3   OH235393   2.985   0.671   2.793
11817TIP3    H135394   2.898   0.696   2.763
11817TIP3    H235395   2.982   0.682   2.888
11818TIP3   OH235396   4.361   7.181   5.877
11818TIP3    H135397   4.320   7.244   5.935
11818TIP3    H235398   4.453   7.179   5.905
11819TIP3   OH235399   0.616   3.026   1.828
11819TIP3    H135400   0.521   3.031   1.835
11819TIP3    H235401   0.648   3.088   1.894
11820TIP3   OH235402   6.247   6.532   6.582
11820TIP3    H135403   6.290   6.480   6.650
11820TIP3    H235404   6.245   6.621   6.618
11821TIP3   OH235405   1.223   6.269   2.652
11821TIP3    H135406   1.197   6.279   2.744
11821TIP3    H235407   1.297   6.329   2.642
11822TIP3   OH235408   3.119   5.155   1.497
11822TIP3    H135409   3.129   5.062   1.474
11822TIP3    H235410   3.028   5.176   1.476
11823TIP3   OH235411   0.540   1.102   0.353
11823TIP3    H135412   0.522   1.119   0.260
11823TIP3    H235413   0.549   1.007   0.359
11824TIP3   OH235414   5.216   2.222   3.368
11824TIP3    H135415   5.309   2.210   3.351
11824TIP3    H235416   5.181   2.261   3.288
11825TIP3   OH235417   5.845   3.556   5.511
11825TIP3    H135418   5.818   3.479   5.461
11825TIP3    H235419   5.778   3.566   5.578
11826TIP3   OH235420   2.160   3.011   4.900
11826TIP3    H135421   2.188   3.102   4.888
11826TIP3    H235422   2.226   2.973   4.959
11827TIP3   OH235423   4.691   5.064   6.283
11827TIP3    H135424   4.692   5.035   6.191
11827TIP3    H235425   4.660   5.155   6.278
11828TIP3   OH235426   5.706   1.289   6.345
11828TIP3    H135427   5.799   1.268   6.356
11828TIP3    H235428   5.697   1.310   6.252
11829TIP3   OH235429   1.863   4.816   1.650
11829TIP3    H135430   1.806   4.807   1.574
11829TIP3    H235431   1.879   4.911   1.657
11830TIP3   OH235432   1.078   2.231   2.150
11830TIP3    H135433   1.024   2.218   2.072
11830TIP3    H235434   1.026   2.291   2.205
11831TIP3   OH235435   1.512   2.994   1.604
11831TIP3    H135436   1.461   3.006   1.684
11831TIP3    H235437   1.593   2.951   1.634
11832TIP3   OH235438   6.561   4.392   5.641
11832TIP3    H135439   6.581   4.354   5.555
11832TIP3    H235440   6.627   4.356   5.700
11833TIP3   OH235441   6.712   7.664   1.195
11833TIP3    H135442   6.635   7.607   1.194
11833TIP3    H235443   6.760   7.640   1.115
11834TIP3   OH235444   6.856   3.937   4.807
11834TIP3    H135445   6.905   3.921   4.727
11834TIP3    H235446   6.865   4.031   4.822
11835TIP3   OH235447   0.599   2.124   1.237
11835TIP3    H135448   0.601   2.219   1.252
11835TIP3    H235449   0.518   2.095   1.280
11836TIP3   OH235450   4.015   1.195   2.778
11836TIP3    H135451   4.006   1.100   2.789
11836TIP3    H235452   3.925   1.226   2.774
11837TIP3   OH235453   7.211   1.491   6.420
11837TIP3    H135454   7.165   1.408   6.432
11837TIP3    H235455   7.267   1.477   6.344
11838TIP3   OH235456   7.482   6.106   1.332
11838TIP3    H135457   7.425   6.112   1.256
11838TIP3    H235458   7.568   6.084   1.296
11839TIP3   OH235459   2.161   3.918   0.924
11839TIP3    H135460   2.160   3.824   0.941
11839TIP3    H235461   2.082   3.951   0.968
11840TIP3   OH235462   5.239   0.034   5.344
11840TIP3    H135463   5.207   0.119   5.375
11840TIP3    H235464   5.211   0.031   5.253
11841TIP3   OH235465   0.939   0.177   4.472
11841TIP3    H135466   0.847   0.178   4.446
11841TIP3    H235467   0.961   0.085   4.484
11842TIP3   OH235468   3.049   4.880   3.006
11842TIP3    H135469   3.136   4.864   3.040
11842TIP3    H235470   3.056   4.861   2.912
11843TIP3   OH235471   3.935   7.362   3.382
11843TIP3    H135472   3.880   7.288   3.357
11843TIP3    H235473   3.962   7.343   3.471
11844TIP3   OH235474   5.564   6.157   3.133
11844TIP3    H135475   5.618   6.226   3.094
11844TIP3    H235476   5.589   6.077   3.086
11845TIP3   OH235477   3.721   3.899   3.287
11845TIP3    H135478   3.666   3.830   3.324
11845TIP3    H235479   3.807   3.857   3.275
11846TIP3   OH235480   3.795   0.361   2.008
11846TIP3    H135481   3.729   0.293   2.016
11846TIP3    H235482   3.811   0.390   2.098
11847TIP3   OH235483   3.122   6.364   5.943
11847TIP3    H135484   3.134   6.458   5.939
11847TIP3    H235485   3.207   6.328   5.919
11848TIP3   OH235486   4.689   3.762   1.685
11848TIP3    H135487   4.689   3.854   1.709
11848TIP3    H235488   4.653   3.760   1.596
11849TIP3   OH235489   6.448   7.585   0.392
11849TIP3    H135490   6.358   7.591   0.360
11849TIP3    H235491   6.499   7.555   0.317
11850TIP3   OH235492   3.844   7.776   6.510
11850TIP3    H135493   3.769   7.796   6.453
11850TIP3    H235494   3.854   7.854   6.565
11851TIP3   OH235495   5.664   5.817   0.386
11851TIP3    H135496   5.571   5.795   0.376
11851TIP3    H235497   5.696   5.755   0.452
11852TIP3   OH235498   0.587   4.427   3.406
11852TIP3    H135499   0.498   4.402   3.428
11852TIP3    H235500   0.615   4.363   3.340
11853TIP3   OH235501   0.278   5.606   5.152
11853TIP3    H135502   0.282   5.697   5.121
11853TIP3    H235503   0.200   5.604   5.208
11854TIP3   OH235504   1.186   0.057   2.119
11854TIP3    H135505   1.229   0.122   2.174
11854TIP3    H235506   1.234   0.059   2.037
11855TIP3   OH235507   8.000   6.452   2.683
11855TIP3    H135508   7.958   6.451   2.597
11855TIP3    H235509   7.943   6.399   2.738
11856TIP3   OH235510   5.244   4.679   2.680
11856TIP3    H135511   5.187   4.644   2.612
11856TIP3    H235512   5.269   4.603   2.732
11857TIP3   OH235513   2.903   4.687   0.272
11857TIP3    H135514   2.871   4.775   0.252
11857TIP3    H235515   2.880   4.673   0.364
11858TIP3   OH235516   4.515   3.402   0.288
11858TIP3    H135517   4.466   3.484   0.299
11858TIP3    H235518   4.525   3.393   0.194
11859TIP3   OH235519   4.801   5.763   3.253
11859TIP3    H135520   4.799   5.858   3.266
11859TIP3    H235521   4.866   5.732   3.315
11860TIP3   OH235522   3.764   0.728   6.194
11860TIP3    H135523   3.830   0.783   6.152
11860TIP3    H235524   3.728   0.782   6.264
11861TIP3   OH235525   0.428   1.124   6.618
11861TIP3    H135526   0.352   1.164   6.575
11861TIP3    H235527   0.501   1.183   6.598
11862TIP3   OH235528   0.726   3.652   2.182
11862TIP3    H135529   0.811   3.639   2.222
11862TIP3    H235530   0.671   3.582   2.219
11863TIP3   OH235531   2.318   2.240   1.779
11863TIP3    H135532   2.229   2.239   1.814
11863TIP3    H235533   2.368   2.288   1.845
11864TIP3   OH235534   8.024   7.304   5.345
11864TIP3    H135535   8.001   7.314   5.253
11864TIP3    H235536   7.944   7.272   5.386
11865TIP3   OH235537   6.833   4.148   3.275
11865TIP3    H135538   6.924   4.167   3.253
11865TIP3    H235539   6.788   4.233   3.270
11866TIP3   OH235540   3.984   7.282   3.646
11866TIP3    H135541   4.072   7.269   3.683
11866TIP3    H235542   3.957   7.194   3.617
11867TIP3   OH235543   5.863   0.360   2.447
11867TIP3    H135544   5.886   0.439   2.497
11867TIP3    H235545   5.923   0.361   2.373
11868TIP3   OH235546   1.338   1.465   1.668
11868TIP3    H135547   1.347   1.495   1.577
11868TIP3    H235548   1.337   1.545   1.720
11869TIP3   OH235549   1.935   7.297   3.667
11869TIP3    H135550   1.901   7.209   3.652
11869TIP3    H235551   2.027   7.291   3.643
11870TIP3   OH235552   6.753   3.697   2.280
11870TIP3    H135553   6.772   3.720   2.189
11870TIP3    H235554   6.806   3.758   2.332
11871TIP3   OH235555   5.862   6.667   2.906
11871TIP3    H135556   5.771   6.641   2.920
11871TIP3    H235557   5.868   6.755   2.944
11872TIP3   OH235558   0.483   5.040   6.439
11872TIP3    H135559   0.456   4.979   6.507
11872TIP3    H235560   0.565   5.003   6.404
11873TIP3   OH235561   0.747   6.531   2.805
11873TIP3    H135562   0.776   6.448   2.767
11873TIP3    H235563   0.800   6.541   2.884
11874TIP3   OH235564   3.778   3.350   6.395
11874TIP3    H135565   3.777   3.386   6.306
11874TIP3    H235566   3.860   3.301   6.401
11875TIP3   OH235567   1.386   1.949   4.170
11875TIP3    H135568   1.477   1.978   4.182
11875TIP3    H235569   1.355   1.999   4.095
11876TIP3   OH235570   4.438   3.177   0.863
11876TIP3    H135571   4.351   3.197   0.829
11876TIP3    H235572   4.497   3.192   0.788
11877TIP3   OH235573   6.219   5.219   2.649
11877TIP3    H135574   6.140   5.254   2.607
11877TIP3    H235575   6.187   5.149   2.707
11878TIP3   OH235576   7.275   6.595   3.588
11878TIP3    H135577   7.244   6.506   3.604
11878TIP3    H235578   7.331   6.587   3.510
11879TIP3   OH235579   5.921   4.232   2.661
11879TIP3    H135580   5.959   4.267   2.581
11879TIP3    H235581   5.841   4.189   2.632
11880TIP3   OH235582   4.336   7.118   0.926
11880TIP3    H135583   4.245   7.133   0.901
11880TIP3    H235584   4.386   7.128   0.845
11881TIP3   OH235585   0.419   1.979   0.580
11881TIP3    H135586   0.350   1.951   0.640
11881TIP3    H235587   0.372   2.029   0.512
11882TIP3   OH235588   5.144   7.290   1.241
11882TIP3    H135589   5.195   7.284   1.159
11882TIP3    H235590   5.053   7.277   1.214
11883TIP3   OH235591   5.833   6.213   0.073
11883TIP3    H135592   5.852   6.152   0.002
11883TIP3    H235593   5.809   6.158   0.147
11884TIP3   OH235594   6.923   2.668   5.219
11884TIP3    H135595   6.846   2.697   5.171
11884TIP3    H235596   6.897   2.587   5.261
11885TIP3   OH235597   4.306   6.257   3.201
11885TIP3    H135598   4.253   6.202   3.258
11885TIP3    H235599   4.372   6.198   3.165
11886TIP3   OH235600   1.114   1.540   4.319
11886TIP3    H135601   1.149   1.579   4.399
11886TIP3    H235602   1.188   1.496   4.279
11887TIP3   OH235603   3.570   7.475   6.143
11887TIP3    H135604   3.608   7.432   6.220
11887TIP3    H235605   3.492   7.423   6.123
11888TIP3   OH235606   1.642   7.316   2.815
11888TIP3    H135607   1.551   7.291   2.827
11888TIP3    H235608   1.642   7.412   2.820
11889TIP3   OH235609   2.282   7.699   1.827
11889TIP3    H135610   2.238   7.723   1.746
11889TIP3    H235611   2.292   7.782   1.874
11890TIP3   OH235612   4.210   3.397   0.336
11890TIP3    H135613   4.228   3.359   0.422
11890TIP3    H235614   4.244   3.486   0.341
11891TIP3   OH235615   0.789   1.851   6.091
11891TIP3    H135616   0.786   1.933   6.041
11891TIP3    H235617   0.875   1.853   6.134
11892TIP3   OH235618   5.551   7.033   2.498
11892TIP3    H135619   5.523   6.999   2.412
11892TIP3    H235620   5.573   7.124   2.482
11893TIP3   OH235621   1.557   2.352   4.713
11893TIP3    H135622   1.483   2.382   4.765
11893TIP3    H235623   1.535   2.377   4.623
11894TIP3   OH235624   1.032   5.245   3.436
11894TIP3    H135625   1.127   5.249   3.445
11894TIP3    H235626   1.010   5.314   3.374
11895TIP3   OH235627   1.317   2.111   3.945
11895TIP3    H135628   1.358   2.194   3.920
11895TIP3    H235629   1.329   2.055   3.868
11896TIP3   OH235630   4.928   2.054   1.820
11896TIP3    H135631   4.844   2.065   1.864
11896TIP3    H235632   4.992   2.090   1.881
11897TIP3   OH235633   2.756   3.701   3.754
11897TIP3    H135634   2.800   3.626   3.795
11897TIP3    H235635   2.806   3.719   3.675
11898TIP3   OH235636   5.582   3.282   2.328
11898TIP3    H135637   5.591   3.329   2.410
11898TIP3    H235638   5.640   3.206   2.337
11899TIP3   OH235639   6.460   3.104   2.171
11899TIP3    H135640   6.505   3.021   2.188
11899TIP3    H235641   6.429   3.132   2.257
11900TIP3   OH235642   2.438   4.279   6.662
11900TIP3    H135643   2.350   4.316   6.665
11900TIP3    H235644   2.473   4.291   6.750
11901TIP3   OH235645   1.657   7.822   4.644
11901TIP3    H135646   1.733   7.766   4.627
11901TIP3    H235647   1.599   7.767   4.697
11902TIP3   OH235648   5.957   1.327   4.822
11902TIP3    H135649   6.044   1.357   4.847
11902TIP3    H235650   5.919   1.402   4.776
11903TIP3   OH235651   8.241   2.025   2.787
11903TIP3    H135652   8.297   2.102   2.784
11903TIP3    H235653   8.156   2.055   2.755
11904TIP3   OH235654   3.730   4.228   0.057
11904TIP3    H135655   3.650   4.276   0.076
11904TIP3    H235656   3.720   4.145   0.102
11905TIP3   OH235657   0.690   5.531   0.918
11905TIP3    H135658   0.777   5.567   0.937
11905TIP3    H235659   0.642   5.541   0.999
11906TIP3   OH235660  -0.017   1.793   5.893
11906TIP3    H135661   0.063   1.845   5.888
11906TIP3    H235662   0.010   1.705   5.866
11907TIP3   OH235663   7.760   1.034   4.271
11907TIP3    H135664   7.836   0.985   4.239
11907TIP3    H235665   7.702   1.042   4.195
11908TIP3   OH235666   5.539   7.103   0.049
11908TIP3    H135667   5.468   7.054   0.089
11908TIP3    H235668   5.584   7.040  -0.007
11909TIP3   OH235669   2.749   7.483   2.941
11909TIP3    H135670   2.686   7.552   2.960
11909TIP3    H235671   2.823   7.502   2.999
11910TIP3   OH235672   3.845   2.033   4.926
11910TIP3    H135673   3.758   2.064   4.953
11910TIP3    H235674   3.893   2.112   4.903
11911TIP3   OH235675   2.664   5.742   3.259
11911TIP3    H135676   2.637   5.665   3.210
11911TIP3    H235677   2.645   5.720   3.350
11912TIP3   OH235678   0.626   7.471   5.427
11912TIP3    H135679   0.694   7.445   5.489
11912TIP3    H235680   0.550   7.418   5.452
11913TIP3   OH235681   7.919   5.669   6.409
11913TIP3    H135682   7.981   5.741   6.399
11913TIP3    H235683   7.845   5.707   6.457
11914TIP3   OH235684   1.174   3.161   5.068
11914TIP3    H135685   1.163   3.180   5.161
11914TIP3    H235686   1.213   3.240   5.031
11915TIP3   OH235687   2.659   1.348   6.309
11915TIP3    H135688   2.727   1.293   6.348
11915TIP3    H235689   2.645   1.419   6.371
11916TIP3   OH235690   1.243   1.614   4.561
11916TIP3    H135691   1.273   1.609   4.652
11916TIP3    H235692   1.241   1.708   4.542
11917TIP3   OH235693   7.578   2.334   0.664
11917TIP3    H135694   7.661   2.293   0.642
11917TIP3    H235695   7.547   2.286   0.740
11918TIP3   OH235696   2.158   1.339   5.775
11918TIP3    H135697   2.085   1.383   5.818
11918TIP3    H235698   2.172   1.388   5.694
11919TIP3   OH235699   3.175   6.583   5.646
11919TIP3    H135700   3.182   6.502   5.596
11919TIP3    H235701   3.104   6.631   5.604
11920TIP3   OH235702   7.430   7.618   3.127
11920TIP3    H135703   7.443   7.655   3.039
11920TIP3    H235704   7.336   7.626   3.142
11921TIP3   OH235705   7.459   5.488   1.596
11921TIP3    H135706   7.471   5.524   1.684
11921TIP3    H235707   7.547   5.471   1.564
11922TIP3   OH235708   4.397   5.913   1.162
11922TIP3    H135709   4.432   5.970   1.094
11922TIP3    H235710   4.336   5.969   1.211
11923TIP3   OH235711   7.402   0.866   1.531
11923TIP3    H135712   7.326   0.924   1.539
11923TIP3    H235713   7.379   0.806   1.460
11924TIP3   OH235714   7.225   2.293   1.259
11924TIP3    H135715   7.152   2.284   1.320
11924TIP3    H235716   7.292   2.233   1.292
11925TIP3   OH235717   4.032   2.097   5.638
11925TIP3    H135718   4.122   2.066   5.652
11925TIP3    H235719   4.039   2.159   5.565
11926TIP3   OH235720   1.118   0.471   6.616
11926TIP3    H135721   1.209   0.477   6.645
11926TIP3    H235722   1.071   0.433   6.690
11927TIP3   OH235723   1.698   1.962   5.394
11927TIP3    H135724   1.699   2.056   5.410
11927TIP3    H235725   1.788   1.934   5.410
11928TIP3   OH235726   2.438   2.616   5.881
11928TIP3    H135727   2.501   2.686   5.862
11928TIP3    H235728   2.460   2.588   5.970
11929TIP3   OH235729   3.160   6.032   3.003
11929TIP3    H135730   3.252   6.009   3.017
11929TIP3    H235731   3.121   6.028   3.090
11930TIP3   OH235732   5.486   7.259   2.883
11930TIP3    H135733   5.472   7.275   2.977
11930TIP3    H235734   5.422   7.316   2.840
11931TIP3   OH235735   6.334   2.692   5.967
11931TIP3    H135736   6.255   2.673   6.018
11931TIP3    H235737   6.304   2.750   5.898
11932TIP3   OH235738   5.632   4.566   3.259
11932TIP3    H135739   5.599   4.534   3.176
11932TIP3    H235740   5.560   4.618   3.295
11933TIP3   OH235741   1.310   7.174   5.621
11933TIP3    H135742   1.312   7.085   5.586
11933TIP3    H235743   1.302   7.230   5.544
11934TIP3   OH235744   5.427   3.573   3.948
11934TIP3    H135745   5.415   3.603   3.858
11934TIP3    H235746   5.346   3.526   3.969
11935TIP3   OH235747   4.190   0.957   0.162
11935TIP3    H135748   4.194   0.863   0.180
11935TIP3    H235749   4.281   0.983   0.148
11936TIP3   OH235750   2.227   5.245   0.716
11936TIP3    H135751   2.245   5.335   0.692
11936TIP3    H235752   2.306   5.215   0.762
11937TIP3   OH235753   2.372   1.171   3.182
11937TIP3    H135754   2.365   1.135   3.094
11937TIP3    H235755   2.464   1.164   3.204
11938TIP3   OH235756   8.157   1.817   5.632
11938TIP3    H135757   8.238   1.827   5.581
11938TIP3    H235758   8.178   1.851   5.718
11939TIP3   OH235759   1.802   0.266   4.736
11939TIP3    H135760   1.807   0.246   4.643
11939TIP3    H235761   1.890   0.298   4.759
11940TIP3   OH235762   0.242   5.996   3.150
11940TIP3    H135763   0.271   5.911   3.185
11940TIP3    H235764   0.314   6.026   3.095
11941TIP3   OH235765   7.130   0.907   4.521
11941TIP3    H135766   7.100   0.935   4.607
11941TIP3    H235767   7.051   0.907   4.467
11942TIP3   OH235768   3.556   0.432   6.321
11942TIP3    H135769   3.595   0.346   6.340
11942TIP3    H235770   3.603   0.463   6.243
11943TIP3   OH235771   7.611   1.480   2.880
11943TIP3    H135772   7.569   1.509   2.799
11943TIP3    H235773   7.550   1.507   2.949
11944TIP3   OH235774   8.049   0.638   1.676
11944TIP3    H135775   8.084   0.727   1.682
11944TIP3    H235776   8.072   0.597   1.759
11945TIP3   OH235777   6.257   0.326   3.549
11945TIP3    H135778   6.318   0.269   3.596
11945TIP3    H235779   6.211   0.268   3.489
11946TIP3   OH235780   5.868   1.556   1.522
11946TIP3    H135781   5.955   1.575   1.557
11946TIP3    H235782   5.885   1.493   1.451
11947TIP3   OH235783   3.050   2.284   1.574
11947TIP3    H135784   2.971   2.251   1.533
11947TIP3    H235785   3.121   2.237   1.530
11948TIP3   OH235786   5.773   1.038   3.738
11948TIP3    H135787   5.780   1.044   3.643
11948TIP3    H235788   5.681   1.017   3.754
11949TIP3   OH235789   2.394   1.555   4.897
11949TIP3    H135790   2.321   1.494   4.895
11949TIP3    H235791   2.459   1.513   4.953
11950TIP3   OH235792   3.399   3.229   0.193
11950TIP3    H135793   3.452   3.151   0.206
11950TIP3    H235794   3.410   3.250   0.100
11951TIP3   OH235795   3.509   3.757   2.218
11951TIP3    H135796   3.604   3.766   2.234
11951TIP3    H235797   3.501   3.758   2.123
11952TIP3   OH235798   1.101   3.063   2.661
11952TIP3    H135799   1.178   3.020   2.623
11952TIP3    H235800   1.135   3.146   2.696
11953TIP3   OH235801   5.834   5.668   1.823
11953TIP3    H135802   5.831   5.757   1.788
11953TIP3    H235803   5.884   5.677   1.905
11954TIP3   OH235804   3.550   1.571   0.310
11954TIP3    H135805   3.564   1.510   0.238
11954TIP3    H235806   3.464   1.547   0.345
11955TIP3   OH235807   6.048   1.584   6.670
11955TIP3    H135808   5.995   1.506   6.652
11955TIP3    H235809   6.082   1.611   6.585
11956TIP3   OH235810   6.044   1.447   3.176
11956TIP3    H135811   6.138   1.465   3.169
11956TIP3    H235812   6.020   1.481   3.263
11957TIP3   OH235813   6.672   5.677   3.418
11957TIP3    H135814   6.668   5.647   3.509
11957TIP3    H235815   6.612   5.751   3.414
11958TIP3   OH235816   0.016   6.802   1.744
11958TIP3    H135817   0.105   6.782   1.773
11958TIP3    H235818   0.027   6.828   1.652
11959TIP3   OH235819   8.155   4.797   6.501
11959TIP3    H135820   8.202   4.760   6.576
11959TIP3    H235821   8.071   4.825   6.537
11960TIP3   OH235822   7.878   2.404   4.763
11960TIP3    H135823   7.840   2.444   4.685
11960TIP3    H235824   7.972   2.400   4.745
11961TIP3   OH235825   4.226   6.589   3.807
11961TIP3    H135826   4.186   6.574   3.893
11961TIP3    H235827   4.152   6.595   3.747
11962TIP3   OH235828   2.614   4.374   5.407
11962TIP3    H135829   2.620   4.406   5.497
11962TIP3    H235830   2.522   4.386   5.384
11963TIP3   OH235831   0.284   7.706   3.297
11963TIP3    H135832   0.352   7.639   3.285
11963TIP3    H235833   0.219   7.686   3.231
11964TIP3   OH235834   0.870   7.582   1.022
11964TIP3    H135835   0.875   7.618   0.933
11964TIP3    H235836   0.952   7.610   1.063
11965TIP3   OH235837   3.901   5.354   3.671
11965TIP3    H135838   3.902   5.447   3.651
11965TIP3    H235839   3.866   5.349   3.760
11966TIP3   OH235840   3.180   4.701   4.345
11966TIP3    H135841   3.131   4.644   4.404
11966TIP3    H235842   3.183   4.654   4.262
11967TIP3   OH235843   2.274   5.792   4.743
11967TIP3    H135844   2.206   5.856   4.764
11967TIP3    H235845   2.319   5.776   4.826
11968TIP3   OH235846   6.449   3.162   0.075
11968TIP3    H135847   6.468   3.082   0.025
11968TIP3    H235848   6.512   3.160   0.147
11969TIP3   OH235849   0.862   4.558   1.443
11969TIP3    H135850   0.853   4.488   1.378
11969TIP3    H235851   0.772   4.591   1.456
11970TIP3   OH235852   6.775   3.470   5.693
11970TIP3    H135853   6.723   3.436   5.766
11970TIP3    H235854   6.822   3.544   5.729
11971TIP3   OH235855   5.692   1.971   1.311
11971TIP3    H135856   5.722   1.917   1.384
11971TIP3    H235857   5.660   1.908   1.246
11972TIP3   OH235858   6.695   6.130   1.185
11972TIP3    H135859   6.739   6.201   1.231
11972TIP3    H235860   6.620   6.172   1.143
11973TIP3   OH235861   7.152   6.107   1.648
11973TIP3    H135862   7.083   6.109   1.582
11973TIP3    H235863   7.161   6.198   1.677
11974TIP3   OH235864   0.851   3.938   3.281
11974TIP3    H135865   0.817   4.001   3.344
11974TIP3    H235866   0.818   3.968   3.196
11975TIP3   OH235867   0.874   4.166   0.706
11975TIP3    H135868   0.961   4.134   0.731
11975TIP3    H235869   0.816   4.135   0.776
11976TIP3   OH235870   1.611   2.154   1.121
11976TIP3    H135871   1.593   2.143   1.214
11976TIP3    H235872   1.703   2.176   1.117
11977TIP3   OH235873   5.916   3.675   4.410
11977TIP3    H135874   5.837   3.635   4.445
11977TIP3    H235875   5.983   3.660   4.476
11978TIP3   OH235876   6.792   6.904   0.914
11978TIP3    H135877   6.804   6.986   0.962
11978TIP3    H235878   6.824   6.923   0.826
11979TIP3   OH235879   1.825   6.528   5.417
11979TIP3    H135880   1.751   6.490   5.370
11979TIP3    H235881   1.855   6.599   5.361
11980TIP3   OH235882   7.663   1.815   6.289
11980TIP3    H135883   7.603   1.861   6.348
11980TIP3    H235884   7.746   1.860   6.299
11981TIP3   OH235885   5.481   0.708   4.916
11981TIP3    H135886   5.487   0.803   4.922
11981TIP3    H235887   5.456   0.680   5.003
11982TIP3   OH235888   3.212   4.340   0.113
11982TIP3    H135889   3.217   4.355   0.207
11982TIP3    H235890   3.242   4.250   0.101
11983TIP3   OH235891   4.007   6.608   2.230
11983TIP3    H135892   4.092   6.634   2.195
11983TIP3    H235893   4.012   6.626   2.323
11984TIP3   OH235894   8.142   4.909   3.103
11984TIP3    H135895   8.147   4.830   3.049
11984TIP3    H235896   8.170   4.980   3.045
11985TIP3   OH235897   4.692   4.272   1.519
11985TIP3    H135898   4.785   4.252   1.518
11985TIP3    H235899   4.649   4.188   1.535
11986TIP3   OH235900   1.943   1.355   2.959
11986TIP3    H135901   1.875   1.414   2.990
11986TIP3    H235902   2.021   1.381   3.007
11987TIP3   OH235903   6.288   0.547   1.448
11987TIP3    H135904   6.347   0.564   1.522
11987TIP3    H235905   6.223   0.486   1.484
11988TIP3   OH235906   4.084   1.190   1.195
11988TIP3    H135907   3.998   1.176   1.157
11988TIP3    H235908   4.128   1.105   1.189
11989TIP3   OH235909   5.872   2.201   3.509
11989TIP3    H135910   5.833   2.190   3.423
11989TIP3    H235911   5.805   2.246   3.560
11990TIP3   OH235912   7.769   3.421   2.641
11990TIP3    H135913   7.820   3.391   2.717
11990TIP3    H235914   7.805   3.508   2.622
11991TIP3   OH235915   6.105   2.251   2.650
11991TIP3    H135916   6.054   2.327   2.680
11991TIP3    H235917   6.089   2.184   2.716
11992TIP3   OH235918   6.432   2.548   2.140
11992TIP3    H135919   6.506   2.573   2.195
11992TIP3    H235920   6.371   2.505   2.200
11993TIP3   OH235921   2.996   1.792  -0.029
11993TIP3    H135922   2.970   1.717   0.024
11993TIP3    H235923   2.966   1.869   0.021
11994TIP3   OH235924   2.317   5.806   1.160
11994TIP3    H135925   2.287   5.839   1.075
11994TIP3    H235926   2.389   5.864   1.185
11995TIP3   OH235927   8.278   6.755   3.772
11995TIP3    H135928   8.259   6.739   3.865
11995TIP3    H235929   8.240   6.681   3.727
11996TIP3   OH235930   4.837   7.509   0.409
11996TIP3    H135931   4.911   7.551   0.366
11996TIP3    H235932   4.777   7.581   0.429
11997TIP3   OH235933   2.014   0.882   1.210
11997TIP3    H135934   1.937   0.931   1.241
11997TIP3    H235935   1.982   0.835   1.133
11998TIP3   OH235936   1.652   7.003   4.752
11998TIP3    H135937   1.729   7.024   4.700
11998TIP3    H235938   1.613   7.087   4.774
11999TIP3   OH235939   0.052   6.831  -0.012
11999TIP3    H135940   0.127   6.780   0.019
11999TIP3    H235941  -0.017   6.814   0.052
12000TIP3   OH235942   4.247   1.078   0.500
12000TIP3    H135943   4.294   0.995   0.491
12000TIP3    H235944   4.285   1.118   0.578
12001TIP3   OH235945   4.850   1.031   2.677
12001TIP3    H135946   4.758   1.030   2.703
12001TIP3    H235947   4.859   1.108   2.621
12002TIP3   OH235948   7.681   2.174   2.469
12002TIP3    H135949   7.717   2.232   2.535
12002TIP3    H235950   7.614   2.123   2.515
12003TIP3   OH235951   5.100   7.197   6.509
12003TIP3    H135952   5.045   7.221   6.583
12003TIP3    H235953   5.168   7.141   6.546
12004TIP3   OH235954   8.098   5.659   5.940
12004TIP3    H135955   8.130   5.738   5.898
12004TIP3    H235956   8.157   5.590   5.909
12005TIP3   OH235957   4.834   4.335   3.930
12005TIP3    H135958   4.891   4.391   3.877
12005TIP3    H235959   4.763   4.310   3.870
12006TIP3   OH235960   1.610   1.905   0.925
12006TIP3    H135961   1.642   1.971   0.986
12006TIP3    H235962   1.525   1.937   0.897
12007TIP3   OH235963   1.328   4.079   2.938
12007TIP3    H135964   1.414   4.037   2.947
12007TIP3    H235965   1.299   4.092   3.028
12008TIP3   OH235966   0.579   6.648   3.501
12008TIP3    H135967   0.611   6.657   3.591
12008TIP3    H235968   0.492   6.688   3.502
12009TIP3   OH235969   1.247   7.261   5.089
12009TIP3    H135970   1.310   7.310   5.038
12009TIP3    H235971   1.298   7.188   5.125
12010TIP3   OH235972   8.241   5.777   5.087
12010TIP3    H135973   8.152   5.745   5.105
12010TIP3    H235974   8.263   5.740   5.002
12011TIP3   OH235975   6.578   4.585   4.076
12011TIP3    H135976   6.631   4.563   4.152
12011TIP3    H235977   6.631   4.555   4.001
12012TIP3   OH235978   3.265   0.751   1.777
12012TIP3    H135979   3.325   0.767   1.704
12012TIP3    H235980   3.323   0.726   1.850
12013TIP3   OH235981   7.500   0.286   2.692
12013TIP3    H135982   7.508   0.283   2.596
12013TIP3    H235983   7.412   0.320   2.708
12014TIP3   OH235984   0.020   7.312   1.220
12014TIP3    H135985   0.107   7.325   1.183
12014TIP3    H235986   0.028   7.233   1.273
12015TIP3   OH235987   3.017   6.101   3.244
12015TIP3    H135988   3.072   6.179   3.244
12015TIP3    H235989   2.967   6.108   3.325
12016TIP3   OH235990   3.290   4.614   2.016
12016TIP3    H135991   3.366   4.558   2.025
12016TIP3    H235992   3.215   4.558   2.037
12017TIP3   OH235993   3.635   4.943   3.734
12017TIP3    H135994   3.711   4.994   3.762
12017TIP3    H235995   3.600   4.992   3.659
12018TIP3   OH235996   2.945   2.353   4.354
12018TIP3    H135997   2.930   2.427   4.413
12018TIP3    H235998   2.976   2.282   4.411
12019TIP3   OH235999   7.254   0.434   0.109
12019TIP3    H136000   7.227   0.503   0.170
12019TIP3    H236001   7.251   0.476   0.023
12020TIP3   OH236002   0.458   3.459   5.513
12020TIP3    H136003   0.466   3.554   5.522
12020TIP3    H236004   0.498   3.424   5.593
12021TIP3   OH236005   3.035   3.479   3.944
12021TIP3    H136006   2.954   3.440   3.912
12021TIP3    H236007   3.031   3.467   4.039
12022TIP3   OH236008   0.182   5.975   6.438
12022TIP3    H136009   0.103   6.024   6.414
12022TIP3    H236010   0.254   6.036   6.418
12023TIP3   OH236011   8.086   6.632   2.384
12023TIP3    H136012   8.132   6.610   2.465
12023TIP3    H236013   8.154   6.664   2.325
12024TIP3   OH236014   5.499   5.407   4.217
12024TIP3    H136015   5.579   5.447   4.251
12024TIP3    H236016   5.439   5.480   4.205
12025TIP3   OH236017   4.411   6.045   3.041
12025TIP3    H136018   4.480   5.995   3.085
12025TIP3    H236019   4.422   6.025   2.948
12026TIP3   OH236020   4.064   4.178   3.781
12026TIP3    H136021   4.024   4.169   3.868
12026TIP3    H236022   3.989   4.180   3.721
12027TIP3   OH236023   2.342   3.747   0.648
12027TIP3    H136024   2.255   3.764   0.684
12027TIP3    H236025   2.379   3.680   0.705
12028TIP3   OH236026   4.757   1.189   5.965
12028TIP3    H136027   4.842   1.219   5.997
12028TIP3    H236028   4.699   1.199   6.040
12029TIP3   OH236029   7.180   6.261   1.975
12029TIP3    H136030   7.165   6.355   1.988
12029TIP3    H236031   7.122   6.219   2.038
12030TIP3   OH236032   2.672   0.452   6.266
12030TIP3    H136033   2.731   0.417   6.333
12030TIP3    H236034   2.730   0.489   6.199
12031TIP3   OH236035   6.140   4.189   1.784
12031TIP3    H136036   6.054   4.192   1.743
12031TIP3    H236037   6.199   4.162   1.714
12032TIP3   OH236038   3.811   6.544   0.008
12032TIP3    H136039   3.886   6.598  -0.016
12032TIP3    H236040   3.757   6.601   0.064
12033TIP3   OH236041   2.823   2.195   6.382
12033TIP3    H136042   2.914   2.180   6.406
12033TIP3    H236043   2.821   2.179   6.287
12034TIP3   OH236044   6.094   1.133   5.010
12034TIP3    H136045   6.025   1.155   4.947
12034TIP3    H236046   6.125   1.047   4.983
12035TIP3   OH236047   7.003   2.113   1.633
12035TIP3    H136048   6.950   2.183   1.672
12035TIP3    H236049   6.964   2.099   1.546
12036TIP3   OH236050   5.029   7.318   4.735
12036TIP3    H136051   4.953   7.338   4.790
12036TIP3    H236052   4.993   7.272   4.660
12037TIP3   OH236053   5.215   5.832   1.669
12037TIP3    H136054   5.215   5.927   1.656
12037TIP3    H236055   5.172   5.798   1.591
12038TIP3   OH236056   1.289   0.451   4.880
12038TIP3    H136057   1.220   0.390   4.853
12038TIP3    H236058   1.322   0.414   4.962
12039TIP3   OH236059   8.258   2.887   0.840
12039TIP3    H136060   8.181   2.830   0.845
12039TIP3    H236061   8.255   2.922   0.751
12040TIP3   OH236062   4.632   6.112   2.422
12040TIP3    H136063   4.642   6.050   2.350
12040TIP3    H236064   4.643   6.059   2.501
12041TIP3   OH236065   8.001   2.220   5.829
12041TIP3    H136066   8.032   2.239   5.741
12041TIP3    H236067   8.067   2.259   5.886
12042TIP3   OH236068   0.695   7.560   1.548
12042TIP3    H136069   0.748   7.566   1.469
12042TIP3    H236070   0.634   7.487   1.530
12043TIP3   OH236071   7.048   4.667   0.321
12043TIP3    H136072   6.988   4.666   0.246
12043TIP3    H236073   7.004   4.614   0.388
12044TIP3   OH236074   4.018   4.362   4.700
12044TIP3    H136075   3.940   4.391   4.747
12044TIP3    H236076   4.057   4.443   4.667
12045TIP3   OH236077   7.110   0.949   2.347
12045TIP3    H136078   7.030   0.973   2.301
12045TIP3    H236079   7.105   0.998   2.430
12046TIP3   OH236080   0.796   5.049   1.116
12046TIP3    H136081   0.706   5.060   1.084
12046TIP3    H236082   0.807   5.120   1.179
12047TIP3   OH236083   7.764   5.328   0.383
12047TIP3    H136084   7.848   5.351   0.424
12047TIP3    H236085   7.720   5.412   0.372
12048TIP3   OH236086   7.906   7.865   3.605
12048TIP3    H136087   7.963   7.791   3.583
12048TIP3    H236088   7.821   7.826   3.625
12049TIP3   OH236089   1.243   6.985   5.275
12049TIP3    H136090   1.250   6.919   5.344
12049TIP3    H236091   1.152   6.981   5.246
12050TIP3   OH236092   2.465   3.111   3.711
12050TIP3    H136093   2.507   3.033   3.747
12050TIP3    H236094   2.374   3.103   3.739
12051TIP3   OH236095   5.990   7.064   2.204
12051TIP3    H136096   5.948   7.107   2.279
12051TIP3    H236097   6.013   7.135   2.145
12052TIP3   OH236098   4.162   0.600   5.016
12052TIP3    H136099   4.242   0.602   4.962
12052TIP3    H236100   4.112   0.676   4.988
12053TIP3   OH236101   7.736   0.689   1.901
12053TIP3    H136102   7.720   0.783   1.899
12053TIP3    H236103   7.652   0.651   1.928
12054TIP3   OH236104   1.227   2.761   2.287
12054TIP3    H136105   1.231   2.810   2.369
12054TIP3    H236106   1.212   2.670   2.313
12055TIP3   OH236107   1.192   0.166   0.065
12055TIP3    H136108   1.172   0.255   0.036
12055TIP3    H236109   1.264   0.176   0.126
12056TIP3   OH236110   4.868   1.713   6.329
12056TIP3    H136111   4.879   1.741   6.239
12056TIP3    H236112   4.775   1.722   6.346
12057TIP3   OH236113   8.067   5.160   3.549
12057TIP3    H136114   8.110   5.199   3.626
12057TIP3    H236115   7.987   5.122   3.583
12058TIP3   OH236116   7.573   3.780   3.678
12058TIP3    H136117   7.540   3.860   3.719
12058TIP3    H236118   7.666   3.777   3.703
12059TIP3   OH236119   0.419   6.345   2.147
12059TIP3    H136120   0.484   6.295   2.097
12059TIP3    H236121   0.338   6.295   2.136
12060TIP3   OH236122   4.635   6.409   5.914
12060TIP3    H136123   4.617   6.316   5.928
12060TIP3    H236124   4.684   6.436   5.992
12061TIP3   OH236125   4.928   0.943   5.667
12061TIP3    H136126   4.938   1.016   5.606
12061TIP3    H236127   4.951   0.866   5.615
12062TIP3   OH236128   7.010   4.481   3.767
12062TIP3    H136129   6.985   4.422   3.696
12062TIP3    H236130   6.934   4.484   3.824
12063TIP3   OH236131   2.504   6.291   6.037
12063TIP3    H136132   2.510   6.372   6.087
12063TIP3    H236133   2.567   6.302   5.965
12064TIP3   OH236134   7.138   1.051   5.606
12064TIP3    H136135   7.224   1.081   5.637
12064TIP3    H236136   7.118   0.975   5.661
12065TIP3   OH236137   0.861   4.323   1.001
12065TIP3    H136138   0.824   4.236   0.986
12065TIP3    H236139   0.844   4.371   0.920
12066TIP3   OH236140   2.418   2.023   5.190
12066TIP3    H136141   2.501   2.069   5.194
12066TIP3    H236142   2.439   1.933   5.215
12067TIP3   OH236143   4.114   7.486   1.004
12067TIP3    H136144   4.126   7.418   0.937
12067TIP3    H236145   4.071   7.441   1.076
12068TIP3   OH236146   3.991   2.676   4.402
12068TIP3    H136147   4.066   2.717   4.359
12068TIP3    H236148   4.030   2.618   4.468
12069TIP3   OH236149   7.224   0.330   0.416
12069TIP3    H136150   7.264   0.336   0.502
12069TIP3    H236151   7.227   0.236   0.394
12070TIP3   OH236152   3.794   1.583   1.074
12070TIP3    H136153   3.867   1.542   1.028
12070TIP3    H236154   3.807   1.559   1.166
12071TIP3   OH236155   7.892   3.888   5.690
12071TIP3    H136156   7.979   3.914   5.659
12071TIP3    H236157   7.838   3.965   5.676
12072TIP3   OH236158   7.433   2.954   4.452
12072TIP3    H136159   7.362   2.961   4.388
12072TIP3    H236160   7.389   2.925   4.532
12073TIP3   OH236161   2.113   2.907   1.571
12073TIP3    H136162   2.194   2.873   1.534
12073TIP3    H236163   2.141   2.971   1.636
12074TIP3   OH236164   5.118   2.480   0.448
12074TIP3    H136165   5.067   2.449   0.523
12074TIP3    H236166   5.209   2.464   0.471
12075TIP3   OH236167   5.166   7.477   2.816
12075TIP3    H136168   5.077   7.444   2.800
12075TIP3    H236169   5.218   7.442   2.744
12076TIP3   OH236170   1.191   3.435   5.518
12076TIP3    H136171   1.237   3.511   5.482
12076TIP3    H236172   1.250   3.403   5.587
12077TIP3   OH236173   3.640   6.939   3.740
12077TIP3    H136174   3.581   6.983   3.678
12077TIP3    H236175   3.582   6.905   3.808
12078TIP3   OH236176   2.771   1.439   2.785
12078TIP3    H136177   2.819   1.519   2.762
12078TIP3    H236178   2.689   1.471   2.822
12079TIP3   OH236179   5.777   0.266   4.771
12079TIP3    H136180   5.689   0.267   4.808
12079TIP3    H236181   5.778   0.338   4.709
12080TIP3   OH236182   3.140   5.454   6.564
12080TIP3    H136183   3.200   5.526   6.579
12080TIP3    H236184   3.065   5.473   6.620
12081TIP3   OH236185   8.044   6.126   4.676
12081TIP3    H136186   8.042   6.102   4.768
12081TIP3    H236187   7.959   6.099   4.642
12082TIP3   OH236188   3.095   6.804   3.803
12082TIP3    H136189   3.028   6.862   3.840
12082TIP3    H236190   3.080   6.720   3.847
12083TIP3   OH236191   4.752   5.033   4.375
12083TIP3    H136192   4.706   4.967   4.427
12083TIP3    H236193   4.841   5.000   4.368
12084TIP3   OH236194   0.294   5.039   4.076
12084TIP3    H136195   0.375   5.032   4.127
12084TIP3    H236196   0.299   5.126   4.035
12085TIP3   OH236197   6.358   3.333   5.651
12085TIP3    H136198   6.297   3.397   5.688
12085TIP3    H236199   6.317   3.305   5.570
12086TIP3   OH236200   0.547   1.595   5.262
12086TIP3    H136201   0.590   1.594   5.176
12086TIP3    H236202   0.592   1.665   5.310
12087TIP3   OH236203   3.117   5.271   3.507
12087TIP3    H136204   3.084   5.354   3.542
12087TIP3    H236205   3.041   5.232   3.463
12088TIP3   OH236206   7.721   3.872   4.632
12088TIP3    H136207   7.751   3.784   4.608
12088TIP3    H236208   7.653   3.892   4.568
12089TIP3   OH236209   4.725   0.917   4.042
12089TIP3    H136210   4.666   0.860   3.992
12089TIP3    H236211   4.795   0.858   4.071
12090TIP3   OH236212   7.389   6.409   4.445
12090TIP3    H136213   7.467   6.409   4.389
12090TIP3    H236214   7.356   6.320   4.441
12091TIP3   OH236215   4.318   3.322   2.095
12091TIP3    H136216   4.261   3.289   2.026
12091TIP3    H236217   4.367   3.394   2.055
12092TIP3   OH236218   0.072   1.951   4.705
12092TIP3    H136219   0.109   1.931   4.791
12092TIP3    H236220   0.148   1.958   4.647
12093TIP3   OH236221   1.466   3.174   5.839
12093TIP3    H136222   1.404   3.101   5.846
12093TIP3    H236223   1.549   3.137   5.869
12094TIP3   OH236224   0.250   5.734   4.145
12094TIP3    H136225   0.194   5.700   4.215
12094TIP3    H236226   0.338   5.710   4.172
12095TIP3   OH236227   0.909   2.986   2.442
12095TIP3    H136228   0.897   3.011   2.533
12095TIP3    H236229   0.913   2.891   2.444
12096TIP3   OH236230   5.861   1.356   1.338
12096TIP3    H136231   5.792   1.330   1.276
12096TIP3    H236232   5.883   1.276   1.385
12097TIP3   OH236233   2.901   4.718   2.763
12097TIP3    H136234   2.974   4.765   2.723
12097TIP3    H236235   2.852   4.785   2.810
12098TIP3   OH236236   1.967   0.327   6.717
12098TIP3    H136237   2.040   0.388   6.718
12098TIP3    H236238   1.940   0.320   6.808
12099TIP3   OH236239   4.862   0.110   2.554
12099TIP3    H136240   4.857   0.205   2.541
12099TIP3    H236241   4.808   0.074   2.484
12100TIP3   OH236242   6.243   3.094   3.913
12100TIP3    H136243   6.300   3.162   3.949
12100TIP3    H236244   6.302   3.037   3.863
12101TIP3   OH236245   3.703   2.936   5.996
12101TIP3    H136246   3.782   2.887   5.974
12101TIP3    H236247   3.663   2.887   6.068
12102TIP3   OH236248   0.722   2.649   0.268
12102TIP3    H136249   0.648   2.606   0.225
12102TIP3    H236250   0.719   2.618   0.358
12103TIP3   OH236251   2.618   4.965   0.678
12103TIP3    H136252   2.704   5.002   0.658
12103TIP3    H236253   2.573   5.035   0.726
12104TIP3   OH236254   3.303   4.195   0.762
12104TIP3    H136255   3.233   4.142   0.801
12104TIP3    H236256   3.364   4.131   0.725
12105TIP3   OH236257   1.622   0.046   1.689
12105TIP3    H136258   1.708   0.024   1.654
12105TIP3    H236259   1.626   0.141   1.705
12106TIP3   OH236260   7.022   7.052   2.349
12106TIP3    H136261   6.971   6.984   2.393
12106TIP3    H236262   7.040   7.116   2.418
12107TIP3   OH236263   1.494   2.292   0.302
12107TIP3    H136264   1.553   2.228   0.263
12107TIP3    H236265   1.464   2.251   0.383
12108TIP3   OH236266   8.069   4.724   0.055
12108TIP3    H136267   8.016   4.658   0.011
12108TIP3    H236268   8.070   4.799  -0.005
12109TIP3   OH236269   4.465   4.018   5.176
12109TIP3    H136270   4.543   4.051   5.220
12109TIP3    H236271   4.493   3.936   5.135
12110TIP3   OH236272   7.192   7.554   3.653
12110TIP3    H136273   7.148   7.494   3.712
12110TIP3    H236274   7.168   7.524   3.565
12111TIP3   OH236275   7.902   6.847   6.642
12111TIP3    H136276   7.865   6.853   6.730
12111TIP3    H236277   7.980   6.903   6.644
12112TIP3   OH236278   1.871   7.565   5.050
12112TIP3    H136279   1.864   7.481   5.096
12112TIP3    H236280   1.965   7.582   5.048
12113TIP3   OH236281   0.547   2.782   3.787
12113TIP3    H136282   0.537   2.688   3.771
12113TIP3    H236283   0.542   2.790   3.882
12114TIP3   OH236284   4.277   5.257   3.078
12114TIP3    H136285   4.372   5.265   3.087
12114TIP3    H236286   4.262   5.262   2.983
12115TIP3   OH236287   4.543   3.784   1.423
12115TIP3    H136288   4.609   3.736   1.374
12115TIP3    H236289   4.479   3.717   1.448
12116TIP3   OH236290   6.187   2.121   5.806
12116TIP3    H136291   6.246   2.141   5.733
12116TIP3    H236292   6.101   2.114   5.766
12117TIP3   OH236293   5.679   3.164   3.571
12117TIP3    H136294   5.595   3.119   3.573
12117TIP3    H236295   5.737   3.108   3.622
12118TIP3   OH236296   6.754   2.529   2.849
12118TIP3    H136297   6.813   2.604   2.858
12118TIP3    H236298   6.796   2.472   2.784
12119TIP3   OH236299   2.356   0.842   6.416
12119TIP3    H136300   2.331   0.838   6.324
12119TIP3    H236301   2.407   0.763   6.431
12120TIP3   OH236302   1.873   1.460   6.182
12120TIP3    H136303   1.835   1.500   6.261
12120TIP3    H236304   1.944   1.406   6.215
12121TIP3   OH236305   4.271   5.316   5.042
12121TIP3    H136306   4.267   5.327   4.947
12121TIP3    H236307   4.269   5.222   5.056
12122TIP3   OH236308   7.326   6.568   6.108
12122TIP3    H136309   7.403   6.554   6.163
12122TIP3    H236310   7.322   6.492   6.051
12123TIP3   OH236311   7.056   6.169   5.990
12123TIP3    H136312   7.071   6.087   5.943
12123TIP3    H236313   7.038   6.232   5.920
12124TIP3   OH236314   6.101   4.981   2.314
12124TIP3    H136315   6.009   4.956   2.322
12124TIP3    H236316   6.128   4.949   2.228
12125TIP3   OH236317   7.773   0.201   0.477
12125TIP3    H136318   7.695   0.146   0.474
12125TIP3    H236319   7.776   0.236   0.566
12126TIP3   OH236320   6.337   1.939   3.091
12126TIP3    H136321   6.304   2.027   3.106
12126TIP3    H236322   6.348   1.934   2.996
12127TIP3   OH236323   4.854   0.444   0.588
12127TIP3    H136324   4.873   0.467   0.497
12127TIP3    H236325   4.873   0.524   0.638
12128TIP3   OH236326   4.012   1.503   0.928
12128TIP3    H136327   4.044   1.576   0.980
12128TIP3    H236328   3.981   1.543   0.846
12129TIP3   OH236329   8.245   1.582   0.233
12129TIP3    H136330   8.243   1.493   0.197
12129TIP3    H236331   8.153   1.607   0.240
12130TIP3   OH236332   3.153   4.385   1.650
12130TIP3    H136333   3.065   4.392   1.612
12130TIP3    H236334   3.147   4.311   1.710
12131TIP3   OH236335   1.006   3.534   6.011
12131TIP3    H136336   0.923   3.575   6.035
12131TIP3    H236337   1.017   3.462   6.073
12132TIP3   OH236338   6.841   6.780   2.152
12132TIP3    H136339   6.831   6.779   2.247
12132TIP3    H236340   6.930   6.813   2.138
12133TIP3   OH236341   4.457   7.435   1.374
12133TIP3    H136342   4.536   7.388   1.346
12133TIP3    H236343   4.464   7.520   1.330
12134TIP3   OH236344   8.285   7.377   5.113
12134TIP3    H136345   8.231   7.456   5.115
12134TIP3    H236346   8.285   7.346   5.204
12135TIP3   OH236347   6.265   0.432   0.429
12135TIP3    H136348   6.246   0.403   0.518
12135TIP3    H236349   6.277   0.351   0.380
12136TIP3   OH236350   0.931   5.607   2.488
12136TIP3    H136351   0.896   5.628   2.401
12136TIP3    H236352   0.935   5.691   2.533
12137TIP3   OH236353   4.441   5.679   0.120
12137TIP3    H136354   4.457   5.589   0.091
12137TIP3    H236355   4.528   5.720   0.119
12138TIP3   OH236356   3.556   5.552   5.851
12138TIP3    H136357   3.481   5.601   5.885
12138TIP3    H236358   3.612   5.619   5.813
12139TIP3   OH236359   1.195   7.379   2.532
12139TIP3    H136360   1.124   7.325   2.569
12139TIP3    H236361   1.178   7.378   2.437
12140TIP3   OH236362   1.343   5.394   5.784
12140TIP3    H136363   1.292   5.356   5.856
12140TIP3    H236364   1.315   5.345   5.707
12141TIP3   OH236365   5.809   0.653   1.857
12141TIP3    H136366   5.787   0.713   1.786
12141TIP3    H236367   5.733   0.595   1.863
12142TIP3   OH236368   6.615   6.670   2.042
12142TIP3    H136369   6.593   6.619   2.120
12142TIP3    H236370   6.695   6.717   2.065
12143TIP3   OH236371   7.588   1.235   3.182
12143TIP3    H136372   7.511   1.190   3.217
12143TIP3    H236373   7.570   1.246   3.089
12144TIP3   OH236374   2.661   1.586   6.463
12144TIP3    H136375   2.650   1.576   6.557
12144TIP3    H236376   2.746   1.628   6.453
12145TIP3   OH236377   3.907   3.896   1.446
12145TIP3    H136378   3.955   3.904   1.364
12145TIP3    H236379   3.915   3.804   1.470
12146TIP3   OH236380   1.098   3.476   2.602
12146TIP3    H136381   1.149   3.555   2.620
12146TIP3    H236382   1.159   3.418   2.556
12147TIP3   OH236383   6.284   5.908   0.564
12147TIP3    H136384   6.355   5.931   0.623
12147TIP3    H236385   6.207   5.903   0.619
12148TIP3   OH236386   5.541   1.269   2.058
12148TIP3    H136387   5.492   1.350   2.074
12148TIP3    H236388   5.551   1.230   2.145
12149TIP3   OH236389   5.919   3.297   1.712
12149TIP3    H136390   5.915   3.210   1.670
12149TIP3    H236391   6.012   3.316   1.719
12150TIP3   OH236392   6.056   7.089   1.302
12150TIP3    H136393   6.041   7.164   1.360
12150TIP3    H236394   6.148   7.095   1.277
12151TIP3   OH236395   6.490   4.815   2.187
12151TIP3    H136396   6.523   4.900   2.216
12151TIP3    H236397   6.568   4.763   2.168
12152TIP3   OH236398   1.050   3.520   1.370
12152TIP3    H136399   1.033   3.515   1.464
12152TIP3    H236400   1.036   3.612   1.348
12153TIP3   OH236401   7.160   5.022   6.378
12153TIP3    H136402   7.229   5.041   6.314
12153TIP3    H236403   7.078   5.036   6.330
12154TIP3   OH236404   2.899   0.752   3.919
12154TIP3    H136405   2.850   0.746   4.001
12154TIP3    H236406   2.885   0.842   3.890
12155TIP3   OH236407   5.739   6.538   1.193
12155TIP3    H136408   5.767   6.626   1.218
12155TIP3    H236409   5.680   6.511   1.263
12156TIP3   OH236410   3.334   2.830   2.509
12156TIP3    H136411   3.334   2.852   2.602
12156TIP3    H236412   3.392   2.754   2.502
12157TIP3   OH236413   0.057   6.575   6.372
12157TIP3    H136414  -0.012   6.634   6.400
12157TIP3    H236415   0.134   6.631   6.360
12158TIP3   OH236416   2.371   4.226   5.163
12158TIP3    H136417   2.362   4.320   5.181
12158TIP3    H236418   2.281   4.195   5.156
12159TIP3   OH236419   5.213   4.609   6.587
12159TIP3    H136420   5.177   4.552   6.656
12159TIP3    H236421   5.263   4.550   6.531
12160TIP3   OH236422   5.025   6.835   4.449
12160TIP3    H136423   4.943   6.883   4.433
12160TIP3    H236424   5.000   6.743   4.441
12161TIP3   OH236425   5.917   1.496   6.144
12161TIP3    H136426   5.822   1.488   6.141
12161TIP3    H236427   5.948   1.448   6.068
12162TIP3   OH236428   0.054   1.196   3.367
12162TIP3    H136429   0.101   1.276   3.342
12162TIP3    H236430   0.050   1.145   3.286
12163TIP3   OH236431   6.296   3.265   2.623
12163TIP3    H136432   6.298   3.309   2.708
12163TIP3    H236433   6.342   3.183   2.637
12164TIP3   OH236434   0.303   7.464   1.898
12164TIP3    H136435   0.233   7.529   1.906
12164TIP3    H236436   0.357   7.496   1.826
12165TIP3   OH236437   4.336   3.436   3.451
12165TIP3    H136438   4.294   3.511   3.494
12165TIP3    H236439   4.311   3.361   3.504
12166TIP3   OH236440   6.504   1.301   1.949
12166TIP3    H136441   6.563   1.244   1.899
12166TIP3    H236442   6.562   1.346   2.010
12167TIP3   OH236443   2.228   6.889   3.552
12167TIP3    H136444   2.168   6.932   3.491
12167TIP3    H236445   2.303   6.864   3.497
12168TIP3   OH236446   7.388   0.214   0.163
12168TIP3    H136447   7.468   0.260   0.138
12168TIP3    H236448   7.318   0.279   0.152
12169TIP3   OH236449   4.923   0.334   3.405
12169TIP3    H136450   5.015   0.325   3.430
12169TIP3    H236451   4.925   0.377   3.319
12170TIP3   OH236452   2.334   3.605   4.457
12170TIP3    H136453   2.312   3.525   4.504
12170TIP3    H236454   2.254   3.628   4.409
12171TIP3   OH236455   2.018   2.278   5.500
12171TIP3    H136456   2.080   2.312   5.565
12171TIP3    H236457   1.939   2.260   5.550
12172TIP3   OH236458   7.542   2.994   1.263
12172TIP3    H136459   7.627   3.020   1.298
12172TIP3    H236460   7.497   3.077   1.246
12173TIP3   OH236461   7.702   4.062   3.689
12173TIP3    H136462   7.694   4.129   3.621
12173TIP3    H236463   7.762   4.100   3.753
12174TIP3   OH236464   2.284   3.733   5.822
12174TIP3    H136465   2.289   3.769   5.733
12174TIP3    H236466   2.222   3.660   5.814
12175TIP3   OH236467   3.500   6.742   6.379
12175TIP3    H136468   3.595   6.745   6.363
12175TIP3    H236469   3.491   6.762   6.473
12176TIP3   OH236470   1.651   6.039   5.166
12176TIP3    H136471   1.638   5.983   5.242
12176TIP3    H236472   1.652   5.978   5.092
12177TIP3   OH236473   7.571   0.278   0.819
12177TIP3    H136474   7.560   0.365   0.782
12177TIP3    H236475   7.635   0.235   0.763
12178TIP3   OH236476   3.768   4.654   2.245
12178TIP3    H136477   3.703   4.587   2.225
12178TIP3    H236478   3.735   4.733   2.203
12179TIP3   OH236479   4.655   1.446   1.263
12179TIP3    H136480   4.593   1.446   1.190
12179TIP3    H236481   4.686   1.537   1.268
12180TIP3   OH236482   3.522   5.659   0.685
12180TIP3    H136483   3.601   5.619   0.720
12180TIP3    H236484   3.506   5.733   0.743
12181TIP3   OH236485   6.622   5.999   2.078
12181TIP3    H136486   6.548   6.045   2.119
12181TIP3    H236487   6.688   5.993   2.148
12182TIP3   OH236488   5.299   4.602   0.273
12182TIP3    H136489   5.296   4.506   0.281
12182TIP3    H236490   5.266   4.619   0.184
12183TIP3   OH236491   6.323   2.839   4.605
12183TIP3    H136492   6.310   2.744   4.606
12183TIP3    H236493   6.309   2.864   4.514
12184TIP3   OH236494   5.611   7.499   2.696
12184TIP3    H136495   5.536   7.454   2.735
12184TIP3    H236496   5.684   7.477   2.754
12185TIP3   OH236497   5.465   4.834   0.239
12185TIP3    H136498   5.551   4.793   0.240
12185TIP3    H236499   5.403   4.761   0.249
12186TIP3   OH236500   4.220   2.366   1.614
12186TIP3    H136501   4.125   2.377   1.608
12186TIP3    H236502   4.237   2.356   1.707
12187TIP3   OH236503   3.182   4.112   2.061
12187TIP3    H136504   3.260   4.075   2.020
12187TIP3    H236505   3.137   4.158   1.990
12188TIP3   OH236506   1.601   6.461   4.513
12188TIP3    H136507   1.687   6.501   4.500
12188TIP3    H236508   1.620   6.369   4.531
12189TIP3   OH236509   7.727   1.468   3.332
12189TIP3    H136510   7.685   1.382   3.331
12189TIP3    H236511   7.742   1.485   3.425
12190TIP3   OH236512   1.891   6.744   2.166
12190TIP3    H136513   1.816   6.801   2.188
12190TIP3    H236514   1.863   6.698   2.087
12191TIP3   OH236515   4.421   4.356   4.727
12191TIP3    H136516   4.508   4.394   4.735
12191TIP3    H236517   4.363   4.419   4.769
12192TIP3   OH236518   0.395   6.028   5.525
12192TIP3    H136519   0.453   6.089   5.478
12192TIP3    H236520   0.399   5.948   5.474
12193TIP3   OH236521   3.180   5.764   6.313
12193TIP3    H136522   3.221   5.678   6.326
12193TIP3    H236523   3.094   5.744   6.278
12194TIP3   OH236524   1.845   4.558   2.196
12194TIP3    H136525   1.750   4.568   2.190
12194TIP3    H236526   1.880   4.617   2.129
12195TIP3   OH236527   6.860   0.896   2.947
12195TIP3    H136528   6.843   0.828   3.013
12195TIP3    H236529   6.945   0.872   2.910
12196TIP3   OH236530   7.683   3.124   0.907
12196TIP3    H136531   7.766   3.102   0.949
12196TIP3    H236532   7.658   3.045   0.860
12197TIP3   OH236533   6.663   7.651   6.775
12197TIP3    H136534   6.654   7.559   6.800
12197TIP3    H236535   6.609   7.659   6.696
12198TIP3   OH236536   7.322   4.320   6.089
12198TIP3    H136537   7.398   4.370   6.059
12198TIP3    H236538   7.300   4.264   6.015
12199TIP3   OH236539   6.242   3.217   5.082
12199TIP3    H136540   6.316   3.227   5.022
12199TIP3    H236541   6.209   3.307   5.093
12200TIP3   OH236542   5.185   7.726   1.976
12200TIP3    H136543   5.183   7.678   2.059
12200TIP3    H236544   5.269   7.702   1.936
12201TIP3   OH236545   0.499   4.709   3.719
12201TIP3    H136546   0.469   4.712   3.628
12201TIP3    H236547   0.427   4.747   3.769
12202TIP3   OH236548   4.124   1.004   1.483
12202TIP3    H136549   4.139   1.096   1.505
12202TIP3    H236550   4.040   0.983   1.524
12203TIP3   OH236551   5.961   3.360   3.448
12203TIP3    H136552   5.966   3.267   3.425
12203TIP3    H236553   5.971   3.405   3.364
12204TIP3   OH236554   7.384   1.115   2.234
12204TIP3    H136555   7.321   1.185   2.250
12204TIP3    H236556   7.468   1.149   2.265
12205TIP3   OH236557   1.287   7.338   3.147
12205TIP3    H136558   1.236   7.400   3.096
12205TIP3    H236559   1.237   7.256   3.142
12206TIP3   OH236560   0.079   3.006   5.456
12206TIP3    H136561   0.019   3.027   5.528
12206TIP3    H236562   0.119   2.923   5.482
12207TIP3   OH236563   6.627   5.524   0.463
12207TIP3    H136564   6.540   5.555   0.486
12207TIP3    H236565   6.615   5.431   0.444
12208TIP3   OH236566   6.136   6.154   2.247
12208TIP3    H136567   6.093   6.227   2.292
12208TIP3    H236568   6.129   6.080   2.308
12209TIP3   OH236569   3.429   4.531   5.145
12209TIP3    H136570   3.409   4.467   5.214
12209TIP3    H236571   3.418   4.482   5.063
12210TIP3   OH236572   4.322   5.856   6.228
12210TIP3    H136573   4.404   5.823   6.263
12210TIP3    H236574   4.275   5.778   6.199
12211TIP3   OH236575   1.738   4.179   4.955
12211TIP3    H136576   1.831   4.200   4.961
12211TIP3    H236577   1.695   4.246   5.009
12212TIP3   OH236578   2.525   1.539   2.871
12212TIP3    H136579   2.484   1.452   2.868
12212TIP3    H236580   2.460   1.595   2.913
12213TIP3   OH236581   1.759   1.856   1.238
12213TIP3    H136582   1.675   1.812   1.220
12213TIP3    H236583   1.736   1.926   1.298
12214TIP3   OH236584   6.524   0.069   2.778
12214TIP3    H136585   6.464   0.002   2.811
12214TIP3    H236586   6.482   0.152   2.802
12215TIP3   OH236587   6.441   0.759   4.920
12215TIP3    H136588   6.374   0.779   4.854
12215TIP3    H236589   6.466   0.668   4.901
12216TIP3   OH236590   7.518   5.642   0.981
12216TIP3    H136591   7.558   5.586   0.915
12216TIP3    H236592   7.551   5.607   1.065
12217TIP3   OH236593   3.543   6.631   1.995
12217TIP3    H136594   3.557   6.575   2.071
12217TIP3    H236595   3.464   6.682   2.017
12218TIP3   OH236596   7.275   2.006   5.834
12218TIP3    H136597   7.307   2.092   5.807
12218TIP3    H236598   7.260   2.015   5.928
12219TIP3   OH236599   0.979   4.703   4.929
12219TIP3    H136600   0.999   4.720   5.021
12219TIP3    H236601   0.884   4.689   4.928
12220TIP3   OH236602   0.177   0.231   1.270
12220TIP3    H136603   0.272   0.243   1.276
12220TIP3    H236604   0.164   0.177   1.193
12221TIP3   OH236605   6.325   1.835   0.406
12221TIP3    H136606   6.421   1.837   0.406
12221TIP3    H236607   6.302   1.818   0.497
12222TIP3   OH236608   4.873   4.048   4.721
12222TIP3    H136609   4.867   3.958   4.687
12222TIP3    H236610   4.786   4.085   4.707
12223TIP3   OH236611   1.295   4.020   3.875
12223TIP3    H136612   1.327   4.106   3.848
12223TIP3    H236613   1.291   4.025   3.970
12224TIP3   OH236614   2.369   1.127   4.582
12224TIP3    H136615   2.370   1.158   4.492
12224TIP3    H236616   2.289   1.075   4.590
12225TIP3   OH236617   3.546   6.652   4.605
12225TIP3    H136618   3.575   6.702   4.681
12225TIP3    H236619   3.536   6.562   4.636
12226TIP3   OH236620   0.161   5.772   0.679
12226TIP3    H136621   0.094   5.814   0.734
12226TIP3    H236622   0.121   5.768   0.592
12227TIP3   OH236623   8.210   3.125   5.645
12227TIP3    H136624   8.216   3.207   5.694
12227TIP3    H236625   8.186   3.060   5.711
12228TIP3   OH236626   6.278   0.624   0.755
12228TIP3    H136627   6.237   0.710   0.745
12228TIP3    H236628   6.261   0.599   0.845
12229TIP3   OH236629   4.978   5.898   3.747
12229TIP3    H136630   4.927   5.928   3.822
12229TIP3    H236631   5.043   5.967   3.734
12230TIP3   OH236632   2.817   0.248   2.387
12230TIP3    H136633   2.786   0.321   2.441
12230TIP3    H236634   2.764   0.173   2.415
12231TIP3   OH236635   1.116   3.004   3.721
12231TIP3    H136636   1.110   2.951   3.801
12231TIP3    H236637   1.025   3.019   3.695
12232TIP3   OH236638   6.525   0.655   1.180
12232TIP3    H136639   6.567   0.624   1.099
12232TIP3    H236640   6.488   0.740   1.156
12233TIP3   OH236641   0.243   2.706   2.029
12233TIP3    H136642   0.222   2.668   1.944
12233TIP3    H236643   0.159   2.714   2.074
12234TIP3   OH236644   2.695   4.074   3.742
12234TIP3    H136645   2.748   4.029   3.676
12234TIP3    H236646   2.706   4.022   3.822
12235TIP3   OH236647   3.533   0.883   0.153
12235TIP3    H136648   3.559   0.813   0.212
12235TIP3    H236649   3.441   0.899   0.174
12236TIP3   OH236650   6.667   4.470   1.877
12236TIP3    H136651   6.694   4.424   1.797
12236TIP3    H236652   6.710   4.555   1.871
12237TIP3   OH236653   8.175   3.348   2.786
12237TIP3    H136654   8.242   3.318   2.725
12237TIP3    H236655   8.191   3.442   2.794
12238TIP3   OH236656   7.007   1.412   5.445
12238TIP3    H136657   7.078   1.366   5.401
12238TIP3    H236658   6.983   1.355   5.518
12239TIP3   OH236659   2.342   6.187   1.084
12239TIP3    H136660   2.268   6.128   1.071
12239TIP3    H236661   2.416   6.130   1.104
12240TIP3   OH236662   4.314   3.199   5.792
12240TIP3    H136663   4.347   3.162   5.710
12240TIP3    H236664   4.392   3.213   5.845
12241TIP3   OH236665   6.682   2.438   6.064
12241TIP3    H136666   6.672   2.383   6.142
12241TIP3    H236667   6.682   2.528   6.097
12242TIP3   OH236668   1.078   2.460   0.949
12242TIP3    H136669   1.003   2.421   0.994
12242TIP3    H236670   1.064   2.555   0.956
12243TIP3   OH236671   4.539   6.580   6.293
12243TIP3    H136672   4.621   6.552   6.253
12243TIP3    H236673   4.502   6.643   6.231
12244TIP3   OH236674   7.949   4.125   2.962
12244TIP3    H136675   8.011   4.070   2.915
12244TIP3    H236676   7.973   4.214   2.939
12245TIP3   OH236677   2.124   3.874   4.979
12245TIP3    H136678   2.165   3.789   4.964
12245TIP3    H236679   2.030   3.857   4.968
12246TIP3   OH236680   5.979   1.824   4.104
12246TIP3    H136681   6.015   1.824   4.016
12246TIP3    H236682   6.046   1.779   4.157
12247TIP3   OH236683   2.904   5.288   5.133
12247TIP3    H136684   2.939   5.201   5.112
12247TIP3    H236685   2.941   5.346   5.067
12248TIP3   OH236686   1.125   0.727   6.437
12248TIP3    H136687   1.132   0.714   6.531
12248TIP3    H236688   1.176   0.656   6.399
12249TIP3   OH236689   7.776   1.631   6.684
12249TIP3    H136690   7.792   1.537   6.679
12249TIP3    H236691   7.854   1.671   6.647
12250TIP3   OH236692   7.213   4.172   4.735
12250TIP3    H136693   7.238   4.262   4.755
12250TIP3    H236694   7.123   4.179   4.703
12251TIP3   OH236695   1.535   3.575   3.410
12251TIP3    H136696   1.606   3.630   3.442
12251TIP3    H236697   1.457   3.606   3.456
12252TIP3   OH236698   2.646   7.116   6.441
12252TIP3    H136699   2.721   7.146   6.391
12252TIP3    H236700   2.668   7.136   6.532
12253TIP3   OH236701   0.141   2.729   2.414
12253TIP3    H136702   0.167   2.767   2.498
12253TIP3    H236703   0.216   2.676   2.386
12254TIP3   OH236704   0.358   1.653   0.288
12254TIP3    H136705   0.308   1.727   0.253
12254TIP3    H236706   0.448   1.668   0.258
12255TIP3   OH236707   3.708   1.953   6.643
12255TIP3    H136708   3.621   1.929   6.674
12255TIP3    H236709   3.767   1.895   6.691
12256TIP3   OH236710   4.983   3.831   0.752
12256TIP3    H136711   5.011   3.818   0.843
12256TIP3    H236712   4.899   3.876   0.760
12257TIP3   OH236713   4.846   4.233   6.051
12257TIP3    H136714   4.902   4.202   5.979
12257TIP3    H236715   4.904   4.235   6.127
12258TIP3   OH236716   7.430   4.032   4.860
12258TIP3    H136717   7.395   4.097   4.799
12258TIP3    H236718   7.354   3.983   4.890
12259TIP3   OH236719   2.909   6.560   2.401
12259TIP3    H136720   2.934   6.583   2.490
12259TIP3    H236721   2.887   6.467   2.405
12260TIP3   OH236722   0.340   2.381   0.179
12260TIP3    H136723   0.322   2.398   0.271
12260TIP3    H236724   0.260   2.340   0.146
12261TIP3   OH236725   4.299   1.490   5.656
12261TIP3    H136726   4.365   1.462   5.594
12261TIP3    H236727   4.344   1.550   5.715
12262TIP3   OH236728   3.016   1.604   2.787
12262TIP3    H136729   3.022   1.687   2.834
12262TIP3    H236730   3.063   1.541   2.842
12263TIP3   OH236731   4.424   7.379   2.807
12263TIP3    H136732   4.359   7.409   2.870
12263TIP3    H236733   4.505   7.420   2.833
12264TIP3   OH236734   2.556   5.218   5.714
12264TIP3    H136735   2.547   5.123   5.716
12264TIP3    H236736   2.648   5.233   5.694
12265TIP3   OH236737   2.378   0.075   1.525
12265TIP3    H136738   2.445   0.043   1.465
12265TIP3    H236739   2.379   0.014   1.598
12266TIP3   OH236740   2.382   0.756   6.154
12266TIP3    H136741   2.404   0.770   6.062
12266TIP3    H236742   2.355   0.664   6.159
12267TIP3   OH236743   5.951   7.343   4.229
12267TIP3    H136744   5.973   7.369   4.140
12267TIP3    H236745   5.939   7.426   4.276
12268TIP3   OH236746   0.985   3.802   0.866
12268TIP3    H136747   1.036   3.881   0.848
12268TIP3    H236748   0.946   3.779   0.782
12269TIP3   OH236749   1.028   3.745   6.404
12269TIP3    H136750   1.073   3.815   6.452
12269TIP3    H236751   0.958   3.717   6.463
12270TIP3   OH236752   1.042   0.190   5.466
12270TIP3    H136753   0.963   0.196   5.412
12270TIP3    H236754   1.107   0.243   5.421
12271TIP3   OH236755   3.401   6.791   0.815
12271TIP3    H136756   3.323   6.738   0.834
12271TIP3    H236757   3.473   6.729   0.810
12272TIP3   OH236758   1.293   1.987   0.877
12272TIP3    H136759   1.277   2.001   0.970
12272TIP3    H236760   1.273   2.071   0.836
12273TIP3   OH236761   0.591   5.629   5.081
12273TIP3    H136762   0.614   5.546   5.040
12273TIP3    H236763   0.499   5.618   5.107
12274TIP3   OH236764   3.115   5.639   0.424
12274TIP3    H136765   3.040   5.592   0.460
12274TIP3    H236766   3.173   5.654   0.499
12275TIP3   OH236767   6.476   2.272   6.340
12275TIP3    H136768   6.540   2.265   6.269
12275TIP3    H236769   6.523   2.316   6.411
12276TIP3   OH236770   3.740   3.756   0.647
12276TIP3    H136771   3.657   3.709   0.660
12276TIP3    H236772   3.774   3.723   0.564
12277TIP3   OH236773   2.964   7.739   4.591
12277TIP3    H136774   2.896   7.671   4.591
12277TIP3    H236775   3.007   7.730   4.676
12278TIP3   OH236776   4.348   6.504   6.749
12278TIP3    H136777   4.344   6.542   6.661
12278TIP3    H236778   4.339   6.410   6.735
12279TIP3   OH236779   3.894   3.231   1.745
12279TIP3    H136780   3.896   3.153   1.800
12279TIP3    H236781   3.852   3.297   1.799
12280TIP3   OH236782   0.967   6.310   3.588
12280TIP3    H136783   0.873   6.295   3.587
12280TIP3    H236784   0.998   6.267   3.668
12281TIP3   OH236785   3.187   1.574   0.113
12281TIP3    H136786   3.093   1.556   0.110
12281TIP3    H236787   3.228   1.488   0.121
12282TIP3   OH236788   7.092   4.727   2.406
12282TIP3    H136789   7.164   4.675   2.370
12282TIP3    H236790   7.132   4.778   2.476
12283TIP3   OH236791   6.698   5.914   0.901
12283TIP3    H136792   6.661   5.943   0.985
12283TIP3    H236793   6.772   5.973   0.887
12284TIP3   OH236794   3.695   0.658   5.818
12284TIP3    H136795   3.665   0.609   5.741
12284TIP3    H236796   3.767   0.606   5.853
12285TIP3   OH236797   4.332   0.043   1.469
12285TIP3    H136798   4.385   0.081   1.400
12285TIP3    H236799   4.392   0.033   1.543
12286TIP3   OH236800   1.237   0.272   6.353
12286TIP3    H136801   1.253   0.248   6.444
12286TIP3    H236802   1.196   0.195   6.315
12287TIP3   OH236803   2.965   5.178   2.682
12287TIP3    H136804   2.953   5.214   2.770
12287TIP3    H236805   3.009   5.248   2.633
12288TIP3   OH236806   3.066   6.893   2.596
12288TIP3    H136807   3.079   6.880   2.502
12288TIP3    H236808   3.093   6.983   2.611
12289TIP3   OH236809   2.376   2.469   1.926
12289TIP3    H136810   2.395   2.494   1.836
12289TIP3    H236811   2.362   2.551   1.972
12290TIP3   OH236812   0.121   7.232   3.631
12290TIP3    H136813   0.132   7.265   3.542
12290TIP3    H236814   0.036   7.189   3.630
12291TIP3   OH236815   5.785   3.476   1.282
12291TIP3    H136816   5.767   3.500   1.373
12291TIP3    H236817   5.865   3.524   1.260
12292TIP3   OH236818   7.901   6.739   4.614
12292TIP3    H136819   7.936   6.787   4.689
12292TIP3    H236820   7.906   6.647   4.640
12293TIP3   OH236821   1.929   7.474   0.089
12293TIP3    H136822   2.011   7.446   0.131
12293TIP3    H236823   1.905   7.555   0.135
12294TIP3   OH236824   6.728   0.469   2.774
12294TIP3    H136825   6.731   0.532   2.702
12294TIP3    H236826   6.656   0.500   2.830
12295TIP3   OH236827   5.512   5.634   5.670
12295TIP3    H136828   5.502   5.583   5.750
12295TIP3    H236829   5.606   5.633   5.652
12296TIP3   OH236830   2.578   2.478   2.131
12296TIP3    H136831   2.522   2.451   2.059
12296TIP3    H236832   2.659   2.509   2.089
12297TIP3   OH236833   7.563   0.617   0.901
12297TIP3    H136834   7.563   0.701   0.947
12297TIP3    H236835   7.470   0.597   0.889
12298TIP3   OH236836   5.111   0.138   6.679
12298TIP3    H136837   5.023   0.176   6.670
12298TIP3    H236838   5.094   0.048   6.707
12299TIP3   OH236839   7.846   3.010   2.326
12299TIP3    H136840   7.879   3.087   2.372
12299TIP3    H236841   7.778   2.974   2.383
12300TIP3   OH236842   8.101   0.835   3.152
12300TIP3    H136843   8.025   0.778   3.168
12300TIP3    H236844   8.108   0.887   3.232
12301TIP3   OH236845   0.681   4.085   3.493
12301TIP3    H136846   0.623   4.067   3.566
12301TIP3    H236847   0.639   4.157   3.445
12302TIP3   OH236848   0.088   2.619   4.733
12302TIP3    H136849   0.139   2.687   4.777
12302TIP3    H236850   0.152   2.573   4.678
12303TIP3   OH236851   6.021   3.022   2.290
12303TIP3    H136852   6.082   3.030   2.216
12303TIP3    H236853   6.046   2.940   2.332
12304TIP3   OH236854   3.067   0.842   0.738
12304TIP3    H136855   3.091   0.811   0.651
12304TIP3    H236856   3.151   0.856   0.782
12305TIP3   OH236857   7.578   1.501   4.439
12305TIP3    H136858   7.501   1.519   4.492
12305TIP3    H236859   7.568   1.409   4.414
12306TIP3   OH236860   2.854   0.721   0.832
12306TIP3    H136861   2.934   0.773   0.819
12306TIP3    H236862   2.878   0.633   0.803
12307TIP3   OH236863   7.552   7.594   4.927
12307TIP3    H136864   7.516   7.666   4.979
12307TIP3    H236865   7.523   7.613   4.838
12308TIP3   OH236866   1.804   2.469   5.146
12308TIP3    H136867   1.782   2.517   5.225
12308TIP3    H236868   1.896   2.445   5.157
12309TIP3   OH236869   5.822   7.420   1.264
12309TIP3    H136870   5.797   7.331   1.287
12309TIP3    H236871   5.777   7.437   1.181
12310TIP3   OH236872   6.439   3.549   1.989
12310TIP3    H136873   6.434   3.582   1.899
12310TIP3    H236874   6.425   3.626   2.044
12311TIP3   OH236875   3.845   2.673   5.616
12311TIP3    H136876   3.800   2.603   5.664
12311TIP3    H236877   3.884   2.629   5.540
12312TIP3   OH236878   7.622   7.082   1.247
12312TIP3    H136879   7.593   7.003   1.202
12312TIP3    H236880   7.542   7.133   1.260
12313TIP3   OH236881   3.696   4.039   3.568
12313TIP3    H136882   3.698   4.066   3.476
12313TIP3    H236883   3.782   3.998   3.581
12314TIP3   OH236884   2.122   2.579   5.169
12314TIP3    H136885   2.125   2.597   5.075
12314TIP3    H236886   2.133   2.484   5.175
12315TIP3   OH236887   3.336   7.719   0.335
12315TIP3    H136888   3.282   7.760   0.267
12315TIP3    H236889   3.422   7.709   0.294
12316TIP3   OH236890   1.467   1.181   4.265
12316TIP3    H136891   1.477   1.108   4.325
12316TIP3    H236892   1.504   1.150   4.182
12317TIP3   OH236893   4.776   5.206   3.505
12317TIP3    H136894   4.851   5.154   3.533
12317TIP3    H236895   4.811   5.295   3.498
12318TIP3   OH236896   6.102   1.455   6.429
12318TIP3    H136897   6.087   1.398   6.353
12318TIP3    H236898   6.076   1.401   6.504
12319TIP3   OH236899   8.054   4.837   3.568
12319TIP3    H136900   8.075   4.926   3.597
12319TIP3    H236901   8.131   4.810   3.517
12320TIP3   OH236902   3.196   1.156   5.547
12320TIP3    H136903   3.191   1.173   5.453
12320TIP3    H236904   3.229   1.239   5.583
12321TIP3   OH236905   7.977   7.278   3.429
12321TIP3    H136906   7.936   7.193   3.440
12321TIP3    H236907   8.063   7.259   3.391
12322TIP3   OH236908   4.194   5.388   6.389
12322TIP3    H136909   4.131   5.430   6.447
12322TIP3    H236910   4.273   5.378   6.442
12323TIP3   OH236911   1.752   2.481   1.221
12323TIP3    H136912   1.671   2.486   1.170
12323TIP3    H236913   1.746   2.553   1.283
12324TIP3   OH236914   2.724   1.114   1.363
12324TIP3    H136915   2.719   1.089   1.455
12324TIP3    H236916   2.750   1.034   1.318
12325TIP3   OH236917   5.303   6.992   0.145
12325TIP3    H136918   5.241   6.954   0.083
12325TIP3    H236919   5.252   7.007   0.225
12326TIP3   OH236920   5.500   6.812   4.819
12326TIP3    H136921   5.496   6.754   4.743
12326TIP3    H236922   5.588   6.797   4.856
12327TIP3   OH236923   2.455   3.881   0.129
12327TIP3    H136924   2.373   3.852   0.170
12327TIP3    H236925   2.463   3.827   0.051
12328TIP3   OH236926   5.669   5.752   0.063
12328TIP3    H136927   5.730   5.784  -0.003
12328TIP3    H236928   5.719   5.686   0.112
12329TIP3   OH236929   7.334   2.061   1.034
12329TIP3    H136930   7.311   2.118   0.961
12329TIP3    H236931   7.408   2.011   1.003
12330TIP3   OH236932   2.959   6.655   4.245
12330TIP3    H136933   2.902   6.707   4.301
12330TIP3    H236934   3.033   6.632   4.301
12331TIP3   OH236935   6.719   0.999   0.992
12331TIP3    H136936   6.676   0.951   0.922
12331TIP3    H236937   6.776   1.061   0.947
12332TIP3   OH236938   5.607   1.445   5.284
12332TIP3    H136939   5.694   1.475   5.311
12332TIP3    H236940   5.553   1.524   5.288
12333TIP3   OH236941   7.189   7.096   0.870
12333TIP3    H136942   7.240   7.020   0.841
12333TIP3    H236943   7.198   7.096   0.965
12334TIP3   OH236944   7.776   1.561   1.887
12334TIP3    H136945   7.720   1.633   1.917
12334TIP3    H236946   7.746   1.485   1.936
12335TIP3   OH236947   2.583   6.591   2.316
12335TIP3    H136948   2.598   6.686   2.313
12335TIP3    H236949   2.634   6.561   2.391
12336TIP3   OH236950   2.999   7.410   1.583
12336TIP3    H136951   3.008   7.315   1.590
12336TIP3    H236952   2.908   7.428   1.608
12337TIP3   OH236953   7.733   6.270   1.037
12337TIP3    H136954   7.734   6.190   1.089
12337TIP3    H236955   7.822   6.278   1.003
12338TIP3   OH236956   2.841   3.174   5.134
12338TIP3    H136957   2.821   3.105   5.198
12338TIP3    H236958   2.845   3.129   5.050
12339TIP3   OH236959   1.771   3.067   3.191
12339TIP3    H136960   1.857   3.028   3.175
12339TIP3    H236961   1.783   3.120   3.270
12340TIP3   OH236962   1.829   4.666   0.183
12340TIP3    H136963   1.759   4.723   0.151
12340TIP3    H236964   1.890   4.659   0.109
12341TIP3   OH236965   5.167   0.296   4.897
12341TIP3    H136966   5.215   0.376   4.921
12341TIP3    H236967   5.172   0.293   4.802
12342TIP3   OH236968   7.513   6.645   0.864
12342TIP3    H136969   7.457   6.569   0.846
12342TIP3    H236970   7.552   6.666   0.779
12343TIP3   OH236971   0.824   2.757   1.145
12343TIP3    H136972   0.918   2.777   1.140
12343TIP3    H236973   0.780   2.839   1.124
12344TIP3   OH236974   4.348   5.842   0.307
12344TIP3    H136975   4.374   5.928   0.273
12344TIP3    H236976   4.389   5.779   0.249
12345TIP3   OH236977   1.708   4.370   1.256
12345TIP3    H136978   1.759   4.434   1.206
12345TIP3    H236979   1.618   4.384   1.228
12346TIP3   OH236980   6.176   2.387   3.474
12346TIP3    H136981   6.224   2.456   3.428
12346TIP3    H236982   6.233   2.310   3.468
12347TIP3   OH236983   7.648   7.077   4.565
12347TIP3    H136984   7.649   6.992   4.520
12347TIP3    H236985   7.734   7.114   4.545
12348TIP3   OH236986   6.901   3.674   0.240
12348TIP3    H136987   6.899   3.739   0.170
12348TIP3    H236988   6.815   3.680   0.281
12349TIP3   OH236989   5.552   2.279   3.047
12349TIP3    H136990   5.464   2.281   3.009
12349TIP3    H236991   5.544   2.330   3.127
12350TIP3   OH236992   1.103   5.843   2.847
12350TIP3    H136993   1.159   5.920   2.835
12350TIP3    H236994   1.036   5.872   2.909
12351TIP3   OH236995   2.748   1.648   4.026
12351TIP3    H136996   2.792   1.587   4.085
12351TIP3    H236997   2.656   1.644   4.051
12352TIP3   OH236998   5.939   2.727   1.307
12352TIP3    H136999   5.899   2.726   1.393
12352TIP3    H237000   5.879   2.678   1.251
12353TIP3   OH237001   5.597   5.223   0.980
12353TIP3    H137002   5.688   5.206   0.952
12353TIP3    H237003   5.606   5.265   1.065
12354TIP3   OH237004   7.250   0.714   4.234
12354TIP3    H137005   7.250   0.764   4.152
12354TIP3    H237006   7.171   0.744   4.280
12355TIP3   OH237007   3.915   7.772   4.466
12355TIP3    H137008   3.991   7.726   4.502
12355TIP3    H237009   3.840   7.723   4.500
12356TIP3   OH237010   2.635   4.632   2.571
12356TIP3    H137011   2.664   4.552   2.528
12356TIP3    H237012   2.615   4.605   2.661
12357TIP3   OH237013   7.099   0.979   6.642
12357TIP3    H137014   7.071   1.044   6.578
12357TIP3    H237015   7.176   0.937   6.601
12358TIP3   OH237016   3.294   4.269   4.693
12358TIP3    H137017   3.266   4.217   4.768
12358TIP3    H237018   3.389   4.257   4.689
12359TIP3   OH237019   2.806   0.314   3.828
12359TIP3    H137020   2.818   0.408   3.831
12359TIP3    H237021   2.784   0.295   3.736
12360TIP3   OH237022   2.136   3.197   0.291
12360TIP3    H137023   2.078   3.175   0.217
12360TIP3    H237024   2.178   3.114   0.313
12361TIP3   OH237025   1.113   1.332   1.664
12361TIP3    H137026   1.201   1.369   1.660
12361TIP3    H237027   1.056   1.407   1.679
12362TIP3   OH237028   7.093   3.970   2.148
12362TIP3    H137029   7.073   4.061   2.125
12362TIP3    H237030   7.179   3.954   2.110
12363TIP3   OH237031   4.493   6.820   3.931
12363TIP3    H137032   4.493   6.737   3.881
12363TIP3    H237033   4.556   6.806   4.001
12364TIP3   OH237034   7.567   0.766   6.749
12364TIP3    H137035   7.576   0.674   6.776
12364TIP3    H237036   7.657   0.794   6.730
12365TIP3   OH237037   4.009   3.217   6.451
12365TIP3    H137038   4.087   3.274   6.456
12365TIP3    H237039   4.038   3.142   6.398
12366TIP3   OH237040   3.880   7.570   1.193
12366TIP3    H137041   3.883   7.503   1.261
12366TIP3    H237042   3.972   7.588   1.174
12367TIP3   OH237043   6.338   4.949   3.771
12367TIP3    H137044   6.274   5.011   3.734
12367TIP3    H237045   6.319   4.867   3.726
12368TIP3   OH237046   3.951   4.227   3.083
12368TIP3    H137047   4.024   4.268   3.037
12368TIP3    H237048   3.968   4.133   3.078
12369TIP3   OH237049   7.619   5.030   6.531
12369TIP3    H137050   7.695   5.030   6.472
12369TIP3    H237051   7.557   5.090   6.490
12370TIP3   OH237052   5.680   7.385   5.939
12370TIP3    H137053   5.655   7.294   5.955
12370TIP3    H237054   5.647   7.432   6.016
12371TIP3   OH237055   0.281   2.338   1.879
12371TIP3    H137056   0.220   2.381   1.939
12371TIP3    H237057   0.329   2.409   1.839
12372TIP3   OH237058   6.170   0.868   4.937
12372TIP3    H137059   6.228   0.917   4.879
12372TIP3    H237060   6.101   0.834   4.880
12373TIP3   OH237061   3.925   1.635   2.659
12373TIP3    H137062   3.891   1.714   2.618
12373TIP3    H237063   3.867   1.619   2.733
12374TIP3   OH237064   5.854   5.907   3.156
12374TIP3    H137065   5.939   5.863   3.165
12374TIP3    H237066   5.874   5.991   3.115
12375TIP3   OH237067   5.694   2.523   3.750
12375TIP3    H137068   5.729   2.588   3.812
12375TIP3    H237069   5.629   2.474   3.801
12376TIP3   OH237070   1.415   0.587   0.504
12376TIP3    H137071   1.482   0.611   0.440
12376TIP3    H237072   1.414   0.662   0.565
12377TIP3   OH237073   4.365   3.576   1.485
12377TIP3    H137074   4.272   3.598   1.492
12377TIP3    H237075   4.378   3.507   1.550
12378TIP3   OH237076   2.216   6.421   6.504
12378TIP3    H137077   2.172   6.356   6.449
12378TIP3    H237078   2.192   6.396   6.593
12379TIP3   OH237079   2.044   1.889   3.269
12379TIP3    H137080   2.009   1.806   3.302
12379TIP3    H237081   2.110   1.914   3.333
12380TIP3   OH237082   1.357   2.660   2.062
12380TIP3    H137083   1.298   2.712   2.117
12380TIP3    H237084   1.303   2.586   2.034
12381TIP3   OH237085   7.856   5.759   3.675
12381TIP3    H137086   7.881   5.844   3.711
12381TIP3    H237087   7.872   5.697   3.746
12382TIP3   OH237088   4.922   4.337   4.626
12382TIP3    H137089   4.930   4.253   4.581
12382TIP3    H237090   4.916   4.315   4.719
12383TIP3   OH237091   7.794   0.556   2.871
12383TIP3    H137092   7.801   0.499   2.795
12383TIP3    H237093   7.826   0.641   2.841
12384TIP3   OH237094   1.885   3.525   6.385
12384TIP3    H137095   1.875   3.460   6.315
12384TIP3    H237096   1.970   3.504   6.424
12385TIP3   OH237097   2.135   5.576   5.907
12385TIP3    H137098   2.207   5.537   5.957
12385TIP3    H237099   2.177   5.616   5.831
12386TIP3   OH237100   3.865   1.543   3.682
12386TIP3    H137101   3.929   1.494   3.734
12386TIP3    H237102   3.918   1.592   3.620
12387TIP3   OH237103   6.533   0.383   5.000
12387TIP3    H137104   6.479   0.406   5.075
12387TIP3    H237105   6.609   0.340   5.037
12388TIP3   OH237106   7.136   5.747   2.426
12388TIP3    H137107   7.104   5.820   2.479
12388TIP3    H237108   7.187   5.694   2.487
12389TIP3   OH237109   0.937   5.220   6.051
12389TIP3    H137110   0.879   5.289   6.019
12389TIP3    H237111   0.887   5.139   6.038
12390TIP3   OH237112   0.339   4.374   3.525
12390TIP3    H137113   0.247   4.350   3.534
12390TIP3    H237114   0.374   4.371   3.614
12391TIP3   OH237115   3.784   5.416   4.391
12391TIP3    H137116   3.857   5.358   4.371
12391TIP3    H237117   3.822   5.484   4.447
12392TIP3   OH237118   4.764   1.638   5.648
12392TIP3    H137119   4.737   1.550   5.673
12392TIP3    H237120   4.685   1.679   5.612
12393TIP3   OH237121   2.857   7.297   1.257
12393TIP3    H137122   2.939   7.253   1.234
12393TIP3    H237123   2.876   7.390   1.242
12394TIP3   OH237124   1.234   4.719   3.961
12394TIP3    H137125   1.309   4.766   3.998
12394TIP3    H237126   1.158   4.755   4.007
12395TIP3   OH237127   3.221   7.202   3.925
12395TIP3    H137128   3.252   7.132   3.868
12395TIP3    H237129   3.300   7.236   3.967
12396TIP3   OH237130   0.384   1.227   5.422
12396TIP3    H137131   0.358   1.293   5.487
12396TIP3    H237132   0.311   1.165   5.420
12397TIP3   OH237133   1.350   0.895   3.960
12397TIP3    H137134   1.270   0.948   3.958
12397TIP3    H237135   1.420   0.959   3.977
12398TIP3   OH237136   5.084   5.003   0.049
12398TIP3    H137137   5.027   5.077   0.030
12398TIP3    H237138   5.035   4.949   0.111
12399TIP3   OH237139   0.596   4.357   2.637
12399TIP3    H137140   0.678   4.406   2.624
12399TIP3    H237141   0.555   4.399   2.713
12400TIP3   OH237142   4.039   1.530   5.341
12400TIP3    H137143   4.133   1.524   5.360
12400TIP3    H237144   3.998   1.550   5.425
12401TIP3   OH237145   5.091   0.358   0.898
12401TIP3    H137146   5.120   0.283   0.848
12401TIP3    H237147   4.998   0.341   0.916
12402TIP3   OH237148   7.336   2.424   0.961
12402TIP3    H137149   7.312   2.354   0.900
12402TIP3    H237150   7.293   2.400   1.043
12403TIP3   OH237151   2.384   6.026   4.568
12403TIP3    H137152   2.303   6.076   4.558
12403TIP3    H237153   2.355   5.943   4.608
12404TIP3   OH237154   2.062   4.482   3.874
12404TIP3    H137155   2.141   4.445   3.836
12404TIP3    H237156   2.020   4.529   3.802
12405TIP3   OH237157   2.242   5.041   1.804
12405TIP3    H137158   2.311   4.985   1.768
12405TIP3    H237159   2.221   5.102   1.733
12406TIP3   OH237160   1.845   2.404   6.391
12406TIP3    H137161   1.914   2.452   6.438
12406TIP3    H237162   1.773   2.398   6.455
12407TIP3   OH237163   3.230   0.311   5.470
12407TIP3    H137164   3.265   0.229   5.434
12407TIP3    H237165   3.189   0.285   5.553
12408TIP3   OH237166   3.131   0.301   0.389
12408TIP3    H137167   3.064   0.235   0.377
12408TIP3    H237168   3.194   0.285   0.319
12409TIP3   OH237169   7.473   3.862   1.373
12409TIP3    H137170   7.477   3.944   1.422
12409TIP3    H237171   7.379   3.844   1.365
12410TIP3   OH237172   1.833   0.590   2.086
12410TIP3    H137173   1.895   0.644   2.036
12410TIP3    H237174   1.747   0.625   2.062
12411TIP3   OH237175   4.970   2.419   0.206
12411TIP3    H137176   4.911   2.355   0.247
12411TIP3    H237177   5.027   2.447   0.278
12412TIP3   OH237178   8.126   7.039   1.775
12412TIP3    H137179   8.181   6.960   1.771
12412TIP3    H237180   8.110   7.051   1.869
12413TIP3   OH237181   2.043   1.211   3.310
12413TIP3    H137182   2.110   1.262   3.264
12413TIP3    H237183   1.975   1.274   3.330
12414TIP3   OH237184   0.810   6.356   1.894
12414TIP3    H137185   0.730   6.320   1.932
12414TIP3    H237186   0.874   6.353   1.965
12415TIP3   OH237187   8.065   3.621   2.091
12415TIP3    H137188   8.058   3.683   2.164
12415TIP3    H237189   8.155   3.587   2.096
12416TIP3   OH237190   7.669   5.024   3.124
12416TIP3    H137191   7.729   4.954   3.098
12416TIP3    H237192   7.717   5.074   3.190
12417TIP3   OH237193   4.179   2.370   0.245
12417TIP3    H137194   4.216   2.332   0.324
12417TIP3    H237195   4.135   2.450   0.275
12418TIP3   OH237196   7.553   5.987   4.183
12418TIP3    H137197   7.580   5.995   4.092
12418TIP3    H237198   7.602   5.912   4.217
12419TIP3   OH237199   3.477   4.094   6.752
12419TIP3    H137200   3.429   4.012   6.760
12419TIP3    H237201   3.533   4.082   6.675
12420TIP3   OH237202   7.815   3.406   3.347
12420TIP3    H137203   7.775   3.330   3.390
12420TIP3    H237204   7.850   3.371   3.265
12421TIP3   OH237205   5.531   6.454   5.004
12421TIP3    H137206   5.603   6.487   4.951
12421TIP3    H237207   5.489   6.532   5.040
12422TIP3   OH237208   4.773   6.527   5.012
12422TIP3    H137209   4.680   6.505   5.002
12422TIP3    H237210   4.813   6.448   5.048
12423TIP3   OH237211   2.829   5.214   0.081
12423TIP3    H137212   2.737   5.239   0.083
12423TIP3    H237213   2.877   5.296   0.095
12424TIP3   OH237214   2.529   6.603   3.794
12424TIP3    H137215   2.617   6.583   3.763
12424TIP3    H237216   2.508   6.687   3.754
12425TIP3   OH237217   4.942   7.234   6.727
12425TIP3    H137218   4.942   7.328   6.711
12425TIP3    H237219   4.849   7.209   6.722
12426TIP3   OH237220   4.401   3.550   2.403
12426TIP3    H137221   4.434   3.460   2.400
12426TIP3    H237222   4.480   3.604   2.396
12427TIP3   OH237223   3.082   2.698   1.927
12427TIP3    H137224   3.094   2.615   1.973
12427TIP3    H237225   3.171   2.728   1.909
12428TIP3   OH237226   6.815   5.884   0.454
12428TIP3    H137227   6.894   5.911   0.501
12428TIP3    H237228   6.838   5.798   0.418
12429TIP3   OH237229   0.663   0.172   6.062
12429TIP3    H137230   0.691   0.081   6.066
12429TIP3    H237231   0.571   0.170   6.090
12430TIP3   OH237232   0.310   2.930   4.169
12430TIP3    H137233   0.277   2.991   4.103
12430TIP3    H237234   0.234   2.878   4.194
12431TIP3   OH237235   7.005   0.528   3.234
12431TIP3    H137236   7.006   0.442   3.275
12431TIP3    H237237   7.029   0.512   3.143
12432TIP3   OH237238   5.130   6.152   2.180
12432TIP3    H137239   5.123   6.096   2.257
12432TIP3    H237240   5.040   6.166   2.152
12433TIP3   OH237241   7.131   1.284   4.368
12433TIP3    H137242   7.171   1.199   4.384
12433TIP3    H237243   7.116   1.286   4.273
12434TIP3   OH237244   6.431   6.131   5.454
12434TIP3    H137245   6.354   6.074   5.446
12434TIP3    H237246   6.502   6.080   5.415
12435TIP3   OH237247   5.890   5.443   5.287
12435TIP3    H137248   5.857   5.357   5.314
12435TIP3    H237249   5.965   5.458   5.344
12436TIP3   OH237250   8.133   2.027   6.509
12436TIP3    H137251   8.210   2.032   6.565
12436TIP3    H237252   8.168   2.013   6.421
12437TIP3   OH237253   6.480   4.355   1.140
12437TIP3    H137254   6.499   4.366   1.233
12437TIP3    H237255   6.532   4.423   1.097
12438TIP3   OH237256   4.251   2.722   6.404
12438TIP3    H137257   4.178   2.679   6.448
12438TIP3    H237258   4.248   2.689   6.314
12439TIP3   OH237259   6.707   5.735   3.933
12439TIP3    H137260   6.699   5.809   3.993
12439TIP3    H237261   6.735   5.774   3.850
12440TIP3   OH237262   4.666   0.915   5.947
12440TIP3    H137263   4.714   0.998   5.949
12440TIP3    H237264   4.611   0.920   5.869
12441TIP3   OH237265   1.004   0.380   4.734
12441TIP3    H137266   0.926   0.336   4.700
12441TIP3    H237267   1.063   0.308   4.757
12442TIP3   OH237268   6.621   2.590   2.321
12442TIP3    H137269   6.711   2.560   2.308
12442TIP3    H237270   6.622   2.635   2.405
12443TIP3   OH237271   3.965   2.296   0.032
12443TIP3    H137272   3.961   2.385  -0.002
12443TIP3    H237273   3.942   2.240  -0.042
12444TIP3   OH237274   2.020   5.449   1.988
12444TIP3    H137275   2.052   5.486   2.071
12444TIP3    H237276   2.062   5.363   1.983
12445TIP3   OH237277   1.742   2.594   0.649
12445TIP3    H137278   1.719   2.540   0.725
12445TIP3    H237279   1.832   2.570   0.629
12446TIP3   OH237280   2.257   2.830   3.420
12446TIP3    H137281   2.316   2.809   3.348
12446TIP3    H237282   2.203   2.751   3.431
12447TIP3   OH237283   0.864   2.017   1.163
12447TIP3    H137284   0.895   1.951   1.226
12447TIP3    H237285   0.773   2.032   1.187
12448TIP3   OH237286   7.263   6.849   1.430
12448TIP3    H137287   7.259   6.820   1.522
12448TIP3    H237288   7.230   6.939   1.432
12449TIP3   OH237289   2.792   7.784   0.617
12449TIP3    H137290   2.869   7.840   0.625
12449TIP3    H237291   2.745   7.819   0.541
12450TIP3   OH237292   5.749   5.278   5.929
12450TIP3    H137293   5.749   5.189   5.964
12450TIP3    H237294   5.831   5.317   5.962
12451TIP3   OH237295   2.761   2.662   0.420
12451TIP3    H137296   2.779   2.623   0.335
12451TIP3    H237297   2.669   2.689   0.416
12452TIP3   OH237298   2.882   1.776   3.400
12452TIP3    H137299   2.960   1.724   3.381
12452TIP3    H237300   2.860   1.818   3.317
12453TIP3   OH237301   3.262   7.580   5.995
12453TIP3    H137302   3.167   7.585   5.983
12453TIP3    H237303   3.277   7.492   6.028
12454TIP3   OH237304   7.903   7.377   1.915
12454TIP3    H137305   7.854   7.343   1.840
12454TIP3    H237306   7.923   7.299   1.967
12455TIP3   OH237307   3.014   1.977   5.589
12455TIP3    H137308   3.046   2.042   5.527
12455TIP3    H237309   3.093   1.943   5.632
12456TIP3   OH237310   6.314   4.344   0.299
12456TIP3    H137311   6.396   4.335   0.250
12456TIP3    H237312   6.265   4.411   0.251
12457TIP3   OH237313   7.957   6.992   0.406
12457TIP3    H137314   7.885   6.991   0.343
12457TIP3    H237315   8.034   7.013   0.354
12458TIP3   OH237316   5.735   7.749   6.203
12458TIP3    H137317   5.695   7.810   6.266
12458TIP3    H237318   5.661   7.701   6.166
12459TIP3   OH237319   2.863   0.718   3.298
12459TIP3    H137320   2.952   0.742   3.322
12459TIP3    H237321   2.809   0.749   3.370
12460TIP3   OH237322   6.897   5.253   5.790
12460TIP3    H137323   6.940   5.306   5.723
12460TIP3    H237324   6.808   5.287   5.793
12461TIP3   OH237325   1.882   0.846   3.129
12461TIP3    H137326   1.883   0.941   3.118
12461TIP3    H237327   1.887   0.832   3.223
12462TIP3   OH237328   4.173   2.076   1.689
12462TIP3    H137329   4.212   2.153   1.647
12462TIP3    H237330   4.090   2.063   1.643
12463TIP3   OH237331   0.056   5.974   2.115
12463TIP3    H137332   0.086   6.062   2.091
12463TIP3    H237333   0.136   5.927   2.136
12464TIP3   OH237334   4.364   7.627   3.247
12464TIP3    H137335   4.383   7.683   3.172
12464TIP3    H237336   4.437   7.642   3.308
12465TIP3   OH237337   4.782   1.667   2.338
12465TIP3    H137338   4.804   1.576   2.319
12465TIP3    H237339   4.834   1.718   2.276
12466TIP3   OH237340   7.632   6.175   3.863
12466TIP3    H137341   7.708   6.221   3.827
12466TIP3    H237342   7.597   6.235   3.929
12467TIP3   OH237343   0.336   7.295   4.773
12467TIP3    H137344   0.288   7.356   4.828
12467TIP3    H237345   0.427   7.324   4.780
12468TIP3   OH237346   2.209   4.574   0.282
12468TIP3    H137347   2.240   4.522   0.356
12468TIP3    H237348   2.267   4.551   0.209
12469TIP3   OH237349   1.544   6.959   2.758
12469TIP3    H137350   1.556   6.865   2.759
12469TIP3    H237351   1.632   6.995   2.744
12470TIP3   OH237352   6.830   2.656   4.013
12470TIP3    H137353   6.923   2.650   4.034
12470TIP3    H237354   6.801   2.565   4.006
12471TIP3   OH237355   2.501   1.971   6.392
12471TIP3    H137356   2.413   1.939   6.368
12471TIP3    H237357   2.504   2.060   6.358
12472TIP3   OH237358   6.400   5.362   5.940
12472TIP3    H137359   6.373   5.437   5.993
12472TIP3    H237360   6.410   5.290   6.003
12473TIP3   OH237361   0.627   3.256   3.647
12473TIP3    H137362   0.676   3.336   3.668
12473TIP3    H237363   0.591   3.228   3.731
12474TIP3   OH237364   5.827   5.627   3.316
12474TIP3    H137365   5.781   5.628   3.233
12474TIP3    H237366   5.918   5.609   3.292
12475TIP3   OH237367   7.233   4.866   2.591
12475TIP3    H137368   7.326   4.855   2.613
12475TIP3    H237369   7.186   4.848   2.672
12476TIP3   OH237370   3.708   1.812   0.530
12476TIP3    H137371   3.649   1.742   0.557
12476TIP3    H237372   3.716   1.868   0.608
12477TIP3   OH237373   5.184   3.955   0.139
12477TIP3    H137374   5.214   3.865   0.130
12477TIP3    H237375   5.102   3.958   0.092
12478TIP3   OH237376   1.455   7.447   5.072
12478TIP3    H137377   1.424   7.514   5.133
12478TIP3    H237378   1.531   7.488   5.030
12479TIP3   OH237379   4.104   5.986   0.412
12479TIP3    H137380   4.055   5.911   0.379
12479TIP3    H237381   4.196   5.959   0.410
12480TIP3   OH237382   0.631   1.367   3.438
12480TIP3    H137383   0.718   1.354   3.401
12480TIP3    H237384   0.594   1.279   3.445
12481TIP3   OH237385   4.967   7.178   4.516
12481TIP3    H137386   5.042   7.179   4.457
12481TIP3    H237387   4.919   7.098   4.493
12482TIP3   OH237388   6.466   0.958   1.881
12482TIP3    H137389   6.454   0.939   1.974
12482TIP3    H237390   6.555   0.995   1.875
12483TIP3   OH237391   3.117   3.230   5.447
12483TIP3    H137392   3.163   3.298   5.495
12483TIP3    H237393   3.186   3.174   5.412
12484TIP3   OH237394   1.502   0.849   2.306
12484TIP3    H137395   1.490   0.882   2.395
12484TIP3    H237396   1.557   0.771   2.317
12485TIP3   OH237397   7.194   5.301   1.298
12485TIP3    H137398   7.276   5.255   1.279
12485TIP3    H237399   7.163   5.262   1.380
12486TIP3   OH237400   3.790   0.308   5.829
12486TIP3    H137401   3.879   0.335   5.851
12486TIP3    H237402   3.734   0.376   5.866
12487TIP3   OH237403   6.288   6.052   5.073
12487TIP3    H137404   6.373   6.095   5.066
12487TIP3    H237405   6.243   6.099   5.144
12488TIP3   OH237406   0.079   7.486   6.470
12488TIP3    H137407   0.061   7.429   6.545
12488TIP3    H237408   0.111   7.567   6.509
12489TIP3   OH237409   5.414   2.641   4.986
12489TIP3    H137410   5.371   2.633   4.901
12489TIP3    H237411   5.388   2.727   5.018
12490TIP3   OH237412   7.086   7.141   5.406
12490TIP3    H137413   7.059   7.221   5.360
12490TIP3    H237414   7.113   7.081   5.336
12491TIP3   OH237415   6.787   5.679   0.283
12491TIP3    H137416   6.780   5.615   0.212
12491TIP3    H237417   6.734   5.643   0.354
12492TIP3   OH237418   2.463   3.254   3.202
12492TIP3    H137419   2.511   3.173   3.188
12492TIP3    H237420   2.527   3.324   3.186
12493TIP3   OH237421   7.263   1.778   0.000
12493TIP3    H137422   7.291   1.797   0.090
12493TIP3    H237423   7.230   1.862  -0.033
12494TIP3   OH237424   0.915   1.275   1.915
12494TIP3    H137425   0.887   1.300   1.827
12494TIP3    H237426   0.834   1.252   1.961
12495TIP3   OH237427   7.690   6.322   6.539
12495TIP3    H137428   7.617   6.293   6.594
12495TIP3    H237429   7.762   6.335   6.601
12496TIP3   OH237430   1.937   6.771   3.471
12496TIP3    H137431   1.953   6.782   3.565
12496TIP3    H237432   1.965   6.682   3.452
12497TIP3   OH237433   2.486   4.016   0.486
12497TIP3    H137434   2.452   3.931   0.513
12497TIP3    H237435   2.541   3.998   0.410
12498TIP3   OH237436   2.635   1.794   0.524
12498TIP3    H137437   2.627   1.720   0.584
12498TIP3    H237438   2.684   1.860   0.573
12499TIP3   OH237439   3.082   2.659   4.725
12499TIP3    H137440   3.032   2.667   4.806
12499TIP3    H237441   3.160   2.610   4.750
12500TIP3   OH237442   2.680   3.857   0.832
12500TIP3    H137443   2.731   3.914   0.889
12500TIP3    H237444   2.647   3.789   0.890
12501TIP3   OH237445   1.311   4.820   4.935
12501TIP3    H137446   1.395   4.776   4.947
12501TIP3    H237447   1.253   4.781   5.000
12502TIP3   OH237448   1.928   1.873   0.571
12502TIP3    H137449   1.936   1.803   0.506
12502TIP3    H237450   1.985   1.943   0.538
12503TIP3   OH237451   7.559   0.142   1.878
12503TIP3    H137452   7.605   0.176   1.954
12503TIP3    H237453   7.624   0.145   1.807
12504TIP3   OH237454   0.170   5.881   3.819
12504TIP3    H137455   0.131   5.853   3.737
12504TIP3    H237456   0.191   5.974   3.806
12505TIP3   OH237457   0.202   5.384   5.024
12505TIP3    H137458   0.181   5.393   4.931
12505TIP3    H237459   0.233   5.471   5.050
12506TIP3   OH237460   4.888   1.499   0.460
12506TIP3    H137461   4.918   1.459   0.542
12506TIP3    H237462   4.932   1.448   0.392
12507TIP3   OH237463   1.903   1.985   0.296
12507TIP3    H137464   1.973   1.920   0.292
12507TIP3    H237465   1.949   2.069   0.291
12508TIP3   OH237466   3.538   1.922   5.482
12508TIP3    H137467   3.589   1.955   5.555
12508TIP3    H237468   3.510   2.000   5.434
12509TIP3   OH237469   6.154   2.871   4.873
12509TIP3    H137470   6.218   2.845   4.939
12509TIP3    H237471   6.189   2.839   4.790
12510TIP3   OH237472   2.128   0.097   0.695
12510TIP3    H137473   2.217   0.131   0.697
12510TIP3    H237474   2.138   0.002   0.695
12511TIP3   OH237475   0.100   1.051   3.071
12511TIP3    H137476   0.096   0.955   3.075
12511TIP3    H237477   0.194   1.071   3.070
12512TIP3   OH237478   1.109   2.457   5.962
12512TIP3    H137479   1.106   2.437   6.056
12512TIP3    H237480   1.017   2.459   5.936
12513TIP3   OH237481   3.750   6.810   6.461
12513TIP3    H137482   3.804   6.737   6.492
12513TIP3    H237483   3.813   6.882   6.447
12514TIP3   OH237484   4.244   4.559   1.294
12514TIP3    H137485   4.254   4.634   1.352
12514TIP3    H237486   4.234   4.598   1.207
12515TIP3   OH237487   5.751   1.166   0.049
12515TIP3    H137488   5.798   1.208   0.121
12515TIP3    H237489   5.785   1.208  -0.030
12516TIP3   OH237490   1.875   7.143   5.037
12516TIP3    H137491   1.849   7.127   4.946
12516TIP3    H237492   1.962   7.104   5.043
12517TIP3   OH237493   1.786   0.329   5.014
12517TIP3    H137494   1.872   0.298   4.988
12517TIP3    H237495   1.733   0.323   4.934
12518TIP3   OH237496   4.083   1.501   1.655
12518TIP3    H137497   3.995   1.472   1.631
12518TIP3    H237498   4.139   1.424   1.643
12519TIP3   OH237499   3.351   6.602   6.104
12519TIP3    H137500   3.361   6.511   6.132
12519TIP3    H237501   3.403   6.652   6.167
12520TIP3   OH237502   8.093   5.233   1.083
12520TIP3    H137503   7.999   5.238   1.065
12520TIP3    H237504   8.130   5.197   1.002
12521TIP3   OH237505   1.867   2.047   6.454
12521TIP3    H137506   1.876   1.951   6.460
12521TIP3    H237507   1.837   2.074   6.541
12522TIP3   OH237508   2.360   4.502   5.308
12522TIP3    H137509   2.410   4.580   5.284
12522TIP3    H237510   2.269   4.532   5.311
12523TIP3   OH237511   1.680   6.414   0.297
12523TIP3    H137512   1.750   6.379   0.352
12523TIP3    H237513   1.657   6.341   0.239
12524TIP3   OH237514   1.855   2.070   1.594
12524TIP3    H137515   1.792   2.125   1.548
12524TIP3    H237516   1.812   2.048   1.677
12525TIP3   OH237517   1.326   1.441   3.163
12525TIP3    H137518   1.312   1.351   3.192
12525TIP3    H237519   1.416   1.443   3.133
12526TIP3   OH237520   6.952   7.422   1.160
12526TIP3    H137521   6.880   7.360   1.151
12526TIP3    H237522   6.933   7.491   1.096
12527TIP3   OH237523   6.662   0.677   0.581
12527TIP3    H137524   6.597   0.641   0.520
12527TIP3    H237525   6.612   0.741   0.633
12528TIP3   OH237526   3.602   7.034   4.667
12528TIP3    H137527   3.620   6.951   4.710
12528TIP3    H237528   3.682   7.056   4.620
12529TIP3   OH237529   4.816   2.931   1.241
12529TIP3    H137530   4.750   2.999   1.233
12529TIP3    H237531   4.843   2.934   1.333
12530TIP3   OH237532   2.851   6.683   5.278
12530TIP3    H137533   2.758   6.682   5.302
12530TIP3    H237534   2.897   6.669   5.361
12531TIP3   OH237535   7.425   5.875   0.215
12531TIP3    H137536   7.508   5.873   0.263
12531TIP3    H237537   7.358   5.874   0.284
12532TIP3   OH237538   5.238   5.610   1.824
12532TIP3    H137539   5.269   5.545   1.760
12532TIP3    H237540   5.237   5.693   1.776
12533TIP3   OH237541   1.198   6.193   2.930
12533TIP3    H137542   1.110   6.172   2.900
12533TIP3    H237543   1.209   6.141   3.010
12534TIP3   OH237544   5.842   2.601   6.282
12534TIP3    H137545   5.750   2.624   6.289
12534TIP3    H237546   5.886   2.659   6.344
12535TIP3   OH237547   6.229   5.561   3.383
12535TIP3    H137548   6.255   5.527   3.469
12535TIP3    H237549   6.212   5.483   3.331
12536TIP3   OH237550   3.942   3.185   2.444
12536TIP3    H137551   4.005   3.256   2.459
12536TIP3    H237552   3.937   3.177   2.349
12537TIP3   OH237553   0.895   5.453   3.999
12537TIP3    H137554   0.879   5.433   4.091
12537TIP3    H237555   0.978   5.409   3.979
12538TIP3   OH237556   4.508   6.793   5.122
12538TIP3    H137557   4.577   6.773   5.059
12538TIP3    H237558   4.429   6.802   5.067
12539TIP3   OH237559   1.224   4.384   3.560
12539TIP3    H137560   1.278   4.337   3.624
12539TIP3    H237561   1.136   4.384   3.599
12540TIP3   OH237562   0.775   1.958   6.411
12540TIP3    H137563   0.715   1.946   6.338
12540TIP3    H237564   0.739   2.034   6.459
12541TIP3   OH237565   3.861   3.506   6.663
12541TIP3    H137566   3.808   3.441   6.616
12541TIP3    H237567   3.943   3.510   6.613
12542TIP3   OH237568   4.318   4.820   1.451
12542TIP3    H137569   4.255   4.814   1.523
12542TIP3    H237570   4.264   4.840   1.374
12543TIP3   OH237571   3.978   3.944   3.497
12543TIP3    H137572   3.978   3.868   3.440
12543TIP3    H237573   4.071   3.959   3.516
12544TIP3   OH237574   0.818   3.120   0.656
12544TIP3    H137575   0.782   3.145   0.571
12544TIP3    H237576   0.851   3.203   0.693
12545TIP3   OH237577   1.052   1.561   4.003
12545TIP3    H137578   1.085   1.650   4.021
12545TIP3    H237579   0.974   1.553   4.058
12546TIP3   OH237580   4.131   6.789   6.580
12546TIP3    H137581   4.063   6.730   6.546
12546TIP3    H237582   4.202   6.782   6.517
12547TIP3   OH237583   2.447   7.584   3.347
12547TIP3    H137584   2.490   7.516   3.295
12547TIP3    H237585   2.419   7.540   3.427
12548TIP3   OH237586   0.178   0.179   3.398
12548TIP3    H137587   0.179   0.175   3.302
12548TIP3    H237588   0.269   0.193   3.423
12549TIP3   OH237589   6.249   2.912   6.194
12549TIP3    H137590   6.253   2.820   6.168
12549TIP3    H237591   6.331   2.928   6.240
12550TIP3   OH237592   6.421   4.926   6.001
12550TIP3    H137593   6.378   4.989   6.059
12550TIP3    H237594   6.448   4.978   5.925
12551TIP3   OH237595   7.132   4.665   4.634
12551TIP3    H137596   7.050   4.714   4.646
12551TIP3    H237597   7.127   4.631   4.545
12552TIP3   OH237598   1.020   5.654   3.858
12552TIP3    H137599   1.093   5.639   3.918
12552TIP3    H237600   0.949   5.600   3.893
12553TIP3   OH237601   3.336   4.273   1.014
12553TIP3    H137602   3.301   4.257   0.926
12553TIP3    H237603   3.260   4.261   1.072
12554TIP3   OH237604   0.808   5.245   2.945
12554TIP3    H137605   0.815   5.188   2.869
12554TIP3    H237606   0.895   5.284   2.955
12555TIP3   OH237607   4.846   7.536   4.301
12555TIP3    H137608   4.906   7.606   4.276
12555TIP3    H237609   4.793   7.573   4.372
12556TIP3   OH237610   8.047   6.399   1.216
12556TIP3    H137611   8.050   6.486   1.177
12556TIP3    H237612   8.032   6.416   1.310
12557TIP3   OH237613   1.472   1.605   6.128
12557TIP3    H137614   1.383   1.574   6.112
12557TIP3    H237615   1.480   1.684   6.075
12558TIP3   OH237616   3.314   3.092   3.370
12558TIP3    H137617   3.272   3.077   3.285
12558TIP3    H237618   3.407   3.101   3.349
12559TIP3   OH237619   1.257   6.819   1.370
12559TIP3    H137620   1.281   6.909   1.351
12559TIP3    H237621   1.320   6.766   1.320
12560TIP3   OH237622   0.453   1.116   4.992
12560TIP3    H137623   0.495   1.201   5.006
12560TIP3    H237624   0.383   1.113   5.057
12561TIP3   OH237625   4.188   4.409   0.836
12561TIP3    H137626   4.116   4.371   0.886
12561TIP3    H237627   4.145   4.448   0.759
12562TIP3   OH237628   5.834   6.305   0.469
12562TIP3    H137629   5.886   6.371   0.423
12562TIP3    H237630   5.859   6.314   0.560
12563TIP3   OH237631   4.588   4.763   2.545
12563TIP3    H137632   4.581   4.690   2.482
12563TIP3    H237633   4.656   4.819   2.509
12564TIP3   OH237634   5.790   3.911   3.435
12564TIP3    H137635   5.822   3.957   3.358
12564TIP3    H237636   5.829   3.824   3.429
12565TIP3   OH237637   4.774   6.163   2.742
12565TIP3    H137638   4.831   6.130   2.812
12565TIP3    H237639   4.710   6.217   2.788
12566TIP3   OH237640   0.018   5.361   5.252
12566TIP3    H137641  -0.041   5.328   5.319
12566TIP3    H237642   0.040   5.450   5.280
12567TIP3   OH237643   5.594   4.852   6.296
12567TIP3    H137644   5.595   4.815   6.384
12567TIP3    H237645   5.506   4.887   6.285
12568TIP3   OH237646   1.260   6.335   0.739
12568TIP3    H137647   1.200   6.322   0.812
12568TIP3    H237648   1.207   6.378   0.672
12569TIP3   OH237649   5.491   1.229   5.167
12569TIP3    H137650   5.542   1.300   5.207
12569TIP3    H237651   5.405   1.268   5.152
12570TIP3   OH237652   7.591   3.217   3.148
12570TIP3    H137653   7.588   3.201   3.242
12570TIP3    H237654   7.684   3.231   3.129
12571TIP3   OH237655   6.561   7.279   2.320
12571TIP3    H137656   6.550   7.234   2.404
12571TIP3    H237657   6.513   7.361   2.330
12572TIP3   OH237658   5.476   6.540   6.411
12572TIP3    H137659   5.538   6.592   6.462
12572TIP3    H237660   5.390   6.564   6.447
12573TIP3   OH237661   4.239   7.317   6.112
12573TIP3    H137662   4.189   7.398   6.098
12573TIP3    H237663   4.250   7.312   6.207
12574TIP3   OH237664  -0.013   1.790   2.569
12574TIP3    H137665   0.042   1.868   2.579
12574TIP3    H237666  -0.087   1.805   2.629
12575TIP3   OH237667   3.597   5.263   1.152
12575TIP3    H137668   3.516   5.300   1.187
12575TIP3    H237669   3.659   5.336   1.152
12576TIP3   OH237670   0.514   4.796   5.024
12576TIP3    H137671   0.541   4.708   4.997
12576TIP3    H237672   0.519   4.794   5.119
12577TIP3   OH237673   5.697   4.000   0.759
12577TIP3    H137674   5.677   3.977   0.850
12577TIP3    H237675   5.642   4.077   0.741
12578TIP3   OH237676   4.100  -0.007   1.606
12578TIP3    H137677   4.100   0.057   1.677
12578TIP3    H237678   4.181   0.011   1.558
12579TIP3   OH237679   4.907   7.488   2.243
12579TIP3    H137680   4.966   7.545   2.293
12579TIP3    H237681   4.945   7.487   2.155
12580TIP3   OH237682   8.109   3.509   5.961
12580TIP3    H137683   8.061   3.586   5.930
12580TIP3    H237684   8.154   3.476   5.883
12581TIP3   OH237685   0.931   2.523   1.865
12581TIP3    H137686   0.865   2.591   1.850
12581TIP3    H237687   0.977   2.516   1.781
12582TIP3   OH237688   4.446   2.561   6.656
12582TIP3    H137689   4.390   2.528   6.586
12582TIP3    H237690   4.392   2.628   6.699
12583TIP3   OH237691   5.548   6.370   2.762
12583TIP3    H137692   5.564   6.328   2.677
12583TIP3    H237693   5.453   6.372   2.771
12584TIP3   OH237694   4.270   4.671   0.173
12584TIP3    H137695   4.272   4.688   0.267
12584TIP3    H237696   4.312   4.585   0.163
12585TIP3   OH237697   3.626   6.862   4.049
12585TIP3    H137698   3.637   6.933   4.112
12585TIP3    H237699   3.714   6.847   4.013
12586TIP3   OH237700   2.878   3.127   1.499
12586TIP3    H137701   2.909   3.057   1.557
12586TIP3    H237702   2.887   3.092   1.411
12587TIP3   OH237703   3.890   6.938   2.724
12587TIP3    H137704   3.846   6.875   2.667
12587TIP3    H237705   3.977   6.901   2.740
12588TIP3   OH237706   5.433   7.005   2.748
12588TIP3    H137707   5.450   7.096   2.774
12588TIP3    H237708   5.465   6.999   2.659
12589TIP3   OH237709   6.570   4.542   3.674
12589TIP3    H137710   6.579   4.470   3.611
12589TIP3    H237711   6.491   4.588   3.646
12590TIP3   OH237712   5.858   5.385   0.847
12590TIP3    H137713   5.921   5.393   0.918
12590TIP3    H237714   5.908   5.403   0.768
12591TIP3   OH237715   6.634   6.113   1.838
12591TIP3    H137716   6.615   6.082   1.926
12591TIP3    H237717   6.728   6.104   1.828
12592TIP3   OH237718   3.980   4.992   1.452
12592TIP3    H137719   3.936   5.074   1.474
12592TIP3    H237720   4.071   5.017   1.437
12593TIP3   OH237721   6.122   4.860   0.350
12593TIP3    H137722   6.178   4.818   0.284
12593TIP3    H237723   6.176   4.929   0.387
12594TIP3   OH237724   7.231   5.683   3.093
12594TIP3    H137725   7.279   5.765   3.085
12594TIP3    H237726   7.218   5.672   3.187
12595TIP3   OH237727   1.146   6.418   6.365
12595TIP3    H137728   1.099   6.488   6.319
12595TIP3    H237729   1.188   6.462   6.439
12596TIP3   OH237730   5.691   1.949   3.830
12596TIP3    H137731   5.716   1.942   3.922
12596TIP3    H237732   5.597   1.970   3.832
12597TIP3   OH237733   7.949   2.086   4.307
12597TIP3    H137734   8.012   2.013   4.311
12597TIP3    H237735   7.871   2.047   4.268
12598TIP3   OH237736   2.489   7.121   4.164
12598TIP3    H137737   2.555   7.069   4.210
12598TIP3    H237738   2.450   7.061   4.101
12599TIP3   OH237739   4.762   3.380   5.244
12599TIP3    H137740   4.826   3.431   5.293
12599TIP3    H237741   4.805   3.364   5.160
12600TIP3   OH237742   2.852   7.578   1.349
12600TIP3    H137743   2.925   7.601   1.408
12600TIP3    H237744   2.825   7.660   1.310
12601TIP3   OH237745   6.862   5.629   0.630
12601TIP3    H137746   6.780   5.586   0.609
12601TIP3    H237747   6.845   5.722   0.617
12602TIP3   OH237748   4.129   5.715   1.593
12602TIP3    H137749   4.215   5.737   1.557
12602TIP3    H237750   4.070   5.779   1.555
12603TIP3   OH237751   3.533   6.741   0.118
12603TIP3    H137752   3.453   6.793   0.109
12603TIP3    H237753   3.504   6.659   0.157
12604TIP3   OH237754   4.517   1.595   6.120
12604TIP3    H137755   4.562   1.654   6.180
12604TIP3    H237756   4.445   1.559   6.171
12605TIP3   OH237757   0.191   3.480   4.992
12605TIP3    H137758   0.200   3.402   4.938
12605TIP3    H237759   0.140   3.452   5.068
12606TIP3   OH237760   4.384   7.537   5.599
12606TIP3    H137761   4.453   7.481   5.636
12606TIP3    H237762   4.416   7.559   5.512
12607TIP3   OH237763   3.398   6.314   5.909
12607TIP3    H137764   3.435   6.295   5.995
12607TIP3    H237765   3.439   6.396   5.883
12608TIP3   OH237766   1.451   0.787   1.452
12608TIP3    H137767   1.500   0.736   1.386
12608TIP3    H237768   1.425   0.722   1.517
12609TIP3   OH237769   2.950   4.771   6.097
12609TIP3    H137770   2.947   4.686   6.053
12609TIP3    H237771   2.918   4.753   6.186
12610TIP3   OH237772   0.994   2.504   2.936
12610TIP3    H137773   1.040   2.549   3.006
12610TIP3    H237774   0.903   2.498   2.966
12611TIP3   OH237775   0.664   1.250   3.103
12611TIP3    H137776   0.706   1.190   3.040
12611TIP3    H237777   0.738   1.293   3.146
12612TIP3   OH237778   1.142   3.078   0.949
12612TIP3    H137779   1.142   3.073   0.854
12612TIP3    H237780   1.233   3.065   0.974
12613TIP3   OH237781   7.408   7.123   4.023
12613TIP3    H137782   7.397   7.152   3.932
12613TIP3    H237783   7.348   7.049   4.032
12614TIP3   OH237784   1.862   5.583   5.758
12614TIP3    H137785   1.899   5.640   5.825
12614TIP3    H237786   1.789   5.633   5.720
12615TIP3   OH237787   7.213   3.047   2.605
12615TIP3    H137788   7.246   2.980   2.546
12615TIP3    H237789   7.119   3.031   2.610
12616TIP3   OH237790   6.485   0.769   1.555
12616TIP3    H137791   6.570   0.739   1.588
12616TIP3    H237792   6.505   0.806   1.469
12617TIP3   OH237793   6.627   7.612   2.081
12617TIP3    H137794   6.667   7.692   2.115
12617TIP3    H237795   6.648   7.545   2.146
12618TIP3   OH237796   5.509   4.997   5.648
12618TIP3    H137797   5.448   5.048   5.700
12618TIP3    H237798   5.545   5.059   5.585
12619TIP3   OH237799   1.390   1.128   2.475
12619TIP3    H137800   1.378   1.157   2.385
12619TIP3    H237801   1.331   1.054   2.485
12620TIP3   OH237802   5.605   2.698   3.059
12620TIP3    H137803   5.676   2.691   3.123
12620TIP3    H237804   5.563   2.781   3.079
12621TIP3   OH237805   4.674   5.334   3.918
12621TIP3    H137806   4.748   5.393   3.928
12621TIP3    H237807   4.706   5.249   3.947
12622TIP3   OH237808   1.576   4.190   1.894
12622TIP3    H137809   1.548   4.105   1.857
12622TIP3    H237810   1.638   4.224   1.830
12623TIP3   OH237811   1.879   3.489   3.877
12623TIP3    H137812   1.927   3.571   3.891
12623TIP3    H237813   1.915   3.429   3.942
12624TIP3   OH237814   0.657   1.010   5.433
12624TIP3    H137815   0.639   0.956   5.356
12624TIP3    H237816   0.570   1.037   5.464
12625TIP3   OH237817   0.163   3.203   0.085
12625TIP3    H137818   0.176   3.184   0.178
12625TIP3    H237819   0.235   3.157   0.041
12626TIP3   OH237820   4.392   6.170   0.954
12626TIP3    H137821   4.483   6.200   0.948
12626TIP3    H237822   4.353   6.226   1.021
12627TIP3   OH237823   5.723   1.998   0.877
12627TIP3    H137824   5.765   2.075   0.838
12627TIP3    H237825   5.675   1.958   0.804
12628TIP3   OH237826   0.437   6.183   4.980
12628TIP3    H137827   0.402   6.229   5.057
12628TIP3    H237828   0.365   6.182   4.918
12629TIP3   OH237829   7.817   4.669   2.766
12629TIP3    H137830   7.796   4.621   2.686
12629TIP3    H237831   7.750   4.641   2.829
12630TIP3   OH237832   6.933   7.276   0.123
12630TIP3    H137833   6.869   7.344   0.103
12630TIP3    H237834   7.007   7.295   0.065
12631TIP3   OH237835   3.900   3.710   6.310
12631TIP3    H137836   3.824   3.661   6.342
12631TIP3    H237837   3.862   3.788   6.269
12632TIP3   OH237838   3.315   2.615   1.069
12632TIP3    H137839   3.398   2.600   1.024
12632TIP3    H237840   3.294   2.531   1.110
12633TIP3   OH237841   4.342   7.063   6.407
12633TIP3    H137842   4.388   7.026   6.483
12633TIP3    H237843   4.411   7.103   6.354
12634TIP3   OH237844   1.591   7.001   1.057
12634TIP3    H137845   1.607   6.941   0.984
12634TIP3    H237846   1.656   6.976   1.123
12635TIP3   OH237847   6.867   0.030   5.026
12635TIP3    H137848   6.778  -0.004   5.035
12635TIP3    H237849   6.924  -0.040   5.059
12636TIP3   OH237850   5.340   1.621   3.048
12636TIP3    H137851   5.399   1.581   3.112
12636TIP3    H237852   5.274   1.553   3.031
12637TIP3   OH237853   6.259   0.214   1.755
12637TIP3    H137854   6.199   0.261   1.696
12637TIP3    H237855   6.304   0.151   1.697
12638TIP3   OH237856   1.867   3.064   3.887
12638TIP3    H137857   1.845   2.975   3.912
12638TIP3    H237858   1.791   3.116   3.913
12639TIP3   OH237859   7.605   2.795   0.047
12639TIP3    H137860   7.668   2.758   0.108
12639TIP3    H237861   7.648   2.874   0.012
12640TIP3   OH237862   3.949   2.342   1.648
12640TIP3    H137863   3.954   2.249   1.668
12640TIP3    H237864   3.889   2.347   1.574
12641TIP3   OH237865   4.190   2.141   0.029
12641TIP3    H137866   4.115   2.171   0.080
12641TIP3    H237867   4.192   2.200  -0.047
12642TIP3   OH237868   3.626   6.294   1.804
12642TIP3    H137869   3.705   6.332   1.767
12642TIP3    H237870   3.631   6.201   1.782
12643TIP3   OH237871   8.235   2.435   5.315
12643TIP3    H137872   8.203   2.443   5.225
12643TIP3    H237873   8.159   2.452   5.369
12644TIP3   OH237874   4.141   4.344   6.192
12644TIP3    H137875   4.153   4.250   6.209
12644TIP3    H237876   4.085   4.347   6.114
12645TIP3   OH237877   1.650   0.280   6.432
12645TIP3    H137878   1.735   0.259   6.394
12645TIP3    H237879   1.605   0.331   6.364
12646TIP3   OH237880   7.283   7.092   1.774
12646TIP3    H137881   7.345   7.022   1.757
12646TIP3    H237882   7.221   7.088   1.701
12647TIP3   OH237883   5.914   6.082   2.450
12647TIP3    H137884   5.874   6.003   2.414
12647TIP3    H237885   5.875   6.153   2.400
12648TIP3   OH237886   5.283   1.876   5.317
12648TIP3    H137887   5.303   1.968   5.332
12648TIP3    H237888   5.366   1.830   5.333
12649TIP3   OH237889   4.992   0.985   4.551
12649TIP3    H137890   5.025   0.902   4.584
12649TIP3    H237891   4.987   0.973   4.456
12650TIP3   OH237892   5.081   5.169   2.794
12650TIP3    H137893   5.105   5.077   2.786
12650TIP3    H237894   5.164   5.216   2.785
12651TIP3   OH237895   0.248   6.401   2.682
12651TIP3    H137896   0.249   6.433   2.591
12651TIP3    H237897   0.157   6.376   2.697
12652TIP3   OH237898   7.431   6.857   1.720
12652TIP3    H137899   7.477   6.854   1.636
12652TIP3    H237900   7.501   6.859   1.785
12653TIP3   OH237901   3.577   3.331   6.554
12653TIP3    H137902   3.492   3.345   6.513
12653TIP3    H237903   3.640   3.341   6.483
12654TIP3   OH237904   4.784   1.594   5.327
12654TIP3    H137905   4.703   1.634   5.294
12654TIP3    H237906   4.782   1.611   5.421
12655TIP3   OH237907   6.039   4.804   3.391
12655TIP3    H137908   5.974   4.846   3.447
12655TIP3    H237909   5.988   4.764   3.321
12656TIP3   OH237910   2.769   6.162   1.870
12656TIP3    H137911   2.824   6.231   1.832
12656TIP3    H237912   2.724   6.124   1.794
12657TIP3   OH237913  -0.009   4.654   2.272
12657TIP3    H137914  -0.003   4.639   2.366
12657TIP3    H237915   0.067   4.608   2.236
12658TIP3   OH237916   5.578   3.768   2.928
12658TIP3    H137917   5.522   3.804   2.860
12658TIP3    H237918   5.554   3.816   3.007
12659TIP3   OH237919   5.765   0.214   5.101
12659TIP3    H137920   5.681   0.191   5.060
12659TIP3    H237921   5.767   0.309   5.100
12660TIP3   OH237922   5.154   1.438   6.030
12660TIP3    H137923   5.162   1.475   6.117
12660TIP3    H237924   5.150   1.514   5.972
12661TIP3   OH237925   4.393   2.634   2.365
12661TIP3    H137926   4.405   2.680   2.448
12661TIP3    H237927   4.422   2.544   2.383
12662TIP3   OH237928   5.135   3.229   4.170
12662TIP3    H137929   5.132   3.319   4.203
12662TIP3    H237930   5.043   3.202   4.165
12663TIP3   OH237931   3.005   3.479   5.606
12663TIP3    H137932   2.971   3.402   5.652
12663TIP3    H237933   3.097   3.483   5.631
12664TIP3   OH237934   4.832   0.449   3.809
12664TIP3    H137935   4.779   0.431   3.731
12664TIP3    H237936   4.873   0.364   3.830
12665TIP3   OH237937   7.033   7.567   2.692
12665TIP3    H137938   7.090   7.560   2.616
12665TIP3    H237939   7.067   7.501   2.753
12666TIP3   OH237940   3.729   1.010   4.927
12666TIP3    H137941   3.804   0.990   4.871
12666TIP3    H237942   3.747   1.098   4.960
12667TIP3   OH237943   6.115   0.400   1.585
12667TIP3    H137944   6.105   0.452   1.665
12667TIP3    H237945   6.042   0.428   1.529
12668TIP3   OH237946   1.331   0.572   3.578
12668TIP3    H137947   1.347   0.606   3.490
12668TIP3    H237948   1.277   0.493   3.563
12669TIP3   OH237949   7.917   6.649   0.262
12669TIP3    H137950   7.933   6.598   0.183
12669TIP3    H237951   7.826   6.630   0.284
12670TIP3   OH237952   5.661   2.184   4.060
12670TIP3    H137953   5.748   2.222   4.056
12670TIP3    H237954   5.676   2.091   4.081
12671TIP3   OH237955   3.281   2.882   3.911
12671TIP3    H137956   3.263   2.956   3.968
12671TIP3    H237957   3.270   2.916   3.822
12672TIP3   OH237958   0.841   6.094   1.556
12672TIP3    H137959   0.894   6.095   1.477
12672TIP3    H237960   0.885   6.154   1.616
12673TIP3   OH237961   3.709   3.957   0.142
12673TIP3    H137962   3.769   3.889   0.172
12673TIP3    H237963   3.649   3.912   0.083
12674TIP3   OH237964   1.760   4.958   6.192
12674TIP3    H137965   1.717   4.978   6.276
12674TIP3    H237966   1.751   4.863   6.183
12675TIP3   OH237967   0.770   2.972   6.110
12675TIP3    H137968   0.757   3.021   6.029
12675TIP3    H237969   0.682   2.947   6.138
12676TIP3   OH237970   4.843   4.451   4.382
12676TIP3    H137971   4.879   4.418   4.464
12676TIP3    H237972   4.756   4.413   4.376
12677TIP3   OH237973   5.707   7.213   1.426
12677TIP3    H137974   5.741   7.124   1.428
12677TIP3    H237975   5.649   7.215   1.350
12678TIP3   OH237976   7.980   5.439   2.839
12678TIP3    H137977   8.028   5.377   2.784
12678TIP3    H237978   7.889   5.412   2.833
12679TIP3   OH237979   5.100   1.842   6.089
12679TIP3    H137980   5.184   1.888   6.080
12679TIP3    H237981   5.109   1.791   6.170
12680TIP3   OH237982   0.666   3.873   5.360
12680TIP3    H137983   0.702   3.889   5.272
12680TIP3    H237984   0.708   3.792   5.389
12681TIP3   OH237985   3.937   7.530   3.155
12681TIP3    H137986   3.957   7.460   3.217
12681TIP3    H237987   3.909   7.485   3.076
12682TIP3   OH237988   2.077   6.855   2.978
12682TIP3    H137989   2.078   6.810   3.063
12682TIP3    H237990   2.115   6.791   2.917
12683TIP3   OH237991   4.473   6.733   1.730
12683TIP3    H137992   4.564   6.704   1.734
12683TIP3    H237993   4.450   6.727   1.637
12684TIP3   OH237994   6.785   4.380   0.893
12684TIP3    H137995   6.780   4.465   0.937
12684TIP3    H237996   6.742   4.395   0.809
12685TIP3   OH237997   6.676   5.228   3.030
12685TIP3    H137998   6.680   5.197   3.121
12685TIP3    H237999   6.688   5.323   3.037
12686TIP3   OH238000   6.220   3.499   6.151
12686TIP3    H138001   6.299   3.444   6.152
12686TIP3    H238002   6.153   3.444   6.191
12687TIP3   OH238003   1.680   2.032   1.813
12687TIP3    H138004   1.625   2.096   1.859
12687TIP3    H238005   1.632   1.950   1.820
12688TIP3   OH238006   4.891   5.967   2.909
12688TIP3    H138007   4.904   5.885   2.955
12688TIP3    H238008   4.978   5.993   2.879
12689TIP3   OH238009   0.529   3.094   5.160
12689TIP3    H138010   0.524   3.175   5.109
12689TIP3    H238011   0.460   3.103   5.226
12690TIP3   OH238012   7.050   7.351   5.234
12690TIP3    H138013   7.002   7.331   5.153
12690TIP3    H238014   7.020   7.439   5.258
12691TIP3   OH238015   2.356   3.398   1.065
12691TIP3    H138016   2.392   3.425   1.149
12691TIP3    H238017   2.413   3.326   1.037
12692TIP3   OH238018   3.742   5.036   1.149
12692TIP3    H138019   3.681   5.109   1.164
12692TIP3    H238020   3.828   5.078   1.142
12693TIP3   OH238021   1.857   5.330   4.031
12693TIP3    H138022   1.806   5.249   4.023
12693TIP3    H238023   1.933   5.317   3.975
12694TIP3   OH238024   2.443   5.212   2.274
12694TIP3    H138025   2.505   5.210   2.347
12694TIP3    H238026   2.433   5.305   2.254
12695TIP3   OH238027   2.181   1.532   6.638
12695TIP3    H138028   2.250   1.560   6.577
12695TIP3    H238029   2.123   1.608   6.644
12696TIP3   OH238030   0.114   6.223   1.241
12696TIP3    H138031   0.149   6.300   1.196
12696TIP3    H238032   0.080   6.256   1.324
12697TIP3   OH238033   7.579   7.027   0.818
12697TIP3    H138034   7.603   7.119   0.826
12697TIP3    H238035   7.488   7.027   0.791
12698TIP3   OH238036   2.462   0.403   2.924
12698TIP3    H138037   2.387   0.438   2.971
12698TIP3    H238038   2.477   0.317   2.963
12699TIP3   OH238039   5.076   4.159   0.891
12699TIP3    H138040   5.121   4.126   0.969
12699TIP3    H238041   4.988   4.180   0.922
12700TIP3   OH238042   6.881   1.722   2.512
12700TIP3    H138043   6.793   1.736   2.548
12700TIP3    H238044   6.881   1.630   2.485
12701TIP3   OH238045   0.463   2.088   4.772
12701TIP3    H138046   0.406   2.160   4.800
12701TIP3    H238047   0.405   2.030   4.723
12702TIP3   OH238048   7.675   4.939   0.326
12702TIP3    H138049   7.625   4.942   0.408
12702TIP3    H238050   7.611   4.916   0.259
12703TIP3   OH238051   8.165   0.153   1.454
12703TIP3    H138052   8.140   0.117   1.369
12703TIP3    H238053   8.113   0.232   1.463
12704TIP3   OH238054   6.198   4.556   1.219
12704TIP3    H138055   6.223   4.519   1.303
12704TIP3    H238056   6.178   4.648   1.238
12705TIP3   OH238057   1.346   0.298   1.670
12705TIP3    H138058   1.378   0.274   1.757
12705TIP3    H238059   1.368   0.390   1.660
12706TIP3   OH238060   5.986   1.793   5.335
12706TIP3    H138061   6.043   1.859   5.374
12706TIP3    H238062   6.039   1.753   5.266
12707TIP3   OH238063   2.445   1.032   2.946
12707TIP3    H138064   2.535   1.058   2.924
12707TIP3    H238065   2.455   0.964   3.012
12708TIP3   OH238066   0.237   4.621   0.251
12708TIP3    H138067   0.190   4.675   0.315
12708TIP3    H238068   0.295   4.683   0.206
12709TIP3   OH238069   0.628   0.476   3.010
12709TIP3    H138070   0.638   0.550   2.951
12709TIP3    H238071   0.551   0.429   2.976
12710TIP3   OH238072   7.242   5.839   1.612
12710TIP3    H138073   7.255   5.870   1.522
12710TIP3    H238074   7.224   5.918   1.662
12711TIP3   OH238075   0.707   3.508   5.318
12711TIP3    H138076   0.750   3.486   5.401
12711TIP3    H238077   0.617   3.475   5.328
12712TIP3   OH238078   3.425   1.497   3.453
12712TIP3    H138079   3.456   1.424   3.506
12712TIP3    H238080   3.387   1.456   3.375
12713TIP3   OH238081   0.526   4.063   0.260
12713TIP3    H138082   0.519   3.968   0.263
12713TIP3    H238083   0.465   4.094   0.328
12714TIP3   OH238084   3.703   4.521   1.454
12714TIP3    H138085   3.728   4.612   1.440
12714TIP3    H238086   3.630   4.525   1.516
12715TIP3   OH238087   5.989   5.249   4.695
12715TIP3    H138088   5.917   5.282   4.643
12715TIP3    H238089   6.052   5.322   4.698
12716TIP3   OH238090   5.575   6.392   5.395
12716TIP3    H138091   5.631   6.342   5.454
12716TIP3    H238092   5.491   6.347   5.398
12717TIP3   OH238093   4.009   1.753   5.817
12717TIP3    H138094   4.081   1.775   5.876
12717TIP3    H238095   3.957   1.689   5.865
12718TIP3   OH238096   2.669   1.366   5.391
12718TIP3    H138097   2.613   1.416   5.452
12718TIP3    H238098   2.650   1.274   5.412
12719TIP3   OH238099   0.532   7.029   6.263
12719TIP3    H138100   0.613   6.990   6.229
12719TIP3    H238101   0.500   7.082   6.190
12720TIP3   OH238102   3.702   5.065   5.189
12720TIP3    H138103   3.640   5.013   5.240
12720TIP3    H238104   3.651   5.100   5.116
12721TIP3   OH238105   8.275   2.517   6.212
12721TIP3    H138106   8.301   2.596   6.164
12721TIP3    H238107   8.232   2.462   6.146
12722TIP3   OH238108   2.586   6.524   3.494
12722TIP3    H138109   2.602   6.429   3.496
12722TIP3    H238110   2.541   6.539   3.411
12723TIP3   OH238111   3.076   7.175   1.956
12723TIP3    H138112   3.146   7.150   1.896
12723TIP3    H238113   3.101   7.262   1.987
12724TIP3   OH238114   7.311   4.025   6.136
12724TIP3    H138115   7.370   4.101   6.138
12724TIP3    H238116   7.293   4.007   6.229
12725TIP3   OH238117   2.277   6.099   3.107
12725TIP3    H138118   2.221   6.031   3.145
12725TIP3    H238119   2.331   6.053   3.043
12726TIP3   OH238120   6.573   1.953   1.746
12726TIP3    H138121   6.522   2.007   1.686
12726TIP3    H238122   6.659   1.945   1.704
12727TIP3   OH238123   4.751   3.294   2.751
12727TIP3    H138124   4.795   3.350   2.815
12727TIP3    H238125   4.711   3.355   2.689
12728TIP3   OH238126   6.788   6.842   4.149
12728TIP3    H138127   6.737   6.766   4.119
12728TIP3    H238128   6.723   6.911   4.161
12729TIP3   OH238129   3.768   5.020   4.344
12729TIP3    H138130   3.839   5.083   4.330
12729TIP3    H238131   3.708   5.064   4.404
12730TIP3   OH238132   2.174   4.060   4.202
12730TIP3    H138133   2.147   4.152   4.206
12730TIP3    H238134   2.242   4.053   4.270
12731TIP3   OH238135   3.397   4.569   2.840
12731TIP3    H138136   3.466   4.534   2.783
12731TIP3    H238137   3.323   4.584   2.781
12732TIP3   OH238138   0.334   7.542   0.585
12732TIP3    H138139   0.394   7.468   0.576
12732TIP3    H238140   0.248   7.506   0.563
12733TIP3   OH238141   1.519   5.178   1.504
12733TIP3    H138142   1.512   5.087   1.533
12733TIP3    H238143   1.560   5.223   1.577
12734TIP3   OH238144   1.272   6.530   1.130
12734TIP3    H138145   1.310   6.617   1.142
12734TIP3    H238146   1.345   6.475   1.103
12735TIP3   OH238147   4.794   6.957   4.401
12735TIP3    H138148   4.700   6.942   4.411
12735TIP3    H238149   4.803   6.996   4.314
12736TIP3   OH238150   5.963   1.205   6.334
12736TIP3    H138151   5.934   1.128   6.384
12736TIP3    H238152   5.966   1.175   6.244
12737TIP3   OH238153   1.056   3.067   5.584
12737TIP3    H138154   1.132   3.058   5.526
12737TIP3    H238155   1.062   2.992   5.644
12738TIP3   OH238156   2.065   4.943   3.835
12738TIP3    H138157   2.132   4.972   3.773
12738TIP3    H238158   1.982   4.965   3.792
12739TIP3   OH238159   3.022   7.313   5.410
12739TIP3    H138160   3.016   7.408   5.400
12739TIP3    H238161   3.028   7.299   5.505
12740TIP3   OH238162   3.268   2.254   6.032
12740TIP3    H138163   3.296   2.346   6.033
12740TIP3    H238164   3.297   2.221   5.947
12741TIP3   OH238165   0.070   6.880   2.329
12741TIP3    H138166   0.113   6.804   2.368
12741TIP3    H238167  -0.021   6.873   2.357
12742TIP3   OH238168   2.195   7.472   0.850
12742TIP3    H138169   2.255   7.539   0.817
12742TIP3    H238170   2.219   7.392   0.801
12743TIP3   OH238171   5.919   7.669   4.941
12743TIP3    H138172   5.955   7.757   4.929
12743TIP3    H238173   5.988   7.622   4.988
12744TIP3   OH238174   1.083   0.471   1.752
12744TIP3    H138175   1.113   0.513   1.672
12744TIP3    H238176   1.097   0.537   1.820
12745TIP3   OH238177   6.419   1.041   5.476
12745TIP3    H138178   6.477   1.115   5.490
12745TIP3    H238179   6.391   1.049   5.385
12746TIP3   OH238180   7.495   7.116   4.981
12746TIP3    H138181   7.519   7.182   5.045
12746TIP3    H238182   7.462   7.043   5.033
12747TIP3   OH238183   4.589   3.222   0.654
12747TIP3    H138184   4.586   3.193   0.563
12747TIP3    H238185   4.675   3.262   0.664
12748TIP3   OH238186   4.977   1.579   1.416
12748TIP3    H138187   4.922   1.561   1.492
12748TIP3    H238188   4.997   1.494   1.379
12749TIP3   OH238189   7.483   5.621   2.830
12749TIP3    H138190   7.535   5.686   2.878
12749TIP3    H238191   7.530   5.539   2.845
12750TIP3   OH238192   5.306   0.336   6.732
12750TIP3    H138193   5.276   0.246   6.719
12750TIP3    H238194   5.388   0.341   6.683
12751TIP3   OH238195   0.556   2.285   1.685
12751TIP3    H138196   0.623   2.231   1.726
12751TIP3    H238197   0.478   2.230   1.685
12752TIP3   OH238198   1.358   4.212   5.116
12752TIP3    H138199   1.288   4.158   5.078
12752TIP3    H238200   1.332   4.302   5.097
12753TIP3   OH238201   3.816   5.846   2.848
12753TIP3    H138202   3.844   5.807   2.765
12753TIP3    H238203   3.830   5.940   2.836
12754TIP3   OH238204   6.735   4.760   6.528
12754TIP3    H138205   6.799   4.699   6.564
12754TIP3    H238206   6.703   4.717   6.448
12755TIP3   OH238207   8.337   0.072   6.403
12755TIP3    H138208   8.290  -0.011   6.397
12755TIP3    H238209   8.271   0.139   6.386
12756TIP3   OH238210   0.138   3.109   0.356
12756TIP3    H138211   0.220   3.065   0.373
12756TIP3    H238212   0.152   3.199   0.386
12757TIP3   OH238213   4.852   0.307   0.942
12757TIP3    H138214   4.786   0.347   0.886
12757TIP3    H238215   4.845   0.213   0.923
12758TIP3   OH238216   3.554   4.461   3.742
12758TIP3    H138217   3.624   4.445   3.805
12758TIP3    H238218   3.556   4.556   3.727
12759TIP3   OH238219   2.311   3.057   0.023
12759TIP3    H138220   2.297   3.152   0.028
12759TIP3    H238221   2.236   3.020   0.069
12760TIP3   OH238222   1.391   3.048   1.902
12760TIP3    H138223   1.375   2.957   1.876
12760TIP3    H238224   1.421   3.041   1.993
12761TIP3   OH238225   0.691   5.100   4.815
12761TIP3    H138226   0.689   5.155   4.736
12761TIP3    H238227   0.754   5.031   4.795
12762TIP3   OH238228   1.381   5.765   1.788
12762TIP3    H138229   1.310   5.727   1.840
12762TIP3    H238230   1.445   5.695   1.780
12763TIP3   OH238231   6.849   4.777   3.903
12763TIP3    H138232   6.913   4.755   3.835
12763TIP3    H238233   6.792   4.842   3.862
12764TIP3   OH238234   3.109   0.201   1.323
12764TIP3    H138235   3.200   0.189   1.350
12764TIP3    H238236   3.061   0.134   1.370
12765TIP3   OH238237   8.022   2.794   1.193
12765TIP3    H138238   7.942   2.810   1.143
12765TIP3    H238239   8.027   2.698   1.199
12766TIP3   OH238240   0.521   0.450   3.252
12766TIP3    H138241   0.501   0.362   3.220
12766TIP3    H238242   0.533   0.502   3.172
12767TIP3   OH238243   1.293   0.633   3.874
12767TIP3    H138244   1.291   0.604   3.783
12767TIP3    H238245   1.326   0.722   3.871
12768TIP3   OH238246   3.224   5.157   6.142
12768TIP3    H138247   3.206   5.063   6.143
12768TIP3    H238248   3.298   5.167   6.202
12769TIP3   OH238249   3.960   6.386   5.695
12769TIP3    H138250   3.968   6.369   5.602
12769TIP3    H238251   4.004   6.312   5.737
12770TIP3   OH238252   0.914   3.455   5.486
12770TIP3    H138253   0.998   3.418   5.513
12770TIP3    H238254   0.887   3.511   5.559
12771TIP3   OH238255   4.999   2.535   6.733
12771TIP3    H138256   4.939   2.479   6.684
12771TIP3    H238257   4.947   2.613   6.752
12772TIP3   OH238258   7.249   2.205   0.821
12772TIP3    H138259   7.156   2.208   0.798
12772TIP3    H238260   7.290   2.153   0.752
12773TIP3   OH238261   6.751   2.971   6.214
12773TIP3    H138262   6.792   2.884   6.208
12773TIP3    H238263   6.825   3.032   6.207
12774TIP3   OH238264   2.452   3.332   1.900
12774TIP3    H138265   2.531   3.279   1.886
12774TIP3    H238266   2.419   3.304   1.985
12775TIP3   OH238267   3.046   4.904   4.495
12775TIP3    H138268   2.975   4.854   4.455
12775TIP3    H238269   3.122   4.888   4.439
12776TIP3   OH238270   4.564   4.271   3.338
12776TIP3    H138271   4.577   4.180   3.312
12776TIP3    H238272   4.643   4.294   3.387
12777TIP3   OH238273   6.338   2.598   3.333
12777TIP3    H138274   6.362   2.691   3.336
12777TIP3    H238275   6.422   2.552   3.335
12778TIP3   OH238276   2.639   2.332   4.700
12778TIP3    H138277   2.688   2.315   4.620
12778TIP3    H238278   2.591   2.413   4.682
12779TIP3   OH238279   6.250   0.443   6.196
12779TIP3    H138280   6.201   0.510   6.149
12779TIP3    H238281   6.215   0.444   6.285
12780TIP3   OH238282   2.152   7.097   2.863
12780TIP3    H138283   2.128   7.012   2.902
12780TIP3    H238284   2.070   7.147   2.863
12781TIP3   OH238285   4.447   1.873   5.881
12781TIP3    H138286   4.395   1.793   5.883
12781TIP3    H238287   4.537   1.842   5.866
12782TIP3   OH238288   1.452   5.502   4.201
12782TIP3    H138289   1.445   5.527   4.293
12782TIP3    H238290   1.538   5.536   4.174
12783TIP3   OH238291   1.552   7.010   6.734
12783TIP3    H138292   1.631   6.999   6.787
12783TIP3    H238293   1.582   7.058   6.657
12784TIP3   OH238294   2.371   6.980   5.455
12784TIP3    H138295   2.293   6.927   5.438
12784TIP3    H238296   2.422   6.928   5.517
12785TIP3   OH238297   0.915   4.681   0.283
12785TIP3    H138298   1.006   4.695   0.256
12785TIP3    H238299   0.863   4.727   0.218
12786TIP3   OH238300   2.525   6.008   1.919
12786TIP3    H138301   2.493   6.097   1.903
12786TIP3    H238302   2.599   6.019   1.979
12787TIP3   OH238303   2.547   4.377   6.201
12787TIP3    H138304   2.504   4.303   6.244
12787TIP3    H238305   2.495   4.453   6.227
12788TIP3   OH238306   0.096   3.485   0.073
12788TIP3    H138307   0.099   3.390   0.087
12788TIP3    H238308   0.029   3.516   0.134
12789TIP3   OH238309   4.590   2.896   3.668
12789TIP3    H138310   4.597   2.987   3.638
12789TIP3    H238311   4.678   2.860   3.658
12790TIP3   OH238312   5.371   6.275   3.691
12790TIP3    H138313   5.459   6.240   3.675
12790TIP3    H238314   5.373   6.305   3.782
12791TIP3   OH238315   6.354   4.131   3.566
12791TIP3    H138316   6.338   4.052   3.618
12791TIP3    H238317   6.340   4.203   3.628
12792TIP3   OH238318   2.109   3.795   3.297
12792TIP3    H138319   2.179   3.731   3.306
12792TIP3    H238320   2.112   3.821   3.205
12793TIP3   OH238321   7.872   1.526   6.411
12793TIP3    H138322   7.864   1.598   6.347
12793TIP3    H238323   7.956   1.485   6.389
12794TIP3   OH238324   6.888   2.737   6.143
12794TIP3    H138325   6.975   2.744   6.105
12794TIP3    H238326   6.831   2.720   6.068
12795TIP3   OH238327   7.623   7.501   2.344
12795TIP3    H138328   7.645   7.562   2.274
12795TIP3    H238329   7.706   7.488   2.390
12796TIP3   OH238330   4.702   2.181   2.374
12796TIP3    H138331   4.683   2.144   2.287
12796TIP3    H238332   4.795   2.203   2.370
12797TIP3   OH238333   7.099   0.006   5.893
12797TIP3    H138334   7.042  -0.061   5.857
12797TIP3    H238335   7.068   0.018   5.983
12798TIP3   OH238336   3.031   2.183   5.410
12798TIP3    H138337   3.126   2.179   5.395
12798TIP3    H238338   3.013   2.275   5.427
12799TIP3   OH238339   2.724   5.780   0.568
12799TIP3    H138340   2.750   5.711   0.508
12799TIP3    H238341   2.686   5.734   0.643
12800TIP3   OH238342   6.309   6.753   5.080
12800TIP3    H138343   6.381   6.791   5.130
12800TIP3    H238344   6.314   6.659   5.098
12801TIP3   OH238345   0.577   5.134   5.860
12801TIP3    H138346   0.665   5.126   5.824
12801TIP3    H238347   0.542   5.215   5.823
12802TIP3   OH238348   0.924   7.234   4.869
12802TIP3    H138349   0.852   7.176   4.895
12802TIP3    H238350   0.947   7.280   4.949
12803TIP3   OH238351   1.833   4.712   5.350
12803TIP3    H138352   1.801   4.767   5.422
12803TIP3    H238353   1.802   4.624   5.373
12804TIP3   OH238354   6.109   6.694   2.788
12804TIP3    H138355   6.034   6.667   2.842
12804TIP3    H238356   6.167   6.740   2.849
12805TIP3   OH238357   0.602   5.651   5.689
12805TIP3    H138358   0.697   5.646   5.699
12805TIP3    H238359   0.589   5.707   5.613
12806TIP3   OH238360   3.178   3.815   5.125
12806TIP3    H138361   3.268   3.794   5.150
12806TIP3    H238362   3.139   3.852   5.204
12807TIP3   OH238363   8.074   0.091   2.648
12807TIP3    H138364   8.134   0.123   2.715
12807TIP3    H238365   8.086   0.150   2.574
12808TIP3   OH238366   2.032   0.226   5.590
12808TIP3    H138367   1.972   0.296   5.617
12808TIP3    H238368   2.117   0.268   5.586
12809TIP3   OH238369   0.986   6.574   0.784
12809TIP3    H138370   0.922   6.641   0.759
12809TIP3    H238371   1.061   6.588   0.726
12810TIP3   OH238372   2.149   2.425   4.118
12810TIP3    H138373   2.066   2.378   4.117
12810TIP3    H238374   2.129   2.506   4.165
12811TIP3   OH238375   0.518   1.087   0.072
12811TIP3    H138376   0.505   1.168   0.023
12811TIP3    H238377   0.448   1.029   0.042
12812TIP3   OH238378   3.940   7.570   6.364
12812TIP3    H138379   3.897   7.595   6.446
12812TIP3    H238380   3.946   7.474   6.369
12813TIP3   OH238381   1.314   3.240   6.478
12813TIP3    H138382   1.330   3.182   6.553
12813TIP3    H238383   1.402   3.261   6.445
12814TIP3   OH238384   7.929   4.577   3.380
12814TIP3    H138385   7.837   4.550   3.381
12814TIP3    H238386   7.948   4.599   3.289
12815TIP3   OH238387   3.384   4.468   6.373
12815TIP3    H138388   3.330   4.477   6.452
12815TIP3    H238389   3.373   4.552   6.327
12816TIP3   OH238390   0.598   1.991   4.983
12816TIP3    H138391   0.556   2.024   4.904
12816TIP3    H238392   0.583   2.060   5.048
12817TIP3   OH238393   6.266   4.846   2.515
12817TIP3    H138394   6.185   4.895   2.528
12817TIP3    H238395   6.269   4.830   2.420
12818TIP3   OH238396   7.131   0.361   1.948
12818TIP3    H138397   7.085   0.390   1.869
12818TIP3    H238398   7.071   0.383   2.020
12819TIP3   OH238399   2.549   7.440   4.769
12819TIP3    H138400   2.618   7.378   4.794
12819TIP3    H238401   2.492   7.389   4.711
12820TIP3   OH238402   7.485   7.214   5.357
12820TIP3    H138403   7.415   7.259   5.309
12820TIP3    H238404   7.451   7.204   5.446
12821TIP3   OH238405   5.796   0.211   3.270
12821TIP3    H138406   5.793   0.117   3.287
12821TIP3    H238407   5.705   0.236   3.256
12822TIP3   OH238408   7.798   2.981   4.548
12822TIP3    H138409   7.814   2.953   4.458
12822TIP3    H238410   7.776   2.900   4.595
12823TIP3   OH238411   0.533   3.525   3.478
12823TIP3    H138412   0.555   3.490   3.392
12823TIP3    H238413   0.613   3.565   3.509
12824TIP3   OH238414   6.216   4.794   3.061
12824TIP3    H138415   6.156   4.725   3.031
12824TIP3    H238416   6.282   4.801   2.993
12825TIP3   OH238417   0.715   0.299   4.291
12825TIP3    H138418   0.748   0.210   4.279
12825TIP3    H238419   0.710   0.336   4.203
12826TIP3   OH238420   7.707   7.734   1.249
12826TIP3    H138421   7.699   7.695   1.336
12826TIP3    H238422   7.742   7.822   1.265
12827TIP3   OH238423   0.957   2.171   4.764
12827TIP3    H138424   0.939   2.199   4.853
12827TIP3    H238425   1.053   2.174   4.757
12828TIP3   OH238426   4.655   2.682   5.291
12828TIP3    H138427   4.636   2.678   5.198
12828TIP3    H238428   4.706   2.603   5.309
12829TIP3   OH238429   5.066   2.413   4.973
12829TIP3    H138430   5.064   2.387   4.880
12829TIP3    H238431   4.974   2.426   4.995
12830TIP3   OH238432   4.251   1.128   5.359
12830TIP3    H138433   4.342   1.151   5.339
12830TIP3    H238434   4.229   1.059   5.296
12831TIP3   OH238435   5.874   1.569   0.273
12831TIP3    H138436   5.883   1.630   0.347
12831TIP3    H238437   5.780   1.557   0.263
12832TIP3   OH238438   8.090   1.334   3.948
12832TIP3    H138439   8.089   1.358   3.855
12832TIP3    H238440   8.180   1.349   3.976
12833TIP3   OH238441   0.618   5.340   0.535
12833TIP3    H138442   0.614   5.345   0.440
12833TIP3    H238443   0.698   5.386   0.559
12834TIP3   OH238444   0.068   7.342   5.889
12834TIP3    H138445   0.072   7.361   5.983
12834TIP3    H238446  -0.024   7.323   5.872
12835TIP3   OH238447   7.072   3.095   5.001
12835TIP3    H138448   7.116   3.036   5.062
12835TIP3    H238449   6.979   3.075   5.012
12836TIP3   OH238450   2.422   4.448   0.144
12836TIP3    H138451   2.420   4.371   0.201
12836TIP3    H238452   2.414   4.412   0.055
12837TIP3   OH238453   7.661   4.777   2.500
12837TIP3    H138454   7.653   4.683   2.515
12837TIP3    H238455   7.753   4.789   2.474
12838TIP3   OH238456   0.980   0.692   5.873
12838TIP3    H138457   0.989   0.749   5.949
12838TIP3    H238458   1.007   0.747   5.799
12839TIP3   OH238459   2.600   1.526   2.539
12839TIP3    H138460   2.652   1.522   2.619
12839TIP3    H238461   2.578   1.619   2.530
12840TIP3   OH238462   7.891   4.766   3.141
12840TIP3    H138463   7.977   4.803   3.161
12840TIP3    H238464   7.887   4.764   3.046
12841TIP3   OH238465   6.073   2.193   0.341
12841TIP3    H138466   6.061   2.130   0.271
12841TIP3    H238467   6.129   2.148   0.405
12842TIP3   OH238468   0.812   2.733   4.910
12842TIP3    H138469   0.756   2.720   4.833
12842TIP3    H238470   0.786   2.819   4.944
12843TIP3   OH238471   0.487   7.779   2.960
12843TIP3    H138472   0.540   7.782   3.040
12843TIP3    H238473   0.471   7.686   2.945
12844TIP3   OH238474   3.286   0.408   2.998
12844TIP3    H138475   3.337   0.365   3.067
12844TIP3    H238476   3.281   0.342   2.928
12845TIP3   OH238477   2.015   6.230   4.751
12845TIP3    H138478   1.955   6.305   4.744
12845TIP3    H238479   1.981   6.179   4.824
12846TIP3   OH238480   6.148   5.360   2.159
12846TIP3    H138481   6.234   5.371   2.200
12846TIP3    H238482   6.115   5.449   2.148
12847TIP3   OH238483   6.080   2.574   6.509
12847TIP3    H138484   6.075   2.656   6.459
12847TIP3    H238485   6.145   2.521   6.462
12848TIP3   OH238486   6.633   5.939   6.299
12848TIP3    H138487   6.589   5.897   6.373
12848TIP3    H238488   6.596   5.897   6.222
12849TIP3   OH238489   5.292   3.025   3.795
12849TIP3    H138490   5.242   3.019   3.877
12849TIP3    H238491   5.383   3.016   3.822
12850TIP3   OH238492   1.342   4.458   0.580
12850TIP3    H138493   1.426   4.463   0.626
12850TIP3    H238494   1.324   4.364   0.574
12851TIP3   OH238495   7.928   2.117   4.618
12851TIP3    H138496   8.018   2.085   4.622
12851TIP3    H238497   7.928   2.178   4.544
12852TIP3   OH238498   0.144   1.001   1.441
12852TIP3    H138499   0.210   0.956   1.493
12852TIP3    H238500   0.133   1.085   1.484
12853TIP3   OH238501   6.247   3.557   0.289
12853TIP3    H138502   6.163   3.568   0.245
12853TIP3    H238503   6.245   3.621   0.361
12854TIP3   OH238504   5.446   0.844   3.201
12854TIP3    H138505   5.483   0.758   3.221
12854TIP3    H238506   5.369   0.825   3.148
12855TIP3   OH238507   0.729   0.779   4.185
12855TIP3    H138508   0.748   0.869   4.209
12855TIP3    H238509   0.770   0.768   4.099
12856TIP3   OH238510   6.133   3.669   5.948
12856TIP3    H138511   6.163   3.745   5.996
12856TIP3    H238512   6.142   3.596   6.009
12857TIP3   OH238513   6.409   6.367   5.899
12857TIP3    H138514   6.454   6.283   5.895
12857TIP3    H238515   6.475   6.431   5.870
12858TIP3   OH238516   4.826   1.991   4.905
12858TIP3    H138517   4.835   1.909   4.855
12858TIP3    H238518   4.898   2.046   4.874
12859TIP3   OH238519   5.635   4.548   3.977
12859TIP3    H138520   5.576   4.593   3.917
12859TIP3    H238521   5.679   4.483   3.923
12860TIP3   OH238522   0.539   5.828   2.519
12860TIP3    H138523   0.539   5.787   2.432
12860TIP3    H238524   0.535   5.755   2.580
12861TIP3   OH238525   5.667   7.790   2.688
12861TIP3    H138526   5.647   7.697   2.685
12861TIP3    H238527   5.621   7.827   2.613
12862TIP3   OH238528   4.789   0.122   3.594
12862TIP3    H138529   4.849   0.097   3.664
12862TIP3    H238530   4.845   0.134   3.517
12863TIP3   OH238531   2.230   2.342   0.096
12863TIP3    H138532   2.274   2.282   0.036
12863TIP3    H238533   2.237   2.428   0.054
12864TIP3   OH238534   7.122   5.323   1.041
12864TIP3    H138535   7.141   5.339   1.134
12864TIP3    H238536   7.028   5.340   1.034
12865TIP3   OH238537   1.396   1.204   3.331
12865TIP3    H138538   1.421   1.231   3.419
12865TIP3    H238539   1.346   1.124   3.343
12866TIP3   OH238540   5.744   4.307   1.922
12866TIP3    H138541   5.662   4.320   1.874
12866TIP3    H238542   5.719   4.317   2.014
12867TIP3   OH238543   1.312   4.012   1.158
12867TIP3    H138544   1.298   3.918   1.163
12867TIP3    H238545   1.234   4.050   1.197
12868TIP3   OH238546   1.720   5.492   2.993
12868TIP3    H138547   1.638   5.462   3.034
12868TIP3    H238548   1.759   5.412   2.958
12869TIP3   OH238549   2.165   2.652   2.489
12869TIP3    H138550   2.190   2.740   2.517
12869TIP3    H238551   2.243   2.618   2.444
12870TIP3   OH238552   4.672   3.500   2.590
12870TIP3    H138553   4.610   3.565   2.624
12870TIP3    H238554   4.756   3.544   2.592
12871TIP3   OH238555   0.881   1.059   3.609
12871TIP3    H138556   0.818   1.062   3.536
12871TIP3    H238557   0.962   1.092   3.572
12872TIP3   OH238558   2.666   7.146   2.559
12872TIP3    H138559   2.646   7.106   2.474
12872TIP3    H238560   2.666   7.240   2.541
12873TIP3   OH238561   4.223   3.032   0.503
12873TIP3    H138562   4.253   3.121   0.523
12873TIP3    H238563   4.266   3.010   0.420
12874TIP3   OH238564   2.377   7.384   6.493
12874TIP3    H138565   2.408   7.420   6.576
12874TIP3    H238566   2.314   7.316   6.519
12875TIP3   OH238567   8.143   7.723   1.405
12875TIP3    H138568   8.151   7.673   1.324
12875TIP3    H238569   8.122   7.658   1.472
12876TIP3   OH238570   2.213   1.068   5.993
12876TIP3    H138571   2.178   1.157   5.992
12876TIP3    H238572   2.283   1.071   6.058
12877TIP3   OH238573   1.515   0.839   3.191
12877TIP3    H138574   1.433   0.872   3.154
12877TIP3    H238575   1.566   0.812   3.115
12878TIP3   OH238576   2.950   5.690   6.177
12878TIP3    H138577   2.946   5.595   6.164
12878TIP3    H238578   2.907   5.726   6.099
12879TIP3   OH238579   2.381   1.778   1.043
12879TIP3    H138580   2.464   1.769   1.090
12879TIP3    H238581   2.348   1.688   1.036
12880TIP3   OH238582   6.040   2.741   3.346
12880TIP3    H138583   5.988   2.736   3.426
12880TIP3    H238584   6.129   2.761   3.376
12881TIP3   OH238585   5.231   3.708   2.023
12881TIP3    H138586   5.147   3.668   1.999
12881TIP3    H238587   5.218   3.802   2.005
12882TIP3   OH238588   2.203   4.433   6.658
12882TIP3    H138589   2.190   4.418   6.565
12882TIP3    H238590   2.143   4.505   6.679
12883TIP3   OH238591   0.371   3.662   4.303
12883TIP3    H138592   0.420   3.698   4.377
12883TIP3    H238593   0.403   3.709   4.227
12884TIP3   OH238594   4.553   0.346   5.458
12884TIP3    H138595   4.584   0.257   5.440
12884TIP3    H238596   4.577   0.362   5.549
12885TIP3   OH238597   1.082   3.012   4.754
12885TIP3    H138598   1.172   3.042   4.762
12885TIP3    H238599   1.089   2.918   4.735
12886TIP3   OH238600   4.914   2.704   2.753
12886TIP3    H138601   4.955   2.686   2.668
12886TIP3    H238602   4.893   2.798   2.750
12887TIP3   OH238603   2.716   1.692   0.932
12887TIP3    H138604   2.799   1.648   0.912
12887TIP3    H238605   2.741   1.775   0.973
12888TIP3   OH238606   0.992   3.151   4.358
12888TIP3    H138607   0.927   3.118   4.420
12888TIP3    H238608   0.964   3.241   4.339
12889TIP3   OH238609   1.705   4.945   6.643
12889TIP3    H138610   1.765   5.005   6.598
12889TIP3    H238611   1.700   4.979   6.733
12890TIP3   OH238612   5.626   2.637   5.413
12890TIP3    H138613   5.637   2.617   5.320
12890TIP3    H238614   5.591   2.556   5.451
12891TIP3   OH238615   4.449   6.085   0.219
12891TIP3    H138616   4.542   6.094   0.239
12891TIP3    H238617   4.422   6.172   0.191
12892TIP3   OH238618   4.773   1.312   5.273
12892TIP3    H138619   4.786   1.405   5.292
12892TIP3    H238620   4.860   1.273   5.281
12893TIP3   OH238621   5.456   2.240   1.525
12893TIP3    H138622   5.449   2.225   1.619
12893TIP3    H238623   5.410   2.166   1.486
12894TIP3   OH238624   6.252   4.519   5.403
12894TIP3    H138625   6.231   4.429   5.428
12894TIP3    H238626   6.271   4.513   5.309
12895TIP3   OH238627   3.758   1.450   6.201
12895TIP3    H138628   3.721   1.392   6.134
12895TIP3    H238629   3.690   1.514   6.218
12896TIP3   OH238630   3.220   3.277   5.882
12896TIP3    H138631   3.263   3.347   5.931
12896TIP3    H238632   3.287   3.243   5.823
12897TIP3   OH238633   4.103   2.719   1.718
12897TIP3    H138634   4.132   2.674   1.797
12897TIP3    H238635   4.172   2.702   1.654
12898TIP3   OH238636   3.304   7.116   5.975
12898TIP3    H138637   3.240   7.126   5.905
12898TIP3    H238638   3.379   7.073   5.934
12899TIP3   OH238639   1.174   4.304   5.591
12899TIP3    H138640   1.091   4.348   5.610
12899TIP3    H238641   1.154   4.244   5.520
12900TIP3   OH238642   7.367   3.519   4.389
12900TIP3    H138643   7.445   3.464   4.381
12900TIP3    H238644   7.383   3.574   4.465
12901TIP3   OH238645   5.652   6.793   1.619
12901TIP3    H138646   5.722   6.849   1.586
12901TIP3    H238647   5.622   6.745   1.543
12902TIP3   OH238648   5.726   2.914   0.057
12902TIP3    H138649   5.698   2.829   0.091
12902TIP3    H238650   5.657   2.974   0.085
12903TIP3   OH238651   3.581   6.548   3.284
12903TIP3    H138652   3.621   6.603   3.218
12903TIP3    H238653   3.487   6.564   3.277
12904TIP3   OH238654   5.415   5.233   4.866
12904TIP3    H138655   5.464   5.309   4.898
12904TIP3    H238656   5.380   5.260   4.782
12905TIP3   OH238657   0.155   2.223   0.095
12905TIP3    H138658   0.127   2.158   0.030
12905TIP3    H238659   0.073   2.254   0.134
12906TIP3   OH238660   4.428   1.000   1.046
12906TIP3    H138661   4.353   0.993   1.106
12906TIP3    H238662   4.433   1.094   1.026
12907TIP3   OH238663   7.459   4.824   3.630
12907TIP3    H138664   7.488   4.888   3.565
12907TIP3    H238665   7.408   4.874   3.692
12908TIP3   OH238666   1.870   5.470   6.646
12908TIP3    H138667   1.829   5.555   6.657
12908TIP3    H238668   1.902   5.470   6.556
12909TIP3   OH238669   7.693   5.843   5.351
12909TIP3    H138670   7.601   5.861   5.368
12909TIP3    H238671   7.712   5.765   5.404
12910TIP3   OH238672   2.381   5.339   1.260
12910TIP3    H138673   2.287   5.357   1.264
12910TIP3    H238674   2.422   5.425   1.270
12911TIP3   OH238675   0.515   0.659   5.948
12911TIP3    H138676   0.570   0.724   5.903
12911TIP3    H238677   0.556   0.649   6.034
12912TIP3   OH238678   7.968   6.999   3.192
12912TIP3    H138679   7.932   6.911   3.188
12912TIP3    H238680   8.024   6.999   3.270
12913TIP3   OH238681   1.126   1.476   1.946
12913TIP3    H138682   1.074   1.556   1.959
12913TIP3    H238683   1.064   1.405   1.960
12914TIP3   OH238684   0.798   0.078   5.010
12914TIP3    H138685   0.719   0.085   4.956
12914TIP3    H238686   0.855   0.018   4.961
12915TIP3   OH238687   0.501   5.650   2.712
12915TIP3    H138688   0.565   5.642   2.784
12915TIP3    H238689   0.481   5.560   2.689
12916TIP3   OH238690   7.687   6.065   3.349
12916TIP3    H138691   7.679   5.988   3.293
12916TIP3    H238692   7.780   6.068   3.373
12917TIP3   OH238693   5.681   2.010   6.622
12917TIP3    H138694   5.630   2.048   6.694
12917TIP3    H238695   5.620   1.950   6.578
12918TIP3   OH238696   5.780   3.725   0.259
12918TIP3    H138697   5.715   3.719   0.189
12918TIP3    H238698   5.834   3.647   0.249
12919TIP3   OH238699   3.434   2.512   3.311
12919TIP3    H138700   3.413   2.605   3.321
12919TIP3    H238701   3.487   2.491   3.388
12920TIP3   OH238702   8.089   6.017   3.601
12920TIP3    H138703   8.020   6.016   3.668
12920TIP3    H238704   8.160   6.068   3.639
12921TIP3   OH238705   7.890   0.255   0.721
12921TIP3    H138706   7.940   0.332   0.694
12921TIP3    H238707   7.885   0.261   0.816
12922TIP3   OH238708   0.513   7.148   0.749
12922TIP3    H138709   0.584   7.211   0.759
12922TIP3    H238710   0.449   7.192   0.693
12923TIP3   OH238711   6.011   5.376   6.396
12923TIP3    H138712   6.106   5.369   6.405
12923TIP3    H238713   5.998   5.430   6.317
12924TIP3   OH238714   6.241   7.188   3.183
12924TIP3    H138715   6.240   7.109   3.236
12924TIP3    H238716   6.163   7.237   3.211
12925TIP3   OH238717   4.106   0.154   5.797
12925TIP3    H138718   4.182   0.163   5.855
12925TIP3    H238719   4.076   0.064   5.810
12926TIP3   OH238720   1.493   6.741   6.706
12926TIP3    H138721   1.573   6.707   6.667
12926TIP3    H238722   1.519   6.821   6.750
12927TIP3   OH238723   2.660   3.132   0.162
12927TIP3    H138724   2.741   3.168   0.198
12927TIP3    H238725   2.609   3.106   0.238
12928TIP3   OH238726   8.242   4.764   3.357
12928TIP3    H138727   8.241   4.846   3.308
12928TIP3    H238728   8.236   4.696   3.289
12929TIP3   OH238729   5.375   0.880   0.114
12929TIP3    H138730   5.317   0.934   0.059
12929TIP3    H238731   5.365   0.792   0.078
12930TIP3   OH238732   2.759   0.785   5.032
12930TIP3    H138733   2.806   0.864   5.004
12930TIP3    H238734   2.770   0.784   5.127
12931TIP3   OH238735   5.849   6.423   0.742
12931TIP3    H138736   5.914   6.479   0.699
12931TIP3    H238737   5.765   6.465   0.722
12932TIP3   OH238738   7.334   1.005   3.161
12932TIP3    H138739   7.318   0.993   3.068
12932TIP3    H238740   7.401   0.940   3.183
12933TIP3   OH238741   1.395   5.849   1.518
12933TIP3    H138742   1.409   5.799   1.599
12933TIP3    H238743   1.327   5.912   1.540
12934TIP3   OH238744   5.103   7.771   2.832
12934TIP3    H138745   5.151   7.813   2.761
12934TIP3    H238746   5.134   7.680   2.831
12935TIP3   OH238747   7.501   7.677   1.085
12935TIP3    H138748   7.437   7.638   1.144
12935TIP3    H238749   7.571   7.709   1.142
12936TIP3   OH238750   2.508   4.068   5.384
12936TIP3    H138751   2.476   4.132   5.320
12936TIP3    H238752   2.573   4.116   5.435
12937TIP3   OH238753  -0.026   2.902   3.685
12937TIP3    H138754  -0.061   2.925   3.599
12937TIP3    H238755   0.067   2.886   3.669
12938TIP3   OH238756   6.155   0.485   2.911
12938TIP3    H138757   6.189   0.574   2.923
12938TIP3    H238758   6.153   0.449   3.000
12939TIP3   OH238759   0.193   7.671   1.240
12939TIP3    H138760   0.118   7.632   1.194
12939TIP3    H238761   0.209   7.613   1.314
12940TIP3   OH238762   7.642   5.451   4.902
12940TIP3    H138763   7.663   5.474   4.811
12940TIP3    H238764   7.547   5.437   4.901
12941TIP3   OH238765   2.754   3.717   1.482
12941TIP3    H138766   2.701   3.795   1.470
12941TIP3    H238767   2.780   3.691   1.393
12942TIP3   OH238768   1.544   6.035   0.980
12942TIP3    H138769   1.469   6.044   1.039
12942TIP3    H238770   1.621   6.039   1.037
12943TIP3   OH238771   1.775   7.414   3.874
12943TIP3    H138772   1.841   7.390   3.940
12943TIP3    H238773   1.811   7.381   3.792
12944TIP3   OH238774   7.408   0.047   5.230
12944TIP3    H138775   7.385   0.093   5.311
12944TIP3    H238776   7.447   0.114   5.175
12945TIP3   OH238777   2.843   0.760   2.163
12945TIP3    H138778   2.930   0.724   2.176
12945TIP3    H238779   2.853   0.822   2.092
12946TIP3   OH238780   5.194   7.074   2.069
12946TIP3    H138781   5.215   7.043   1.981
12946TIP3    H238782   5.185   6.994   2.121
12947TIP3   OH238783   1.160   1.101   4.006
12947TIP3    H138784   1.195   1.176   3.958
12947TIP3    H238785   1.077   1.132   4.041
12948TIP3   OH238786   3.100   2.050   3.950
12948TIP3    H138787   3.087   2.133   3.995
12948TIP3    H238788   3.086   2.070   3.857
12949TIP3   OH238789   2.230   7.258   5.641
12949TIP3    H138790   2.170   7.321   5.681
12949TIP3    H238791   2.187   7.174   5.653
12950TIP3   OH238792   5.074   2.238   6.614
12950TIP3    H138793   5.052   2.316   6.563
12950TIP3    H238794   5.011   2.172   6.586
12951TIP3   OH238795   2.493   0.810   2.702
12951TIP3    H138796   2.523   0.824   2.792
12951TIP3    H238797   2.502   0.895   2.660
12952TIP3   OH238798   6.579   6.202   3.063
12952TIP3    H138799   6.514   6.156   3.009
12952TIP3    H238800   6.563   6.170   3.152
12953TIP3   OH238801   7.230   5.669   3.405
12953TIP3    H138802   7.140   5.672   3.437
12953TIP3    H238803   7.260   5.581   3.428
12954TIP3   OH238804   1.770   3.985   6.724
12954TIP3    H138805   1.818   4.028   6.795
12954TIP3    H238806   1.746   3.899   6.760
12955TIP3   OH238807   5.669   5.203   2.477
12955TIP3    H138808   5.732   5.138   2.444
12955TIP3    H238809   5.679   5.200   2.572
12956TIP3   OH238810   6.605   0.378   5.652
12956TIP3    H138811   6.688   0.403   5.692
12956TIP3    H238812   6.539   0.426   5.702
12957TIP3   OH238813   2.229   1.639   1.904
12957TIP3    H138814   2.187   1.593   1.976
12957TIP3    H238815   2.176   1.619   1.827
12958TIP3   OH238816   7.984   0.959   0.077
12958TIP3    H138817   7.892   0.980   0.090
12958TIP3    H238818   8.030   1.041   0.093
12959TIP3   OH238819   7.571   2.974   5.932
12959TIP3    H138820   7.503   3.042   5.931
12959TIP3    H238821   7.529   2.897   5.894
12960TIP3   OH238822   7.473   4.345   0.440
12960TIP3    H138823   7.534   4.393   0.496
12960TIP3    H238824   7.520   4.265   0.416
12961TIP3   OH238825   7.695   7.276   0.897
12961TIP3    H138826   7.751   7.238   0.964
12961TIP3    H238827   7.615   7.300   0.943
12962TIP3   OH238828   2.066   3.572   0.039
12962TIP3    H138829   2.047   3.546   0.129
12962TIP3    H238830   2.111   3.656   0.048
12963TIP3   OH238831   6.467   4.849   5.517
12963TIP3    H138832   6.515   4.776   5.557
12963TIP3    H238833   6.381   4.812   5.497
12964TIP3   OH238834   2.626   2.872   2.180
12964TIP3    H138835   2.697   2.872   2.244
12964TIP3    H238836   2.617   2.964   2.154
12965TIP3   OH238837   3.042   6.559   3.984
12965TIP3    H138838   2.991   6.608   4.049
12965TIP3    H238839   3.074   6.482   4.031
12966TIP3   OH238840   7.083   6.996   0.402
12966TIP3    H138841   7.001   7.045   0.407
12966TIP3    H238842   7.131   7.022   0.480
12967TIP3   OH238843   0.692   0.737   3.286
12967TIP3    H138844   0.773   0.782   3.263
12967TIP3    H238845   0.659   0.703   3.203
12968TIP3   OH238846   3.561   5.746   2.896
12968TIP3    H138847   3.578   5.652   2.902
12968TIP3    H238848   3.648   5.787   2.896
12969TIP3   OH238849   2.120   4.653   0.777
12969TIP3    H138850   2.148   4.688   0.692
12969TIP3    H238851   2.092   4.563   0.757
12970TIP3   OH238852   0.272   7.082   0.602
12970TIP3    H138853   0.295   7.109   0.513
12970TIP3    H238854   0.219   7.153   0.637
12971TIP3   OH238855   4.086   7.019   5.498
12971TIP3    H138856   4.095   6.998   5.591
12971TIP3    H238857   4.175   7.015   5.463
12972TIP3   OH238858   3.768   0.139   3.179
12972TIP3    H138859   3.681   0.179   3.178
12972TIP3    H238860   3.820   0.193   3.119
12973TIP3   OH238861   3.092   2.899   0.672
12973TIP3    H138862   3.002   2.868   0.685
12973TIP3    H238863   3.081   2.981   0.625
12974TIP3   OH238864   4.390   3.975   1.296
12974TIP3    H138865   4.449   4.019   1.235
12974TIP3    H238866   4.436   3.894   1.321
12975TIP3   OH238867   5.360   0.840   4.273
12975TIP3    H138868   5.329   0.756   4.306
12975TIP3    H238869   5.454   0.827   4.259
12976TIP3   OH238870   5.554   3.509   1.142
12976TIP3    H138871   5.495   3.458   1.197
12976TIP3    H238872   5.637   3.511   1.190
12977TIP3   OH238873   1.665   2.961   4.191
12977TIP3    H138874   1.678   2.902   4.116
12977TIP3    H238875   1.574   2.947   4.217
12978TIP3   OH238876   4.875   1.184   0.947
12978TIP3    H138877   4.847   1.209   0.859
12978TIP3    H238878   4.962   1.222   0.957
12979TIP3   OH238879   3.762   4.783   1.557
12979TIP3    H138880   3.856   4.797   1.569
12979TIP3    H238881   3.721   4.861   1.592
12980TIP3   OH238882   5.921   2.367   6.383
12980TIP3    H138883   5.891   2.447   6.340
12980TIP3    H238884   6.016   2.378   6.390
12981TIP3   OH238885   1.312   1.217   1.466
12981TIP3    H138886   1.354   1.142   1.509
12981TIP3    H238887   1.244   1.246   1.527
12982TIP3   OH238888   0.030   1.776   6.603
12982TIP3    H138889   0.082   1.855   6.596
12982TIP3    H238890   0.093   1.705   6.592
12983TIP3   OH238891   4.112   0.420   6.233
12983TIP3    H138892   4.068   0.357   6.176
12983TIP3    H238893   4.156   0.367   6.299
12984TIP3   OH238894   3.630   4.642   4.419
12984TIP3    H138895   3.658   4.720   4.468
12984TIP3    H238896   3.647   4.664   4.328
12985TIP3   OH238897   6.372   4.117   6.117
12985TIP3    H138898   6.400   4.171   6.190
12985TIP3    H238899   6.443   4.125   6.053
12986TIP3   OH238900   0.349   0.591   2.895
12986TIP3    H138901   0.278   0.629   2.946
12986TIP3    H238902   0.310   0.512   2.856
12987TIP3   OH238903   5.212   7.500   1.436
12987TIP3    H138904   5.184   7.419   1.394
12987TIP3    H238905   5.133   7.533   1.478
12988TIP3   OH238906   2.767   5.048   0.956
12988TIP3    H138907   2.808   4.968   0.991
12988TIP3    H238908   2.716   5.082   1.029
12989TIP3   OH238909   1.464   4.532   6.121
12989TIP3    H138910   1.399   4.576   6.175
12989TIP3    H238911   1.444   4.558   6.032
12990TIP3   OH238912   5.476   3.246   4.991
12990TIP3    H138913   5.422   3.308   4.943
12990TIP3    H238914   5.534   3.208   4.925
12991TIP3   OH238915   5.537   6.469   1.685
12991TIP3    H138916   5.479   6.538   1.654
12991TIP3    H238917   5.594   6.511   1.748
12992TIP3   OH238918   2.237   1.889   0.409
12992TIP3    H138919   2.206   1.975   0.438
12992TIP3    H238920   2.212   1.884   0.316
12993TIP3   OH238921   7.163   3.473   2.462
12993TIP3    H138922   7.141   3.560   2.495
12993TIP3    H238923   7.079   3.427   2.456
12994TIP3   OH238924   5.087   1.635   4.669
12994TIP3    H138925   5.030   1.584   4.611
12994TIP3    H238926   5.100   1.578   4.745
12995TIP3   OH238927   7.554   6.583   2.920
12995TIP3    H138928   7.499   6.582   2.999
12995TIP3    H238929   7.511   6.646   2.862
12996TIP3   OH238930   0.813   1.790   0.655
12996TIP3    H138931   0.796   1.747   0.739
12996TIP3    H238932   0.770   1.734   0.590
12997TIP3   OH238933   3.952   3.226   2.127
12997TIP3    H138934   4.036   3.231   2.082
12997TIP3    H238935   3.895   3.178   2.066
12998TIP3   OH238936   8.022   0.061   6.438
12998TIP3    H138937   8.074  -0.018   6.427
12998TIP3    H238938   7.980   0.075   6.353
12999TIP3   OH238939   0.452   3.867   0.910
12999TIP3    H138940   0.418   3.926   0.842
12999TIP3    H238941   0.451   3.919   0.990
13000TIP3   OH238942   3.643   4.388   0.735
13000TIP3    H138943   3.621   4.321   0.799
13000TIP3    H238944   3.621   4.471   0.777
13001TIP3   OH238945   0.182   4.535   2.122
13001TIP3    H138946   0.220   4.447   2.129
13001TIP3    H238947   0.219   4.570   2.041
13002TIP3   OH238948   4.719   6.614   4.229
13002TIP3    H138949   4.753   6.530   4.197
13002TIP3    H238950   4.768   6.631   4.309
13003TIP3   OH238951   6.434   6.931   1.546
13003TIP3    H138952   6.484   6.920   1.627
13003TIP3    H238953   6.367   6.995   1.569
13004TIP3   OH238954   3.863   1.629   5.994
13004TIP3    H138955   3.776   1.670   6.001
13004TIP3    H238956   3.858   1.552   6.050
13005TIP3   OH238957   8.277   7.015   4.351
13005TIP3    H138958   8.193   6.985   4.385
13005TIP3    H238959   8.334   6.938   4.354
13006TIP3   OH238960   0.916   2.849   5.772
13006TIP3    H138961   0.915   2.803   5.856
13006TIP3    H238962   0.862   2.927   5.787
13007TIP3   OH238963   4.402   7.470   4.708
13007TIP3    H138964   4.386   7.377   4.689
13007TIP3    H238965   4.437   7.470   4.797
13008TIP3   OH238966   2.293   2.191   2.663
13008TIP3    H138967   2.288   2.240   2.581
13008TIP3    H238968   2.352   2.118   2.644
13009TIP3   OH238969   6.124   5.431   5.458
13009TIP3    H138970   6.205   5.391   5.490
13009TIP3    H238971   6.095   5.487   5.529
13010TIP3   OH238972   4.429   6.098   6.308
13010TIP3    H138973   4.346   6.140   6.287
13010TIP3    H238974   4.416   6.005   6.288
13011TIP3   OH238975   6.107   1.761   0.241
13011TIP3    H138976   6.044   1.734   0.309
13011TIP3    H238977   6.181   1.797   0.290
13012TIP3   OH238978   3.172   3.883   0.128
13012TIP3    H138979   3.091   3.933   0.140
13012TIP3    H238980   3.239   3.949   0.114
13013TIP3   OH238981   3.679   3.922   1.780
13013TIP3    H138982   3.732   3.998   1.754
13013TIP3    H238983   3.651   3.883   1.697
13014TIP3   OH238984   2.655   2.971   1.191
13014TIP3    H138985   2.646   2.949   1.284
13014TIP3    H238986   2.749   2.977   1.176
13015TIP3   OH238987   6.225   6.752   6.259
13015TIP3    H138988   6.286   6.681   6.240
13015TIP3    H238989   6.162   6.714   6.321
13016TIP3   OH238990   6.484   1.311   2.832
13016TIP3    H138991   6.477   1.405   2.847
13016TIP3    H238992   6.409   1.274   2.879
13017TIP3   OH238993   0.804   2.530   3.694
13017TIP3    H138994   0.829   2.601   3.753
13017TIP3    H238995   0.793   2.454   3.752
13018TIP3   OH238996   4.440   6.835   5.585
13018TIP3    H138997   4.355   6.796   5.565
13018TIP3    H238998   4.419   6.914   5.634
13019TIP3   OH238999   7.240   7.158   0.606
13019TIP3    H139000   7.167   7.206   0.565
13019TIP3    H239001   7.202   7.119   0.684
13020TIP3   OH239002   6.775   0.280   5.110
13020TIP3    H139003   6.822   0.208   5.069
13020TIP3    H239004   6.746   0.244   5.194
13021TIP3   OH239005   3.719   7.112   0.065
13021TIP3    H139006   3.657   7.123   0.137
13021TIP3    H239007   3.700   7.185   0.006
13022TIP3   OH239008   4.534   0.744   1.697
13022TIP3    H139009   4.443   0.771   1.713
13022TIP3    H239010   4.532   0.649   1.702
13023TIP3   OH239011   4.126   6.966   1.193
13023TIP3    H139012   4.217   6.990   1.181
13023TIP3    H239013   4.129   6.883   1.241
13024TIP3   OH239014   6.767   1.458   2.434
13024TIP3    H139015   6.849   1.436   2.391
13024TIP3    H239016   6.704   1.395   2.399
13025TIP3   OH239017   3.433   5.943   3.024
13025TIP3    H139018   3.441   5.922   3.117
13025TIP3    H239019   3.491   5.881   2.980
13026TIP3   OH239020   4.710   1.659   1.977
13026TIP3    H139021   4.721   1.708   1.895
13026TIP3    H239022   4.765   1.581   1.966
13027TIP3   OH239023   4.426   0.666  -0.005
13027TIP3    H139024   4.481   0.588  -0.018
13027TIP3    H239025   4.346   0.632   0.035
13028TIP3   OH239026   3.303   5.645   1.472
13028TIP3    H139027   3.263   5.673   1.390
13028TIP3    H239028   3.231   5.638   1.533
13029TIP3   OH239029   4.455   4.793   3.643
13029TIP3    H139030   4.520   4.858   3.617
13029TIP3    H239031   4.377   4.817   3.593
13030TIP3   OH239032   3.108   4.259   5.482
13030TIP3    H139033   3.045   4.276   5.552
13030TIP3    H239034   3.152   4.178   5.508
13031TIP3   OH239035   1.785   2.798   2.843
13031TIP3    H139036   1.760   2.730   2.780
13031TIP3    H239037   1.831   2.750   2.912
13032TIP3   OH239038   3.708   4.499   6.090
13032TIP3    H139039   3.676   4.435   6.155
13032TIP3    H239040   3.754   4.445   6.025
13033TIP3   OH239041   7.580   4.102   5.111
13033TIP3    H139042   7.530   4.107   5.030
13033TIP3    H239043   7.543   4.026   5.157
13034TIP3   OH239044   8.080   5.367   2.069
13034TIP3    H139045   7.997   5.415   2.071
13034TIP3    H239046   8.062   5.288   2.120
13035TIP3   OH239047   3.642   3.088   1.739
13035TIP3    H139048   3.636   3.089   1.834
13035TIP3    H239049   3.734   3.067   1.720
13036TIP3   OH239050   0.783   7.276   3.340
13036TIP3    H139051   0.801   7.182   3.348
13036TIP3    H239052   0.863   7.318   3.372
13037TIP3   OH239053   3.269   0.493   5.247
13037TIP3    H139054   3.278   0.424   5.313
13037TIP3    H239055   3.179   0.524   5.257
13038TIP3   OH239056   7.286   3.482   1.631
13038TIP3    H139057   7.373   3.443   1.642
13038TIP3    H239058   7.301   3.576   1.639
13039TIP3   OH239059   6.813   4.751   5.274
13039TIP3    H139060   6.806   4.832   5.325
13039TIP3    H239061   6.780   4.683   5.332
13040TIP3   OH239062   2.591   1.409   3.225
13040TIP3    H139063   2.675   1.397   3.270
13040TIP3    H239064   2.526   1.408   3.295
13041TIP3   OH239065   5.754   1.106   5.135
13041TIP3    H139066   5.667   1.147   5.138
13041TIP3    H239067   5.758   1.066   5.048
13042TIP3   OH239068   4.212   4.850   0.418
13042TIP3    H139069   4.285   4.906   0.443
13042TIP3    H239070   4.134   4.905   0.430
13043TIP3   OH239071   8.100   5.143   2.921
13043TIP3    H139072   8.019   5.192   2.904
13043TIP3    H239073   8.163   5.180   2.860
13044TIP3   OH239074   7.616   2.222   4.657
13044TIP3    H139075   7.706   2.239   4.684
13044TIP3    H239076   7.564   2.287   4.704
13045TIP3   OH239077   1.644   2.014   4.049
13045TIP3    H139078   1.704   1.983   3.981
13045TIP3    H239079   1.651   1.949   4.118
13046TIP3   OH239080   2.411   2.533   6.424
13046TIP3    H139081   2.440   2.611   6.473
13046TIP3    H239082   2.378   2.474   6.492
13047TIP3   OH239083   1.946   4.056   1.908
13047TIP3    H139084   2.041   4.048   1.920
13047TIP3    H239085   1.926   4.145   1.936
13048TIP3   OH239086   4.666   3.649   5.217
13048TIP3    H139087   4.597   3.703   5.256
13048TIP3    H239088   4.662   3.668   5.123
13049TIP3   OH239089   4.062   3.582   4.984
13049TIP3    H139090   4.027   3.588   4.895
13049TIP3    H239091   4.149   3.544   4.973
13050TIP3   OH239092   7.430   4.403   0.853
13050TIP3    H139093   7.441   4.389   0.759
13050TIP3    H239094   7.374   4.332   0.882
13051TIP3   OH239095   7.533   0.213   4.441
13051TIP3    H139096   7.462   0.257   4.487
13051TIP3    H239097   7.612   0.261   4.468
13052TIP3   OH239098   7.737   7.181   0.217
13052TIP3    H139099   7.719   7.087   0.209
13052TIP3    H239100   7.715   7.202   0.308
13053TIP3   OH239101   4.275   0.977   3.961
13053TIP3    H139102   4.324   0.998   4.040
13053TIP3    H239103   4.246   1.061   3.927
13054TIP3   OH239104   2.512   0.246   5.528
13054TIP3    H139105   2.601   0.239   5.562
13054TIP3    H239106   2.504   0.173   5.468
13055TIP3   OH239107   7.883   1.263   3.564
13055TIP3    H139108   7.902   1.170   3.549
13055TIP3    H239109   7.947   1.309   3.510
13056TIP3   OH239110   6.013   5.030   5.826
13056TIP3    H139111   6.041   5.118   5.801
13056TIP3    H239112   6.092   4.977   5.823
13057TIP3   OH239113   1.003   5.874   2.133
13057TIP3    H139114   1.095   5.852   2.143
13057TIP3    H239115   1.002   5.947   2.071
13058TIP3   OH239116   0.416   3.924   5.428
13058TIP3    H139117   0.503   3.913   5.389
13058TIP3    H239118   0.398   3.839   5.470
13059TIP3   OH239119   1.786   3.012   1.741
13059TIP3    H139120   1.765   2.958   1.817
13059TIP3    H239121   1.814   3.096   1.779
13060TIP3   OH239122   3.668   4.190   1.243
13060TIP3    H139123   3.692   4.103   1.212
13060TIP3    H239124   3.672   4.184   1.338
13061TIP3   OH239125   4.588   5.131   6.679
13061TIP3    H139126   4.520   5.180   6.725
13061TIP3    H239127   4.666   5.141   6.734
13062TIP3   OH239128   5.927   6.636   6.589
13062TIP3    H139129   5.986   6.586   6.532
13062TIP3    H239130   5.986   6.686   6.646
13063TIP3   OH239131   7.165   7.204   5.852
13063TIP3    H139132   7.157   7.119   5.896
13063TIP3    H239133   7.220   7.186   5.776
13064TIP3   OH239134   5.113   3.383   3.056
13064TIP3    H139135   5.159   3.303   3.029
13064TIP3    H239136   5.180   3.436   3.099
13065TIP3   OH239137   6.835   3.457   0.060
13065TIP3    H139138   6.858   3.547   0.082
13065TIP3    H239139   6.809   3.417   0.144
13066TIP3   OH239140   8.216   5.094   4.798
13066TIP3    H139141   8.177   5.007   4.797
13066TIP3    H239142   8.240   5.110   4.707
13067TIP3   OH239143   6.169   3.651   6.624
13067TIP3    H139144   6.239   3.678   6.684
13067TIP3    H239145   6.205   3.666   6.537
13068TIP3   OH239146   3.022   5.449   1.382
13068TIP3    H139147   2.967   5.372   1.368
13068TIP3    H239148   3.094   5.440   1.320
13069TIP3   OH239149   0.220   4.963   6.353
13069TIP3    H139150   0.190   4.875   6.377
13069TIP3    H239151   0.315   4.959   6.360
13070TIP3   OH239152   7.254   5.655   5.532
13070TIP3    H139153   7.286   5.634   5.444
13070TIP3    H239154   7.325   5.629   5.590
13071TIP3   OH239155   3.653   4.512   0.344
13071TIP3    H139156   3.576   4.532   0.290
13071TIP3    H239157   3.630   4.431   0.389
13072TIP3   OH239158   2.843   2.074   0.593
13072TIP3    H139159   2.906   2.030   0.536
13072TIP3    H239160   2.779   2.113   0.534
13073TIP3   OH239161   2.564   3.688   3.427
13073TIP3    H139162   2.525   3.774   3.441
13073TIP3    H239163   2.540   3.665   3.337
13074TIP3   OH239164   4.784   3.667   4.187
13074TIP3    H139165   4.719   3.599   4.166
13074TIP3    H239166   4.754   3.744   4.138
13075TIP3   OH239167   6.485   3.810   3.098
13075TIP3    H139168   6.563   3.824   3.152
13075TIP3    H239169   6.517   3.812   3.008
13076TIP3   OH239170   8.198   7.585   1.768
13076TIP3    H139171   8.193   7.553   1.858
13076TIP3    H239172   8.231   7.510   1.717
13077TIP3   OH239173   5.829   4.466   4.845
13077TIP3    H139174   5.847   4.554   4.879
13077TIP3    H239175   5.845   4.473   4.751
13078TIP3   OH239176   2.112   6.062   1.905
13078TIP3    H139177   2.017   6.066   1.902
13078TIP3    H239178   2.135   6.097   1.992
13079TIP3   OH239179   6.677   0.965   3.498
13079TIP3    H139180   6.734   0.908   3.549
13079TIP3    H239181   6.719   1.051   3.502
13080TIP3   OH239182   0.978   3.592   1.844
13080TIP3    H139183   0.959   3.685   1.852
13080TIP3    H239184   0.893   3.552   1.827
13081TIP3   OH239185   0.978   4.709   0.604
13081TIP3    H139186   1.055   4.684   0.554
13081TIP3    H239187   0.904   4.679   0.552
13082TIP3   OH239188   6.234   0.524   2.554
13082TIP3    H139189   6.289   0.450   2.578
13082TIP3    H239190   6.264   0.550   2.467
13083TIP3   OH239191   4.856   3.551   1.741
13083TIP3    H139192   4.794   3.479   1.749
13083TIP3    H239193   4.803   3.626   1.714
13084TIP3   OH239194   7.975   4.615   6.726
13084TIP3    H139195   7.993   4.521   6.737
13084TIP3    H239196   7.964   4.626   6.631
13085TIP3   OH239197   3.196   3.542   1.523
13085TIP3    H139198   3.155   3.458   1.544
13085TIP3    H239199   3.262   3.520   1.458
13086TIP3   OH239200   1.576   2.382   5.752
13086TIP3    H139201   1.549   2.409   5.839
13086TIP3    H239202   1.603   2.463   5.709
13087TIP3   OH239203   6.887   1.655   6.445
13087TIP3    H139204   6.794   1.669   6.428
13087TIP3    H239205   6.922   1.620   6.363
13088TIP3   OH239206   4.641   0.380   0.779
13088TIP3    H139207   4.690   0.416   0.705
13088TIP3    H239208   4.550   0.381   0.750
13089TIP3   OH239209   5.201   1.515   6.752
13089TIP3    H139210   5.264   1.582   6.725
13089TIP3    H239211   5.149   1.557   6.822
13090TIP3   OH239212   8.088   3.766   2.348
13090TIP3    H139213   8.099   3.674   2.373
13090TIP3    H239214   8.160   3.811   2.393
13091TIP3   OH239215   5.988   1.487   3.448
13091TIP3    H139216   6.025   1.564   3.492
13091TIP3    H239217   5.905   1.471   3.494
13092TIP3   OH239218   5.452   7.568   4.563
13092TIP3    H139219   5.370   7.532   4.529
13092TIP3    H239220   5.500   7.492   4.596
13093TIP3   OH239221   5.413   7.563   2.927
13093TIP3    H139222   5.325   7.537   2.900
13093TIP3    H239223   5.420   7.655   2.903
13094TIP3   OH239224   4.836   7.543   2.617
13094TIP3    H139225   4.754   7.497   2.602
13094TIP3    H239226   4.853   7.533   2.711
13095TIP3   OH239227   7.470   2.463   4.525
13095TIP3    H139228   7.412   2.502   4.590
13095TIP3    H239229   7.412   2.435   4.454
13096TIP3   OH239230   3.971   6.007   3.794
13096TIP3    H139231   3.898   5.949   3.814
13096TIP3    H239232   4.049   5.956   3.816
13097TIP3   OH239233   8.251   1.683   2.918
13097TIP3    H139234   8.224   1.708   3.007
13097TIP3    H239235   8.168   1.674   2.870
13098TIP3   OH239236   7.569   5.767   2.420
13098TIP3    H139237   7.575   5.730   2.332
13098TIP3    H239238   7.649   5.818   2.431
13099TIP3   OH239239   5.754   0.280   0.350
13099TIP3    H139240   5.696   0.260   0.276
13099TIP3    H239241   5.832   0.317   0.309
13100TIP3   OH239242   1.297   1.822   5.067
13100TIP3    H139243   1.220   1.870   5.097
13100TIP3    H239244   1.365   1.888   5.061
13101TIP3   OH239245   4.926   0.154   5.145
13101TIP3    H139246   4.885   0.239   5.160
13101TIP3    H239247   5.012   0.174   5.109
13102TIP3   OH239248   3.825   2.036   2.201
13102TIP3    H139249   3.863   2.063   2.117
13102TIP3    H239250   3.900   2.008   2.254
13103TIP3   OH239251   7.029   3.437   1.460
13103TIP3    H139252   7.104   3.416   1.515
13103TIP3    H239253   6.953   3.427   1.518
13104TIP3   OH239254   1.615   5.244   2.689
13104TIP3    H139255   1.696   5.282   2.655
13104TIP3    H239256   1.644   5.176   2.751
13105TIP3   OH239257   6.195   0.036   1.103
13105TIP3    H139258   6.251   0.101   1.061
13105TIP3    H239259   6.236   0.018   1.187
13106TIP3   OH239260   3.839   0.711   4.659
13106TIP3    H139261   3.838   0.712   4.755
13106TIP3    H239262   3.774   0.776   4.633
13107TIP3   OH239263   1.408   7.044   4.030
13107TIP3    H139264   1.445   7.076   3.947
13107TIP3    H239265   1.335   7.102   4.048
13108TIP3   OH239266   0.771   6.660   5.178
13108TIP3    H139267   0.690   6.712   5.173
13108TIP3    H239268   0.834   6.719   5.219
13109TIP3   OH239269   4.297   2.062   2.918
13109TIP3    H139270   4.226   2.034   2.861
13109TIP3    H239271   4.310   2.154   2.896
13110TIP3   OH239272   0.542   0.155   1.907
13110TIP3    H139273   0.516   0.159   1.815
13110TIP3    H239274   0.606   0.084   1.911
13111TIP3   OH239275   0.604   0.306   2.712
13111TIP3    H139276   0.548   0.297   2.789
13111TIP3    H239277   0.612   0.217   2.677
13112TIP3   OH239278   2.276   5.860   4.098
13112TIP3    H139279   2.328   5.822   4.169
13112TIP3    H239280   2.287   5.799   4.025
13113TIP3   OH239281   1.592   2.485   2.085
13113TIP3    H139282   1.645   2.502   2.007
13113TIP3    H239283   1.502   2.501   2.057
13114TIP3   OH239284   1.768   3.118   5.729
13114TIP3    H139285   1.778   3.211   5.748
13114TIP3    H239286   1.753   3.077   5.814
13115TIP3   OH239287   3.450   3.041   6.347
13115TIP3    H139288   3.403   3.024   6.265
13115TIP3    H239289   3.380   3.054   6.412
13116TIP3   OH239290   1.551   1.326   3.871
13116TIP3    H139291   1.595   1.395   3.921
13116TIP3    H239292   1.622   1.282   3.825
13117TIP3   OH239293   4.927   2.404   1.858
13117TIP3    H139294   4.987   2.433   1.927
13117TIP3    H239295   4.985   2.364   1.792
13118TIP3   OH239296   5.424   5.306   3.379
13118TIP3    H139297   5.510   5.327   3.342
13118TIP3    H239298   5.362   5.333   3.312
13119TIP3   OH239299   6.817   4.776   3.388
13119TIP3    H139300   6.735   4.798   3.431
13119TIP3    H239301   6.885   4.796   3.453
13120TIP3   OH239302   0.937   2.865   1.540
13120TIP3    H139303   0.937   2.945   1.594
13120TIP3    H239304   1.010   2.877   1.479
13121TIP3   OH239305   2.896   2.297   5.111
13121TIP3    H139306   2.972   2.354   5.120
13121TIP3    H239307   2.824   2.346   5.150
13122TIP3   OH239308   1.605   3.027   2.681
13122TIP3    H139309   1.513   3.024   2.654
13122TIP3    H239310   1.609   2.973   2.759
13123TIP3   OH239311   7.442   5.994   5.271
13123TIP3    H139312   7.458   6.006   5.177
13123TIP3    H239313   7.425   6.082   5.304
13124TIP3   OH239314   5.279   5.459   0.506
13124TIP3    H139315   5.291   5.541   0.458
13124TIP3    H239316   5.284   5.485   0.598
13125TIP3   OH239317   4.083   5.961   5.504
13125TIP3    H139318   4.050   5.907   5.432
13125TIP3    H239319   4.070   6.051   5.475
13126TIP3   OH239320   6.093   2.333   3.744
13126TIP3    H139321   6.111   2.344   3.651
13126TIP3    H239322   6.002   2.303   3.747
13127TIP3   OH239323   0.836   4.386   2.413
13127TIP3    H139324   0.866   4.306   2.458
13127TIP3    H239325   0.906   4.449   2.428
13128TIP3   OH239326   6.493   0.150   0.590
13128TIP3    H139327   6.513   0.244   0.595
13128TIP3    H239328   6.425   0.144   0.523
13129TIP3   OH239329   0.981   6.426   3.321
13129TIP3    H139330   0.987   6.405   3.415
13129TIP3    H239331   1.010   6.346   3.277
13130TIP3   OH239332   6.914   2.868   1.267
13130TIP3    H139333   6.901   2.804   1.337
13130TIP3    H239334   6.847   2.846   1.203
13131TIP3   OH239335   1.957   7.629   2.942
13131TIP3    H139336   1.979   7.716   2.908
13131TIP3    H239337   1.920   7.646   3.028
13132TIP3   OH239338   5.212   5.456   4.984
13132TIP3    H139339   5.237   5.428   4.896
13132TIP3    H239340   5.185   5.375   5.028
13133TIP3   OH239341   1.855   2.832   4.376
13133TIP3    H139342   1.848   2.885   4.297
13133TIP3    H239343   1.922   2.876   4.428
13134TIP3   OH239344   0.917   1.130   1.201
13134TIP3    H139345   0.927   1.190   1.274
13134TIP3    H239346   0.885   1.049   1.241
13135TIP3   OH239347   0.583   4.038   2.331
13135TIP3    H139348   0.608   3.980   2.259
13135TIP3    H239349   0.652   4.025   2.396
13136TIP3   OH239350   2.628   4.902   4.639
13136TIP3    H139351   2.580   4.937   4.713
13136TIP3    H239352   2.710   4.951   4.638
13137TIP3   OH239353   0.079   6.423   2.444
13137TIP3    H139354   0.057   6.458   2.357
13137TIP3    H239355   0.093   6.329   2.428
13138TIP3   OH239356   3.101   6.133   2.382
13138TIP3    H139357   3.141   6.076   2.448
13138TIP3    H239358   3.074   6.074   2.312
13139TIP3   OH239359   1.019   0.922   5.208
13139TIP3    H139360   1.027   0.831   5.179
13139TIP3    H239361   1.024   0.973   5.127
13140TIP3   OH239362   4.166   5.681   4.457
13140TIP3    H139363   4.095   5.691   4.394
13140TIP3    H239364   4.246   5.690   4.405
13141TIP3   OH239365   2.855   5.072   2.451
13141TIP3    H139366   2.907   5.112   2.521
13141TIP3    H239367   2.858   5.136   2.379
13142TIP3   OH239368   7.675   4.093   1.117
13142TIP3    H139369   7.739   4.143   1.166
13142TIP3    H239370   7.593   4.140   1.129
13143TIP3   OH239371   4.894   5.332   1.995
13143TIP3    H139372   4.872   5.242   1.970
13143TIP3    H239373   4.984   5.327   2.027
13144TIP3   OH239374   7.883   5.456   5.026
13144TIP3    H139375   7.920   5.392   4.965
13144TIP3    H239376   7.794   5.470   4.995
13145TIP3   OH239377   1.410   6.048   4.411
13145TIP3    H139378   1.462   6.083   4.338
13145TIP3    H239379   1.448   6.088   4.489
13146TIP3   OH239380   5.539   0.382   6.615
13146TIP3    H139381   5.563   0.304   6.564
13146TIP3    H239382   5.612   0.394   6.675
13147TIP3   OH239383   7.408   0.736   3.054
13147TIP3    H139384   7.400   0.824   3.017
13147TIP3    H239385   7.497   0.733   3.089
13148TIP3   OH239386   3.094   5.629   1.642
13148TIP3    H139387   3.004   5.622   1.609
13148TIP3    H239388   3.089   5.696   1.711
13149TIP3   OH239389   5.485   0.379   3.066
13149TIP3    H139390   5.441   0.295   3.058
13149TIP3    H239391   5.544   0.383   2.991
13150TIP3   OH239392   1.661   4.089   2.648
13150TIP3    H139393   1.597   4.036   2.601
13150TIP3    H239394   1.743   4.074   2.603
13151TIP3   OH239395   2.868   1.022   3.787
13151TIP3    H139396   2.962   1.033   3.806
13151TIP3    H239397   2.826   1.098   3.826
13152TIP3   OH239398   0.661   5.417   2.418
13152TIP3    H139399   0.673   5.504   2.379
13152TIP3    H239400   0.746   5.374   2.408
13153TIP3   OH239401   2.927   3.100   0.547
13153TIP3    H139402   2.883   3.151   0.479
13153TIP3    H239403   2.856   3.055   0.594
13154TIP3   OH239404   5.761   7.501   0.997
13154TIP3    H139405   5.842   7.522   0.951
13154TIP3    H239406   5.722   7.431   0.945
13155TIP3   OH239407   3.090   0.593   1.537
13155TIP3    H139408   3.020   0.542   1.578
13155TIP3    H239409   3.149   0.615   1.608
13156TIP3   OH239410   7.846   1.857   4.827
13156TIP3    H139411   7.825   1.927   4.765
13156TIP3    H239412   7.869   1.782   4.771
13157TIP3   OH239413   0.402   4.834   0.266
13157TIP3    H139414   0.426   4.811   0.356
13157TIP3    H239415   0.479   4.879   0.231
13158TIP3   OH239416   6.671   1.075   5.034
13158TIP3    H139417   6.666   1.115   4.947
13158TIP3    H239418   6.684   1.148   5.094
13159TIP3   OH239419   1.017   2.984   6.287
13159TIP3    H139420   0.936   2.989   6.237
13159TIP3    H239421   1.054   2.899   6.265
13160TIP3   OH239422   5.387   0.518   0.665
13160TIP3    H139423   5.452   0.588   0.666
13160TIP3    H239424   5.412   0.461   0.738
13161TIP3   OH239425   3.591   7.202   0.306
13161TIP3    H139426   3.606   7.287   0.347
13161TIP3    H239427   3.500   7.180   0.328
13162TIP3   OH239428   2.956   7.385   3.846
13162TIP3    H139429   2.974   7.476   3.867
13162TIP3    H239430   2.933   7.385   3.753
13163TIP3   OH239431   8.244   4.884   2.755
13163TIP3    H139432   8.216   4.910   2.667
13163TIP3    H239433   8.325   4.932   2.770
13164TIP3   OH239434   3.388   4.760   0.540
13164TIP3    H139435   3.335   4.689   0.502
13164TIP3    H239436   3.389   4.742   0.634
13165TIP3   OH239437   5.464   2.111   4.289
13165TIP3    H139438   5.464   2.162   4.208
13165TIP3    H239439   5.417   2.165   4.351
13166TIP3   OH239440   6.732   3.234   0.611
13166TIP3    H139441   6.816   3.280   0.616
13166TIP3    H239442   6.671   3.298   0.576
13167TIP3   OH239443   1.645   0.502   5.359
13167TIP3    H139444   1.707   0.479   5.290
13167TIP3    H239445   1.571   0.541   5.313
13168TIP3   OH239446   3.559   7.355   3.589
13168TIP3    H139447   3.566   7.260   3.595
13168TIP3    H239448   3.645   7.387   3.618
13169TIP3   OH239449   1.984   7.419   6.386
13169TIP3    H139450   1.948   7.406   6.473
13169TIP3    H239451   1.914   7.394   6.326
13170TIP3   OH239452   5.216   6.628   1.957
13170TIP3    H139453   5.192   6.650   1.867
13170TIP3    H239454   5.286   6.562   1.947
13171TIP3   OH239455   8.202   4.341   1.063
13171TIP3    H139456   8.227   4.282   1.134
13171TIP3    H239457   8.118   4.308   1.032
13172TIP3   OH239458   0.489   6.481   4.855
13172TIP3    H139459   0.579   6.498   4.886
13172TIP3    H239460   0.443   6.563   4.871
13173TIP3   OH239461   4.904   1.098   6.786
13173TIP3    H139462   4.893   1.164   6.855
13173TIP3    H239463   4.983   1.125   6.740
13174TIP3   OH239464   6.267   2.987   4.345
13174TIP3    H139465   6.173   2.972   4.336
13174TIP3    H239466   6.276   3.082   4.346
13175TIP3   OH239467   4.035   5.207   1.820
13175TIP3    H139468   4.091   5.190   1.896
13175TIP3    H239469   4.066   5.291   1.786
13176TIP3   OH239470   7.325   5.771   5.101
13176TIP3    H139471   7.284   5.824   5.033
13176TIP3    H239472   7.419   5.784   5.089
13177TIP3   OH239473   1.405   4.836   6.637
13177TIP3    H139474   1.342   4.776   6.677
13177TIP3    H239475   1.491   4.806   6.668
13178TIP3   OH239476   4.787   4.693   1.267
13178TIP3    H139477   4.824   4.716   1.352
13178TIP3    H239478   4.713   4.636   1.288
13179TIP3   OH239479   1.199   6.929   5.858
13179TIP3    H139480   1.148   6.863   5.903
13179TIP3    H239481   1.282   6.934   5.907
13180TIP3   OH239482   5.916   4.818   4.040
13180TIP3    H139483   5.846   4.793   3.979
13180TIP3    H239484   5.930   4.739   4.094
13181TIP3   OH239485   2.514   0.163   4.690
13181TIP3    H139486   2.494   0.083   4.641
13181TIP3    H239487   2.540   0.226   4.624
13182TIP3   OH239488   6.797   5.557   1.526
13182TIP3    H139489   6.851   5.551   1.448
13182TIP3    H239490   6.831   5.489   1.584
13183TIP3   OH239491   3.820   1.858   3.077
13183TIP3    H139492   3.816   1.780   3.132
13183TIP3    H239493   3.729   1.890   3.074
13184TIP3   OH239494   5.038   7.277   0.595
13184TIP3    H139495   5.085   7.298   0.514
13184TIP3    H239496   5.005   7.361   0.626
13185TIP3   OH239497   1.813   0.071   5.647
13185TIP3    H139498   1.826  -0.002   5.586
13185TIP3    H239499   1.900   0.110   5.657
13186TIP3   OH239500   7.993   5.283   0.534
13186TIP3    H139501   8.075   5.321   0.504
13186TIP3    H239502   7.987   5.199   0.488
13187TIP3   OH239503   4.011   1.187   3.925
13187TIP3    H139504   3.928   1.230   3.905
13187TIP3    H239505   4.023   1.124   3.854
13188TIP3   OH239506   0.445   7.253   3.606
13188TIP3    H139507   0.506   7.324   3.627
13188TIP3    H239508   0.372   7.266   3.666
13189TIP3   OH239509   5.215   0.171   4.449
13189TIP3    H139510   5.271   0.201   4.378
13189TIP3    H239511   5.264   0.100   4.491
13190TIP3   OH239512   0.798   3.284   4.653
13190TIP3    H139513   0.808   3.270   4.748
13190TIP3    H239514   0.794   3.195   4.617
13191TIP3   OH239515   6.272   7.385   0.551
13191TIP3    H139516   6.268   7.371   0.645
13191TIP3    H239517   6.337   7.454   0.540
13192TIP3   OH239518   0.470   6.012   4.613
13192TIP3    H139519   0.505   6.089   4.568
13192TIP3    H239520   0.538   5.945   4.603
13193TIP3   OH239521   4.334   2.613   3.454
13193TIP3    H139522   4.295   2.699   3.470
13193TIP3    H239523   4.264   2.563   3.411
13194TIP3   OH239524   8.103   6.204   4.418
13194TIP3    H139525   8.107   6.170   4.507
13194TIP3    H239526   8.192   6.233   4.399
13195TIP3   OH239527   7.498   1.038   1.202
13195TIP3    H139528   7.519   1.000   1.288
13195TIP3    H239529   7.528   1.128   1.207
13196TIP3   OH239530   7.791   6.112   2.446
13196TIP3    H139531   7.810   6.018   2.436
13196TIP3    H239532   7.747   6.118   2.531
13197TIP3   OH239533   2.315   6.377   3.332
13197TIP3    H139534   2.320   6.400   3.239
13197TIP3    H239535   2.339   6.284   3.335
13198TIP3   OH239536   6.693   7.507   4.258
13198TIP3    H139537   6.672   7.524   4.166
13198TIP3    H239538   6.685   7.412   4.267
13199TIP3   OH239539   8.068   3.098   0.751
13199TIP3    H139540   8.134   3.153   0.793
13199TIP3    H239541   8.113   3.059   0.677
13200TIP3   OH239542   3.386   7.743   6.187
13200TIP3    H139543   3.352   7.675   6.129
13200TIP3    H239544   3.413   7.813   6.128
13201TIP3   OH239545   5.611   1.244   4.512
13201TIP3    H139546   5.561   1.324   4.526
13201TIP3    H239547   5.562   1.195   4.446
13202TIP3   OH239548   5.040   1.316   6.632
13202TIP3    H139549   4.974   1.314   6.700
13202TIP3    H239550   5.084   1.400   6.644
13203TIP3   OH239551   6.883   3.417   5.185
13203TIP3    H139552   6.893   3.380   5.273
13203TIP3    H239553   6.860   3.508   5.200
13204TIP3   OH239554   7.880   2.857   4.314
13204TIP3    H139555   7.930   2.787   4.356
13204TIP3    H239556   7.872   2.828   4.223
13205TIP3   OH239557   2.280   4.669   2.440
13205TIP3    H139558   2.283   4.594   2.500
13205TIP3    H239559   2.206   4.651   2.382
13206TIP3   OH239560   2.495   3.258   2.350
13206TIP3    H139561   2.536   3.324   2.293
13206TIP3    H239562   2.531   3.175   2.319
13207TIP3   OH239563   4.103   2.510   3.793
13207TIP3    H139564   4.100   2.436   3.733
13207TIP3    H239565   4.011   2.528   3.814
13208TIP3   OH239566   3.876   1.803   4.090
13208TIP3    H139567   3.861   1.731   4.029
13208TIP3    H239568   3.941   1.858   4.047
13209TIP3   OH239569   8.153   5.713   6.668
13209TIP3    H139570   8.246   5.689   6.666
13209TIP3    H239571   8.137   5.755   6.583
13210TIP3   OH239572   3.637   5.591  -0.018
13210TIP3    H139573   3.725   5.563  -0.042
13210TIP3    H239574   3.648   5.641   0.063
13211TIP3   OH239575   1.167   7.403   1.528
13211TIP3    H139576   1.093   7.429   1.583
13211TIP3    H239577   1.188   7.482   1.478
13212TIP3   OH239578   0.681   7.368   0.771
13212TIP3    H139579   0.764   7.372   0.819
13212TIP3    H239580   0.684   7.442   0.711
13213TIP3   OH239581   3.684   2.406   1.230
13213TIP3    H139582   3.732   2.486   1.250
13213TIP3    H239583   3.750   2.337   1.233
13214TIP3   OH239584   3.116   6.547   1.558
13214TIP3    H139585   3.196   6.534   1.610
13214TIP3    H239586   3.117   6.640   1.535
13215TIP3   OH239587   8.316   5.296   6.529
13215TIP3    H139588   8.290   5.366   6.589
13215TIP3    H239589   8.259   5.222   6.552
13216TIP3   OH239590   4.058   3.067   3.953
13216TIP3    H139591   4.019   2.979   3.951
13216TIP3    H239592   4.151   3.051   3.970
13217TIP3   OH239593   3.952   0.042   3.968
13217TIP3    H139594   4.004  -0.010   4.028
13217TIP3    H239595   3.989   0.131   3.975
13218TIP3   OH239596   6.030   2.725   2.849
13218TIP3    H139597   6.031   2.756   2.940
13218TIP3    H239598   6.122   2.704   2.831
13219TIP3   OH239599   6.344   3.716   0.608
13219TIP3    H139600   6.402   3.791   0.620
13219TIP3    H239601   6.394   3.641   0.638
13220TIP3   OH239602   3.282   1.409   0.556
13220TIP3    H139603   3.198   1.369   0.579
13220TIP3    H239604   3.342   1.378   0.624
13221TIP3   OH239605   0.341   3.520   1.634
13221TIP3    H139606   0.431   3.553   1.639
13221TIP3    H239607   0.302   3.544   1.717
13222TIP3   OH239608   4.613   6.644   2.790
13222TIP3    H139609   4.662   6.707   2.737
13222TIP3    H239610   4.525   6.681   2.798
13223TIP3   OH239611   1.385   0.998   5.242
13223TIP3    H139612   1.419   0.916   5.276
13223TIP3    H239613   1.314   0.972   5.183
13224TIP3   OH239614   1.126   6.757   5.452
13224TIP3    H139615   1.096   6.704   5.378
13224TIP3    H239616   1.129   6.695   5.525
13225TIP3   OH239617   3.686   3.004   1.130
13225TIP3    H139618   3.773   3.039   1.110
13225TIP3    H239619   3.630   3.037   1.060
13226TIP3   OH239620   3.236   6.402   3.722
13226TIP3    H139621   3.154   6.452   3.721
13226TIP3    H239622   3.301   6.462   3.685
13227TIP3   OH239623   0.730   5.289   1.939
13227TIP3    H139624   0.670   5.323   1.874
13227TIP3    H239625   0.675   5.240   2.000
13228TIP3   OH239626   2.922   0.502   0.282
13228TIP3    H139627   2.854   0.475   0.343
13228TIP3    H239628   2.991   0.436   0.292
13229TIP3   OH239629   1.111   4.461   6.432
13229TIP3    H139630   1.108   4.366   6.424
13229TIP3    H239631   1.058   4.481   6.509
13230TIP3   OH239632   5.274   5.034   3.076
13230TIP3    H139633   5.218   5.076   3.142
13230TIP3    H239634   5.277   5.097   3.004
13231TIP3   OH239635   0.963   7.694   3.304
13231TIP3    H139636   0.945   7.786   3.286
13231TIP3    H239637   0.881   7.649   3.283
13232TIP3   OH239638   4.610   2.758   0.242
13232TIP3    H139639   4.611   2.663   0.229
13232TIP3    H239640   4.659   2.793   0.167
13233TIP3   OH239641   3.901   4.611   6.500
13233TIP3    H139642   3.973   4.615   6.437
13233TIP3    H239643   3.830   4.660   6.457
13234TIP3   OH239644   1.634   4.371   5.129
13234TIP3    H139645   1.610   4.450   5.079
13234TIP3    H239646   1.551   4.329   5.149
13235TIP3   OH239647   6.268   0.153   6.036
13235TIP3    H139648   6.257   0.234   6.087
13235TIP3    H239649   6.332   0.175   5.969
13236TIP3   OH239650   0.327   0.323   2.348
13236TIP3    H139651   0.330   0.310   2.443
13236TIP3    H239652   0.407   0.283   2.316
13237TIP3   OH239653   2.595   4.659   6.464
13237TIP3    H139654   2.543   4.622   6.392
13237TIP3    H239655   2.581   4.598   6.537
13238TIP3   OH239656   8.234   4.974   3.814
13238TIP3    H139657   8.146   4.956   3.848
13238TIP3    H239658   8.280   4.891   3.822
13239TIP3   OH239659   5.001   0.208   3.757
13239TIP3    H139660   5.027   0.116   3.765
13239TIP3    H239661   5.055   0.242   3.686
13240TIP3   OH239662   8.103   7.508   2.860
13240TIP3    H139663   8.018   7.465   2.853
13240TIP3    H239664   8.156   7.446   2.911
13241TIP3   OH239665   3.441   0.796   2.693
13241TIP3    H139666   3.374   0.782   2.625
13241TIP3    H239667   3.401   0.763   2.773
13242TIP3   OH239668   8.283   2.565   0.456
13242TIP3    H139669   8.202   2.602   0.423
13242TIP3    H239670   8.328   2.637   0.499
13243TIP3   OH239671   6.634   7.748   3.482
13243TIP3    H139672   6.609   7.703   3.401
13243TIP3    H239673   6.619   7.841   3.463
13244TIP3   OH239674   1.125   7.474   2.989
13244TIP3    H139675   1.155   7.479   2.898
13244TIP3    H239676   1.132   7.564   3.021
13245TIP3   OH239677   2.187   7.037   3.851
13245TIP3    H139678   2.104   7.022   3.896
13245TIP3    H239679   2.172   7.118   3.802
13246TIP3   OH239680   0.685   0.498   2.531
13246TIP3    H139681   0.774   0.532   2.539
13246TIP3    H239682   0.679   0.431   2.599
13247TIP3   OH239683   1.966   5.703   2.480
13247TIP3    H139684   1.993   5.685   2.390
13247TIP3    H239685   1.955   5.617   2.520
13248TIP3   OH239686   0.231   3.685   0.749
13248TIP3    H139687   0.273   3.718   0.828
13248TIP3    H239688   0.137   3.693   0.767
13249TIP3   OH239689   7.232   5.921   5.622
13249TIP3    H139690   7.196   5.957   5.541
13249TIP3    H239691   7.233   5.826   5.608
13250TIP3   OH239692   3.996   0.247   6.071
13250TIP3    H139693   4.037   0.170   6.111
13250TIP3    H239694   4.032   0.250   5.982
13251TIP3   OH239695   6.759   5.834   3.686
13251TIP3    H139696   6.674   5.861   3.652
13251TIP3    H239697   6.799   5.915   3.719
13252TIP3   OH239698   7.405   1.062   3.531
13252TIP3    H139699   7.500   1.050   3.530
13252TIP3    H239700   7.393   1.157   3.541
13253TIP3   OH239701   3.559   5.697   4.134
13253TIP3    H139702   3.503   5.674   4.060
13253TIP3    H239703   3.609   5.618   4.152
13254TIP3   OH239704   5.813   4.956   3.577
13254TIP3    H139705   5.824   5.050   3.589
13254TIP3    H239706   5.797   4.946   3.483
13255TIP3   OH239707   4.840   4.792   5.219
13255TIP3    H139708   4.864   4.756   5.304
13255TIP3    H239709   4.844   4.718   5.159
13256TIP3   OH239710   0.683   1.135   2.031
13256TIP3    H139711   0.662   1.077   1.957
13256TIP3    H239712   0.597   1.160   2.066
13257TIP3   OH239713   5.362   4.356   0.390
13257TIP3    H139714   5.456   4.344   0.400
13257TIP3    H239715   5.324   4.315   0.467
13258TIP3   OH239716   0.513   0.588   5.541
13258TIP3    H139717   0.583   0.566   5.603
13258TIP3    H239718   0.472   0.665   5.579
13259TIP3   OH239719   1.626   4.299   6.055
13259TIP3    H139720   1.714   4.336   6.054
13259TIP3    H239721   1.569   4.374   6.071
13260TIP3   OH239722   2.051   3.375   4.905
13260TIP3    H139723   1.977   3.316   4.892
13260TIP3    H239724   2.018   3.461   4.881
13261TIP3   OH239725   8.125   1.289   0.484
13261TIP3    H139726   8.214   1.322   0.471
13261TIP3    H239727   8.108   1.305   0.577
13262TIP3   OH239728   1.352   6.467   4.917
13262TIP3    H139729   1.318   6.543   4.964
13262TIP3    H239730   1.446   6.483   4.910
13263TIP3   OH239731   4.816   6.832   3.734
13263TIP3    H139732   4.735   6.872   3.702
13263TIP3    H239733   4.806   6.829   3.829
13264TIP3   OH239734   5.756   2.241   1.977
13264TIP3    H139735   5.682   2.182   1.965
13264TIP3    H239736   5.797   2.246   1.890
13265TIP3   OH239737   5.178   1.454   5.642
13265TIP3    H139738   5.148   1.540   5.670
13265TIP3    H239739   5.177   1.401   5.722
13266TIP3   OH239740   0.393   6.449   2.408
13266TIP3    H139741   0.390   6.396   2.329
13266TIP3    H239742   0.486   6.455   2.429
13267TIP3   OH239743   5.657   3.554   5.121
13267TIP3    H139744   5.572   3.514   5.139
13267TIP3    H239745   5.695   3.502   5.051
13268TIP3   OH239746   4.799   1.784   1.762
13268TIP3    H139747   4.730   1.770   1.697
13268TIP3    H239748   4.834   1.870   1.741
13269TIP3   OH239749   7.030   1.058   4.969
13269TIP3    H139750   7.125   1.067   4.969
13269TIP3    H239751   7.003   1.078   5.059
13270TIP3   OH239752   6.759   1.150   3.025
13270TIP3    H139753   6.778   1.077   2.966
13270TIP3    H239754   6.676   1.126   3.066
13271TIP3   OH239755   3.724   6.331   0.293
13271TIP3    H139756   3.700   6.271   0.364
13271TIP3    H239757   3.737   6.415   0.337
13272TIP3   OH239758   0.527   6.355   3.540
13272TIP3    H139759   0.561   6.442   3.520
13272TIP3    H239760   0.443   6.371   3.583
13273TIP3   OH239761   1.382   5.535   6.047
13273TIP3    H139762   1.368   5.566   6.136
13273TIP3    H239763   1.305   5.481   6.028
13274TIP3   OH239764   8.146   2.845   6.255
13274TIP3    H139765   8.199   2.866   6.178
13274TIP3    H239766   8.209   2.837   6.326
13275TIP3   OH239767   1.418   6.402   0.190
13275TIP3    H139768   1.479   6.335   0.221
13275TIP3    H239769   1.470   6.460   0.135
13276TIP3   OH239770   1.032   3.302   5.761
13276TIP3    H139771   1.038   3.230   5.824
13276TIP3    H239772   1.041   3.259   5.675
13277TIP3   OH239773   1.969   1.860   5.018
13277TIP3    H139774   2.049   1.819   4.987
13277TIP3    H239775   1.999   1.925   5.082
13278TIP3   OH239776   1.175   5.446   2.087
13278TIP3    H139777   1.252   5.390   2.072
13278TIP3    H239778   1.156   5.435   2.181
13279TIP3   OH239779   7.115   1.124   1.303
13279TIP3    H139780   7.032   1.164   1.328
13279TIP3    H239781   7.117   1.130   1.208
13280TIP3   OH239782   5.796   6.861   4.347
13280TIP3    H139783   5.809   6.779   4.395
13280TIP3    H239784   5.781   6.833   4.256
13281TIP3   OH239785   4.493   2.380   1.549
13281TIP3    H139786   4.402   2.354   1.535
13281TIP3    H239787   4.493   2.426   1.632
13282TIP3   OH239788   5.523   2.690   1.362
13282TIP3    H139789   5.471   2.611   1.378
13282TIP3    H239790   5.487   2.726   1.281
13283TIP3   OH239791   0.230   3.794   2.147
13283TIP3    H139792   0.317   3.828   2.164
13283TIP3    H239793   0.188   3.859   2.091
13284TIP3   OH239794   0.045   6.541   4.494
13284TIP3    H139795  -0.034   6.590   4.469
13284TIP3    H239796   0.057   6.561   4.587
13285TIP3   OH239797   6.453   6.158   1.003
13285TIP3    H139798   6.388   6.197   0.944
13285TIP3    H239799   6.524   6.130   0.945
13286TIP3   OH239800   5.260   1.569   5.144
13286TIP3    H139801   5.305   1.540   5.223
13286TIP3    H239802   5.169   1.577   5.169
13287TIP3   OH239803   2.044   6.182   6.529
13287TIP3    H139804   1.959   6.185   6.485
13287TIP3    H239805   2.024   6.202   6.621
13288TIP3   OH239806   6.230   1.921   5.473
13288TIP3    H139807   6.229   1.904   5.567
13288TIP3    H239808   6.197   2.011   5.465
13289TIP3   OH239809   6.264   7.720   2.956
13289TIP3    H139810   6.295   7.631   2.973
13289TIP3    H239811   6.192   7.708   2.894
13290TIP3   OH239812   7.730   6.537   4.407
13290TIP3    H139813   7.810   6.495   4.439
13290TIP3    H239814   7.735   6.531   4.312
13291TIP3   OH239815   3.341   3.773   0.964
13291TIP3    H139816   3.270   3.757   1.026
13291TIP3    H239817   3.319   3.718   0.888
13292TIP3   OH239818   0.793   1.836   3.325
13292TIP3    H139819   0.771   1.770   3.391
13292TIP3    H239820   0.785   1.791   3.242
13293TIP3   OH239821   7.205   2.708   2.255
13293TIP3    H139822   7.241   2.620   2.264
13293TIP3    H239823   7.173   2.712   2.165
13294TIP3   OH239824   0.493   5.549   3.523
13294TIP3    H139825   0.558   5.611   3.488
13294TIP3    H239826   0.545   5.471   3.546
13295TIP3   OH239827   4.938   7.150   2.111
13295TIP3    H139828   5.032   7.160   2.096
13295TIP3    H239829   4.927   7.167   2.205
13296TIP3   OH239830   1.650   6.005   1.453
13296TIP3    H139831   1.715   5.960   1.401
13296TIP3    H239832   1.566   5.985   1.410
13297TIP3   OH239833   6.160   7.043   4.645
13297TIP3    H139834   6.225   7.004   4.703
13297TIP3    H239835   6.140   7.127   4.686
13298TIP3   OH239836   4.309   5.846   5.098
13298TIP3    H139837   4.369   5.890   5.158
13298TIP3    H239838   4.352   5.852   5.013
13299TIP3   OH239839   1.288   1.297   3.671
13299TIP3    H139840   1.370   1.264   3.635
13299TIP3    H239841   1.304   1.302   3.765
13300TIP3   OH239842   3.931   5.959   6.163
13300TIP3    H139843   3.913   6.038   6.111
13300TIP3    H239844   3.902   5.887   6.107
13301TIP3   OH239845   1.249   7.309   6.273
13301TIP3    H139846   1.275   7.296   6.364
13301TIP3    H239847   1.168   7.259   6.264
13302TIP3   OH239848   2.652   5.575   4.418
13302TIP3    H139849   2.565   5.590   4.456
13302TIP3    H239850   2.712   5.586   4.491
13303TIP3   OH239851   6.613   4.242   3.040
13303TIP3    H139852   6.699   4.251   2.997
13303TIP3    H239853   6.612   4.152   3.073
13304TIP3   OH239854   6.235   4.015   1.988
13304TIP3    H139855   6.196   3.998   2.074
13304TIP3    H239856   6.178   4.079   1.947
13305TIP3   OH239857   2.777   2.654   2.032
13305TIP3    H139858   2.794   2.669   1.939
13305TIP3    H239859   2.719   2.726   2.058
13306TIP3   OH239860   1.262   4.328   2.845
13306TIP3    H139861   1.232   4.324   2.936
13306TIP3    H239862   1.308   4.245   2.832
13307TIP3   OH239863   0.753   1.641   1.249
13307TIP3    H139864   0.802   1.723   1.251
13307TIP3    H239865   0.811   1.577   1.290
13308TIP3   OH239866   4.653   1.760   1.293
13308TIP3    H139867   4.712   1.834   1.277
13308TIP3    H239868   4.678   1.728   1.380
13309TIP3   OH239869   6.741   0.209   1.984
13309TIP3    H139870   6.646   0.224   1.986
13309TIP3    H239871   6.780   0.292   2.010
13310TIP3   OH239872   3.909   3.630   3.002
13310TIP3    H139873   3.910   3.717   2.963
13310TIP3    H239874   3.944   3.572   2.934
13311TIP3   OH239875   6.579   6.800   5.224
13311TIP3    H139876   6.576   6.828   5.315
13311TIP3    H239877   6.670   6.814   5.197
13312TIP3   OH239878   7.559   4.372   3.861
13312TIP3    H139879   7.520   4.324   3.935
13312TIP3    H239880   7.485   4.421   3.824
13313TIP3   OH239881   0.453   4.550   2.781
13313TIP3    H139882   0.463   4.517   2.870
13313TIP3    H239883   0.514   4.623   2.777
13314TIP3   OH239884   5.987   4.492   6.407
13314TIP3    H139885   5.894   4.513   6.407
13314TIP3    H239886   5.992   4.404   6.444
13315TIP3   OH239887   5.040   6.972   5.178
13315TIP3    H139888   4.983   6.939   5.248
13315TIP3    H239889   4.980   7.013   5.116
13316TIP3   OH239890   0.900   0.166   0.574
13316TIP3    H139891   0.940   0.110   0.508
13316TIP3    H239892   0.967   0.231   0.595
13317TIP3   OH239893   4.639   4.091   2.325
13317TIP3    H139894   4.688   4.045   2.257
13317TIP3    H239895   4.589   4.022   2.369
13318TIP3   OH239896   0.611   1.657   3.187
13318TIP3    H139897   0.545   1.725   3.201
13318TIP3    H239898   0.564   1.575   3.199
13319TIP3   OH239899   7.317   4.158   0.948
13319TIP3    H139900   7.346   4.070   0.970
13319TIP3    H239901   7.224   4.149   0.930
13320TIP3   OH239902   7.344   3.737   1.994
13320TIP3    H139903   7.398   3.780   2.060
13320TIP3    H239904   7.318   3.654   2.035
13321TIP3   OH239905   5.219   4.770   3.137
13321TIP3    H139906   5.198   4.853   3.094
13321TIP3    H239907   5.159   4.765   3.212
13322TIP3   OH239908   5.341   6.319   3.959
13322TIP3    H139909   5.404   6.311   4.030
13322TIP3    H239910   5.297   6.403   3.975
13323TIP3   OH239911   6.180   0.979   1.566
13323TIP3    H139912   6.151   0.960   1.656
13323TIP3    H239913   6.217   1.067   1.571
13324TIP3   OH239914   5.150   0.967   5.049
13324TIP3    H139915   5.235   0.945   5.009
13324TIP3    H239916   5.108   0.882   5.063
13325TIP3   OH239917   1.991   5.410   4.320
13325TIP3    H139918   2.014   5.319   4.339
13325TIP3    H239919   1.960   5.408   4.230
13326TIP3   OH239920   2.700   3.414   2.032
13326TIP3    H139921   2.704   3.463   2.114
13326TIP3    H239922   2.730   3.476   1.966
13327TIP3   OH239923   1.051   0.698   0.593
13327TIP3    H139924   1.142   0.728   0.602
13327TIP3    H239925   0.999   0.779   0.592
13328TIP3   OH239926   2.858   4.694   6.345
13328TIP3    H139927   2.779   4.685   6.399
13328TIP3    H239928   2.894   4.605   6.341
13329TIP3   OH239929   0.771   5.823   6.050
13329TIP3    H139930   0.744   5.909   6.080
13329TIP3    H239931   0.850   5.803   6.101
13330TIP3   OH239932   8.142   6.441   5.366
13330TIP3    H139933   8.108   6.362   5.410
13330TIP3    H239934   8.093   6.445   5.284
13331TIP3   OH239935   1.994   4.962   3.569
13331TIP3    H139936   1.902   4.950   3.547
13331TIP3    H239937   2.026   5.023   3.503
13332TIP3   OH239938   7.836   6.091   5.290
13332TIP3    H139939   7.783   6.043   5.353
13332TIP3    H239940   7.883   6.023   5.241
13333TIP3   OH239941   3.685   6.578   5.103
13333TIP3    H139942   3.597   6.540   5.107
13333TIP3    H239943   3.682   6.652   5.164
13334TIP3   OH239944   1.441   3.459   3.730
13334TIP3    H139945   1.460   3.512   3.807
13334TIP3    H239946   1.449   3.521   3.657
13335TIP3   OH239947   2.884   3.850   1.681
13335TIP3    H139948   2.894   3.755   1.684
13335TIP3    H239949   2.862   3.868   1.589
13336TIP3   OH239950   2.286  -0.021   6.175
13336TIP3    H139951   2.320   0.041   6.110
13336TIP3    H239952   2.270  -0.101   6.126
13337TIP3   OH239953   7.598   3.828   3.415
13337TIP3    H139954   7.606   3.818   3.510
13337TIP3    H239955   7.632   3.746   3.380
13338TIP3   OH239956   6.410   4.130   1.345
13338TIP3    H139957   6.476   4.068   1.313
13338TIP3    H239958   6.391   4.185   1.269
13339TIP3   OH239959   5.753   2.371   5.210
13339TIP3    H139960   5.760   2.327   5.125
13339TIP3    H239961   5.700   2.449   5.193
13340TIP3   OH239962   4.311   6.085   2.284
13340TIP3    H139963   4.364   6.092   2.363
13340TIP3    H239964   4.286   6.176   2.264
13341TIP3   OH239965   1.371   1.531   0.517
13341TIP3    H139966   1.387   1.593   0.588
13341TIP3    H239967   1.392   1.445   0.554
13342TIP3   OH239968   6.194   5.895   4.109
13342TIP3    H139969   6.196   5.800   4.116
13342TIP3    H239970   6.270   5.925   4.159
13343TIP3   OH239971   1.575   3.036   6.625
13343TIP3    H139972   1.635   3.091   6.575
13343TIP3    H239973   1.519   2.995   6.560
13344TIP3   OH239974   2.024   7.359   2.351
13344TIP3    H139975   1.976   7.331   2.429
13344TIP3    H239976   1.956   7.398   2.295
13345TIP3   OH239977   6.890   0.629   1.226
13345TIP3    H139978   6.922   0.678   1.150
13345TIP3    H239979   6.920   0.679   1.302
13346TIP3   OH239980   1.596   3.809   0.815
13346TIP3    H139981   1.688   3.821   0.791
13346TIP3    H239982   1.583   3.714   0.812
13347TIP3   OH239983   7.838   1.505   3.046
13347TIP3    H139984   7.794   1.483   3.128
13347TIP3    H239985   7.770   1.496   2.979
13348TIP3   OH239986   0.660   1.334   1.681
13348TIP3    H139987   0.651   1.337   1.777
13348TIP3    H239988   0.624   1.418   1.652
13349TIP3   OH239989   6.533   5.753   6.144
13349TIP3    H139990   6.474   5.808   6.093
13349TIP3    H239991   6.475   5.686   6.182
13350TIP3   OH239992   2.217   6.693   5.058
13350TIP3    H139993   2.309   6.712   5.079
13350TIP3    H239994   2.184   6.650   5.137
13351TIP3   OH239995   8.208   0.275   6.791
13351TIP3    H139996   8.207   0.310   6.702
13351TIP3    H239997   8.288   0.310   6.829
13352TIP3   OH239998   2.183   7.486   0.245
13352TIP3    H139999   2.253   7.548   0.227
13352TIP3    H240000   2.219   7.400   0.223
13353TIP3   OH240001   7.267  -0.005   0.281
13353TIP3    H140002   7.249  -0.062   0.206
13353TIP3    H240003   7.319   0.067   0.243
13354TIP3   OH240004   2.384   0.615   0.079
13354TIP3    H140005   2.458   0.582   0.129
13354TIP3    H240006   2.308   0.572   0.118
13355TIP3   OH240007   0.439   6.537   0.845
13355TIP3    H140008   0.452   6.549   0.939
13355TIP3    H240009   0.521   6.498   0.815
13356TIP3   OH240010   2.208   7.044   1.063
13356TIP3    H140011   2.220   6.949   1.055
13356TIP3    H240012   2.289   7.081   1.028
13357TIP3   OH240013   6.724   0.381   5.981
13357TIP3    H140014   6.775   0.352   5.905
13357TIP3    H240015   6.776   0.453   6.018
13358TIP3   OH240016   1.552   2.734   5.897
13358TIP3    H140017   1.518   2.817   5.930
13358TIP3    H240018   1.627   2.714   5.953
13359TIP3   OH240019   4.129   4.588   6.342
13359TIP3    H140020   4.220   4.617   6.346
13359TIP3    H240021   4.123   4.540   6.259
13360TIP3   OH240022   2.253   6.588   0.820
13360TIP3    H140023   2.278   6.512   0.873
13360TIP3    H240024   2.178   6.625   0.866
13361TIP3   OH240025   1.202   7.617   3.398
13361TIP3    H140026   1.119   7.665   3.398
13361TIP3    H240027   1.265   7.676   3.357
13362TIP3   OH240028   1.344   7.068   2.190
13362TIP3    H140029   1.275   7.133   2.197
13362TIP3    H240030   1.341   7.040   2.098
13363TIP3   OH240031   0.737   1.062   3.908
13363TIP3    H140032   0.772   0.981   3.871
13363TIP3    H240033   0.813   1.120   3.916
13364TIP3   OH240034   5.068   3.250   1.567
13364TIP3    H140035   5.121   3.287   1.638
13364TIP3    H240036   5.001   3.199   1.612
13365TIP3   OH240037   4.376   1.039   4.381
13365TIP3    H140038   4.400   1.047   4.288
13365TIP3    H240039   4.342   0.950   4.389
13366TIP3   OH240040   5.781   7.633   5.568
13366TIP3    H140041   5.774   7.637   5.473
13366TIP3    H240042   5.761   7.723   5.596
13367TIP3   OH240043   0.313   4.724   3.500
13367TIP3    H140044   0.372   4.694   3.430
13367TIP3    H240045   0.288   4.812   3.473
13368TIP3   OH240046   1.323   4.886   0.793
13368TIP3    H140047   1.246   4.845   0.831
13368TIP3    H240048   1.348   4.954   0.856
13369TIP3   OH240049   7.626   5.269   0.133
13369TIP3    H140050   7.618   5.351   0.084
13369TIP3    H240051   7.667   5.294   0.216
13370TIP3   OH240052   0.777   0.408   1.825
13370TIP3    H140053   0.800   0.346   1.894
13370TIP3    H240054   0.861   0.428   1.782
13371TIP3   OH240055   6.628   7.602   0.562
13371TIP3    H140056   6.569   7.622   0.490
13371TIP3    H240057   6.617   7.508   0.576
13372TIP3   OH240058   2.070   5.631   3.221
13372TIP3    H140059   2.139   5.582   3.175
13372TIP3    H240060   2.082   5.722   3.193
13373TIP3   OH240061   2.613   7.710   5.877
13373TIP3    H140062   2.572   7.632   5.839
13373TIP3    H240063   2.707   7.697   5.863
13374TIP3   OH240064   3.550   7.128   5.419
13374TIP3    H140065   3.579   7.071   5.490
13374TIP3    H240066   3.531   7.068   5.346
13375TIP3   OH240067   2.649   3.018   5.629
13375TIP3    H140068   2.643   3.113   5.636
13375TIP3    H240069   2.727   3.002   5.576
13376TIP3   OH240070   1.638   2.108   0.137
13376TIP3    H140071   1.728   2.076   0.128
13376TIP3    H240072   1.588   2.055   0.075
13377TIP3   OH240073   5.916   3.702   1.569
13377TIP3    H140074   5.851   3.633   1.583
13377TIP3    H240075   5.972   3.698   1.646
13378TIP3   OH240076   6.797   2.837   2.761
13378TIP3    H140077   6.879   2.817   2.806
13378TIP3    H240078   6.769   2.921   2.797
13379TIP3   OH240079   7.292   1.235   1.952
13379TIP3    H140080   7.302   1.144   1.981
13379TIP3    H240081   7.293   1.229   1.856
13380TIP3   OH240082   3.756  -0.052   4.901
13380TIP3    H140083   3.688  -0.047   4.968
13380TIP3    H240084   3.816   0.019   4.923
13381TIP3   OH240085   3.985   6.133   0.152
13381TIP3    H140086   3.965   6.217   0.193
13381TIP3    H240087   3.946   6.067   0.210
13382TIP3   OH240088   1.265   0.516   0.814
13382TIP3    H140089   1.340   0.496   0.871
13382TIP3    H240090   1.284   0.604   0.780
13383TIP3   OH240091   6.108   2.859   1.152
13383TIP3    H140092   6.070   2.793   1.209
13383TIP3    H240093   6.132   2.931   1.211
13384TIP3   OH240094   2.958   5.174   6.245
13384TIP3    H140095   3.029   5.192   6.183
13384TIP3    H240096   2.885   5.146   6.189
13385TIP3   OH240097   5.270   2.579   6.685
13385TIP3    H140098   5.309   2.512   6.629
13385TIP3    H240099   5.178   2.552   6.694
13386TIP3   OH240100   3.226   2.090   1.409
13386TIP3    H140101   3.261   2.073   1.321
13386TIP3    H240102   3.136   2.056   1.406
13387TIP3   OH240103   0.075   3.421   5.220
13387TIP3    H140104   0.002   3.460   5.268
13387TIP3    H240105   0.082   3.332   5.255
13388TIP3   OH240106   2.928   3.971   4.694
13388TIP3    H140107   2.994   4.017   4.642
13388TIP3    H240108   2.976   3.935   4.768
13389TIP3   OH240109   5.163   1.268   0.859
13389TIP3    H140110   5.193   1.351   0.896
13389TIP3    H240111   5.188   1.203   0.925
13390TIP3   OH240112   7.763   3.465   4.855
13390TIP3    H140113   7.730   3.462   4.944
13390TIP3    H240114   7.689   3.438   4.800
13391TIP3   OH240115   0.190   0.089   5.635
13391TIP3    H140116   0.257   0.151   5.605
13391TIP3    H240117   0.153   0.129   5.713
13392TIP3   OH240118   2.087   4.065   3.358
13392TIP3    H140119   2.091   3.972   3.338
13392TIP3    H240120   2.017   4.099   3.302
13393TIP3   OH240121   1.849   3.824   0.388
13393TIP3    H140122   1.938   3.858   0.390
13393TIP3    H240123   1.798   3.892   0.344
13394TIP3   OH240124   7.084   5.604   5.765
13394TIP3    H140125   7.130   5.668   5.711
13394TIP3    H240126   7.074   5.528   5.708
13395TIP3   OH240127   2.109   5.255   1.521
13395TIP3    H140128   2.201   5.239   1.542
13395TIP3    H240129   2.089   5.191   1.452
13396TIP3   OH240130   8.132   2.956   1.380
13396TIP3    H140131   8.107   2.898   1.308
13396TIP3    H240132   8.102   3.043   1.352
13397TIP3   OH240133   7.767   5.648   0.672
13397TIP3    H140134   7.716   5.717   0.713
13397TIP3    H240135   7.853   5.653   0.714
13398TIP3   OH240136   0.228   0.225   0.004
13398TIP3    H140137   0.308   0.248   0.052
13398TIP3    H240138   0.244   0.137  -0.029
13399TIP3   OH240139   7.333   2.319  -0.017
13399TIP3    H140140   7.353   2.373   0.059
13399TIP3    H240141   7.260   2.364  -0.060
13400TIP3   OH240142   0.171   4.503   5.820
13400TIP3    H140143   0.262   4.521   5.844
13400TIP3    H240144   0.127   4.588   5.826
13401TIP3   OH240145   3.556   7.558   6.512
13401TIP3    H140146   3.488   7.537   6.576
13401TIP3    H240147   3.569   7.477   6.462
13402TIP3   OH240148   2.716   4.784   1.428
13402TIP3    H140149   2.712   4.832   1.511
13402TIP3    H240150   2.703   4.692   1.453
13403TIP3   OH240151   1.436   5.321   0.669
13403TIP3    H140152   1.414   5.413   0.683
13403TIP3    H240153   1.357   5.273   0.696
13404TIP3   OH240154   7.388   7.631   1.577
13404TIP3    H140155   7.415   7.703   1.633
13404TIP3    H240156   7.312   7.593   1.621
13405TIP3   OH240157   7.829   7.669   1.002
13405TIP3    H140158   7.837   7.598   1.066
13405TIP3    H240159   7.762   7.727   1.039
13406TIP3   OH240160   0.584   6.190   0.592
13406TIP3    H140161   0.580   6.124   0.661
13406TIP3    H240162   0.506   6.174   0.539
13407TIP3   OH240163   6.571   5.392   6.738
13407TIP3    H140164   6.596   5.345   6.659
13407TIP3    H240165   6.611   5.479   6.728
13408TIP3   OH240166   5.152   6.805   2.162
13408TIP3    H140167   5.198   6.741   2.108
13408TIP3    H240168   5.092   6.753   2.215
13409TIP3   OH240169   6.610   4.988   1.367
13409TIP3    H140170   6.614   5.080   1.341
13409TIP3    H240171   6.528   4.980   1.416
13410TIP3   OH240172   2.117   2.094   5.782
13410TIP3    H140173   2.177   2.102   5.856
13410TIP3    H240174   2.086   2.183   5.766
13411TIP3   OH240175   0.652   7.592   5.178
13411TIP3    H140176   0.639   7.540   5.258
13411TIP3    H240177   0.596   7.551   5.113
13412TIP3   OH240178   3.082   5.054   0.113
13412TIP3    H140179   3.108   5.056   0.021
13412TIP3    H240180   2.998   5.102   0.115
13413TIP3   OH240181   2.518   1.143   5.533
13413TIP3    H140182   2.493   1.062   5.489
13413TIP3    H240183   2.445   1.202   5.518
13414TIP3   OH240184   6.669   2.895   3.599
13414TIP3    H140185   6.690   2.978   3.557
13414TIP3    H240186   6.668   2.915   3.693
13415TIP3   OH240187   1.777   6.722   2.469
13415TIP3    H140188   1.842   6.790   2.484
13415TIP3    H240189   1.807   6.677   2.390
13416TIP3   OH240190   6.144   7.714   6.041
13416TIP3    H140191   6.112   7.650   5.977
13416TIP3    H240192   6.078   7.713   6.110
13417TIP3   OH240193   0.120   1.789   4.944
13417TIP3    H140194   0.062   1.850   4.989
13417TIP3    H240195   0.138   1.721   5.009
13418TIP3   OH240196   3.866   5.337   2.114
13418TIP3    H140197   3.851   5.418   2.066
13418TIP3    H240198   3.957   5.342   2.143
13419TIP3   OH240199   8.126   1.503   4.263
13419TIP3    H140200   8.114   1.560   4.339
13419TIP3    H240201   8.121   1.414   4.299
13420TIP3   OH240202   6.029   4.541   3.658
13420TIP3    H140203   5.963   4.481   3.623
13420TIP3    H240204   5.977   4.611   3.699
13421TIP3   OH240205   2.768   0.719   3.577
13421TIP3    H140206   2.845   0.677   3.615
13421TIP3    H240207   2.694   0.677   3.620
13422TIP3   OH240208   7.369   6.605   5.724
13422TIP3    H140209   7.359   6.559   5.641
13422TIP3    H240210   7.427   6.549   5.776
13423TIP3   OH240211   0.581   2.673   1.254
13423TIP3    H140212   0.672   2.695   1.233
13423TIP3    H240213   0.581   2.660   1.349
13424TIP3   OH240214   2.101   4.715   3.623
13424TIP3    H140215   2.069   4.802   3.599
13424TIP3    H240216   2.186   4.730   3.664
13425TIP3   OH240217   5.897   1.059   1.037
13425TIP3    H140218   5.944   0.980   1.062
13425TIP3    H240219   5.960   1.130   1.051
13426TIP3   OH240220   4.009   2.209   4.334
13426TIP3    H140221   3.933   2.151   4.323
13426TIP3    H240222   3.979   2.294   4.301
13427TIP3   OH240223   1.599   6.022   0.609
13427TIP3    H140224   1.594   5.943   0.664
13427TIP3    H240225   1.670   6.002   0.548
13428TIP3   OH240226   5.066   4.850   3.354
13428TIP3    H140227   4.997   4.917   3.352
13428TIP3    H240228   5.138   4.891   3.400
13429TIP3   OH240229   1.600   6.307   3.234
13429TIP3    H140230   1.511   6.341   3.238
13429TIP3    H240231   1.649   6.360   3.297
13430TIP3   OH240232   6.618   1.960   5.605
13430TIP3    H140233   6.583   1.914   5.681
13430TIP3    H240234   6.580   1.914   5.530
13431TIP3   OH240235   2.680   6.415   5.819
13431TIP3    H140236   2.732   6.475   5.872
13431TIP3    H240237   2.741   6.384   5.751
13432TIP3   OH240238   0.358   3.587   0.037
13432TIP3    H140239   0.277   3.536   0.025
13432TIP3    H240240   0.330   3.666   0.084
13433TIP3   OH240241   7.050   4.144   5.138
13433TIP3    H140242   7.005   4.188   5.066
13433TIP3    H240243   7.047   4.051   5.116
13434TIP3   OH240244   8.024   1.938   2.961
13434TIP3    H140245   7.977   1.961   2.881
13434TIP3    H240246   8.114   1.925   2.933
13435TIP3   OH240247   8.087   1.413   6.292
13435TIP3    H140248   8.146   1.409   6.367
13435TIP3    H240249   8.061   1.321   6.277
13436TIP3   OH240250   0.276   2.698   6.181
13436TIP3    H140251   0.211   2.722   6.115
13436TIP3    H240252   0.333   2.774   6.188
13437TIP3   OH240253   4.708   7.212   1.992
13437TIP3    H140254   4.709   7.282   1.927
13437TIP3    H240255   4.801   7.199   2.015
13438TIP3   OH240256   6.943   5.135   5.265
13438TIP3    H140257   6.876   5.155   5.200
13438TIP3    H240258   6.894   5.102   5.340
13439TIP3   OH240259   1.826   4.524   2.494
13439TIP3    H140260   1.849   4.604   2.446
13439TIP3    H240261   1.782   4.469   2.429
13440TIP3   OH240262   0.691   0.450   4.511
13440TIP3    H140263   0.775   0.495   4.516
13440TIP3    H240264   0.698   0.394   4.433
13441TIP3   OH240265   4.318   3.628   4.134
13441TIP3    H140266   4.320   3.724   4.138
13441TIP3    H240267   4.226   3.606   4.119
13442TIP3   OH240268   5.802   3.108   0.948
13442TIP3    H140269   5.825   3.191   0.991
13442TIP3    H240270   5.815   3.041   1.015
13443TIP3   OH240271   3.622   2.185   4.024
13443TIP3    H140272   3.531   2.162   4.042
13443TIP3    H240273   3.642   2.255   4.087
13444TIP3   OH240274   7.411   5.710   0.518
13444TIP3    H140275   7.369   5.629   0.545
13444TIP3    H240276   7.471   5.684   0.447
13445TIP3   OH240277   4.777   2.814   5.717
13445TIP3    H140278   4.836   2.775   5.782
13445TIP3    H240279   4.727   2.878   5.766
13446TIP3   OH240280   5.392   0.327   5.620
13446TIP3    H140281   5.471   0.355   5.666
13446TIP3    H240282   5.376   0.238   5.650
13447TIP3   OH240283   1.487   6.471   6.341
13447TIP3    H140284   1.432   6.524   6.399
13447TIP3    H240285   1.447   6.480   6.255
13448TIP3   OH240286   2.250   5.445   6.414
13448TIP3    H140287   2.275   5.439   6.506
13448TIP3    H240288   2.304   5.379   6.370
13449TIP3   OH240289   7.003   2.788   1.544
13449TIP3    H140290   7.016   2.881   1.563
13449TIP3    H240291   7.084   2.760   1.502
13450TIP3   OH240292   0.057   4.866   4.601
13450TIP3    H140293   0.024   4.949   4.566
13450TIP3    H240294   0.118   4.835   4.534
13451TIP3   OH240295   4.190   0.916   6.602
13451TIP3    H140296   4.270   0.865   6.605
13451TIP3    H240297   4.154   0.899   6.515
13452TIP3   OH240298   0.630   3.351   3.300
13452TIP3    H140299   0.604   3.277   3.355
13452TIP3    H240300   0.562   3.359   3.234
13453TIP3   OH240301   3.268   7.362   3.264
13453TIP3    H140302   3.259   7.399   3.176
13453TIP3    H240303   3.341   7.410   3.303
13454TIP3   OH240304   7.664   2.641   1.225
13454TIP3    H140305   7.735   2.635   1.161
13454TIP3    H240306   7.588   2.668   1.174
13455TIP3   OH240307   0.518   1.341   4.509
13455TIP3    H140308   0.481   1.274   4.451
13455TIP3    H240309   0.450   1.357   4.574
13456TIP3   OH240310   6.689   6.463   0.674
13456TIP3    H140311   6.739   6.437   0.752
13456TIP3    H240312   6.599   6.469   0.705
13457TIP3   OH240313   6.951   7.549   5.487
13457TIP3    H140314   6.894   7.604   5.432
13457TIP3    H240315   6.900   7.470   5.503
13458TIP3   OH240316   0.243   0.376   2.761
13458TIP3    H140317   0.184   0.337   2.825
13458TIP3    H240318   0.282   0.301   2.716
13459TIP3   OH240319   6.697   6.494   6.100
13459TIP3    H140320   6.782   6.538   6.091
13459TIP3    H240321   6.714   6.405   6.070
13460TIP3   OH240322   3.874   5.414   5.651
13460TIP3    H140323   3.924   5.430   5.570
13460TIP3    H240324   3.939   5.418   5.721
13461TIP3   OH240325   1.390   1.964   3.710
13461TIP3    H140326   1.363   1.921   3.629
13461TIP3    H240327   1.483   1.942   3.719
13462TIP3   OH240328   7.385   4.464   2.719
13462TIP3    H140329   7.415   4.448   2.630
13462TIP3    H240330   7.440   4.536   2.750
13463TIP3   OH240331   3.408   5.899   4.287
13463TIP3    H140332   3.497   5.866   4.268
13463TIP3    H240333   3.361   5.888   4.204
13464TIP3   OH240334   1.055   2.164   5.060
13464TIP3    H140335   1.119   2.102   5.025
13464TIP3    H240336   1.107   2.232   5.101
13465TIP3   OH240337   2.757   7.344   0.247
13465TIP3    H140338   2.777   7.428   0.289
13465TIP3    H240339   2.682   7.364   0.191
13466TIP3   OH240340   1.538   5.749   6.284
13466TIP3    H140341   1.610   5.729   6.225
13466TIP3    H240342   1.557   5.699   6.364
13467TIP3   OH240343   5.851   5.886   1.630
13467TIP3    H140344   5.893   5.967   1.599
13467TIP3    H240345   5.768   5.882   1.582
13468TIP3   OH240346   0.462   5.405   5.742
13468TIP3    H140347   0.487   5.368   5.658
13468TIP3    H240348   0.468   5.500   5.729
13469TIP3   OH240349   2.619   4.908   6.283
13469TIP3    H140350   2.646   4.834   6.336
13469TIP3    H240351   2.547   4.948   6.332
13470TIP3   OH240352   7.032   7.750   5.642
13470TIP3    H140353   6.939   7.762   5.661
13470TIP3    H240354   7.034   7.677   5.580
13471TIP3   OH240355   1.126   7.129   4.670
13471TIP3    H140356   1.051   7.107   4.615
13471TIP3    H240357   1.096   7.203   4.722
13472TIP3   OH240358   5.461   1.465   0.566
13472TIP3    H140359   5.555   1.444   0.567
13472TIP3    H240360   5.448   1.519   0.644
13473TIP3   OH240361   6.594   0.150   5.985
13473TIP3    H140362   6.663   0.216   5.991
13473TIP3    H240363   6.607   0.094   6.062
13474TIP3   OH240364   2.548   7.274   0.773
13474TIP3    H140365   2.589   7.353   0.739
13474TIP3    H240366   2.592   7.258   0.857
13475TIP3   OH240367   8.123   5.790   3.170
13475TIP3    H140368   8.186   5.722   3.146
13475TIP3    H240369   8.094   5.765   3.257
13476TIP3   OH240370   3.032   7.285   0.136
13476TIP3    H140371   2.941   7.313   0.146
13476TIP3    H240372   3.054   7.304   0.045
13477TIP3   OH240373   1.863   0.884   3.760
13477TIP3    H140374   1.926   0.884   3.688
13477TIP3    H240375   1.860   0.792   3.788
13478TIP3   OH240376   2.845   1.904   4.576
13478TIP3    H140377   2.782   1.840   4.609
13478TIP3    H240378   2.858   1.880   4.484
13479TIP3   OH240379   7.706   2.970   1.689
13479TIP3    H140380   7.768   2.962   1.762
13479TIP3    H240381   7.629   2.920   1.718
13480TIP3   OH240382   8.094   2.415   5.086
13480TIP3    H140383   8.088   2.487   5.023
13480TIP3    H240384   8.002   2.396   5.108
13481TIP3   OH240385   5.087   6.263   3.005
13481TIP3    H140386   5.071   6.277   3.098
13481TIP3    H240387   5.125   6.175   3.000
13482TIP3   OH240388   4.367   4.913   0.081
13482TIP3    H140389   4.349   4.972   0.153
13482TIP3    H240390   4.331   4.829   0.108
13483TIP3   OH240391   0.641   1.312   6.572
13483TIP3    H140392   0.698   1.275   6.639
13483TIP3    H240393   0.682   1.395   6.548
13484TIP3   OH240394   5.857   7.416   0.150
13484TIP3    H140395   5.813   7.387   0.230
13484TIP3    H240396   5.948   7.390   0.162
13485TIP3   OH240397   4.098   7.315   1.241
13485TIP3    H140398   4.191   7.334   1.252
13485TIP3    H240399   4.093   7.220   1.234
13486TIP3   OH240400   3.526   2.543   5.490
13486TIP3    H140401   3.497   2.458   5.526
13486TIP3    H240402   3.556   2.592   5.566
13487TIP3   OH240403   2.579   3.676   1.043
13487TIP3    H140404   2.499   3.667   1.094
13487TIP3    H240405   2.649   3.676   1.109
13488TIP3   OH240406   4.624   2.618   5.557
13488TIP3    H140407   4.656   2.685   5.617
13488TIP3    H240408   4.647   2.651   5.470
13489TIP3   OH240409   5.500   7.648   0.203
13489TIP3    H140410   5.485   7.635   0.109
13489TIP3    H240411   5.436   7.714   0.228
13490TIP3   OH240412   3.388   0.153   3.766
13490TIP3    H140413   3.341   0.080   3.807
13490TIP3    H240414   3.419   0.206   3.840
13491TIP3   OH240415   5.365   2.779   1.166
13491TIP3    H140416   5.275   2.747   1.164
13491TIP3    H240417   5.393   2.779   1.075
13492TIP3   OH240418   6.890   4.510   4.774
13492TIP3    H140419   6.889   4.599   4.740
13492TIP3    H240420   6.810   4.504   4.827
13493TIP3   OH240421   2.746   7.778   2.081
13493TIP3    H140422   2.672   7.826   2.117
13493TIP3    H240423   2.709   7.726   2.010
13494TIP3   OH240424   2.014   5.911   4.185
13494TIP3    H140425   1.964   5.981   4.144
13494TIP3    H240426   2.103   5.922   4.152
13495TIP3   OH240427   1.959   1.318   1.588
13495TIP3    H140428   1.933   1.228   1.604
13495TIP3    H240429   2.004   1.315   1.504
13496TIP3   OH240430   2.390   2.639   1.706
13496TIP3    H140431   2.379   2.608   1.616
13496TIP3    H240432   2.429   2.725   1.697
13497TIP3   OH240433   7.494   2.420   6.569
13497TIP3    H140434   7.545   2.500   6.551
13497TIP3    H240435   7.449   2.401   6.487
13498TIP3   OH240436   5.916   6.197   3.371
13498TIP3    H140437   5.829   6.237   3.365
13498TIP3    H240438   5.908   6.133   3.441
13499TIP3   OH240439   3.052   7.399   5.065
13499TIP3    H140440   3.126   7.341   5.085
13499TIP3    H240441   3.051   7.403   4.969
13500TIP3   OH240442   3.063   2.412   0.666
13500TIP3    H140443   3.053   2.453   0.580
13500TIP3    H240444   2.974   2.407   0.701
13501TIP3   OH240445   3.266   2.311   3.392
13501TIP3    H140446   3.178   2.348   3.387
13501TIP3    H240447   3.324   2.382   3.364
13502TIP3   OH240448   6.154   0.360   3.167
13502TIP3    H140449   6.170   0.270   3.194
13502TIP3    H240450   6.077   0.386   3.218
13503TIP3   OH240451   4.194   4.778   3.016
13503TIP3    H140452   4.266   4.741   3.067
13503TIP3    H240453   4.183   4.866   3.050
13504TIP3   OH240454   0.457   5.744   0.638
13504TIP3    H140455   0.479   5.664   0.590
13504TIP3    H240456   0.393   5.789   0.583
13505TIP3   OH240457   3.455   2.694   3.767
13505TIP3    H140458   3.395   2.638   3.717
13505TIP3    H240459   3.399   2.736   3.832
13506TIP3   OH240460   4.125   4.837   1.226
13506TIP3    H140461   4.099   4.758   1.179
13506TIP3    H240462   4.043   4.876   1.256
13507TIP3   OH240463   1.945   1.003   1.631
13507TIP3    H140464   2.035   1.020   1.604
13507TIP3    H240465   1.946   1.012   1.726
13508TIP3   OH240466   1.987   1.092   4.957
13508TIP3    H140467   1.958   1.078   5.047
13508TIP3    H240468   1.923   1.153   4.921
13509TIP3   OH240469   0.515   2.489   6.475
13509TIP3    H140470   0.570   2.554   6.431
13509TIP3    H240471   0.443   2.474   6.415
13510TIP3   OH240472   2.322   2.205   1.466
13510TIP3    H140473   2.314   2.299   1.485
13510TIP3    H240474   2.254   2.164   1.520
13511TIP3   OH240475   7.744   3.312   4.060
13511TIP3    H140476   7.837   3.331   4.074
13511TIP3    H240477   7.717   3.370   3.990
13512TIP3   OH240478   2.738   3.419   2.838
13512TIP3    H140479   2.646   3.445   2.845
13512TIP3    H240480   2.769   3.461   2.758
13513TIP3   OH240481   3.817   2.162   1.234
13513TIP3    H140482   3.904   2.121   1.242
13513TIP3    H240483   3.763   2.095   1.191
13514TIP3   OH240484   4.546   6.861   0.347
13514TIP3    H140485   4.551   6.867   0.252
13514TIP3    H240486   4.499   6.779   0.364
13515TIP3   OH240487   7.351   0.505   3.406
13515TIP3    H140488   7.301   0.429   3.375
13515TIP3    H240489   7.426   0.467   3.451
13516TIP3   OH240490   2.006   1.322   0.419
13516TIP3    H140491   2.098   1.301   0.436
13516TIP3    H240492   1.963   1.311   0.504
13517TIP3   OH240493   4.734   2.779   2.366
13517TIP3    H140494   4.776   2.729   2.297
13517TIP3    H240495   4.750   2.728   2.446
13518TIP3   OH240496   2.079   7.338   3.244
13518TIP3    H140497   2.093   7.432   3.240
13518TIP3    H240498   2.037   7.316   3.161
13519TIP3   OH240499   0.217   4.103   5.353
13519TIP3    H140500   0.203   4.051   5.274
13519TIP3    H240501   0.239   4.039   5.420
13520TIP3   OH240502   8.031   6.671   1.149
13520TIP3    H140503   8.009   6.701   1.237
13520TIP3    H240504   8.064   6.749   1.104
13521TIP3   OH240505   5.894   2.645   4.752
13521TIP3    H140506   5.967   2.705   4.743
13521TIP3    H240507   5.875   2.614   4.663
13522TIP3   OH240508   0.367   4.703   3.156
13522TIP3    H140509   0.315   4.637   3.201
13522TIP3    H240510   0.321   4.785   3.171
13523TIP3   OH240511   4.320   2.405   5.479
13523TIP3    H140512   4.366   2.398   5.396
13523TIP3    H240513   4.304   2.314   5.505
13524TIP3   OH240514   7.010   5.218   0.254
13524TIP3    H140515   7.050   5.304   0.265
13524TIP3    H240516   6.975   5.196   0.340
13525TIP3   OH240517   2.667   2.538   4.414
13525TIP3    H140518   2.737   2.547   4.479
13525TIP3    H240519   2.704   2.577   4.335
13526TIP3   OH240520   4.096   0.683   0.789
13526TIP3    H140521   4.130   0.717   0.706
13526TIP3    H240522   4.159   0.615   0.814
13527TIP3   OH240523   2.049   6.539   1.947
13527TIP3    H140524   1.984   6.608   1.939
13527TIP3    H240525   1.999   6.458   1.948
13528TIP3   OH240526   1.651   2.643   4.069
13528TIP3    H140527   1.601   2.591   4.132
13528TIP3    H240528   1.599   2.723   4.057
13529TIP3   OH240529   0.211   5.433   0.126
13529TIP3    H140530   0.126   5.396   0.150
13529TIP3    H240531   0.222   5.411   0.034
13530TIP3   OH240532   1.864   1.769   2.185
13530TIP3    H140533   1.847   1.816   2.102
13530TIP3    H240534   1.828   1.827   2.252
13531TIP3   OH240535   1.372   6.232   1.808
13531TIP3    H140536   1.372   6.269   1.896
13531TIP3    H240537   1.352   6.307   1.750
13532TIP3   OH240538   6.517   5.266   2.649
13532TIP3    H140539   6.430   5.227   2.652
13532TIP3    H240540   6.511   5.342   2.706
13533TIP3   OH240541   0.594   1.876   4.294
13533TIP3    H140542   0.667   1.877   4.232
13533TIP3    H240543   0.560   1.966   4.292
13534TIP3   OH240544   3.381   7.044   0.030
13534TIP3    H140545   3.312   7.038   0.096
13534TIP3    H240546   3.377   7.135  -0.001
13535TIP3   OH240547   6.499   5.598   4.176
13535TIP3    H140548   6.577   5.563   4.219
13535TIP3    H240549   6.509   5.693   4.184
13536TIP3   OH240550   7.507   2.784   2.655
13536TIP3    H140551   7.417   2.768   2.684
13536TIP3    H240552   7.515   2.736   2.573
13537TIP3   OH240553   6.804   7.421   2.211
13537TIP3    H140554   6.739   7.353   2.229
13537TIP3    H240555   6.826   7.456   2.297
13538TIP3   OH240556   4.298   1.089   6.205
13538TIP3    H140557   4.310   1.161   6.267
13538TIP3    H240558   4.213   1.106   6.165
13539TIP3   OH240559   8.223   0.541   0.453
13539TIP3    H140560   8.310   0.559   0.418
13539TIP3    H240561   8.174   0.622   0.438
13540TIP3   OH240562   3.029   0.919   6.479
13540TIP3    H140563   3.023   0.961   6.393
13540TIP3    H240564   2.988   0.980   6.539
13541TIP3   OH240565   4.262   0.928   2.167
13541TIP3    H140566   4.178   0.890   2.194
13541TIP3    H240567   4.242   0.971   2.083
13542TIP3   OH240568   2.084   4.450   2.324
13542TIP3    H140569   2.056   4.415   2.409
13542TIP3    H240570   2.004   4.480   2.282
13543TIP3   OH240571   8.164   5.980   2.367
13543TIP3    H140572   8.090   5.963   2.309
13543TIP3    H240573   8.228   5.912   2.344
13544TIP3   OH240574   2.379   3.358   1.371
13544TIP3    H140575   2.333   3.390   1.449
13544TIP3    H240576   2.388   3.264   1.385
13545TIP3   OH240577   4.760   1.459   4.290
13545TIP3    H140578   4.833   1.521   4.296
13545TIP3    H240579   4.682   1.514   4.282
13546TIP3   OH240580   3.460   2.090   0.681
13546TIP3    H140581   3.493   2.022   0.740
13546TIP3    H240582   3.533   2.110   0.623
13547TIP3   OH240583   4.760   1.570   0.825
13547TIP3    H140584   4.838   1.515   0.837
13547TIP3    H240585   4.749   1.614   0.909
13548TIP3   OH240586   3.415   2.746   1.642
13548TIP3    H140587   3.378   2.659   1.656
13548TIP3    H240588   3.499   2.743   1.687
13549TIP3   OH240589   1.689   0.861   4.473
13549TIP3    H140590   1.669   0.946   4.512
13549TIP3    H240591   1.654   0.867   4.384
13550TIP3   OH240592   4.866   2.028   0.120
13550TIP3    H140593   4.830   1.940   0.107
13550TIP3    H240594   4.897   2.053   0.033
13551TIP3   OH240595   2.572   2.089   5.759
13551TIP3    H140596   2.625   2.052   5.829
13551TIP3    H240597   2.583   2.183   5.768
13552TIP3   OH240598   0.997   4.003   6.606
13552TIP3    H140599   0.936   4.074   6.624
13552TIP3    H240600   0.951   3.924   6.636
13553TIP3   OH240601   5.826   7.358   5.124
13553TIP3    H140602   5.776   7.438   5.139
13553TIP3    H240603   5.890   7.355   5.195
13554TIP3   OH240604   5.817   7.067   3.511
13554TIP3    H140605   5.832   7.057   3.417
13554TIP3    H240606   5.728   7.034   3.525
13555TIP3   OH240607   1.377   5.990   2.795
13555TIP3    H140608   1.472   5.989   2.781
13555TIP3    H240609   1.349   6.074   2.756
13556TIP3   OH240610   3.729   2.255   0.876
13556TIP3    H140611   3.668   2.321   0.910
13556TIP3    H240612   3.807   2.264   0.930
13557TIP3   OH240613   1.519   3.438   5.983
13557TIP3    H140614   1.475   3.518   5.954
13557TIP3    H240615   1.448   3.381   6.012
13558TIP3   OH240616   5.511   4.199   0.685
13558TIP3    H140617   5.530   4.195   0.591
13558TIP3    H240618   5.422   4.235   0.690
13559TIP3   OH240619   5.629   1.299   2.507
13559TIP3    H140620   5.649   1.232   2.572
13559TIP3    H240621   5.636   1.382   2.555
13560TIP3   OH240622   7.874   3.855   1.095
13560TIP3    H140623   7.794   3.812   1.124
13560TIP3    H240624   7.854   3.948   1.099
13561TIP3   OH240625   5.123   2.643   2.478
13561TIP3    H140626   5.089   2.563   2.438
13561TIP3    H240627   5.093   2.713   2.421
13562TIP3   OH240628   2.334   0.630   3.877
13562TIP3    H140629   2.380   0.708   3.848
13562TIP3    H240630   2.341   0.632   3.973
13563TIP3   OH240631   6.089   7.429   3.993
13563TIP3    H140632   6.177   7.459   4.016
13563TIP3    H240633   6.104   7.361   3.927
13564TIP3   OH240634   4.067   4.461   3.972
13564TIP3    H140635   4.042   4.416   4.053
13564TIP3    H240636   4.162   4.470   3.977
13565TIP3   OH240637   6.544   0.600   2.931
13565TIP3    H140638   6.483   0.574   3.000
13565TIP3    H240639   6.496   0.665   2.880
13566TIP3   OH240640   1.314   6.910   5.598
13566TIP3    H140641   1.271   6.923   5.682
13566TIP3    H240642   1.250   6.860   5.546
13567TIP3   OH240643   7.207   2.131   2.358
13567TIP3    H140644   7.183   2.047   2.398
13567TIP3    H240645   7.303   2.131   2.359
13568TIP3   OH240646   5.711   1.310   1.104
13568TIP3    H140647   5.740   1.237   1.050
13568TIP3    H240648   5.690   1.379   1.041
13569TIP3   OH240649   1.936   1.016   4.707
13569TIP3    H140650   2.020   0.989   4.670
13569TIP3    H240651   1.941   0.988   4.799
13570TIP3   OH240652   0.638   3.249   4.319
13570TIP3    H140653   0.547   3.227   4.340
13570TIP3    H240654   0.650   3.337   4.354
13571TIP3   OH240655   5.055   1.674   0.268
13571TIP3    H140656   5.072   1.651   0.360
13571TIP3    H240657   5.012   1.596   0.232
13572TIP3   OH240658   1.941   6.351   0.447
13572TIP3    H140659   1.998   6.424   0.468
13572TIP3    H240660   1.994   6.294   0.392
13573TIP3   OH240661   0.138   3.935   6.049
13573TIP3    H140662   0.221   3.970   6.018
13573TIP3    H240663   0.076   3.951   5.978
13574TIP3   OH240664   2.747   3.564   5.733
13574TIP3    H140665   2.817   3.568   5.669
13574TIP3    H240666   2.775   3.622   5.804
13575TIP3   OH240667   7.939   7.637   6.505
13575TIP3    H140668   7.899   7.621   6.591
13575TIP3    H240669   7.865   7.645   6.445
13576TIP3   OH240670   5.299   1.456   5.390
13576TIP3    H140671   5.254   1.469   5.473
13576TIP3    H240672   5.337   1.369   5.396
13577TIP3   OH240673   7.707   1.871   1.773
13577TIP3    H140674   7.791   1.849   1.733
13577TIP3    H240675   7.695   1.805   1.841
13578TIP3   OH240676   3.290   2.564   4.927
13578TIP3    H140677   3.364   2.575   4.866
13578TIP3    H240678   3.308   2.626   4.997
13579TIP3   OH240679   3.802   2.674   2.305
13579TIP3    H140680   3.758   2.591   2.287
13579TIP3    H240681   3.813   2.675   2.400
13580TIP3   OH240682   1.458   5.999   0.023
13580TIP3    H140683   1.437   5.931   0.088
13580TIP3    H240684   1.553   5.992   0.012
13581TIP3   OH240685   8.054   3.206   1.342
13581TIP3    H140686   8.131   3.233   1.292
13581TIP3    H240687   8.059   3.255   1.424
13582TIP3   OH240688   5.322   4.139   5.373
13582TIP3    H140689   5.295   4.079   5.304
13582TIP3    H240690   5.358   4.214   5.326
13583TIP3   OH240691   7.913   0.623   3.231
13583TIP3    H140692   7.849   0.625   3.302
13583TIP3    H240693   7.997   0.612   3.274
13584TIP3   OH240694   0.996   1.194   6.351
13584TIP3    H140695   0.960   1.280   6.332
13584TIP3    H240696   1.041   1.205   6.435
13585TIP3   OH240697   1.714   6.393   3.472
13585TIP3    H140698   1.698   6.447   3.549
13585TIP3    H240699   1.747   6.310   3.507
13586TIP3   OH240700   5.853   6.738   6.248
13586TIP3    H140701   5.926   6.686   6.282
13586TIP3    H240702   5.895   6.813   6.205
13587TIP3   OH240703   5.187   1.675   5.875
13587TIP3    H140704   5.164   1.705   5.787
13587TIP3    H240705   5.148   1.740   5.933
13588TIP3   OH240706   6.189   3.316   4.608
13588TIP3    H140707   6.256   3.293   4.544
13588TIP3    H240708   6.239   3.348   4.684
13589TIP3   OH240709   5.748   7.640   1.694
13589TIP3    H140710   5.811   7.659   1.625
13589TIP3    H240711   5.725   7.548   1.681
13590TIP3   OH240712   5.826   7.084   1.682
13590TIP3    H140713   5.866   7.087   1.769
13590TIP3    H240714   5.746   7.136   1.692
13591TIP3   OH240715   2.840   6.280   4.776
13591TIP3    H140716   2.875   6.308   4.692
13591TIP3    H240717   2.767   6.222   4.754
13592TIP3   OH240718   4.481   7.272   0.057
13592TIP3    H140719   4.464   7.345  -0.003
13592TIP3    H240720   4.397   7.227   0.065
13593TIP3   OH240721   3.983   0.455   1.438
13593TIP3    H140722   4.070   0.419   1.420
13593TIP3    H240723   3.922   0.385   1.414
13594TIP3   OH240724   0.601   5.298   3.564
13594TIP3    H140725   0.577   5.219   3.515
13594TIP3    H240726   0.684   5.275   3.607
13595TIP3   OH240727   7.055   0.938   0.764
13595TIP3    H140728   6.989   0.995   0.724
13595TIP3    H240729   7.095   0.992   0.832
13596TIP3   OH240730   2.754   3.323   3.296
13596TIP3    H140731   2.764   3.404   3.245
13596TIP3    H240732   2.719   3.353   3.380
13597TIP3   OH240733   3.329   2.950   6.133
13597TIP3    H140734   3.238   2.948   6.101
13597TIP3    H240735   3.345   2.862   6.165
13598TIP3   OH240736   1.902   0.860   5.297
13598TIP3    H140737   1.874   0.777   5.259
13598TIP3    H240738   1.836   0.923   5.269
13599TIP3   OH240739   2.579   0.449   0.155
13599TIP3    H140740   2.500   0.398   0.139
13599TIP3    H240741   2.648   0.384   0.167
13600TIP3   OH240742   3.967   0.660   6.649
13600TIP3    H140743   3.932   0.743   6.616
13600TIP3    H240744   3.952   0.597   6.579
13601TIP3   OH240745   3.560   6.400   2.692
13601TIP3    H140746   3.504   6.333   2.732
13601TIP3    H240747   3.612   6.353   2.627
13602TIP3   OH240748   5.887   6.915   0.698
13602TIP3    H140749   5.935   6.989   0.735
13602TIP3    H240750   5.800   6.921   0.738
13603TIP3   OH240751   0.790   4.397   1.250
13603TIP3    H140752   0.834   4.368   1.171
13603TIP3    H240753   0.715   4.338   1.259
13604TIP3   OH240754   7.056   3.236   4.196
13604TIP3    H140755   7.103   3.273   4.120
13604TIP3    H240756   7.115   3.171   4.232
13605TIP3   OH240757   7.683   7.603   4.505
13605TIP3    H140758   7.689   7.689   4.463
13605TIP3    H240759   7.750   7.604   4.572
13606TIP3   OH240760   5.779   3.840   4.126
13606TIP3    H140761   5.827   3.869   4.203
13606TIP3    H240762   5.719   3.773   4.160
13607TIP3   OH240763   6.259   5.947   2.426
13607TIP3    H140764   6.292   5.970   2.512
13607TIP3    H240765   6.318   5.878   2.395
13608TIP3   OH240766   0.090   2.078   4.258
13608TIP3    H140767   0.164   2.044   4.208
13608TIP3    H240768   0.020   2.088   4.194
13609TIP3   OH240769   7.140   4.784   1.938
13609TIP3    H140770   7.123   4.876   1.959
13609TIP3    H240771   7.233   4.772   1.958
13610TIP3   OH240772   5.594   2.953   5.364
13610TIP3    H140773   5.597   2.972   5.271
13610TIP3    H240774   5.600   2.858   5.369
13611TIP3   OH240775   7.214   3.392   4.701
13611TIP3    H140776   7.120   3.384   4.717
13611TIP3    H240777   7.236   3.481   4.729
13612TIP3   OH240778   3.236   0.273   4.718
13612TIP3    H140779   3.213   0.356   4.760
13612TIP3    H240780   3.331   0.270   4.720
13613TIP3   OH240781   0.060   4.660   3.581
13613TIP3    H140782   0.028   4.717   3.511
13613TIP3    H240783   0.155   4.667   3.577
13614TIP3   OH240784   7.001   3.130   2.264
13614TIP3    H140785   6.909   3.129   2.237
13614TIP3    H240786   7.050   3.109   2.185
13615TIP3   OH240787   5.918   2.140   3.833
13615TIP3    H140788   5.839   2.096   3.802
13615TIP3    H240789   5.987   2.074   3.823
13616TIP3   OH240790   3.073   6.820   1.486
13616TIP3    H140791   3.101   6.909   1.509
13616TIP3    H240792   2.995   6.806   1.539
13617TIP3   OH240793   5.415   6.648   5.975
13617TIP3    H140794   5.483   6.674   6.037
13617TIP3    H240795   5.349   6.604   6.028
13618TIP3   OH240796   5.965   7.584   6.546
13618TIP3    H140797   6.058   7.607   6.558
13618TIP3    H240798   5.965   7.524   6.472
13619TIP3   OH240799   0.340   2.829   3.639
13619TIP3    H140800   0.337   2.914   3.684
13619TIP3    H240801   0.406   2.779   3.687
13620TIP3   OH240802   7.603  -0.004   6.398
13620TIP3    H140803   7.508   0.008   6.392
13620TIP3    H240804   7.630   0.053   6.470
13621TIP3   OH240805   0.063   4.062   6.344
13621TIP3    H140806   0.070   3.973   6.310
13621TIP3    H240807   0.017   4.052   6.427
13622TIP3   OH240808   4.456   2.664   2.858
13622TIP3    H140809   4.401   2.607   2.911
13622TIP3    H240810   4.515   2.705   2.921
13623TIP3   OH240811   6.568   6.115   5.078
13623TIP3    H140812   6.579   6.142   4.987
13623TIP3    H240813   6.643   6.153   5.124
13624TIP3   OH240814   0.624   2.433   1.113
13624TIP3    H140815   0.557   2.394   1.057
13624TIP3    H240816   0.579   2.501   1.162
13625TIP3   OH240817   2.030   6.786   3.724
13625TIP3    H140818   2.117   6.811   3.693
13625TIP3    H240819   1.995   6.865   3.767
13626TIP3   OH240820   6.889   5.921   6.359
13626TIP3    H140821   6.798   5.942   6.336
13626TIP3    H240822   6.901   5.831   6.330
13627TIP3   OH240823   4.551   4.312   4.312
13627TIP3    H140824   4.481   4.365   4.351
13627TIP3    H240825   4.559   4.346   4.223
13628TIP3   OH240826   3.637   2.795   4.581
13628TIP3    H140827   3.565   2.857   4.593
13628TIP3    H240828   3.598   2.724   4.529
13629TIP3   OH240829   3.309   2.754   5.119
13629TIP3    H140830   3.373   2.800   5.173
13629TIP3    H240831   3.302   2.807   5.040
13630TIP3   OH240832   0.415   3.915   6.552
13630TIP3    H140833   0.456   4.000   6.535
13630TIP3    H240834   0.439   3.861   6.476
13631TIP3   OH240835   2.553   2.932   6.333
13631TIP3    H140836   2.506   2.941   6.251
13631TIP3    H240837   2.620   3.000   6.330
13632TIP3   OH240838   0.587   4.937   0.500
13632TIP3    H140839   0.639   4.994   0.443
13632TIP3    H240840   0.652   4.886   0.548
13633TIP3   OH240841   6.195   7.622   0.281
13633TIP3    H140842   6.144   7.700   0.259
13633TIP3    H240843   6.213   7.580   0.197
13634TIP3   OH240844   8.203   4.335   2.991
13634TIP3    H140845   8.222   4.243   3.006
13634TIP3    H240846   8.229   4.350   2.900
13635TIP3   OH240847   0.352   2.774   2.601
13635TIP3    H140848   0.444   2.756   2.583
13635TIP3    H240849   0.350   2.864   2.632
13636TIP3   OH240850   7.004   3.937   5.832
13636TIP3    H140851   6.984   4.012   5.776
13636TIP3    H240852   6.958   3.864   5.791
13637TIP3   OH240853   0.037   1.625   2.079
13637TIP3    H140854   0.079   1.704   2.044
13637TIP3    H240855  -0.057   1.639   2.063
13638TIP3   OH240856   0.758   6.133   3.412
13638TIP3    H140857   0.825   6.070   3.438
13638TIP3    H240858   0.696   6.081   3.360
13639TIP3   OH240859   5.090   3.046   2.691
13639TIP3    H140860   5.103   3.139   2.712
13639TIP3    H240861   5.172   3.018   2.651
13640TIP3   OH240862   2.841   1.639   1.864
13640TIP3    H140863   2.921   1.617   1.817
13640TIP3    H240864   2.849   1.732   1.884
13641TIP3   OH240865   0.416   2.598   5.784
13641TIP3    H140866   0.450   2.687   5.783
13641TIP3    H240867   0.491   2.544   5.758
13642TIP3   OH240868   7.839   7.300   2.606
13642TIP3    H140869   7.768   7.262   2.658
13642TIP3    H240870   7.832   7.394   2.621
13643TIP3   OH240871   7.553   2.937   3.514
13643TIP3    H140872   7.566   2.933   3.420
13643TIP3    H240873   7.458   2.933   3.526
13644TIP3   OH240874   5.599   3.320   5.845
13644TIP3    H140875   5.633   3.329   5.756
13644TIP3    H240876   5.571   3.229   5.851
13645TIP3   OH240877   6.676   3.395   0.893
13645TIP3    H140878   6.760   3.365   0.925
13645TIP3    H240879   6.696   3.447   0.816
13646TIP3   OH240880   1.880   3.541   5.646
13646TIP3    H140881   1.917   3.454   5.660
13646TIP3    H240882   1.815   3.528   5.577
13647TIP3   OH240883   3.688   7.198   5.722
13647TIP3    H140884   3.648   7.285   5.722
13647TIP3    H240885   3.718   7.186   5.812
13648TIP3   OH240886   1.582   7.703   2.047
13648TIP3    H140887   1.492   7.672   2.045
13648TIP3    H240888   1.611   7.700   1.956
13649TIP3   OH240889   6.915   5.126   1.493
13649TIP3    H140890   6.905   5.043   1.540
13649TIP3    H240891   7.001   5.158   1.519
13650TIP3   OH240892   0.984   7.446   0.347
13650TIP3    H140893   1.057   7.422   0.290
13650TIP3    H240894   0.953   7.530   0.313
13651TIP3   OH240895   3.917   4.557   3.731
13651TIP3    H140896   3.977   4.551   3.806
13651TIP3    H240897   3.830   4.558   3.771
13652TIP3   OH240898   0.721   0.333   4.763
13652TIP3    H140899   0.670   0.393   4.708
13652TIP3    H240900   0.713   0.369   4.852
13653TIP3   OH240901   4.463   5.403   3.444
13653TIP3    H140902   4.536   5.436   3.497
13653TIP3    H240903   4.477   5.308   3.441
13654TIP3   OH240904   1.634   4.785   2.657
13654TIP3    H140905   1.714   4.736   2.635
13654TIP3    H240906   1.666   4.869   2.690
13655TIP3   OH240907   1.994   2.233   0.240
13655TIP3    H140908   2.011   2.275   0.325
13655TIP3    H240909   2.009   2.303   0.176
13656TIP3   OH240910   2.868   1.326   5.187
13656TIP3    H140911   2.892   1.242   5.225
13656TIP3    H240912   2.779   1.343   5.218
13657TIP3   OH240913   6.647   5.051   5.383
13657TIP3    H140914   6.598   5.085   5.308
13657TIP3    H240915   6.581   5.004   5.435
13658TIP3   OH240916   4.307   4.807   4.361
13658TIP3    H140917   4.273   4.782   4.275
13658TIP3    H240918   4.237   4.860   4.400
13659TIP3   OH240919   3.643   2.098   3.248
13659TIP3    H140920   3.608   2.023   3.297
13659TIP3    H240921   3.566   2.137   3.207
13660TIP3   OH240922   4.669   4.031   1.754
13660TIP3    H140923   4.588   4.032   1.702
13660TIP3    H240924   4.645   4.073   1.836
13661TIP3   OH240925   0.070   6.502   4.822
13661TIP3    H140926   0.103   6.413   4.830
13661TIP3    H240927   0.147   6.557   4.836
13662TIP3   OH240928   6.251   3.741   6.354
13662TIP3    H140929   6.194   3.682   6.305
13662TIP3    H240930   6.334   3.695   6.360
13663TIP3   OH240931   5.058   7.598   3.223
13663TIP3    H140932   4.983   7.658   3.225
13663TIP3    H240933   5.120   7.636   3.285
13664TIP3   OH240934   4.802   7.254   0.709
13664TIP3    H140935   4.870   7.221   0.651
13664TIP3    H240936   4.803   7.349   0.695
13665TIP3   OH240937   3.124   1.390   4.593
13665TIP3    H140938   3.092   1.468   4.547
13665TIP3    H240939   3.194   1.357   4.538
13666TIP3   OH240940   6.656   7.627   5.455
13666TIP3    H140941   6.624   7.549   5.410
13666TIP3    H240942   6.603   7.699   5.420
13667TIP3   OH240943   6.742   2.282   1.312
13667TIP3    H140944   6.699   2.317   1.391
13667TIP3    H240945   6.670   2.274   1.248
13668TIP3   OH240946   3.333   0.643   1.308
13668TIP3    H140947   3.318   0.630   1.402
13668TIP3    H240948   3.324   0.555   1.271
13669TIP3   OH240949   7.309   1.895   2.087
13669TIP3    H140950   7.254   1.830   2.130
13669TIP3    H240951   7.262   1.916   2.006
13670TIP3   OH240952   1.076   0.767   4.670
13670TIP3    H140953   1.169   0.784   4.685
13670TIP3    H240954   1.075   0.685   4.622
13671TIP3   OH240955   0.925   5.043   1.649
13671TIP3    H140956   0.932   5.016   1.558
13671TIP3    H240957   0.973   4.976   1.698
13672TIP3   OH240958   7.228   0.382   5.968
13672TIP3    H140959   7.265   0.471   5.962
13672TIP3    H240960   7.302   0.325   5.947
13673TIP3   OH240961   7.549   3.850   6.354
13673TIP3    H140962   7.527   3.766   6.313
13673TIP3    H240963   7.493   3.853   6.432
13674TIP3   OH240964   1.420   2.459   5.067
13674TIP3    H140965   1.505   2.493   5.039
13674TIP3    H240966   1.378   2.533   5.111
13675TIP3   OH240967   2.032   0.201   2.215
13675TIP3    H140968   2.090   0.193   2.140
13675TIP3    H240969   2.059   0.130   2.274
13676TIP3   OH240970   0.355   4.646   1.792
13676TIP3    H140971   0.343   4.714   1.726
13676TIP3    H240972   0.293   4.578   1.767
13677TIP3   OH240973   7.498   3.657   6.159
13677TIP3    H140974   7.466   3.567   6.170
13677TIP3    H240975   7.419   3.711   6.154
13678TIP3   OH240976   8.068   1.129   6.394
13678TIP3    H140977   8.141   1.076   6.428
13678TIP3    H240978   7.991   1.097   6.442
13679TIP3   OH240979   7.393   6.532   5.461
13679TIP3    H140980   7.465   6.557   5.403
13679TIP3    H240981   7.314   6.546   5.410
13680TIP3   OH240982   2.523   1.657   6.214
13680TIP3    H140983   2.518   1.741   6.168
13680TIP3    H240984   2.534   1.681   6.306
13681TIP3   OH240985   5.424   7.859   5.520
13681TIP3    H140986   5.518   7.873   5.514
13681TIP3    H240987   5.397   7.905   5.600
13682TIP3   OH240988   2.834   3.541   2.291
13682TIP3    H140989   2.815   3.606   2.359
13682TIP3    H240990   2.930   3.538   2.287
13683TIP3   OH240991   5.549   2.171   4.739
13683TIP3    H140992   5.641   2.149   4.722
13683TIP3    H240993   5.528   2.238   4.675
13684TIP3   OH240994   3.827   3.059   1.398
13684TIP3    H140995   3.818   3.152   1.417
13684TIP3    H240996   3.769   3.043   1.323
13685TIP3   OH240997   3.544   0.683   0.325
13685TIP3    H140998   3.518   0.744   0.394
13685TIP3    H240999   3.620   0.637   0.360
13686TIP3   OH241000   8.157   1.368   2.915
13686TIP3    H141001   8.250   1.360   2.895
13686TIP3    H241002   8.155   1.399   3.006
13687TIP3   OH241003   1.242   2.820   3.289
13687TIP3    H141004   1.333   2.792   3.290
13687TIP3    H241005   1.209   2.797   3.377
13688TIP3   OH241006   2.612   5.136   2.915
13688TIP3    H141007   2.654   5.119   2.999
13688TIP3    H241008   2.610   5.051   2.872
13689TIP3   OH241009   7.667   1.979   5.250
13689TIP3    H141010   7.691   2.033   5.175
13689TIP3    H241011   7.742   1.921   5.264
13690TIP3   OH241012   3.537   6.989   5.907
13690TIP3    H141013   3.591   6.922   5.948
13690TIP3    H241014   3.595   7.064   5.896
13691TIP3   OH241015   6.879   1.935   0.481
13691TIP3    H141016   6.889   1.885   0.400
13691TIP3    H241017   6.968   1.950   0.511
13692TIP3   OH241018   2.706   7.182   6.692
13692TIP3    H141019   2.777   7.132   6.735
13692TIP3    H241020   2.731   7.273   6.705
13693TIP3   OH241021   8.049   4.393   2.651
13693TIP3    H141022   8.139   4.421   2.668
13693TIP3    H241023   8.029   4.429   2.564
13694TIP3   OH241024   5.675   2.860   1.494
13694TIP3    H141025   5.692   2.826   1.581
13694TIP3    H241026   5.623   2.791   1.451
13695TIP3   OH241027   6.683   6.286   6.451
13695TIP3    H141028   6.590   6.305   6.439
13695TIP3    H241029   6.722   6.369   6.475
13696TIP3   OH241030   1.633   6.951   2.020
13696TIP3    H141031   1.581   6.886   2.068
13696TIP3    H241032   1.569   7.014   1.987
13697TIP3   OH241033   2.153   1.192   6.563
13697TIP3    H141034   2.183   1.109   6.525
13697TIP3    H241035   2.130   1.246   6.488
13698TIP3   OH241036   7.342   0.125   6.441
13698TIP3    H141037   7.351   0.208   6.488
13698TIP3    H241038   7.272   0.140   6.378
13699TIP3   OH241039   4.602   6.136   5.955
13699TIP3    H141040   4.672   6.136   5.890
13699TIP3    H241041   4.612   6.053   6.002
13700TIP3   OH241042   8.208   2.963   0.245
13700TIP3    H141043   8.255   2.939   0.165
13700TIP3    H241044   8.269   3.019   0.294
13701TIP3   OH241045   3.227   1.620   4.013
13701TIP3    H141046   3.292   1.643   3.947
13701TIP3    H241047   3.164   1.691   4.010
13702TIP3   OH241048   2.612   2.594   0.827
13702TIP3    H141049   2.575   2.678   0.855
13702TIP3    H241050   2.550   2.560   0.763
13703TIP3   OH241051   2.618   1.829   5.301
13703TIP3    H141052   2.621   1.735   5.280
13703TIP3    H241053   2.632   1.833   5.395
13704TIP3   OH241054   2.186   2.710   3.150
13704TIP3    H141055   2.221   2.626   3.183
13704TIP3    H241056   2.196   2.704   3.055
13705TIP3   OH241057   1.050   3.297   6.129
13705TIP3    H141058   1.143   3.290   6.153
13705TIP3    H241059   1.003   3.279   6.209
13706TIP3   OH241060   6.808   6.411   1.246
13706TIP3    H141061   6.904   6.407   1.255
13706TIP3    H241062   6.780   6.470   1.316
13707TIP3   OH241063   3.287   4.643   3.351
13707TIP3    H141064   3.352   4.632   3.282
13707TIP3    H241065   3.223   4.705   3.315
13708TIP3   OH241066   1.249   3.534   5.884
13708TIP3    H141067   1.246   3.466   5.817
13708TIP3    H241068   1.166   3.523   5.932
13709TIP3   OH241069   7.795   5.149   5.619
13709TIP3    H141070   7.783   5.122   5.528
13709TIP3    H241071   7.775   5.070   5.670
13710TIP3   OH241072   5.156   4.029   1.134
13710TIP3    H141073   5.165   4.111   1.183
13710TIP3    H241074   5.211   3.967   1.181
13711TIP3   OH241075   3.822   1.648   2.323
13711TIP3    H141076   3.774   1.585   2.270
13711TIP3    H241077   3.754   1.703   2.362
13712TIP3   OH241078   8.008   3.418   1.877
13712TIP3    H141079   8.033   3.330   1.906
13712TIP3    H241080   8.009   3.471   1.956
13713TIP3   OH241081   3.316   7.490   5.329
13713TIP3    H141082   3.364   7.455   5.254
13713TIP3    H241083   3.236   7.527   5.291
13714TIP3   OH241084   1.652   6.671   0.335
13714TIP3    H141085   1.656   6.576   0.324
13714TIP3    H241086   1.642   6.705   0.246
13715TIP3   OH241087   4.234   2.815   0.147
13715TIP3    H141088   4.258   2.739   0.093
13715TIP3    H241089   4.194   2.876   0.085
13716TIP3   OH241090   1.695   5.292   5.314
13716TIP3    H141091   1.763   5.260   5.373
13716TIP3    H241092   1.728   5.273   5.226
13717TIP3   OH241093   7.341   6.838   0.506
13717TIP3    H141094   7.292   6.829   0.424
13717TIP3    H241095   7.428   6.802   0.486
13718TIP3   OH241096   4.355   4.981   3.134
13718TIP3    H141097   4.393   5.023   3.057
13718TIP3    H241098   4.280   5.037   3.157
13719TIP3   OH241099   2.631   4.060   6.131
13719TIP3    H141100   2.592   3.986   6.084
13719TIP3    H241101   2.559   4.094   6.185
13720TIP3   OH241102   4.214   2.849   0.709
13720TIP3    H141103   4.302   2.852   0.746
13720TIP3    H241104   4.215   2.915   0.639
13721TIP3   OH241105   2.812   3.755   4.919
13721TIP3    H141106   2.787   3.705   4.841
13721TIP3    H241107   2.886   3.707   4.955
13722TIP3   OH241108   7.674   1.438   3.921
13722TIP3    H141109   7.744   1.418   3.983
13722TIP3    H241110   7.601   1.466   3.975
13723TIP3   OH241111   1.164   1.444   6.222
13723TIP3    H141112   1.078   1.447   6.263
13723TIP3    H241113   1.223   1.417   6.293
13724TIP3   OH241114   1.249   3.403   4.972
13724TIP3    H141115   1.244   3.415   4.877
13724TIP3    H241116   1.278   3.487   5.006
13725TIP3   OH241117   0.935   4.760   4.274
13725TIP3    H141118   0.919   4.733   4.184
13725TIP3    H241119   1.030   4.765   4.281
13726TIP3   OH241120   0.285   3.202   1.672
13726TIP3    H141121   0.289   3.233   1.762
13726TIP3    H241122   0.255   3.278   1.622
13727TIP3   OH241123   4.545   6.066   3.479
13727TIP3    H141124   4.456   6.091   3.502
13727TIP3    H241125   4.541   6.051   3.384
13728TIP3   OH241126   0.957   4.273   3.161
13728TIP3    H141127   1.041   4.299   3.122
13728TIP3    H241128   0.980   4.242   3.248
13729TIP3   OH241129   2.694   4.889   1.678
13729TIP3    H141130   2.715   4.978   1.708
13729TIP3    H241131   2.598   4.884   1.682
13730TIP3   OH241132   2.159   1.462   2.810
13730TIP3    H141133   2.183   1.551   2.835
13730TIP3    H241134   2.076   1.445   2.855
13731TIP3   OH241135   3.129   3.827   1.406
13731TIP3    H141136   3.171   3.745   1.434
13731TIP3    H241137   3.170   3.894   1.460
13732TIP3   OH241138   4.076   4.089   1.048
13732TIP3    H141139   4.063   4.143   0.970
13732TIP3    H241140   4.094   4.151   1.118
13733TIP3   OH241141   6.566   1.964   6.611
13733TIP3    H141142   6.535   1.996   6.696
13733TIP3    H241143   6.627   2.031   6.581
13734TIP3   OH241144   2.978   4.598   3.602
13734TIP3    H141145   3.068   4.628   3.610
13734TIP3    H241146   2.956   4.612   3.510
13735TIP3   OH241147   3.465   1.446   4.649
13735TIP3    H141148   3.436   1.535   4.630
13735TIP3    H241149   3.440   1.396   4.572
13736TIP3   OH241150   6.251   6.220   0.814
13736TIP3    H141151   6.158   6.199   0.806
13736TIP3    H241152   6.292   6.174   0.741
13737TIP3   OH241153   1.969   4.578   0.394
13737TIP3    H141154   1.914   4.620   0.328
13737TIP3    H241155   2.058   4.580   0.356
13738TIP3   OH241156   6.657   0.837   1.334
13738TIP3    H141157   6.625   0.751   1.308
13738TIP3    H241158   6.742   0.846   1.291
13739TIP3   OH241159   5.946   6.657   0.619
13739TIP3    H141160   5.985   6.731   0.665
13739TIP3    H241161   5.913   6.694   0.537
13740TIP3   OH241162   4.068   3.714   0.382
13740TIP3    H141163   4.141   3.659   0.411
13740TIP3    H241164   4.084   3.799   0.423
13741TIP3   OH241165   7.360   4.454   4.290
13741TIP3    H141166   7.454   4.457   4.271
13741TIP3    H241167   7.319   4.488   4.210
13742TIP3   OH241168   2.083   2.948   0.158
13742TIP3    H141169   2.138   2.944   0.236
13742TIP3    H241170   1.999   2.910   0.186
13743TIP3   OH241171   7.788   0.877   4.904
13743TIP3    H141172   7.849   0.949   4.920
13743TIP3    H241173   7.705   0.920   4.887
13744TIP3   OH241174   0.458   0.708   6.445
13744TIP3    H141175   0.505   0.658   6.379
13744TIP3    H241176   0.474   0.661   6.527
13745TIP3   OH241177   6.765   6.111   5.917
13745TIP3    H141178   6.852   6.141   5.942
13745TIP3    H241179   6.778   6.065   5.834
13746TIP3   OH241180   3.509   0.630   5.580
13746TIP3    H141181   3.420   0.636   5.615
13746TIP3    H241182   3.500   0.652   5.487
13747TIP3   OH241183   6.723   5.168   5.087
13747TIP3    H141184   6.640   5.135   5.121
13747TIP3    H241185   6.699   5.214   5.006
13748TIP3   OH241186   4.008   6.284   5.131
13748TIP3    H141187   3.995   6.201   5.087
13748TIP3    H241188   4.101   6.304   5.120
13749TIP3   OH241189   3.317   5.367   2.716
13749TIP3    H141190   3.391   5.373   2.656
13749TIP3    H241191   3.250   5.423   2.676
13750TIP3   OH241192   2.890   5.779   4.355
13750TIP3    H141193   2.943   5.726   4.415
13750TIP3    H241194   2.805   5.785   4.398
13751TIP3   OH241195   0.662   1.589   4.566
13751TIP3    H141196   0.723   1.569   4.495
13751TIP3    H241197   0.599   1.517   4.565
13752TIP3   OH241198   7.997   6.213   5.511
13752TIP3    H141199   7.996   6.135   5.566
13752TIP3    H241200   7.973   6.180   5.424
13753TIP3   OH241201   4.202   2.866   3.509
13753TIP3    H141202   4.230   2.928   3.442
13753TIP3    H241203   4.124   2.825   3.473
13754TIP3   OH241204   3.147   0.372   4.088
13754TIP3    H141205   3.123   0.370   4.180
13754TIP3    H241206   3.235   0.335   4.084
13755TIP3   OH241207   7.958   7.735   1.756
13755TIP3    H141208   8.045   7.694   1.753
13755TIP3    H241209   7.913   7.690   1.828
13756TIP3   OH241210   5.076   4.918   4.805
13756TIP3    H141211   5.095   4.984   4.738
13756TIP3    H241212   5.048   4.841   4.755
13757TIP3   OH241213   0.046   0.965   4.476
13757TIP3    H141214   0.026   0.872   4.486
13757TIP3    H241215   0.017   0.987   4.388
13758TIP3   OH241216   6.941   2.196   2.282
13758TIP3    H141217   6.904   2.128   2.338
13758TIP3    H241218   7.033   2.200   2.306
13759TIP3   OH241219   6.148   1.861   1.199
13759TIP3    H141220   6.122   1.777   1.238
13759TIP3    H241221   6.241   1.849   1.178
13760TIP3   OH241222   1.288   6.342   4.625
13760TIP3    H141223   1.270   6.421   4.574
13760TIP3    H241224   1.317   6.375   4.710
13761TIP3   OH241225   3.234   4.063   1.253
13761TIP3    H141226   3.184   4.003   1.310
13761TIP3    H241227   3.193   4.149   1.267
13762TIP3   OH241228   3.996   3.873   2.122
13762TIP3    H141229   4.045   3.935   2.175
13762TIP3    H241230   3.919   3.922   2.093
13763TIP3   OH241231   0.218   3.237   4.861
13763TIP3    H141232   0.152   3.177   4.894
13763TIP3    H241233   0.238   3.205   4.773
13764TIP3   OH241234   5.532   4.213   0.154
13764TIP3    H141235   5.586   4.195   0.077
13764TIP3    H241236   5.499   4.302   0.139
13765TIP3   OH241237   0.612   1.011   0.993
13765TIP3    H141238   0.675   1.023   0.921
13765TIP3    H241239   0.563   0.932   0.968
13766TIP3   OH241240   4.697   2.498   6.706
13766TIP3    H141241   4.604   2.509   6.686
13766TIP3    H241242   4.743   2.519   6.624
13767TIP3   OH241243   6.970   5.431   2.003
13767TIP3    H141244   6.937   5.346   1.977
13767TIP3    H241245   6.895   5.476   2.042
13768TIP3   OH241246   3.081   2.659   3.978
13768TIP3    H141247   3.015   2.622   4.036
13768TIP3    H241248   3.044   2.743   3.951
13769TIP3   OH241249   6.551   4.686   6.337
13769TIP3    H141250   6.576   4.724   6.253
13769TIP3    H241251   6.458   4.703   6.344
13770TIP3   OH241252   6.957   1.897   1.211
13770TIP3    H141253   7.026   1.836   1.187
13770TIP3    H241254   6.968   1.971   1.152
13771TIP3   OH241255   7.632   4.076   0.775
13771TIP3    H141256   7.660   4.139   0.842
13771TIP3    H241257   7.552   4.037   0.811
13772TIP3   OH241258   4.391   4.940   2.633
13772TIP3    H141259   4.408   4.989   2.552
13772TIP3    H241260   4.453   4.867   2.630
13773TIP3   OH241261   5.035   0.859   0.470
13773TIP3    H141262   5.004   0.784   0.519
13773TIP3    H241263   5.071   0.822   0.389
13774TIP3   OH241264   0.937   7.466   6.196
13774TIP3    H141265   0.855   7.513   6.180
13774TIP3    H241266   1.005   7.534   6.195
13775TIP3   OH241267   6.316   7.837   6.637
13775TIP3    H141268   6.222   7.818   6.628
13775TIP3    H241269   6.358   7.780   6.573
13776TIP3   OH241270   4.976   2.818   5.455
13776TIP3    H141271   4.979   2.724   5.434
13776TIP3    H241272   4.923   2.823   5.534
13777TIP3   OH241273   4.245   6.613   1.765
13777TIP3    H141274   4.306   6.679   1.732
13777TIP3    H241275   4.164   6.661   1.783
13778TIP3   OH241276   7.071   6.645   4.089
13778TIP3    H141277   7.152   6.594   4.100
13778TIP3    H241278   7.101   6.735   4.080
13779TIP3   OH241279   7.814   2.668   2.535
13779TIP3    H141280   7.776   2.667   2.622
13779TIP3    H241281   7.739   2.675   2.476
13780TIP3   OH241282   4.831   3.518   2.237
13780TIP3    H141283   4.924   3.504   2.256
13780TIP3    H241284   4.793   3.430   2.240
13781TIP3   OH241285   5.035   6.060   1.574
13781TIP3    H141286   4.996   6.126   1.518
13781TIP3    H241287   5.000   5.977   1.541
13782TIP3   OH241288   8.094   5.260   2.617
13782TIP3    H141289   8.158   5.322   2.581
13782TIP3    H241290   8.109   5.180   2.567
13783TIP3   OH241291   3.392   1.075   6.202
13783TIP3    H141292   3.464   1.045   6.146
13783TIP3    H241293   3.389   1.012   6.274
13784TIP3   OH241294   2.248   2.028   1.096
13784TIP3    H141295   2.291   1.945   1.076
13784TIP3    H241296   2.178   2.005   1.156
13785TIP3   OH241297   7.054   7.242   2.579
13785TIP3    H141298   7.130   7.256   2.634
13785TIP3    H241299   7.053   7.317   2.519
13786TIP3   OH241300   5.395   6.072   0.496
13786TIP3    H141301   5.455   6.072   0.421
13786TIP3    H241302   5.366   6.163   0.503
13787TIP3   OH241303   5.976   1.725   5.756
13787TIP3    H141304   5.920   1.802   5.769
13787TIP3    H241305   5.915   1.655   5.733
13788TIP3   OH241306   7.897   1.442   4.101
13788TIP3    H141307   7.978   1.404   4.066
13788TIP3    H241308   7.922   1.477   4.187
13789TIP3   OH241309   2.743   6.291   0.869
13789TIP3    H141310   2.685   6.364   0.889
13789TIP3    H241311   2.820   6.332   0.829
13790TIP3   OH241312   6.507   6.919   2.136
13790TIP3    H141313   6.420   6.940   2.170
13790TIP3    H241314   6.513   6.824   2.146
13791TIP3   OH241315   8.088   0.339   6.426
13791TIP3    H141316   8.059   0.250   6.446
13791TIP3    H241317   8.122   0.334   6.337
13792TIP3   OH241318   5.450   7.636   6.430
13792TIP3    H141319   5.534   7.606   6.465
13792TIP3    H241320   5.386   7.574   6.465
13793TIP3   OH241321   1.260   7.781   4.547
13793TIP3    H141322   1.198   7.709   4.543
13793TIP3    H241323   1.343   7.741   4.574
13794TIP3   OH241324   6.072   7.252   0.451
13794TIP3    H141325   6.007   7.269   0.519
13794TIP3    H241326   6.152   7.294   0.484
13795TIP3   OH241327   5.697   0.558   4.031
13795TIP3    H141328   5.765   0.491   4.043
13795TIP3    H241329   5.732   0.617   3.965
13796TIP3   OH241330   1.042   0.681   5.120
13796TIP3    H141331   1.007   0.645   5.039
13796TIP3    H241332   1.027   0.613   5.186
13797TIP3   OH241333   3.038   7.578   3.651
13797TIP3    H141334   3.070   7.597   3.563
13797TIP3    H241335   3.116   7.545   3.697
13798TIP3   OH241336   0.900   1.964   0.468
13798TIP3    H141337   0.875   1.903   0.537
13798TIP3    H241338   0.989   1.990   0.489
13799TIP3   OH241339   4.408   0.394   3.795
13799TIP3    H141340   4.457   0.393   3.877
13799TIP3    H241341   4.445   0.467   3.745
13800TIP3   OH241342   0.724   7.125   5.363
13800TIP3    H141343   0.801   7.182   5.354
13800TIP3    H241344   0.761   7.037   5.367
13801TIP3   OH241345   6.628   0.103   2.411
13801TIP3    H141346   6.668   0.073   2.329
13801TIP3    H241347   6.619   0.023   2.463
13802TIP3   OH241348   6.199   1.706   4.243
13802TIP3    H141349   6.256   1.646   4.291
13802TIP3    H241350   6.190   1.782   4.300
13803TIP3   OH241351   8.265   2.714   1.445
13803TIP3    H141352   8.348   2.706   1.399
13803TIP3    H241353   8.274   2.793   1.497
13804TIP3   OH241354   5.558   2.922   6.474
13804TIP3    H141355   5.628   2.987   6.462
13804TIP3    H241356   5.540   2.923   6.568
13805TIP3   OH241357   3.181   3.593   4.317
13805TIP3    H141358   3.189   3.498   4.308
13805TIP3    H241359   3.091   3.606   4.346
13806TIP3   OH241360   5.117   6.776   5.454
13806TIP3    H141361   5.082   6.734   5.375
13806TIP3    H241362   5.052   6.759   5.522
13807TIP3   OH241363   2.346   2.926   5.116
13807TIP3    H141364   2.396   2.845   5.115
13807TIP3    H241365   2.278   2.911   5.182
13808TIP3   OH241366   3.844   2.438   4.247
13808TIP3    H141367   3.828   2.470   4.158
13808TIP3    H241368   3.861   2.517   4.298
13809TIP3   OH241369   1.704   2.107   6.234
13809TIP3    H141370   1.783   2.081   6.282
13809TIP3    H241371   1.637   2.116   6.302
13810TIP3   OH241372   4.874   2.660   3.052
13810TIP3    H141373   4.966   2.678   3.029
13810TIP3    H241374   4.878   2.577   3.100
13811TIP3   OH241375   6.710   3.897   3.214
13811TIP3    H141376   6.747   3.985   3.223
13811TIP3    H241377   6.786   3.840   3.202
13812TIP3   OH241378   0.716   4.727   0.900
13812TIP3    H141379   0.651   4.766   0.959
13812TIP3    H241380   0.746   4.799   0.845
13813TIP3   OH241381   1.382   4.407   1.424
13813TIP3    H141382   1.291   4.423   1.450
13813TIP3    H241383   1.433   4.468   1.476
13814TIP3   OH241384   6.564   7.752   6.052
13814TIP3    H141385   6.586   7.670   6.097
13814TIP3    H241386   6.499   7.727   5.987
13815TIP3   OH241387   1.201   6.353   5.233
13815TIP3    H141388   1.283   6.305   5.243
13815TIP3    H241389   1.136   6.287   5.208
13816TIP3   OH241390   0.849   2.094   5.524
13816TIP3    H141391   0.917   2.146   5.566
13816TIP3    H241392   0.794   2.063   5.597
13817TIP3   OH241393   1.417   3.889   3.358
13817TIP3    H141394   1.504   3.899   3.318
13817TIP3    H241395   1.357   3.886   3.284
13818TIP3   OH241396   1.629   0.525   1.397
13818TIP3    H141397   1.697   0.472   1.439
13818TIP3    H241398   1.673   0.607   1.376
13819TIP3   OH241399   3.208   3.129   3.098
13819TIP3    H141400   3.216   3.146   3.004
13819TIP3    H241401   3.115   3.144   3.118
13820TIP3   OH241402   5.200   7.108   3.748
13820TIP3    H141403   5.211   7.132   3.840
13820TIP3    H241404   5.107   7.126   3.730
13821TIP3   OH241405   1.558   2.475   6.148
13821TIP3    H141406   1.493   2.470   6.077
13821TIP3    H241407   1.642   2.477   6.103
13822TIP3   OH241408   2.012   0.058   2.547
13822TIP3    H141409   2.074   0.031   2.479
13822TIP3    H241410   1.928   0.065   2.502
13823TIP3   OH241411   8.072   5.122   6.493
13823TIP3    H141412   8.124   5.142   6.415
13823TIP3    H241413   8.018   5.200   6.508
13824TIP3   OH241414   0.419   3.537   6.358
13824TIP3    H141415   0.493   3.511   6.413
13824TIP3    H241416   0.352   3.472   6.375
13825TIP3   OH241417   0.104   7.102   4.602
13825TIP3    H141418   0.043   7.057   4.660
13825TIP3    H241419   0.076   7.076   4.514
13826TIP3   OH241420   5.803   2.193   6.800
13826TIP3    H141421   5.713   2.220   6.778
13826TIP3    H241422   5.830   2.139   6.726
13827TIP3   OH241423   6.290   1.881   2.165
13827TIP3    H141424   6.287   1.969   2.203
13827TIP3    H241425   6.341   1.891   2.085
13828TIP3   OH241426   8.166   0.429   1.133
13828TIP3    H141427   8.074   0.442   1.109
13828TIP3    H241428   8.186   0.341   1.102
13829TIP3   OH241429   3.391   4.021   1.857
13829TIP3    H141430   3.425   3.932   1.849
13829TIP3    H241431   3.413   4.063   1.774
13830TIP3   OH241432   1.218   3.665   4.193
13830TIP3    H141433   1.250   3.748   4.158
13830TIP3    H241434   1.211   3.608   4.117
13831TIP3   OH241435   3.409   2.363   1.183
13831TIP3    H141436   3.410   2.296   1.114
13831TIP3    H241437   3.502   2.375   1.205
13832TIP3   OH241438   0.501   3.122   3.436
13832TIP3    H141439   0.549   3.163   3.508
13832TIP3    H241440   0.493   3.030   3.462
13833TIP3   OH241441   3.976   5.593   3.810
13833TIP3    H141442   4.006   5.628   3.726
13833TIP3    H241443   3.881   5.596   3.805
13834TIP3   OH241444   5.932   0.452   3.288
13834TIP3    H141445   5.904   0.505   3.364
13834TIP3    H241446   5.877   0.374   3.293
13835TIP3   OH241447   4.851   7.526   5.751
13835TIP3    H141448   4.883   7.538   5.662
13835TIP3    H241449   4.765   7.485   5.739
13836TIP3   OH241450   0.310   2.166   0.393
13836TIP3    H141451   0.302   2.261   0.395
13836TIP3    H241452   0.219   2.134   0.399
13837TIP3   OH241453   4.693   7.358   6.558
13837TIP3    H141454   4.700   7.437   6.505
13837TIP3    H241455   4.733   7.383   6.642
13838TIP3   OH241456   4.581   2.450   3.062
13838TIP3    H141457   4.510   2.399   3.100
13838TIP3    H241458   4.647   2.385   3.037
13839TIP3   OH241459   3.365   4.303   4.985
13839TIP3    H141460   3.405   4.244   5.049
13839TIP3    H241461   3.274   4.275   4.980
13840TIP3   OH241462   1.426   2.150   0.521
13840TIP3    H141463   1.519   2.129   0.520
13840TIP3    H241464   1.407   2.172   0.612
13841TIP3   OH241465   5.943   0.825   4.658
13841TIP3    H141466   5.874   0.884   4.687
13841TIP3    H241467   5.896   0.752   4.616
13842TIP3   OH241468   0.333   6.951   0.172
13842TIP3    H141469   0.293   6.868   0.148
13842TIP3    H241470   0.393   6.970   0.100
13843TIP3   OH241471   4.913   3.766   6.277
13843TIP3    H141472   4.902   3.673   6.256
13843TIP3    H241473   4.927   3.768   6.371
13844TIP3   OH241474   6.309   6.076   2.982
13844TIP3    H141475   6.253   6.123   3.044
13844TIP3    H241476   6.252   6.009   2.946
13845TIP3   OH241477   1.101   4.181   3.386
13845TIP3    H141478   1.036   4.154   3.450
13845TIP3    H241479   1.169   4.226   3.438
13846TIP3   OH241480   1.040   4.994   1.003
13846TIP3    H141481   0.949   5.009   1.026
13846TIP3    H241482   1.039   4.917   0.947
13847TIP3   OH241483   2.767   3.779   2.082
13847TIP3    H141484   2.771   3.848   2.148
13847TIP3    H241485   2.852   3.736   2.085
13848TIP3   OH241486   4.546   2.063   1.117
13848TIP3    H141487   4.613   1.997   1.132
13848TIP3    H241488   4.594   2.139   1.085
13849TIP3   OH241489   1.576   2.786   2.189
13849TIP3    H141490   1.502   2.726   2.178
13849TIP3    H241491   1.538   2.873   2.179
13850TIP3   OH241492   0.290   6.615   2.989
13850TIP3    H141493   0.324   6.597   3.076
13850TIP3    H241494   0.354   6.575   2.930
13851TIP3   OH241495   6.944   7.532   3.039
13851TIP3    H141496   6.883   7.555   3.109
13851TIP3    H241497   6.960   7.439   3.051
13852TIP3   OH241498   4.879   1.901   5.518
13852TIP3    H141499   4.797   1.854   5.533
13852TIP3    H241500   4.860   1.962   5.447
13853TIP3   OH241501   2.733   7.364   4.229
13853TIP3    H141502   2.736   7.328   4.317
13853TIP3    H241503   2.768   7.452   4.238
13854TIP3   OH241504   4.575   7.359   5.714
13854TIP3    H141505   4.632   7.282   5.712
13854TIP3    H241506   4.534   7.356   5.801
13855TIP3   OH241507   3.936   7.757   2.623
13855TIP3    H141508   4.010   7.817   2.630
13855TIP3    H241509   3.872   7.789   2.687
13856TIP3   OH241510   5.943   2.978   0.701
13856TIP3    H141511   5.864   2.984   0.754
13856TIP3    H241512   5.967   3.069   0.683
13857TIP3   OH241513   7.287   5.193   6.731
13857TIP3    H141514   7.278   5.237   6.816
13857TIP3    H241515   7.335   5.113   6.751
13858TIP3   OH241516   2.020   2.521   0.686
13858TIP3    H141517   1.991   2.432   0.709
13858TIP3    H241518   2.089   2.507   0.621
13859TIP3   OH241519   2.718   1.689   4.668
13859TIP3    H141520   2.738   1.637   4.746
13859TIP3    H241521   2.738   1.630   4.594
13860TIP3   OH241522   0.720   3.693   3.347
13860TIP3    H141523   0.769   3.776   3.348
13860TIP3    H241524   0.629   3.719   3.334
13861TIP3   OH241525   6.370   6.537   1.404
13861TIP3    H141526   6.362   6.585   1.321
13861TIP3    H241527   6.294   6.565   1.455
13862TIP3   OH241528   4.657   4.854   0.359
13862TIP3    H141529   4.638   4.760   0.363
13862TIP3    H241530   4.616   4.883   0.278
13863TIP3   OH241531   6.672   1.359   1.596
13863TIP3    H141532   6.596   1.300   1.589
13863TIP3    H241533   6.659   1.423   1.527
13864TIP3   OH241534   3.174   2.463   3.103
13864TIP3    H141535   3.113   2.525   3.064
13864TIP3    H241536   3.242   2.517   3.143
13865TIP3   OH241537   1.955   3.478   0.277
13865TIP3    H141538   1.902   3.412   0.322
13865TIP3    H241539   2.013   3.512   0.345
13866TIP3   OH241540   1.915   6.061   5.299
13866TIP3    H141541   1.852   6.132   5.284
13866TIP3    H241542   1.861   5.982   5.300
13867TIP3   OH241543   4.506   7.649   5.365
13867TIP3    H141544   4.577   7.590   5.341
13867TIP3    H241545   4.538   7.736   5.342
13868TIP3   OH241546   6.956   2.440   1.395
13868TIP3    H141547   6.896   2.491   1.450
13868TIP3    H241548   6.901   2.407   1.324
13869TIP3   OH241549   1.235   3.252   1.820
13869TIP3    H141550   1.192   3.211   1.746
13869TIP3    H241551   1.287   3.182   1.861
13870TIP3   OH241552   2.364   5.865   0.131
13870TIP3    H141553   2.455   5.883   0.110
13870TIP3    H241554   2.315   5.899   0.056
13871TIP3   OH241555   8.160   7.231   3.213
13871TIP3    H141556   8.235   7.178   3.239
13871TIP3    H241557   8.163   7.231   3.117
13872TIP3   OH241558   5.695   3.000   2.106
13872TIP3    H141559   5.757   2.929   2.088
13872TIP3    H241560   5.675   2.991   2.199
13873TIP3   OH241561   1.642   3.736   2.198
13873TIP3    H141562   1.591   3.772   2.271
13873TIP3    H241563   1.663   3.812   2.143
13874TIP3   OH241564   2.599   0.658   2.502
13874TIP3    H141565   2.588   0.599   2.576
13874TIP3    H241566   2.521   0.714   2.503
13875TIP3   OH241567   0.856   3.495   3.214
13875TIP3    H141568   0.787   3.433   3.240
13875TIP3    H241569   0.825   3.580   3.245
13876TIP3   OH241570   4.035   0.624   6.034
13876TIP3    H141571   4.063   0.616   6.125
13876TIP3    H241572   4.004   0.714   6.026
13877TIP3   OH241573   2.718   7.725   1.061
13877TIP3    H141574   2.678   7.678   1.134
13877TIP3    H241575   2.749   7.656   1.003
13878TIP3   OH241576   6.584   1.731   4.779
13878TIP3    H141577   6.557   1.653   4.827
13878TIP3    H241578   6.674   1.746   4.806
13879TIP3   OH241579   4.025   6.695   2.481
13879TIP3    H141580   4.031   6.674   2.574
13879TIP3    H241581   4.062   6.783   2.474
13880TIP3   OH241582   1.863   5.233   3.030
13880TIP3    H141583   1.919   5.209   3.104
13880TIP3    H241584   1.775   5.242   3.068
13881TIP3   OH241585   3.187   6.321   4.100
13881TIP3    H141586   3.244   6.395   4.119
13881TIP3    H241587   3.246   6.250   4.076
13882TIP3   OH241588   1.681   6.848   0.842
13882TIP3    H141589   1.739   6.893   0.781
13882TIP3    H241590   1.623   6.796   0.786
13883TIP3   OH241591   4.934   7.797   2.117
13883TIP3    H141592   4.950   7.711   2.078
13883TIP3    H241593   4.840   7.812   2.103
13884TIP3   OH241594   4.560   3.504   4.141
13884TIP3    H141595   4.560   3.472   4.050
13884TIP3    H241596   4.472   3.540   4.153
13885TIP3   OH241597   0.265   6.555   3.548
13885TIP3    H141598   0.236   6.641   3.516
13885TIP3    H241599   0.232   6.550   3.638
13886TIP3   OH241600   8.149   0.716  -0.006
13886TIP3    H141601   8.109   0.641   0.038
13886TIP3    H241602   8.099   0.792   0.023
13887TIP3   OH241603   2.842   5.319   1.990
13887TIP3    H141604   2.929   5.279   1.988
13887TIP3    H241605   2.783   5.248   2.016
13888TIP3   OH241606   7.996   2.037   0.488
13888TIP3    H141607   7.978   2.131   0.482
13888TIP3    H241608   8.076   2.031   0.539
13889TIP3   OH241609   0.639   5.222   5.286
13889TIP3    H141610   0.695   5.236   5.210
13889TIP3    H241611   0.553   5.200   5.248
13890TIP3   OH241612   3.274   4.595   2.362
13890TIP3    H141613   3.276   4.509   2.320
13890TIP3    H241614   3.309   4.655   2.296
13891TIP3   OH241615   2.353   2.833   1.442
13891TIP3    H141616   2.342   2.871   1.355
13891TIP3    H241617   2.409   2.895   1.488
13892TIP3   OH241618   6.735   3.145   2.565
13892TIP3    H141619   6.660   3.107   2.518
13892TIP3    H241620   6.810   3.096   2.533
13893TIP3   OH241621   2.127   7.084   1.638
13893TIP3    H141622   2.074   7.126   1.706
13893TIP3    H241623   2.114   6.990   1.652
13894TIP3   OH241624   4.718   1.418   3.241
13894TIP3    H141625   4.737   1.469   3.320
13894TIP3    H241626   4.647   1.467   3.198
13895TIP3   OH241627   4.975   4.375   0.665
13895TIP3    H141628   4.987   4.358   0.758
13895TIP3    H241629   4.985   4.290   0.623
13896TIP3   OH241630   7.455   4.842   5.272
13896TIP3    H141631   7.476   4.798   5.190
13896TIP3    H241632   7.359   4.837   5.278
13897TIP3   OH241633   0.521   4.458   4.827
13897TIP3    H141634   0.531   4.393   4.757
13897TIP3    H241635   0.459   4.417   4.888
13898TIP3   OH241636   7.801   3.959   1.445
13898TIP3    H141637   7.734   4.022   1.417
13898TIP3    H241638   7.774   3.876   1.406
13899TIP3   OH241639   3.338   1.542   4.254
13899TIP3    H141640   3.335   1.565   4.161
13899TIP3    H241641   3.422   1.498   4.264
13900TIP3   OH241642   5.650   5.547   1.130
13900TIP3    H141643   5.698   5.627   1.111
13900TIP3    H241644   5.714   5.490   1.173
13901TIP3   OH241645   2.114   2.501   4.534
13901TIP3    H141646   2.093   2.417   4.493
13901TIP3    H241647   2.100   2.566   4.464
13902TIP3   OH241648   2.544   1.615   0.713
13902TIP3    H141649   2.582   1.528   0.701
13902TIP3    H241650   2.580   1.646   0.796
13903TIP3   OH241651   6.826   0.793   1.980
13903TIP3    H141652   6.801   0.818   2.069
13903TIP3    H241653   6.788   0.706   1.968
13904TIP3   OH241654   6.702   4.097   6.377
13904TIP3    H141655   6.770   4.031   6.395
13904TIP3    H241656   6.710   4.114   6.283
13905TIP3   OH241657   3.576   2.431   3.519
13905TIP3    H141658   3.631   2.468   3.589
13905TIP3    H241659   3.580   2.337   3.533
13906TIP3   OH241660   4.263   2.270   1.873
13906TIP3    H141661   4.236   2.267   1.965
13906TIP3    H241662   4.219   2.195   1.833
13907TIP3   OH241663   7.919   3.274   2.853
13907TIP3    H141664   8.014   3.281   2.856
13907TIP3    H241665   7.903   3.189   2.812
13908TIP3   OH241666   1.697   4.685   6.134
13908TIP3    H141667   1.773   4.631   6.156
13908TIP3    H241668   1.625   4.623   6.129
13909TIP3   OH241669   0.451   4.423   3.771
13909TIP3    H141670   0.462   4.503   3.719
13909TIP3    H241671   0.540   4.391   3.785
13910TIP3   OH241672   3.916   0.450   5.431
13910TIP3    H141673   3.926   0.530   5.484
13910TIP3    H241674   3.943   0.379   5.490
13911TIP3   OH241675   0.082   5.777   0.415
13911TIP3    H141676   0.134   5.738   0.346
13911TIP3    H241677   0.036   5.850   0.373
13912TIP3   OH241678   2.877   5.739   3.498
13912TIP3    H141679   2.857   5.764   3.588
13912TIP3    H241680   2.803   5.685   3.471
13913TIP3   OH241681   6.253   6.822   0.662
13913TIP3    H141682   6.258   6.782   0.576
13913TIP3    H241683   6.296   6.907   0.651
13914TIP3   OH241684   1.497   4.875   1.898
13914TIP3    H141685   1.568   4.920   1.944
13914TIP3    H241686   1.426   4.870   1.962
13915TIP3   OH241687   7.473   7.488   4.677
13915TIP3    H141688   7.387   7.501   4.635
13915TIP3    H241689   7.535   7.485   4.604
13916TIP3   OH241690   7.970   5.207   2.257
13916TIP3    H141691   7.961   5.183   2.349
13916TIP3    H241692   7.889   5.176   2.216
13917TIP3   OH241693   7.245   7.520   1.168
13917TIP3    H141694   7.154   7.489   1.172
13917TIP3    H241695   7.289   7.472   1.238
13918TIP3   OH241696   6.939   0.593   0.636
13918TIP3    H141697   6.860   0.644   0.620
13918TIP3    H241698   6.918   0.539   0.712
13919TIP3   OH241699   7.494   0.585   5.640
13919TIP3    H141700   7.543   0.559   5.717
13919TIP3    H241701   7.402   0.570   5.663
13920TIP3   OH241702   0.513   6.739   6.177
13920TIP3    H141703   0.560   6.692   6.247
13920TIP3    H241704   0.565   6.819   6.164
13921TIP3   OH241705   5.818   7.354   2.814
13921TIP3    H141706   5.891   7.390   2.764
13921TIP3    H241707   5.855   7.333   2.899
13922TIP3   OH241708   4.543   3.266   6.565
13922TIP3    H141709   4.482   3.315   6.621
13922TIP3    H241710   4.625   3.267   6.613
13923TIP3   OH241711   6.456   2.999   5.518
13923TIP3    H141712   6.418   3.087   5.517
13923TIP3    H241713   6.536   3.007   5.465
13924TIP3   OH241714   6.382   1.169   6.095
13924TIP3    H141715   6.376   1.081   6.133
13924TIP3    H241716   6.368   1.155   6.001
13925TIP3   OH241717   0.049   5.997   1.106
13925TIP3    H141718   0.082   6.076   1.150
13925TIP3    H241719   0.122   5.935   1.111
13926TIP3   OH241720   1.525   5.742   2.611
13926TIP3    H141721   1.576   5.812   2.572
13926TIP3    H241722   1.552   5.740   2.702
13927TIP3   OH241723   4.911   4.182   1.702
13927TIP3    H141724   4.846   4.119   1.733
13927TIP3    H241725   4.962   4.134   1.637
13928TIP3   OH241726   6.684   4.524   2.338
13928TIP3    H141727   6.657   4.442   2.297
13928TIP3    H241728   6.701   4.583   2.265
13929TIP3   OH241729   4.338   3.797   2.127
13929TIP3    H141730   4.262   3.742   2.109
13929TIP3    H241731   4.412   3.736   2.130
13930TIP3   OH241732   5.301   1.055   2.848
13930TIP3    H141733   5.256   0.982   2.890
13930TIP3    H241734   5.238   1.127   2.850
13931TIP3   OH241735   3.951   2.769   0.332
13931TIP3    H141736   3.885   2.801   0.393
13931TIP3    H241737   3.996   2.848   0.301
13932TIP3   OH241738   3.566   6.360   2.063
13932TIP3    H141739   3.507   6.286   2.078
13932TIP3    H241740   3.590   6.353   1.971
13933TIP3   OH241741   3.724   2.395   2.279
13933TIP3    H141742   3.660   2.325   2.271
13933TIP3    H241743   3.743   2.421   2.189
13934TIP3   OH241744   1.053   3.778   3.114
13934TIP3    H141745   0.974   3.763   3.063
13934TIP3    H241746   1.023   3.780   3.205
13935TIP3   OH241747   5.512   1.509   4.560
13935TIP3    H141748   5.554   1.595   4.559
13935TIP3    H241749   5.440   1.517   4.497
13936TIP3   OH241750   5.409   7.520   2.034
13936TIP3    H141751   5.401   7.492   2.125
13936TIP3    H241752   5.467   7.595   2.036
13937TIP3   OH241753   1.812   1.840   3.116
13937TIP3    H141754   1.818   1.852   3.021
13937TIP3    H241755   1.892   1.880   3.150
13938TIP3   OH241756   3.828   0.140   0.153
13938TIP3    H141757   3.894   0.184   0.206
13938TIP3    H241758   3.852   0.161   0.062
13939TIP3   OH241759   2.061   7.789   5.332
13939TIP3    H141760   2.093   7.700   5.322
13939TIP3    H241761   2.087   7.833   5.251
13940TIP3   OH241762   5.581   1.112   2.303
13940TIP3    H141763   5.597   1.170   2.377
13940TIP3    H241764   5.656   1.053   2.302
13941TIP3   OH241765   3.571   0.584   3.737
13941TIP3    H141766   3.545   0.603   3.827
13941TIP3    H241767   3.630   0.509   3.744
13942TIP3   OH241768   6.451   5.420   4.659
13942TIP3    H141769   6.494   5.341   4.626
13942TIP3    H241770   6.443   5.476   4.582
13943TIP3   OH241771   7.372   0.197   1.178
13943TIP3    H141772   7.298   0.241   1.219
13943TIP3    H241773   7.449   0.245   1.211
13944TIP3   OH241774   2.282   0.197   1.248
13944TIP3    H141775   2.366   0.182   1.206
13944TIP3    H241776   2.218   0.199   1.176
13945TIP3   OH241777   6.092   0.743   6.743
13945TIP3    H141778   6.006   0.783   6.747
13945TIP3    H241779   6.147   0.798   6.799
13946TIP3   OH241780   7.545   4.750   4.242
13946TIP3    H141781   7.567   4.754   4.335
13946TIP3    H241782   7.622   4.709   4.201
13947TIP3   OH241783   3.750   4.808   1.008
13947TIP3    H141784   3.776   4.859   0.931
13947TIP3    H241785   3.727   4.874   1.073
13948TIP3   OH241786   3.771   6.977   0.415
13948TIP3    H141787   3.688   7.022   0.398
13948TIP3    H241788   3.753   6.885   0.397
13949TIP3   OH241789   5.936   6.407   5.602
13949TIP3    H141790   5.867   6.349   5.571
13949TIP3    H241791   5.901   6.446   5.682
13950TIP3   OH241792   7.109   3.660   5.862
13950TIP3    H141793   7.019   3.691   5.869
13950TIP3    H241794   7.144   3.702   5.783
13951TIP3   OH241795   1.495   0.743   1.128
13951TIP3    H141796   1.575   0.796   1.128
13951TIP3    H241797   1.481   0.721   1.035
13952TIP3   OH241798   6.662   5.701   5.401
13952TIP3    H141799   6.661   5.736   5.312
13952TIP3    H241800   6.737   5.642   5.402
13953TIP3   OH241801   2.907   3.887   2.715
13953TIP3    H141802   2.951   3.808   2.745
13953TIP3    H241803   2.940   3.901   2.626
13954TIP3   OH241804   4.682   6.641   5.552
13954TIP3    H141805   4.600   6.691   5.549
13954TIP3    H241806   4.741   6.688   5.493
13955TIP3   OH241807   8.103   1.913   0.154
13955TIP3    H141808   8.024   1.884   0.200
13955TIP3    H241809   8.071   1.942   0.069
13956TIP3   OH241810   1.720   4.538   0.952
13956TIP3    H141811   1.806   4.518   0.991
13956TIP3    H241812   1.683   4.453   0.929
13957TIP3   OH241813   0.336   2.964   5.605
13957TIP3    H141814   0.281   2.964   5.683
13957TIP3    H241815   0.324   3.051   5.568
13958TIP3   OH241816   7.660   2.634   5.950
13958TIP3    H141817   7.723   2.704   5.968
13958TIP3    H241818   7.715   2.556   5.941
13959TIP3   OH241819   5.747   7.716   6.647
13959TIP3    H141820   5.826   7.686   6.601
13959TIP3    H241821   5.737   7.807   6.620
13960TIP3   OH241822   7.386   5.653   6.007
13960TIP3    H141823   7.326   5.602   5.953
13960TIP3    H241824   7.469   5.651   5.960
13961TIP3   OH241825   7.844   4.352   1.947
13961TIP3    H141826   7.851   4.280   1.883
13961TIP3    H241827   7.856   4.431   1.895
13962TIP3   OH241828   0.702   1.212   4.794
13962TIP3    H141829   0.623   1.178   4.753
13962TIP3    H241830   0.727   1.145   4.858
13963TIP3   OH241831   7.374   4.794   6.182
13963TIP3    H141832   7.446   4.766   6.238
13963TIP3    H241833   7.372   4.890   6.192
13964TIP3   OH241834   3.251   4.280   2.802
13964TIP3    H141835   3.262   4.311   2.892
13964TIP3    H241836   3.156   4.275   2.790
13965TIP3   OH241837   2.465   6.097   6.747
13965TIP3    H141838   2.397   6.099   6.680
13965TIP3    H241839   2.419   6.077   6.828
13966TIP3   OH241840   3.187   0.296   3.417
13966TIP3    H141841   3.249   0.369   3.419
13966TIP3    H241842   3.238   0.220   3.445
13967TIP3   OH241843   5.559   6.827   3.147
13967TIP3    H141844   5.511   6.873   3.216
13967TIP3    H241845   5.491   6.797   3.086
13968TIP3   OH241846   3.119   3.681   6.690
13968TIP3    H141847   3.038   3.732   6.684
13968TIP3    H241848   3.104   3.621   6.763
13969TIP3   OH241849   4.313   6.466   2.676
13969TIP3    H141850   4.357   6.385   2.651
13969TIP3    H241851   4.297   6.457   2.770
13970TIP3   OH241852   7.079   1.038   2.610
13970TIP3    H141853   7.082   1.134   2.608
13970TIP3    H241854   7.171   1.012   2.602
13971TIP3   OH241855   6.507   0.116   5.732
13971TIP3    H141856   6.532   0.116   5.824
13971TIP3    H241857   6.559   0.186   5.693
13972TIP3   OH241858   3.726   1.441   3.368
13972TIP3    H141859   3.812   1.405   3.389
13972TIP3    H241860   3.668   1.409   3.437
13973TIP3   OH241861   6.153   3.519   5.644
13973TIP3    H141862   6.079   3.464   5.671
13973TIP3    H241863   6.125   3.608   5.664
13974TIP3   OH241864   8.297   2.632   2.191
13974TIP3    H141865   8.368   2.683   2.230
13974TIP3    H241866   8.227   2.634   2.257
13975TIP3   OH241867   3.968   6.517   4.504
13975TIP3    H141868   3.889   6.483   4.462
13975TIP3    H241869   3.991   6.594   4.453
13976TIP3   OH241870   8.017   3.655   1.002
13976TIP3    H141871   7.975   3.725   1.052
13976TIP3    H241872   7.948   3.618   0.947
13977TIP3   OH241873   5.801   6.980   4.710
13977TIP3    H141874   5.839   6.893   4.697
13977TIP3    H241875   5.824   7.003   4.800
13978TIP3   OH241876   0.544   1.253   2.836
13978TIP3    H141877   0.568   1.250   2.929
13978TIP3    H241878   0.585   1.333   2.804
13979TIP3   OH241879   1.043   2.034   3.109
13979TIP3    H141880   1.063   2.124   3.132
13979TIP3    H241881   0.997   2.040   3.025
13980TIP3   OH241882   1.713   0.774   5.719
13980TIP3    H141883   1.758   0.846   5.674
13980TIP3    H241884   1.633   0.761   5.669
13981TIP3   OH241885   4.004   4.152   5.461
13981TIP3    H141886   4.061   4.185   5.530
13981TIP3    H241887   4.063   4.119   5.394
13982TIP3   OH241888   7.278   3.278   3.714
13982TIP3    H141889   7.282   3.235   3.628
13982TIP3    H241890   7.346   3.345   3.710
13983TIP3   OH241891   1.798   1.507   2.240
13983TIP3    H141892   1.836   1.594   2.226
13983TIP3    H241893   1.779   1.504   2.334
13984TIP3   OH241894   4.068   2.695   6.099
13984TIP3    H141895   4.131   2.658   6.036
13984TIP3    H241896   4.014   2.754   6.047
13985TIP3   OH241897   1.431   3.701   4.856
13985TIP3    H141898   1.428   3.773   4.793
13985TIP3    H241899   1.488   3.636   4.816
13986TIP3   OH241900   2.193   3.233   3.197
13986TIP3    H141901   2.287   3.247   3.204
13986TIP3    H241902   2.165   3.293   3.127
13987TIP3   OH241903   8.314   0.418   3.021
13987TIP3    H141904   8.345   0.339   3.065
13987TIP3    H241905   8.225   0.430   3.054
13988TIP3   OH241906   1.425   0.472   2.326
13988TIP3    H141907   1.445   0.513   2.242
13988TIP3    H241908   1.476   0.521   2.390
13989TIP3   OH241909   4.452   1.001   2.342
13989TIP3    H141910   4.397   0.978   2.267
13989TIP3    H241911   4.425   0.941   2.411
13990TIP3   OH241912   6.475   5.314   2.028
13990TIP3    H141913   6.471   5.247   2.096
13990TIP3    H241914   6.532   5.276   1.961
13991TIP3   OH241915   3.919   7.394   6.101
13991TIP3    H141916   3.969   7.475   6.102
13991TIP3    H241917   3.947   7.347   6.179
13992TIP3   OH241918   4.383   0.645   4.844
13992TIP3    H141919   4.437   0.583   4.796
13992TIP3    H241920   4.361   0.712   4.780
13993TIP3   OH241921   7.195   5.390   4.374
13993TIP3    H141922   7.152   5.361   4.293
13993TIP3    H241923   7.203   5.311   4.426
13994TIP3   OH241924   0.756   1.862   3.831
13994TIP3    H141925   0.711   1.785   3.866
13994TIP3    H241926   0.815   1.826   3.764
13995TIP3   OH241927   7.177   1.528   6.731
13995TIP3    H141928   7.095   1.522   6.682
13995TIP3    H241929   7.244   1.546   6.665
13996TIP3   OH241930   6.245   2.285   4.095
13996TIP3    H141931   6.294   2.367   4.090
13996TIP3    H241932   6.308   2.218   4.070
13997TIP3   OH241933   0.429   0.167   4.080
13997TIP3    H141934   0.342   0.148   4.116
13997TIP3    H241935   0.467   0.080   4.064
13998TIP3   OH241936   2.679   5.459   0.723
13998TIP3    H141937   2.635   5.530   0.770
13998TIP3    H241938   2.632   5.454   0.639
13999TIP3   OH241939   5.458   2.062   0.882
13999TIP3    H141940   5.381   2.008   0.900
13999TIP3    H241941   5.529   2.019   0.930
14000TIP3   OH241942   2.608   0.741   0.962
14000TIP3    H141943   2.687   0.702   0.925
14000TIP3    H241944   2.547   0.668   0.969
14001TIP3   OH241945   6.046   0.892   5.532
14001TIP3    H141946   6.018   0.800   5.533
14001TIP3    H241947   5.995   0.932   5.461
14002TIP3   OH241948   3.874   6.326   4.255
14002TIP3    H141949   3.966   6.346   4.272
14002TIP3    H241950   3.854   6.370   4.173
14003TIP3   OH241951   3.349   0.416   5.753
14003TIP3    H141952   3.259   0.446   5.735
14003TIP3    H241953   3.337   0.345   5.816
14004TIP3   OH241954   7.628   6.908   2.873
14004TIP3    H141955   7.558   6.860   2.828
14004TIP3    H241956   7.627   6.874   2.963
14005TIP3   OH241957   2.056   5.108   4.969
14005TIP3    H141958   2.119   5.166   4.926
14005TIP3    H241959   2.090   5.020   4.954
14006TIP3   OH241960   0.274   2.065   3.879
14006TIP3    H141961   0.301   2.032   3.793
14006TIP3    H241962   0.204   2.127   3.861
14007TIP3   OH241963   6.379   0.803   3.628
14007TIP3    H141964   6.371   0.848   3.544
14007TIP3    H241965   6.400   0.872   3.691
14008TIP3   OH241966   2.630   5.594   3.490
14008TIP3    H141967   2.538   5.569   3.491
14008TIP3    H241968   2.668   5.548   3.565
14009TIP3   OH241969   2.384   7.529   4.506
14009TIP3    H141970   2.421   7.586   4.439
14009TIP3    H241971   2.400   7.441   4.474
14010TIP3   OH241972   3.860   1.105   3.050
14010TIP3    H141973   3.909   1.023   3.046
14010TIP3    H241974   3.783   1.089   2.996
14011TIP3   OH241975   3.769   4.271   4.250
14011TIP3    H141976   3.710   4.225   4.310
14011TIP3    H241977   3.856   4.257   4.287
14012TIP3   OH241978   3.585   1.424   0.988
14012TIP3    H141979   3.664   1.454   1.033
14012TIP3    H241980   3.513   1.458   1.041
14013TIP3   OH241981   2.287   2.891   0.611
14013TIP3    H141982   2.279   2.979   0.649
14013TIP3    H241983   2.239   2.834   0.671
14014TIP3   OH241984   2.930   1.656   5.504
14014TIP3    H141985   2.926   1.561   5.512
14014TIP3    H241986   2.877   1.689   5.576
14015TIP3   OH241987   2.834   6.316   5.537
14015TIP3    H141988   2.918   6.282   5.507
14015TIP3    H241989   2.772   6.246   5.517
14016TIP3   OH241990   3.916   3.485   2.252
14016TIP3    H141991   3.922   3.540   2.174
14016TIP3    H241992   3.920   3.396   2.219
14017TIP3   OH241993   3.070   3.889   4.021
14017TIP3    H141994   3.069   3.884   4.117
14017TIP3    H241995   3.125   3.815   3.995
14018TIP3   OH241996   4.053   4.303   2.655
14018TIP3    H141997   4.111   4.309   2.731
14018TIP3    H241998   3.965   4.319   2.691
14019TIP3   OH241999   2.969   3.337   4.845
14019TIP3    H142000   2.951   3.351   4.938
14019TIP3    H242001   3.045   3.279   4.844
14020TIP3   OH242002   6.988   7.808   4.929
14020TIP3    H142003   6.958   7.809   4.837
14020TIP3    H242004   7.080   7.831   4.924
14021TIP3   OH242005   1.210   3.269   1.490
14021TIP3    H142006   1.293   3.299   1.526
14021TIP3    H242007   1.144   3.324   1.533
14022TIP3   OH242008   4.429   6.628   5.333
14022TIP3    H142009   4.459   6.678   5.256
14022TIP3    H242010   4.339   6.658   5.347
14023TIP3   OH242011   8.225   2.311   5.997
14023TIP3    H142012   8.238   2.270   6.083
14023TIP3    H242013   8.297   2.279   5.944
14024TIP3   OH242014   4.980   2.464   2.842
14024TIP3    H142015   4.906   2.415   2.877
14024TIP3    H242016   4.941   2.542   2.804
14025TIP3   OH242017   5.546   5.482   5.902
14025TIP3    H142018   5.510   5.439   5.980
14025TIP3    H242019   5.619   5.426   5.876
14026TIP3   OH242020   8.200   5.879   4.292
14026TIP3    H142021   8.279   5.829   4.315
14026TIP3    H242022   8.229   5.939   4.224
14027TIP3   OH242023   5.501   7.493   1.073
14027TIP3    H142024   5.475   7.550   1.145
14027TIP3    H242025   5.595   7.508   1.063
14028TIP3   OH242026   5.123   3.719   3.899
14028TIP3    H142027   5.165   3.788   3.949
14028TIP3    H242028   5.057   3.683   3.959
14029TIP3   OH242029   7.659   0.419   1.551
14029TIP3    H142030   7.698   0.394   1.635
14029TIP3    H242031   7.694   0.507   1.534
14030TIP3   OH242032   1.229   1.489   2.725
14030TIP3    H142033   1.308   1.438   2.742
14030TIP3    H242034   1.250   1.541   2.647
14031TIP3   OH242035   2.196   0.577   3.465
14031TIP3    H142036   2.105   0.593   3.441
14031TIP3    H242037   2.233   0.530   3.391
14032TIP3   OH242038   6.125   1.087   0.585
14032TIP3    H142039   6.167   1.123   0.663
14032TIP3    H242040   6.186   1.107   0.514
14033TIP3   OH242041   1.604   6.918   6.394
14033TIP3    H142042   1.524   6.888   6.351
14033TIP3    H242043   1.580   7.000   6.437
14034TIP3   OH242044   7.830   6.025   4.547
14034TIP3    H142045   7.885   6.022   4.468
14034TIP3    H242046   7.774   6.101   4.534
14035TIP3   OH242047   6.233   6.737   1.912
14035TIP3    H142048   6.257   6.830   1.912
14035TIP3    H242049   6.295   6.697   1.851
14036TIP3   OH242050   7.671   0.823   4.548
14036TIP3    H142051   7.629   0.802   4.464
14036TIP3    H242052   7.598   0.841   4.607
14037TIP3   OH242053   5.850   3.746   1.026
14037TIP3    H142054   5.755   3.737   1.028
14037TIP3    H242055   5.867   3.831   1.065
14038TIP3   OH242056   7.931   7.372   4.155
14038TIP3    H142057   7.980   7.293   4.131
14038TIP3    H242058   7.867   7.340   4.219
14039TIP3   OH242059   5.941   0.085   4.933
14039TIP3    H142060   5.901   0.130   5.007
14039TIP3    H242061   5.932   0.146   4.860
14040TIP3   OH242062   6.142   5.084   3.420
14040TIP3    H142063   6.184   5.000   3.404
14040TIP3    H242064   6.191   5.146   3.366
14041TIP3   OH242065   3.317   2.906   4.890
14041TIP3    H142066   3.373   2.844   4.844
14041TIP3    H242067   3.370   2.985   4.899
14042TIP3   OH242068   6.457   5.111   5.171
14042TIP3    H142069   6.396   5.144   5.237
14042TIP3    H242070   6.401   5.087   5.097
14043TIP3   OH242071   2.792   6.019   2.104
14043TIP3    H142072   2.805   6.063   2.020
14043TIP3    H242073   2.833   5.934   2.094
14044TIP3   OH242074   3.869   5.813   5.346
14044TIP3    H142075   3.790   5.759   5.349
14044TIP3    H242076   3.840   5.895   5.305
14045TIP3   OH242077   3.341   5.800   4.659
14045TIP3    H142078   3.342   5.712   4.622
14045TIP3    H242079   3.392   5.793   4.740
14046TIP3   OH242080   4.961   4.154   4.085
14046TIP3    H142081   4.912   4.206   4.022
14046TIP3    H242082   5.032   4.115   4.033
14047TIP3   OH242083   5.818   4.013   5.061
14047TIP3    H142084   5.881   3.963   5.113
14047TIP3    H242085   5.858   4.017   4.974
14048TIP3   OH242086   8.062   5.424   3.493
14048TIP3    H142087   8.110   5.455   3.570
14048TIP3    H242088   8.082   5.331   3.489
14049TIP3   OH242089   1.019   5.129   3.709
14049TIP3    H142090   1.012   5.154   3.617
14049TIP3    H242091   1.039   5.035   3.707
14050TIP3   OH242092   7.741   6.604   6.500
14050TIP3    H142093   7.776   6.659   6.570
14050TIP3    H242094   7.687   6.538   6.546
14051TIP3   OH242095   7.675   6.915   0.204
14051TIP3    H142096   7.613   6.866   0.151
14051TIP3    H242097   7.661   6.882   0.293
14052TIP3   OH242098   7.977   1.602   5.673
14052TIP3    H142099   8.020   1.684   5.648
14052TIP3    H242100   7.928   1.624   5.752
14053TIP3   OH242101   3.561   0.403   1.241
14053TIP3    H142102   3.593   0.341   1.175
14053TIP3    H242103   3.473   0.372   1.262
14054TIP3   OH242104   3.123   2.525   2.346
14054TIP3    H142105   3.132   2.584   2.271
14054TIP3    H242106   3.077   2.448   2.311
14055TIP3   OH242107   1.277   5.569   0.735
14055TIP3    H142108   1.321   5.583   0.818
14055TIP3    H242109   1.205   5.632   0.734
14056TIP3   OH242110   7.241   4.832   3.826
14056TIP3    H142111   7.250   4.764   3.759
14056TIP3    H242112   7.291   4.798   3.900
14057TIP3   OH242113   4.774   7.556   1.433
14057TIP3    H142114   4.742   7.510   1.356
14057TIP3    H242115   4.695   7.583   1.479
14058TIP3   OH242116   1.488   1.373   6.494
14058TIP3    H142117   1.525   1.317   6.563
14058TIP3    H242118   1.561   1.428   6.466
14059TIP3   OH242119   8.223   6.102   6.373
14059TIP3    H142120   8.157   6.171   6.374
14059TIP3    H242121   8.211   6.058   6.288
14060TIP3   OH242122   6.514   2.479   5.849
14060TIP3    H142123   6.596   2.470   5.898
14060TIP3    H242124   6.459   2.535   5.904
14061TIP3   OH242125   4.073   6.356   1.165
14061TIP3    H142126   4.005   6.424   1.172
14061TIP3    H242127   4.074   6.332   1.073
14062TIP3   OH242128   7.859   5.759   1.136
14062TIP3    H142129   7.942   5.795   1.169
14062TIP3    H242130   7.881   5.671   1.107
14063TIP3   OH242131   6.004   4.570   6.043
14063TIP3    H142132   5.935   4.563   5.977
14063TIP3    H242133   5.979   4.506   6.110
14064TIP3   OH242134   3.988   4.556   2.964
14064TIP3    H142135   3.961   4.537   3.053
14064TIP3    H242136   4.044   4.634   2.972
14065TIP3   OH242137   4.309   3.293   0.559
14065TIP3    H142138   4.266   3.347   0.625
14065TIP3    H242139   4.400   3.322   0.560
14066TIP3   OH242140   8.172   6.017   0.493
14066TIP3    H142141   8.241   6.010   0.427
14066TIP3    H242142   8.124   6.097   0.469
14067TIP3   OH242143   0.216   3.055   6.128
14067TIP3    H142144   0.179   3.043   6.215
14067TIP3    H242145   0.142   3.082   6.073
14068TIP3   OH242146   2.278   7.761   3.776
14068TIP3    H142147   2.248   7.730   3.690
14068TIP3    H242148   2.346   7.699   3.802
14069TIP3   OH242149   2.630   6.630   2.007
14069TIP3    H142150   2.721   6.659   1.999
14069TIP3    H242151   2.632   6.568   2.080
14070TIP3   OH242152   0.597   7.815   4.257
14070TIP3    H142153   0.680   7.780   4.226
14070TIP3    H242154   0.548   7.836   4.178
14071TIP3   OH242155   3.729   6.724   2.537
14071TIP3    H142156   3.737   6.669   2.615
14071TIP3    H242157   3.795   6.689   2.477
14072TIP3   OH242158   4.196   7.456   3.021
14072TIP3    H142159   4.241   7.492   3.097
14072TIP3    H242160   4.143   7.385   3.056
14073TIP3   OH242161   6.536   4.838   0.801
14073TIP3    H142162   6.542   4.849   0.706
14073TIP3    H242163   6.449   4.800   0.815
14074TIP3   OH242164   7.305   6.353   5.927
14074TIP3    H142165   7.279   6.316   5.843
14074TIP3    H242166   7.296   6.282   5.990
14075TIP3   OH242167   2.231   4.876   4.166
14075TIP3    H142168   2.207   4.810   4.101
14075TIP3    H242169   2.151   4.892   4.215
14076TIP3   OH242170   1.634   4.943   3.911
14076TIP3    H142171   1.624   4.875   3.845
14076TIP3    H242172   1.707   4.913   3.966
14077TIP3   OH242173   0.255   6.578   5.384
14077TIP3    H142174   0.334   6.524   5.384
14077TIP3    H242175   0.201   6.541   5.454
14078TIP3   OH242176   0.811   2.732   2.205
14078TIP3    H142177   0.852   2.718   2.291
14078TIP3    H242178   0.758   2.811   2.216
14079TIP3   OH242179   1.285   3.729   1.171
14079TIP3    H142180   1.369   3.699   1.137
14079TIP3    H242181   1.221   3.693   1.110
14080TIP3   OH242182   2.866   3.451   1.444
14080TIP3    H142183   2.861   3.534   1.491
14080TIP3    H242184   2.864   3.384   1.512
14081TIP3   OH242185   5.396   3.926   0.933
14081TIP3    H142186   5.326   3.956   0.991
14081TIP3    H242187   5.364   3.944   0.845
14082TIP3   OH242188   1.464   6.636   2.385
14082TIP3    H142189   1.471   6.650   2.291
14082TIP3    H242190   1.551   6.658   2.419
14083TIP3   OH242191   1.262   4.372   6.739
14083TIP3    H142192   1.338   4.325   6.705
14083TIP3    H242193   1.191   4.308   6.739
14084TIP3   OH242194   7.809   2.369   2.610
14084TIP3    H142195   7.901   2.380   2.636
14084TIP3    H242196   7.760   2.422   2.673
14085TIP3   OH242197   2.463   2.663   4.078
14085TIP3    H142198   2.529   2.611   4.123
14085TIP3    H242199   2.460   2.626   3.989
14086TIP3   OH242200   0.173   6.196   2.021
14086TIP3    H142201   0.248   6.162   1.971
14086TIP3    H242202   0.162   6.286   1.989
14087TIP3   OH242203   5.983   6.981   1.927
14087TIP3    H142204   6.075   6.967   1.950
14087TIP3    H242205   5.937   6.969   2.010
14088TIP3   OH242206   7.286   4.192   5.295
14088TIP3    H142207   7.196   4.174   5.267
14088TIP3    H242208   7.297   4.286   5.279
14089TIP3   OH242209   5.126   5.907   5.602
14089TIP3    H142210   5.037   5.885   5.630
14089TIP3    H242211   5.159   5.828   5.561
14090TIP3   OH242212   2.520   3.997   4.062
14090TIP3    H142213   2.594   3.942   4.038
14090TIP3    H242214   2.555   4.086   4.059
14091TIP3   OH242215   1.347   6.858   6.312
14091TIP3    H142216   1.296   6.782   6.282
14091TIP3    H242217   1.282   6.919   6.346
14092TIP3   OH242218   7.667   2.036   0.598
14092TIP3    H142219   7.607   2.088   0.544
14092TIP3    H242220   7.752   2.078   0.586
14093TIP3   OH242221   5.085   0.193   4.124
14093TIP3    H142222   4.991   0.187   4.108
14093TIP3    H242223   5.117   0.103   4.116
14094TIP3   OH242224   7.927   3.452   6.643
14094TIP3    H142225   7.842   3.409   6.645
14094TIP3    H242226   7.907   3.544   6.627
14095TIP3   OH242227   7.952   1.619   4.717
14095TIP3    H142228   7.906   1.555   4.663
14095TIP3    H242229   7.997   1.566   4.783
14096TIP3   OH242230   0.900   5.943   0.889
14096TIP3    H142231   0.886   6.037   0.882
14096TIP3    H242232   0.878   5.922   0.980
14097TIP3   OH242233   2.873   5.849   1.642
14097TIP3    H142234   2.860   5.943   1.631
14097TIP3    H242235   2.942   5.842   1.708
14098TIP3   OH242236   2.889   4.986   3.723
14098TIP3    H142237   2.844   4.922   3.778
14098TIP3    H242238   2.908   5.059   3.782
14099TIP3   OH242239   7.357   5.324   0.221
14099TIP3    H142240   7.428   5.302   0.161
14099TIP3    H242241   7.346   5.246   0.275
14100TIP3   OH242242   2.215   7.334   4.717
14100TIP3    H142243   2.195   7.376   4.800
14100TIP3    H242244   2.181   7.394   4.651
14101TIP3   OH242245   5.649   7.048   0.396
14101TIP3    H142246   5.705   7.112   0.352
14101TIP3    H242247   5.646   6.973   0.336
14102TIP3   OH242248   2.393   1.759   2.615
14102TIP3    H142249   2.398   1.851   2.590
14102TIP3    H242250   2.435   1.755   2.701
14103TIP3   OH242251   3.634   7.708   1.298
14103TIP3    H142252   3.707   7.661   1.259
14103TIP3    H242253   3.563   7.644   1.301
14104TIP3   OH242254   1.902   3.338   3.053
14104TIP3    H142255   1.878   3.289   3.132
14104TIP3    H242256   1.911   3.271   2.985
14105TIP3   OH242257   7.753   7.637   0.699
14105TIP3    H142258   7.800   7.560   0.668
14105TIP3    H242259   7.779   7.647   0.791
14106TIP3   OH242260   2.232   2.647   1.171
14106TIP3    H142261   2.193   2.603   1.247
14106TIP3    H242262   2.183   2.729   1.163
14107TIP3   OH242263   1.016   6.585   2.675
14107TIP3    H142264   0.964   6.521   2.626
14107TIP3    H242265   0.980   6.670   2.648
14108TIP3   OH242266   5.752   0.839   1.629
14108TIP3    H142267   5.761   0.926   1.668
14108TIP3    H242268   5.677   0.846   1.570
14109TIP3   OH242269   2.922   6.976   5.683
14109TIP3    H142270   2.851   7.039   5.668
14109TIP3    H242271   2.905   6.941   5.770
14110TIP3   OH242272   6.933   5.394   1.678
14110TIP3    H142273   7.026   5.403   1.659
14110TIP3    H242274   6.929   5.330   1.750
14111TIP3   OH242275   3.503   0.854   0.563
14111TIP3    H142276   3.590   0.844   0.602
14111TIP3    H242277   3.480   0.946   0.579
14112TIP3   OH242278   5.539   2.908   3.464
14112TIP3    H142279   5.572   2.928   3.551
14112TIP3    H242280   5.449   2.879   3.478
14113TIP3   OH242281   6.654   2.320   0.360
14113TIP3    H142282   6.688   2.403   0.393
14113TIP3    H242283   6.634   2.338   0.268
14114TIP3   OH242284   6.813   2.277   5.823
14114TIP3    H142285   6.783   2.315   5.906
14114TIP3    H242286   6.810   2.183   5.836
14115TIP3   OH242287   3.661   6.147   6.233
14115TIP3    H142288   3.614   6.142   6.150
14115TIP3    H242289   3.658   6.057   6.267
14116TIP3   OH242290   2.335   3.228   1.688
14116TIP3    H142291   2.387   3.264   1.760
14116TIP3    H242292   2.295   3.305   1.647
14117TIP3   OH242293   8.288   1.195   5.302
14117TIP3    H142294   8.265   1.287   5.315
14117TIP3    H242295   8.313   1.164   5.389
14118TIP3   OH242296   4.075   4.455   5.526
14118TIP3    H142297   4.038   4.432   5.611
14118TIP3    H242298   4.064   4.550   5.520
14119TIP3   OH242299   7.700   6.371   0.756
14119TIP3    H142300   7.773   6.377   0.818
14119TIP3    H242301   7.678   6.278   0.752
14120TIP3   OH242302   0.734   4.614   4.918
14120TIP3    H142303   0.678   4.590   4.844
14120TIP3    H242304   0.755   4.531   4.960
14121TIP3   OH242305   5.715   6.841   2.708
14121TIP3    H142306   5.697   6.929   2.741
14121TIP3    H242307   5.666   6.783   2.767
14122TIP3   OH242308   4.745   3.545   5.950
14122TIP3    H142309   4.675   3.603   5.978
14122TIP3    H242310   4.767   3.575   5.861
14123TIP3   OH242311   0.829   2.581   5.636
14123TIP3    H142312   0.861   2.669   5.658
14123TIP3    H242313   0.830   2.534   5.719
14124TIP3   OH242314   7.881   3.660   0.303
14124TIP3    H142315   7.871   3.597   0.232
14124TIP3    H242316   7.832   3.622   0.376
14125TIP3   OH242317   4.193   1.422   1.136
14125TIP3    H142318   4.174   1.343   1.187
14125TIP3    H242319   4.113   1.439   1.087
14126TIP3   OH242320   7.529   2.151   0.392
14126TIP3    H142321   7.438   2.179   0.396
14126TIP3    H242322   7.555   2.165   0.300
14127TIP3   OH242323   2.376   5.220   6.049
14127TIP3    H142324   2.358   5.279   5.976
14127TIP3    H242325   2.393   5.135   6.007
14128TIP3   OH242326   7.583   4.121   2.430
14128TIP3    H142327   7.678   4.118   2.415
14128TIP3    H242328   7.557   4.029   2.435
14129TIP3   OH242329   7.240   7.779   6.607
14129TIP3    H142330   7.233   7.823   6.692
14129TIP3    H242331   7.333   7.758   6.598
14130TIP3   OH242332   5.223   3.683   0.156
14130TIP3    H142333   5.141   3.649   0.192
14130TIP3    H242334   5.286   3.675   0.228
14131TIP3   OH242335   3.184   4.544   5.617
14131TIP3    H142336   3.274   4.522   5.594
14131TIP3    H242337   3.133   4.522   5.540
14132TIP3   OH242338   2.290   7.117   1.318
14132TIP3    H142339   2.226   7.118   1.246
14132TIP3    H242340   2.374   7.137   1.276
14133TIP3   OH242341   6.540   1.031   3.141
14133TIP3    H142342   6.563   0.945   3.176
14133TIP3    H242343   6.452   1.048   3.175
14134TIP3   OH242344   3.865   5.706   2.607
14134TIP3    H142345   3.826   5.778   2.556
14134TIP3    H242346   3.954   5.698   2.573
14135TIP3   OH242347   5.698   3.425   2.556
14135TIP3    H142348   5.704   3.466   2.642
14135TIP3    H242349   5.781   3.445   2.514
14136TIP3   OH242350   2.169   4.388   2.622
14136TIP3    H142351   2.229   4.322   2.659
14136TIP3    H242352   2.103   4.401   2.690
14137TIP3   OH242353   0.162   2.698   3.182
14137TIP3    H142354   0.141   2.681   3.091
14137TIP3    H242355   0.222   2.772   3.180
14138TIP3   OH242356   5.930   6.433   1.008
14138TIP3    H142357   5.879   6.466   1.081
14138TIP3    H242358   5.878   6.454   0.930
14139TIP3   OH242359   7.406   7.666   2.863
14139TIP3    H142360   7.489   7.632   2.830
14139TIP3    H242361   7.386   7.741   2.807
14140TIP3   OH242362   4.130   7.597   4.532
14140TIP3    H142363   4.212   7.626   4.493
14140TIP3    H242364   4.155   7.521   4.585
14141TIP3   OH242365   6.310   6.958   2.732
14141TIP3    H142366   6.243   6.981   2.796
14141TIP3    H242367   6.361   6.888   2.774
14142TIP3   OH242368   0.024   7.266   0.903
14142TIP3    H142369   0.019   7.178   0.940
14142TIP3    H242370   0.076   7.316   0.966
14143TIP3   OH242371   5.062   5.973   0.742
14143TIP3    H142372   5.046   5.993   0.649
14143TIP3    H242373   5.140   6.024   0.764
14144TIP3   OH242374   4.030   7.153   5.887
14144TIP3    H142375   3.972   7.209   5.836
14144TIP3    H242376   4.069   7.212   5.952
14145TIP3   OH242377   1.376   4.811   1.176
14145TIP3    H142378   1.329   4.864   1.112
14145TIP3    H242379   1.469   4.821   1.153
14146TIP3   OH242380   0.621   6.003   5.686
14146TIP3    H142381   0.651   6.071   5.746
14146TIP3    H242382   0.529   6.026   5.667
14147TIP3   OH242383   6.498   0.217   3.096
14147TIP3    H142384   6.488   0.306   3.130
14147TIP3    H242385   6.409   0.185   3.083
14148TIP3   OH242386   0.591   6.483   0.228
14148TIP3    H142387   0.617   6.491   0.137
14148TIP3    H242388   0.534   6.406   0.231
14149TIP3   OH242389   1.514   3.547   2.038
14149TIP3    H142390   1.564   3.615   2.083
14149TIP3    H242391   1.440   3.594   2.000
14150TIP3   OH242392   1.809   2.869   2.419
14150TIP3    H142393   1.885   2.919   2.390
14150TIP3    H242394   1.814   2.786   2.372
14151TIP3   OH242395   2.969   3.605   5.061
14151TIP3    H142396   3.034   3.664   5.099
14151TIP3    H242397   2.918   3.574   5.136
14152TIP3   OH242398   5.666   6.737   2.429
14152TIP3    H142399   5.693   6.782   2.509
14152TIP3    H242400   5.573   6.719   2.443
14153TIP3   OH242401   8.202   6.354   2.055
14153TIP3    H142402   8.289   6.372   2.018
14153TIP3    H242403   8.141   6.376   1.985
14154TIP3   OH242404   2.527   0.466   5.346
14154TIP3    H142405   2.476   0.530   5.397
14154TIP3    H242406   2.533   0.390   5.403
14155TIP3   OH242407   4.894   4.046   2.587
14155TIP3    H142408   4.801   4.031   2.606
14155TIP3    H242409   4.897   4.133   2.547
14156TIP3   OH242410   0.703   0.263   5.667
14156TIP3    H142411   0.756   0.186   5.689
14156TIP3    H242412   0.750   0.337   5.705
14157TIP3   OH242413   1.978   0.311   1.264
14157TIP3    H142414   1.940   0.261   1.191
14157TIP3    H242415   2.001   0.395   1.226
14158TIP3   OH242416   6.036   3.566   3.065
14158TIP3    H142417   5.941   3.555   3.069
14158TIP3    H242418   6.054   3.646   3.114
14159TIP3   OH242419   7.701   5.607   5.487
14159TIP3    H142420   7.688   5.537   5.552
14159TIP3    H242421   7.674   5.567   5.404
14160TIP3   OH242422   6.055   1.233   3.536
14160TIP3    H142423   6.054   1.309   3.478
14160TIP3    H242424   5.966   1.226   3.568
14161TIP3   OH242425   4.655   5.691   3.828
14161TIP3    H142426   4.674   5.765   3.886
14161TIP3    H242427   4.641   5.730   3.742
14162TIP3   OH242428   6.142   0.918   2.406
14162TIP3    H142429   6.050   0.927   2.381
14162TIP3    H242430   6.140   0.858   2.481
14163TIP3   OH242431   3.443   0.343   3.988
14163TIP3    H142432   3.488   0.349   4.072
14163TIP3    H242433   3.513   0.349   3.923
14164TIP3   OH242434   4.528   6.599   0.234
14164TIP3    H142435   4.435   6.580   0.242
14164TIP3    H242436   4.533   6.664   0.164
14165TIP3   OH242437   4.680   5.704   4.908
14165TIP3    H142438   4.722   5.645   4.970
14165TIP3    H242439   4.598   5.660   4.884
14166TIP3   OH242440   2.138   3.042   2.935
14166TIP3    H142441   2.118   3.010   3.023
14166TIP3    H242442   2.060   3.093   2.910
14167TIP3   OH242443   4.576   0.592   3.677
14167TIP3    H142444   4.614   0.522   3.624
14167TIP3    H242445   4.635   0.667   3.664
14168TIP3   OH242446   1.756   7.673   0.627
14168TIP3    H142447   1.793   7.600   0.676
14168TIP3    H242448   1.665   7.679   0.658
14169TIP3   OH242449   2.102   5.964   3.261
14169TIP3    H142450   2.183   5.947   3.309
14169TIP3    H242451   2.033   5.957   3.326
14170TIP3   OH242452   5.391   3.353   2.573
14170TIP3    H142453   5.310   3.342   2.623
14170TIP3    H242454   5.454   3.297   2.618
14171TIP3   OH242455   0.377   2.633   2.274
14171TIP3    H142456   0.385   2.656   2.181
14171TIP3    H242457   0.411   2.544   2.280
14172TIP3   OH242458   1.169   6.544   2.379
14172TIP3    H142459   1.212   6.536   2.465
14172TIP3    H242460   1.242   6.556   2.318
14173TIP3   OH242461   5.293   0.670   2.201
14173TIP3    H142462   5.241   0.728   2.256
14173TIP3    H242463   5.347   0.729   2.148
14174TIP3   OH242464   0.780   0.402   1.538
14174TIP3    H142465   0.750   0.428   1.625
14174TIP3    H242466   0.798   0.485   1.493
14175TIP3   OH242467   8.208   7.584   4.470
14175TIP3    H142468   8.294   7.542   4.470
14175TIP3    H242469   8.209   7.639   4.549
14176TIP3   OH242470   4.429   1.736   0.758
14176TIP3    H142471   4.516   1.762   0.728
14176TIP3    H242472   4.425   1.765   0.849
14177TIP3   OH242473   7.827   6.770   5.074
14177TIP3    H142474   7.735   6.747   5.057
14177TIP3    H242475   7.822   6.851   5.124
14178TIP3   OH242476   4.275   6.956   5.298
14178TIP3    H142477   4.234   6.886   5.349
14178TIP3    H242478   4.260   6.932   5.207
14179TIP3   OH242479   4.837   5.210   1.650
14179TIP3    H142480   4.932   5.220   1.646
14179TIP3    H242481   4.803   5.298   1.634
14180TIP3   OH242482   5.711   1.049   1.294
14180TIP3    H142483   5.734   1.056   1.202
14180TIP3    H242484   5.791   1.073   1.341
14181TIP3   OH242485   5.886   0.881   4.186
14181TIP3    H142486   5.947   0.837   4.127
14181TIP3    H242487   5.913   0.973   4.184
14182TIP3   OH242488   3.339   1.980   5.912
14182TIP3    H142489   3.424   2.018   5.936
14182TIP3    H242490   3.313   1.927   5.987
14183TIP3   OH242491   6.926   6.630   6.043
14183TIP3    H142492   6.982   6.656   5.970
14183TIP3    H242493   6.901   6.712   6.085
14184TIP3   OH242494   4.295   2.007   5.676
14184TIP3    H142495   4.337   1.974   5.755
14184TIP3    H242496   4.367   2.019   5.614
14185TIP3   OH242497   8.054   0.478   0.144
14185TIP3    H142498   7.991   0.458   0.213
14185TIP3    H242499   8.127   0.417   0.160
14186TIP3   OH242500   2.744   3.511   3.482
14186TIP3    H142501   2.823   3.564   3.472
14186TIP3    H242502   2.672   3.573   3.470
14187TIP3   OH242503   5.176   6.455   0.487
14187TIP3    H142504   5.141   6.369   0.464
14187TIP3    H242505   5.238   6.475   0.416
14188TIP3   OH242506   4.427   0.985   3.670
14188TIP3    H142507   4.449   0.999   3.578
14188TIP3    H242508   4.353   1.044   3.687
14189TIP3   OH242509   5.982   0.064   3.019
14189TIP3    H142510   5.925   0.117   2.963
14189TIP3    H242511   5.969   0.100   3.107
14190TIP3   OH242512   5.472   4.964   0.930
14190TIP3    H142513   5.447   4.890   0.985
14190TIP3    H242514   5.491   5.035   0.991
14191TIP3   OH242515   5.274   6.264   6.602
14191TIP3    H142516   5.244   6.174   6.616
14191TIP3    H242517   5.194   6.314   6.584
14192TIP3   OH242518   6.739   5.010   3.258
14192TIP3    H142519   6.721   4.961   3.178
14192TIP3    H242520   6.668   4.986   3.317
14193TIP3   OH242521   6.121   0.796   0.609
14193TIP3    H142522   6.135   0.763   0.521
14193TIP3    H242523   6.139   0.890   0.603
14194TIP3   OH242524   3.649   1.528   3.827
14194TIP3    H142525   3.721   1.561   3.772
14194TIP3    H242526   3.654   1.433   3.818
14195TIP3   OH242527   6.001   2.943   1.874
14195TIP3    H142528   6.069   2.944   1.807
14195TIP3    H242529   6.045   2.971   1.954
14196TIP3   OH242530   4.915   3.628   2.579
14196TIP3    H142531   4.974   3.642   2.653
14196TIP3    H242532   4.958   3.562   2.526
14197TIP3   OH242533   4.495   0.131   6.205
14197TIP3    H142534   4.556   0.064   6.177
14197TIP3    H242535   4.537   0.214   6.181
14198TIP3   OH242536   4.016   5.922   1.473
14198TIP3    H142537   3.928   5.898   1.501
14198TIP3    H242538   4.046   5.986   1.538
14199TIP3   OH242539   2.386   3.482   5.162
14199TIP3    H142540   2.389   3.393   5.197
14199TIP3    H242541   2.478   3.509   5.158
14200TIP3   OH242542   2.955   0.786   3.050
14200TIP3    H142543   2.977   0.872   3.016
14200TIP3    H242544   2.901   0.804   3.127
14201TIP3   OH242545   4.694   0.626   4.289
14201TIP3    H142546   4.714   0.614   4.196
14201TIP3    H242547   4.639   0.551   4.312
14202TIP3   OH242548   2.779   7.332   3.583
14202TIP3    H142549   2.774   7.294   3.496
14202TIP3    H242550   2.713   7.285   3.634
14203TIP3   OH242551   2.435   6.881   1.580
14203TIP3    H142552   2.360   6.874   1.521
14203TIP3    H242553   2.415   6.822   1.652
14204TIP3   OH242554   8.226   5.058   2.448
14204TIP3    H142555   8.311   5.099   2.464
14204TIP3    H242556   8.216   5.063   2.353
14205TIP3   OH242557   7.987   4.632   0.567
14205TIP3    H142558   8.030   4.642   0.482
14205TIP3    H242559   8.055   4.595   0.624
14206TIP3   OH242560   3.746   6.193   4.042
14206TIP3    H142561   3.826   6.152   4.073
14206TIP3    H242562   3.690   6.119   4.015
14207TIP3   OH242563   5.377   3.089   2.216
14207TIP3    H142564   5.431   3.015   2.188
14207TIP3    H242565   5.432   3.138   2.277
14208TIP3   OH242566   4.072   3.582   3.986
14208TIP3    H142567   4.048   3.497   4.023
14208TIP3    H242568   4.001   3.602   3.924
14209TIP3   OH242569   3.444   4.484   6.742
14209TIP3    H142570   3.430   4.564   6.691
14209TIP3    H242571   3.540   4.478   6.751
14210TIP3   OH242572   2.107   5.175   4.366
14210TIP3    H142573   2.202   5.187   4.359
14210TIP3    H242574   2.095   5.127   4.448
14211TIP3   OH242575   2.762   6.181   0.448
14211TIP3    H142576   2.839   6.222   0.487
14211TIP3    H242577   2.690   6.201   0.508
14212TIP3   OH242578   1.679   3.631   0.470
14212TIP3    H142579   1.762   3.679   0.464
14212TIP3    H242580   1.627   3.664   0.396
14213TIP3   OH242581   2.864   3.602   6.494
14213TIP3    H142582   2.955   3.627   6.512
14213TIP3    H242583   2.851   3.521   6.543
14214TIP3   OH242584   2.919   1.913   1.946
14214TIP3    H142585   2.995   1.867   1.981
14214TIP3    H242586   2.930   2.003   1.975
14215TIP3   OH242587   3.540   1.365   3.166
14215TIP3    H142588   3.599   1.400   3.233
14215TIP3    H242589   3.555   1.271   3.168
14216TIP3   OH242590   1.826   2.743   4.781
14216TIP3    H142591   1.750   2.729   4.837
14216TIP3    H242592   1.854   2.832   4.802
14217TIP3   OH242593   4.757   0.160   0.521
14217TIP3    H142594   4.817   0.086   0.514
14217TIP3    H242595   4.801   0.221   0.580
14218TIP3   OH242596   2.661   3.956   4.608
14218TIP3    H142597   2.612   3.874   4.608
14218TIP3    H242598   2.746   3.934   4.646
14219TIP3   OH242599   3.629   5.200   4.185
14219TIP3    H142600   3.671   5.128   4.233
14219TIP3    H242601   3.641   5.276   4.241
14220TIP3   OH242602   4.935   4.060   1.443
14220TIP3    H142603   4.920   4.014   1.361
14220TIP3    H242604   5.008   4.013   1.484
14221TIP3   OH242605   7.605   1.291   1.174
14221TIP3    H142606   7.693   1.329   1.172
14221TIP3    H242607   7.552   1.351   1.121
14222TIP3   OH242608   1.678   7.530   4.833
14222TIP3    H142609   1.717   7.554   4.749
14222TIP3    H242610   1.747   7.546   4.897
14223TIP3   OH242611   5.887   1.261   4.445
14223TIP3    H142612   5.916   1.172   4.466
14223TIP3    H242613   5.799   1.268   4.483
14224TIP3   OH242614   2.227   3.847   2.253
14224TIP3    H142615   2.299   3.909   2.261
14224TIP3    H242616   2.248   3.796   2.175
14225TIP3   OH242617   2.180   5.799   2.825
14225TIP3    H142618   2.218   5.721   2.868
14225TIP3    H242619   2.233   5.810   2.746
14226TIP3   OH242620   7.361   3.367   4.116
14226TIP3    H142621   7.398   3.449   4.149
14226TIP3    H242622   7.287   3.394   4.061
14227TIP3   OH242623   3.546   3.589   2.721
14227TIP3    H142624   3.512   3.525   2.658
14227TIP3    H242625   3.559   3.668   2.670
14228TIP3   OH242626   5.318   5.412   3.146
14228TIP3    H142627   5.354   5.493   3.108
14228TIP3    H242628   5.301   5.356   3.071
14229TIP3   OH242629   2.496   7.284   5.204
14229TIP3    H142630   2.512   7.272   5.298
14229TIP3    H242631   2.581   7.304   5.167
14230TIP3   OH242632   0.494   3.969   3.653
14230TIP3    H142633   0.424   3.928   3.703
14230TIP3    H242634   0.574   3.926   3.684
14231TIP3   OH242635   6.566   1.090   1.189
14231TIP3    H142636   6.631   1.085   1.119
14231TIP3    H242637   6.572   1.006   1.234
14232TIP3   OH242638   7.790   5.335   6.429
14232TIP3    H142639   7.697   5.347   6.409
14232TIP3    H242640   7.830   5.313   6.345
14233TIP3   OH242641   4.105   5.320   2.240
14233TIP3    H142642   4.138   5.256   2.177
14233TIP3    H242643   4.180   5.340   2.296
14234TIP3   OH242644   1.137   0.583   1.189
14234TIP3    H142645   1.149   0.678   1.195
14234TIP3    H242646   1.043   0.572   1.173
14235TIP3   OH242647   6.403   5.059   6.533
14235TIP3    H142648   6.479   5.011   6.501
14235TIP3    H242649   6.346   4.992   6.570
14236TIP3   OH242650   0.086   2.254   2.755
14236TIP3    H142651   0.153   2.238   2.689
14236TIP3    H242652   0.134   2.267   2.836
14237TIP3   OH242653   5.347   6.289   5.551
14237TIP3    H142654   5.259   6.256   5.533
14237TIP3    H242655   5.335   6.347   5.626
14238TIP3   OH242656   1.963   7.428   6.704
14238TIP3    H142657   1.998   7.439   6.792
14238TIP3    H242658   1.929   7.515   6.681
14239TIP3   OH242659   2.831   7.157   1.809
14239TIP3    H142660   2.902   7.135   1.869
14239TIP3    H242661   2.846   7.249   1.788
14240TIP3   OH242662   0.726   1.300   0.690
14240TIP3    H142663   0.660   1.233   0.671
14240TIP3    H242664   0.769   1.268   0.769
14241TIP3   OH242665   0.752   7.265   4.639
14241TIP3    H142666   0.713   7.227   4.717
14241TIP3    H242667   0.816   7.328   4.672
14242TIP3   OH242668   2.300   7.185   0.792
14242TIP3    H142669   2.386   7.225   0.800
14242TIP3    H242670   2.316   7.091   0.799
14243TIP3   OH242671   6.161   1.682   2.274
14243TIP3    H142672   6.203   1.756   2.229
14243TIP3    H242673   6.128   1.720   2.356
14244TIP3   OH242674   7.502   2.439   2.408
14244TIP3    H142675   7.513   2.435   2.503
14244TIP3    H242676   7.499   2.348   2.380
14245TIP3   OH242677   5.743   6.160   4.469
14245TIP3    H142678   5.752   6.251   4.442
14245TIP3    H242679   5.651   6.152   4.494
14246TIP3   OH242680   5.470   3.930   2.243
14246TIP3    H142681   5.411   3.933   2.318
14246TIP3    H242682   5.482   4.022   2.219
14247TIP3   OH242683   3.767   3.791   2.272
14247TIP3    H142684   3.763   3.865   2.211
14247TIP3    H242685   3.838   3.737   2.238
14248TIP3   OH242686   3.281   6.161   6.573
14248TIP3    H142687   3.325   6.078   6.557
14248TIP3    H242688   3.252   6.156   6.664
14249TIP3   OH242689   3.682   4.961   1.759
14249TIP3    H142690   3.612   4.939   1.821
14249TIP3    H242691   3.698   5.054   1.774
14250TIP3   OH242692   0.829   1.487   3.150
14250TIP3    H142693   0.816   1.556   3.215
14250TIP3    H242694   0.899   1.519   3.094
14251TIP3   OH242695   0.597   2.549   2.869
14251TIP3    H142696   0.612   2.630   2.917
14251TIP3    H242697   0.577   2.577   2.780
14252TIP3   OH242698   5.708   6.882   5.031
14252TIP3    H142699   5.749   6.838   5.106
14252TIP3    H242700   5.781   6.899   4.971
14253TIP3   OH242701   4.940   2.049   4.483
14253TIP3    H142702   4.858   2.097   4.474
14253TIP3    H242703   4.921   1.981   4.547
14254TIP3   OH242704   6.037   3.881   5.187
14254TIP3    H142705   6.078   3.831   5.116
14254TIP3    H242706   5.998   3.815   5.244
14255TIP3   OH242707   4.322   3.130   2.302
14255TIP3    H142708   4.367   3.133   2.386
14255TIP3    H242709   4.342   3.214   2.261
14256TIP3   OH242710   7.384   0.490   2.056
14256TIP3    H142711   7.332   0.567   2.033
14256TIP3    H242712   7.325   0.416   2.040
14257TIP3   OH242713   2.919   3.609   2.679
14257TIP3    H142714   2.968   3.539   2.637
14257TIP3    H242715   2.882   3.659   2.606
14258TIP3   OH242716   2.184   7.135   6.801
14258TIP3    H142717   2.272   7.098   6.805
14258TIP3    H242718   2.178   7.176   6.715
14259TIP3   OH242719   7.859   0.522   5.264
14259TIP3    H142720   7.905   0.506   5.182
14259TIP3    H242721   7.829   0.435   5.292
14260TIP3   OH242722   6.391   7.044   4.775
14260TIP3    H142723   6.417   7.119   4.828
14260TIP3    H242724   6.465   6.984   4.779
14261TIP3   OH242725   4.383   5.720   1.903
14261TIP3    H142726   4.289   5.725   1.889
14261TIP3    H242727   4.402   5.789   1.967
14262TIP3   OH242728   6.379   1.509   1.445
14262TIP3    H142729   6.417   1.421   1.446
14262TIP3    H242730   6.455   1.568   1.452
14263TIP3   OH242731   5.316   1.703   0.145
14263TIP3    H142732   5.232   1.709   0.190
14263TIP3    H242733   5.298   1.737   0.057
14264TIP3   OH242734   7.958   4.878   2.485
14264TIP3    H142735   8.037   4.911   2.443
14264TIP3    H242736   7.906   4.956   2.504
14265TIP3   OH242737   4.622   4.141   0.485
14265TIP3    H142738   4.672   4.197   0.545
14265TIP3    H242739   4.688   4.085   0.443
14266TIP3   OH242740   7.962   6.439   4.518
14266TIP3    H142741   7.914   6.409   4.596
14266TIP3    H242742   7.993   6.358   4.477
14267TIP3   OH242743   0.963   3.687   5.357
14267TIP3    H142744   0.962   3.746   5.433
14267TIP3    H242745   0.946   3.600   5.395
14268TIP3   OH242746   7.788   2.617   5.152
14268TIP3    H142747   7.812   2.525   5.149
14268TIP3    H242748   7.820   2.648   5.237
14269TIP3   OH242749   6.033   4.779   6.359
14269TIP3    H142750   5.978   4.819   6.292
14269TIP3    H242751   6.006   4.687   6.361
14270TIP3   OH242752   2.242   4.229   0.931
14270TIP3    H142753   2.260   4.268   1.016
14270TIP3    H242754   2.288   4.145   0.933
14271TIP3   OH242755   6.094   1.098   6.639
14271TIP3    H142756   6.041   1.174   6.615
14271TIP3    H242757   6.061   1.027   6.584
14272TIP3   OH242758   7.805   1.764   2.817
14272TIP3    H142759   7.887   1.734   2.856
14272TIP3    H242760   7.737   1.735   2.878
14273TIP3   OH242761   2.018   5.556   6.396
14273TIP3    H142762   2.102   5.511   6.399
14273TIP3    H242763   2.005   5.578   6.304
14274TIP3   OH242764   7.525   3.772   4.324
14274TIP3    H142765   7.523   3.727   4.409
14274TIP3    H242766   7.497   3.862   4.344
14275TIP3   OH242767   5.448   4.983   1.550
14275TIP3    H142768   5.440   4.977   1.646
14275TIP3    H242769   5.539   5.008   1.536
14276TIP3   OH242770   0.456   5.027   6.087
14276TIP3    H142771   0.491   5.067   6.008
14276TIP3    H242772   0.523   5.042   6.154
14277TIP3   OH242773   7.127   0.403   4.351
14277TIP3    H142774   7.153   0.441   4.266
14277TIP3    H242775   7.117   0.479   4.408
14278TIP3   OH242776   5.419   4.976   4.024
14278TIP3    H142777   5.511   5.002   4.029
14278TIP3    H242778   5.421   4.881   4.032
14279TIP3   OH242779   6.683   2.143   0.561
14279TIP3    H142780   6.669   2.203   0.488
14279TIP3    H242781   6.738   2.074   0.526
14280TIP3   OH242782   7.535   5.669   4.521
14280TIP3    H142783   7.609   5.650   4.578
14280TIP3    H242784   7.460   5.677   4.581
14281TIP3   OH242785   5.548   4.161   3.267
14281TIP3    H142786   5.487   4.232   3.287
14281TIP3    H242787   5.494   4.096   3.222
14282TIP3   OH242788   3.696   0.483   2.372
14282TIP3    H142789   3.698   0.523   2.459
14282TIP3    H242790   3.654   0.549   2.317
14283TIP3   OH242791   0.823   4.246   6.364
14283TIP3    H142792   0.885   4.262   6.434
14283TIP3    H242793   0.738   4.272   6.401
14284TIP3   OH242794   4.975   5.511   3.188
14284TIP3    H142795   5.059   5.472   3.210
14284TIP3    H242796   4.917   5.486   3.260
14285TIP3   OH242797   1.372   7.759   4.238
14285TIP3    H142798   1.351   7.795   4.324
14285TIP3    H242799   1.403   7.835   4.189
14286TIP3   OH242800   2.834   1.379   3.334
14286TIP3    H142801   2.885   1.404   3.257
14286TIP3    H242802   2.896   1.390   3.407
14287TIP3   OH242803   0.777   5.464   0.313
14287TIP3    H142804   0.827   5.410   0.374
14287TIP3    H242805   0.774   5.550   0.354
14288TIP3   OH242806   7.593   6.514   1.862
14288TIP3    H142807   7.654   6.579   1.828
14288TIP3    H242808   7.537   6.563   1.922
14289TIP3   OH242809   0.594   5.774   5.330
14289TIP3    H142810   0.583   5.784   5.235
14289TIP3    H242811   0.507   5.748   5.362
14290TIP3   OH242812   3.415   1.654   3.820
14290TIP3    H142813   3.499   1.610   3.807
14290TIP3    H242814   3.399   1.700   3.738
14291TIP3   OH242815   0.142   3.690   6.794
14291TIP3    H142816   0.064   3.658   6.749
14291TIP3    H242817   0.215   3.642   6.754
14292TIP3   OH242818   4.687   3.881   0.863
14292TIP3    H142819   4.689   3.850   0.773
14292TIP3    H242820   4.629   3.820   0.909
14293TIP3   OH242821   0.056   3.649   4.283
14293TIP3    H142822   0.132   3.706   4.277
14293TIP3    H242823   0.010   3.679   4.362
14294TIP3   OH242824   0.645   4.144   0.531
14294TIP3    H142825   0.607   4.232   0.521
14294TIP3    H242826   0.707   4.153   0.603
14295TIP3   OH242827   0.333   6.317   6.584
14295TIP3    H142828   0.239   6.313   6.569
14295TIP3    H242829   0.370   6.252   6.524
14296TIP3   OH242830   7.844   6.692   0.824
14296TIP3    H142831   7.856   6.660   0.913
14296TIP3    H242832   7.857   6.786   0.830
14297TIP3   OH242833   6.165   5.322   0.978
14297TIP3    H142834   6.204   5.350   1.061
14297TIP3    H242835   6.196   5.232   0.966
14298TIP3   OH242836   3.490   4.421   4.456
14298TIP3    H142837   3.415   4.451   4.508
14298TIP3    H242838   3.544   4.500   4.445
14299TIP3   OH242839   8.087   1.142   4.187
14299TIP3    H142840   8.164   1.088   4.165
14299TIP3    H242841   8.031   1.136   4.110
14300TIP3   OH242842   4.766   0.092   1.926
14300TIP3    H142843   4.685   0.065   1.883
14300TIP3    H242844   4.786   0.020   1.986
14301TIP3   OH242845   6.919   0.903   1.300
14301TIP3    H142846   6.979   0.881   1.229
14301TIP3    H242847   6.970   0.959   1.358
14302TIP3   OH242848   5.070   2.684   6.407
14302TIP3    H142849   5.028   2.758   6.450
14302TIP3    H242850   5.163   2.696   6.424
14303TIP3   OH242851   2.017   0.660   3.853
14303TIP3    H142852   2.108   0.635   3.837
14303TIP3    H242853   1.990   0.607   3.928
14304TIP3   OH242854   3.628   0.291   0.410
14304TIP3    H142855   3.687   0.300   0.485
14304TIP3    H242856   3.547   0.332   0.438
14305TIP3   OH242857   3.407   3.874   4.756
14305TIP3    H142858   3.478   3.939   4.760
14305TIP3    H242859   3.413   3.838   4.668
14306TIP3   OH242860   1.007   6.726   4.511
14306TIP3    H142861   0.943   6.667   4.473
14306TIP3    H242862   1.064   6.751   4.439
14307TIP3   OH242863   1.177   2.051   1.127
14307TIP3    H142864   1.200   2.124   1.185
14307TIP3    H242865   1.082   2.050   1.126
14308TIP3   OH242866   7.580   0.804   0.257
14308TIP3    H142867   7.589   0.810   0.352
14308TIP3    H242868   7.642   0.735   0.232
14309TIP3   OH242869   2.465   2.494   6.124
14309TIP3    H142870   2.536   2.545   6.162
14309TIP3    H242871   2.392   2.505   6.185
14310TIP3   OH242872   4.557   5.257   1.310
14310TIP3    H142873   4.608   5.307   1.247
14310TIP3    H242874   4.481   5.312   1.330
14311TIP3   OH242875   8.068   6.939   6.258
14311TIP3    H142876   8.100   7.024   6.226
14311TIP3    H242877   7.973   6.948   6.261
14312TIP3   OH242878   7.672   6.641   5.678
14312TIP3    H142879   7.641   6.564   5.725
14312TIP3    H242880   7.687   6.610   5.589
14313TIP3   OH242881   2.038   1.640   3.841
14313TIP3    H142882   2.092   1.563   3.821
14313TIP3    H242883   1.953   1.604   3.866
14314TIP3   OH242884   0.374   1.404   5.629
14314TIP3    H142885   0.425   1.484   5.614
14314TIP3    H242886   0.378   1.392   5.724
14315TIP3   OH242887   6.758   6.633   4.614
14315TIP3    H142888   6.850   6.646   4.590
14315TIP3    H242889   6.718   6.597   4.534
14316TIP3   OH242890   0.849   3.714   5.031
14316TIP3    H142891   0.915   3.769   4.987
14316TIP3    H242892   0.879   3.709   5.122
14317TIP3   OH242893   1.313   1.276   0.905
14317TIP3    H142894   1.254   1.351   0.917
14317TIP3    H242895   1.312   1.231   0.990
14318TIP3   OH242896   6.355   5.567   3.018
14318TIP3    H142897   6.396   5.509   3.081
14318TIP3    H242898   6.372   5.655   3.052
14319TIP3   OH242899   5.480   5.282   0.476
14319TIP3    H142900   5.469   5.242   0.563
14319TIP3    H242901   5.434   5.366   0.482
14320TIP3   OH242902   5.880   7.716   1.913
14320TIP3    H142903   5.841   7.711   1.825
14320TIP3    H242904   5.845   7.797   1.950
14321TIP3   OH242905   5.798   3.392   4.929
14321TIP3    H142906   5.767   3.307   4.900
14321TIP3    H242907   5.851   3.425   4.856
14322TIP3   OH242908   7.958   2.012   5.499
14322TIP3    H142909   8.004   2.042   5.578
14322TIP3    H242910   7.991   1.923   5.484
14323TIP3   OH242911   5.929   0.499   5.701
14323TIP3    H142912   5.968   0.413   5.716
14323TIP3    H242913   6.002   0.554   5.675
14324TIP3   OH242914   6.981   0.709   1.561
14324TIP3    H142915   6.979   0.766   1.638
14324TIP3    H242916   6.894   0.670   1.559
14325TIP3   OH242917   7.682   3.187   3.733
14325TIP3    H142918   7.631   3.126   3.786
14325TIP3    H242919   7.693   3.263   3.789
14326TIP3   OH242920   4.907   1.161   0.117
14326TIP3    H142921   4.906   1.253   0.089
14326TIP3    H242922   4.996   1.148   0.151
14327TIP3   OH242923   1.142   5.344   0.907
14327TIP3    H142924   1.185   5.420   0.869
14327TIP3    H242925   1.135   5.282   0.835
14328TIP3   OH242926   3.098   4.932   2.428
14328TIP3    H142927   3.143   4.971   2.352
14328TIP3    H242928   3.005   4.949   2.412
14329TIP3   OH242929   4.027   1.536   4.043
14329TIP3    H142930   3.948   1.484   4.027
14329TIP3    H242931   4.071   1.490   4.114
14330TIP3   OH242932   1.818   6.027   1.886
14330TIP3    H142933   1.774   6.067   1.810
14330TIP3    H242934   1.748   6.012   1.949
14331TIP3   OH242935   7.474   1.228   3.817
14331TIP3    H142936   7.473   1.255   3.725
14331TIP3    H242937   7.426   1.296   3.863
14332TIP3   OH242938   8.116   1.576   1.061
14332TIP3    H142939   8.038   1.619   1.025
14332TIP3    H242940   8.175   1.567   0.987
14333TIP3   OH242941   1.140   1.706   2.362
14333TIP3    H142942   1.181   1.727   2.278
14333TIP3    H242943   1.209   1.663   2.413
14334TIP3   OH242944   7.240   0.389   2.706
14334TIP3    H142945   7.168   0.328   2.723
14334TIP3    H242946   7.240   0.448   2.782
14335TIP3   OH242947   6.555   7.737   4.131
14335TIP3    H142948   6.640   7.769   4.100
14335TIP3    H242949   6.510   7.708   4.052
14336TIP3   OH242950   3.692   3.399   0.691
14336TIP3    H142951   3.666   3.364   0.776
14336TIP3    H242952   3.611   3.404   0.641
14337TIP3   OH242953   5.726   4.359   4.168
14337TIP3    H142954   5.725   4.288   4.104
14337TIP3    H242955   5.662   4.422   4.134
14338TIP3   OH242956   3.063   2.927   4.781
14338TIP3    H142957   3.139   2.954   4.834
14338TIP3    H242958   3.098   2.863   4.719
14339TIP3   OH242959   4.203   1.089   3.461
14339TIP3    H142960   4.194   1.064   3.370
14339TIP3    H242961   4.219   1.183   3.459
14340TIP3   OH242962   2.425   7.548   5.415
14340TIP3    H142963   2.444   7.637   5.386
14340TIP3    H242964   2.357   7.559   5.481
14341TIP3   OH242965   2.793   6.129   3.829
14341TIP3    H142966   2.858   6.146   3.896
14341TIP3    H242967   2.762   6.040   3.847
14342TIP3   OH242968   1.286   1.838   1.282
14342TIP3    H142969   1.257   1.905   1.221
14342TIP3    H242970   1.381   1.833   1.269
14343TIP3   OH242971   2.492   0.885   2.211
14343TIP3    H142972   2.492   0.824   2.136
14343TIP3    H242973   2.572   0.936   2.200
14344TIP3   OH242974   6.665   2.796   5.091
14344TIP3    H142975   6.600   2.843   5.144
14344TIP3    H242976   6.644   2.820   5.001
14345TIP3   OH242977   4.414   5.931   2.073
14345TIP3    H142978   4.363   5.959   2.149
14345TIP3    H242979   4.417   6.009   2.017
14346TIP3   OH242980   0.602   3.231   2.010
14346TIP3    H142981   0.518   3.224   2.054
14346TIP3    H242982   0.657   3.282   2.069
14347TIP3   OH242983   0.531   1.016   4.089
14347TIP3    H142984   0.611   1.030   4.039
14347TIP3    H242985   0.515   0.922   4.083
14348TIP3   OH242986   7.982   2.468   1.770
14348TIP3    H142987   7.890   2.493   1.766
14348TIP3    H242988   7.980   2.373   1.782
14349TIP3   OH242989   6.572   1.590   0.401
14349TIP3    H142990   6.572   1.500   0.433
14349TIP3    H242991   6.599   1.583   0.310
14350TIP3   OH242992   4.080   3.972   3.025
14350TIP3    H142993   4.082   3.915   2.949
14350TIP3    H242994   4.172   3.984   3.049
14351TIP3   OH242995   6.508   2.188   3.878
14351TIP3    H142996   6.418   2.168   3.852
14351TIP3    H242997   6.560   2.169   3.799
14352TIP3   OH242998   2.900   5.075   5.506
14352TIP3    H142999   2.853   4.994   5.486
14352TIP3    H243000   2.963   5.050   5.574
14353TIP3   OH243001   6.069   3.219   4.115
14353TIP3    H143002   6.099   3.155   4.050
14353TIP3    H243003   6.054   3.299   4.064
14354TIP3   OH243004   5.819   5.683   5.105
14354TIP3    H143005   5.782   5.651   5.187
14354TIP3    H243006   5.906   5.642   5.100
14355TIP3   OH243007   4.626   4.526   1.481
14355TIP3    H143008   4.533   4.540   1.460
14355TIP3    H243009   4.635   4.431   1.486
14356TIP3   OH243010   1.102   1.173   2.079
14356TIP3    H143011   1.029   1.204   2.025
14356TIP3    H243012   1.175   1.162   2.018
14357TIP3   OH243013   4.374   6.782   2.871
14357TIP3    H143014   4.337   6.869   2.853
14357TIP3    H243015   4.304   6.736   2.918
14358TIP3   OH243016   7.366   7.241   3.773
14358TIP3    H143017   7.439   7.256   3.713
14358TIP3    H243018   7.289   7.234   3.715
14359TIP3   OH243019   7.658   6.738   4.168
14359TIP3    H143020   7.631   6.830   4.167
14359TIP3    H243021   7.702   6.724   4.084
14360TIP3   OH243022   6.672   3.717   0.411
14360TIP3    H143023   6.629   3.740   0.493
14360TIP3    H243024   6.608   3.739   0.343
14361TIP3   OH243025   5.955   5.196   6.640
14361TIP3    H143026   5.866   5.177   6.671
14361TIP3    H243027   5.943   5.264   6.574
14362TIP3   OH243028   8.015   2.829   3.418
14362TIP3    H143029   7.946   2.797   3.476
14362TIP3    H243030   8.051   2.749   3.378
14363TIP3   OH243031   1.127   6.045   4.343
14363TIP3    H143032   1.199   6.108   4.348
14363TIP3    H243033   1.169   5.960   4.360
14364TIP3   OH243034   2.009   0.938   6.787
14364TIP3    H143035   1.982   0.850   6.813
14364TIP3    H243036   2.037   0.929   6.696
14365TIP3   OH243037   6.330   2.164   3.474
14365TIP3    H143038   6.391   2.175   3.547
14365TIP3    H243039   6.374   2.102   3.415
14366TIP3   OH243040   0.469   1.830   1.460
14366TIP3    H143041   0.421   1.792   1.534
14366TIP3    H243042   0.561   1.827   1.487
14367TIP3   OH243043   7.915   1.154   1.426
14367TIP3    H143044   7.888   1.065   1.448
14367TIP3    H243045   7.981   1.143   1.358
14368TIP3   OH243046   7.658   5.400   2.737
14368TIP3    H143047   7.597   5.331   2.763
14368TIP3    H243048   7.666   5.390   2.642
14369TIP3   OH243049   0.853   5.436   5.893
14369TIP3    H143050   0.831   5.474   5.808
14369TIP3    H243051   0.935   5.478   5.917
14370TIP3   OH243052   3.932   0.045   2.408
14370TIP3    H143053   3.869  -0.026   2.416
14370TIP3    H243054   3.883   0.116   2.367
14371TIP3   OH243055   5.309   3.488   3.196
14371TIP3    H143056   5.399   3.514   3.217
14371TIP3    H243057   5.261   3.502   3.278
14372TIP3   OH243058   6.865   0.451   5.762
14372TIP3    H143059   6.936   0.395   5.731
14372TIP3    H243060   6.902   0.539   5.762
14373TIP3   OH243061   3.255   4.891   6.108
14373TIP3    H143062   3.288   4.865   6.022
14373TIP3    H243063   3.162   4.866   6.106
14374TIP3   OH243064   5.252   7.001   5.501
14374TIP3    H143065   5.233   6.910   5.478
14374TIP3    H243066   5.205   7.052   5.435
14375TIP3   OH243067   4.509   2.160   0.627
14375TIP3    H143068   4.565   2.236   0.640
14375TIP3    H243069   4.569   2.088   0.607
14376TIP3   OH243070   5.559   4.462   4.427
14376TIP3    H143071   5.520   4.399   4.487
14376TIP3    H243072   5.608   4.409   4.364
14377TIP3   OH243073   5.840   6.135   1.114
14377TIP3    H143074   5.799   6.143   1.028
14377TIP3    H243075   5.769   6.150   1.176
14378TIP3   OH243076   2.664   0.476   1.329
14378TIP3    H143077   2.622   0.417   1.391
14378TIP3    H243078   2.756   0.448   1.329
14379TIP3   OH243079   4.938   5.484   0.484
14379TIP3    H143080   4.964   5.397   0.456
14379TIP3    H243081   4.842   5.481   0.486
14380TIP3   OH243082   6.748   0.220   2.684
14380TIP3    H143083   6.659   0.222   2.651
14380TIP3    H243084   6.767   0.311   2.707
14381TIP3   OH243085   8.181   3.131   1.787
14381TIP3    H143086   8.156   3.188   1.714
14381TIP3    H243087   8.218   3.190   1.852
14382TIP3   OH243088   3.737   3.773   5.343
14382TIP3    H143089   3.771   3.735   5.262
14382TIP3    H243090   3.648   3.740   5.349
14383TIP3   OH243091   2.424   1.208   5.787
14383TIP3    H143092   2.448   1.191   5.695
14383TIP3    H243093   2.337   1.248   5.782
14384TIP3   OH243094   3.654   1.924   1.099
14384TIP3    H143095   3.599   1.858   1.139
14384TIP3    H243096   3.733   1.877   1.071
14385TIP3   OH243097   1.724   4.899   0.435
14385TIP3    H143098   1.687   4.951   0.364
14385TIP3    H243099   1.681   4.932   0.514
14386TIP3   OH243100   1.000   0.835   6.101
14386TIP3    H143101   0.961   0.919   6.078
14386TIP3    H243102   0.946   0.801   6.172
14387TIP3   OH243103   4.350   1.964   6.156
14387TIP3    H143104   4.355   1.919   6.071
14387TIP3    H243105   4.257   1.982   6.167
14388TIP3   OH243106   3.945   7.629   1.538
14388TIP3    H143107   3.879   7.607   1.604
14388TIP3    H243108   3.946   7.553   1.479
14389TIP3   OH243109   1.692   5.370   4.804
14389TIP3    H143110   1.649   5.387   4.720
14389TIP3    H243111   1.706   5.456   4.843
14390TIP3   OH243112   8.083   0.426   6.112
14390TIP3    H143113   8.128   0.501   6.072
14390TIP3    H243114   7.994   0.430   6.076
14391TIP3   OH243115   5.170   3.887   4.424
14391TIP3    H143116   5.197   3.969   4.466
14391TIP3    H243117   5.075   3.897   4.413
14392TIP3   OH243118   0.218   1.899   4.093
14392TIP3    H143119   0.238   1.958   4.020
14392TIP3    H243120   0.230   1.811   4.057
14393TIP3   OH243121   7.269   2.490   3.145
14393TIP3    H143122   7.363   2.503   3.132
14393TIP3    H243123   7.234   2.578   3.158
14394TIP3   OH243124   4.024   2.363   1.967
14394TIP3    H143125   4.035   2.429   1.898
14394TIP3    H243126   4.013   2.414   2.047
14395TIP3   OH243127   5.238   6.380   3.452
14395TIP3    H143128   5.265   6.352   3.540
14395TIP3    H243129   5.320   6.409   3.410
14396TIP3   OH243130   1.576   3.948   1.190
14396TIP3    H143131   1.490   3.979   1.163
14396TIP3    H243132   1.587   3.865   1.145
14397TIP3   OH243133   7.484   1.131   4.621
14397TIP3    H143134   7.421   1.134   4.693
14397TIP3    H243135   7.568   1.155   4.661
14398TIP3   OH243136   6.224   0.631   6.476
14398TIP3    H143137   6.169   0.698   6.436
14398TIP3    H243138   6.311   0.646   6.439
14399TIP3   OH243139   0.500   7.689   0.946
14399TIP3    H143140   0.422   7.709   0.895
14399TIP3    H243141   0.559   7.763   0.930
14400TIP3   OH243142   7.893   7.587   1.425
14400TIP3    H143143   7.871   7.546   1.341
14400TIP3    H243144   7.809   7.593   1.472
14401TIP3   OH243145   3.435   3.132   0.745
14401TIP3    H143146   3.504   3.078   0.706
14401TIP3    H243147   3.424   3.094   0.833
14402TIP3   OH243148   1.895   4.518   6.327
14402TIP3    H143149   1.858   4.490   6.411
14402TIP3    H243150   1.929   4.605   6.344
14403TIP3   OH243151   5.280   6.906   1.509
14403TIP3    H143152   5.357   6.961   1.493
14403TIP3    H243153   5.212   6.943   1.453
14404TIP3   OH243154   7.634   1.462   6.186
14404TIP3    H143155   7.721   1.455   6.146
14404TIP3    H243156   7.625   1.383   6.239
14405TIP3   OH243157   8.010   1.728   5.018
14405TIP3    H143158   7.942   1.697   5.078
14405TIP3    H243159   7.962   1.776   4.950
14406TIP3   OH243160   6.604   7.657   4.726
14406TIP3    H143161   6.560   7.678   4.644
14406TIP3    H243162   6.689   7.622   4.700
14407TIP3   OH243163   0.786   3.033   4.546
14407TIP3    H143164   0.717   2.984   4.503
14407TIP3    H243165   0.840   2.967   4.589
14408TIP3   OH243166   0.091   6.250   0.765
14408TIP3    H143167   0.043   6.265   0.846
14408TIP3    H243168   0.120   6.336   0.738
14409TIP3   OH243169   3.826   6.979   3.217
14409TIP3    H143170   3.798   6.984   3.125
14409TIP3    H243171   3.763   7.034   3.264
14410TIP3   OH243172   8.185   6.715   5.179
14410TIP3    H143173   8.132   6.640   5.207
14410TIP3    H243174   8.226   6.748   5.259
14411TIP3   OH243175   4.132   5.898   3.464
14411TIP3    H143176   4.037   5.890   3.476
14411TIP3    H243177   4.157   5.817   3.419
14412TIP3   OH243178   1.394   6.166   5.214
14412TIP3    H143179   1.433   6.102   5.274
14412TIP3    H243180   1.460   6.176   5.145
14413TIP3   OH243181   5.432   0.082   0.382
14413TIP3    H143182   5.446   0.176   0.369
14413TIP3    H243183   5.432   0.045   0.293
14414TIP3   OH243184   2.779   0.047   6.734
14414TIP3    H143185   2.816   0.132   6.710
14414TIP3    H243186   2.734   0.017   6.655
14415TIP3   OH243187   2.219   2.459   5.628
14415TIP3    H143188   2.174   2.458   5.713
14415TIP3    H243189   2.184   2.537   5.584
14416TIP3   OH243190   7.565   6.080   4.731
14416TIP3    H143191   7.502   6.058   4.662
14416TIP3    H243192   7.581   6.174   4.719
14417TIP3   OH243193   0.527   7.142   5.948
14417TIP3    H143194   0.531   7.054   5.911
14417TIP3    H243195   0.600   7.189   5.909
14418TIP3   OH243196   3.900   2.845   4.019
14418TIP3    H143197   3.833   2.846   4.087
14418TIP3    H243198   3.946   2.762   4.033
14419TIP3   OH243199   1.344   5.126   3.711
14419TIP3    H143200   1.431   5.140   3.747
14419TIP3    H243201   1.290   5.102   3.786
14420TIP3   OH243202   2.660   3.517   2.563
14420TIP3    H143203   2.579   3.468   2.570
14420TIP3    H243204   2.632   3.608   2.555
14421TIP3   OH243205   2.535   4.719   0.579
14421TIP3    H143206   2.614   4.665   0.580
14421TIP3    H243207   2.560   4.799   0.624
14422TIP3   OH243208   7.642   0.808   2.457
14422TIP3    H143209   7.579   0.744   2.491
14422TIP3    H243210   7.709   0.755   2.413
14423TIP3   OH243211   2.160   2.960   0.971
14423TIP3    H143212   2.109   2.898   0.919
14423TIP3    H243213   2.094   3.016   1.014
14424TIP3   OH243214   7.191   4.569   4.046
14424TIP3    H143215   7.272   4.611   4.019
14424TIP3    H243216   7.188   4.488   3.995
14425TIP3   OH243217   6.744   4.719   2.139
14425TIP3    H143218   6.797   4.798   2.151
14425TIP3    H243219   6.785   4.675   2.064
14426TIP3   OH243220   5.628   5.617   6.501
14426TIP3    H143221   5.681   5.628   6.580
14426TIP3    H243222   5.614   5.707   6.469
14427TIP3   OH243223   7.583   0.894   3.265
14427TIP3    H143224   7.622   0.838   3.198
14427TIP3    H243225   7.654   0.908   3.328
14428TIP3   OH243226   2.474   1.453   4.600
14428TIP3    H143227   2.531   1.529   4.609
14428TIP3    H243228   2.439   1.439   4.688
14429TIP3   OH243229   6.600   3.183   6.309
14429TIP3    H143230   6.668   3.126   6.345
14429TIP3    H243231   6.619   3.188   6.216
14430TIP3   OH243232   0.687   6.228   2.106
14430TIP3    H143233   0.757   6.170   2.075
14430TIP3    H243234   0.639   6.176   2.170
14431TIP3   OH243235   1.140   4.014   0.135
14431TIP3    H143236   1.129   4.050   0.047
14431TIP3    H243237   1.057   3.972   0.154
14432TIP3   OH243238   6.986   0.442   6.459
14432TIP3    H143239   6.969   0.536   6.454
14432TIP3    H243240   7.007   0.416   6.370
14433TIP3   OH243241   2.590   5.527   5.416
14433TIP3    H143242   2.646   5.468   5.365
14433TIP3    H243243   2.522   5.471   5.452
14434TIP3   OH243244   1.214   4.370   3.113
14434TIP3    H143245   1.220   4.464   3.130
14434TIP3    H243246   1.299   4.335   3.142
14435TIP3   OH243247   6.863   3.920   5.583
14435TIP3    H143248   6.808   3.988   5.544
14435TIP3    H243249   6.907   3.881   5.508
14436TIP3   OH243250   7.751   4.106   4.089
14436TIP3    H143251   7.774   4.020   4.124
14436TIP3    H243252   7.659   4.119   4.115
14437TIP3   OH243253   3.842   3.672   1.701
14437TIP3    H143254   3.795   3.756   1.696
14437TIP3    H243255   3.815   3.624   1.623
14438TIP3   OH243256   3.179   0.707   3.687
14438TIP3    H143257   3.189   0.665   3.773
14438TIP3    H243258   3.142   0.639   3.631
14439TIP3   OH243259   6.870   5.156   0.031
14439TIP3    H143260   6.888   5.205   0.111
14439TIP3    H243261   6.898   5.214  -0.040
14440TIP3   OH243262   8.067   3.617   5.117
14440TIP3    H143263   7.983   3.662   5.117
14440TIP3    H243264   8.081   3.592   5.209
14441TIP3   OH243265   3.941   5.879   6.449
14441TIP3    H143266   3.932   5.872   6.354
14441TIP3    H243267   3.938   5.973   6.466
14442TIP3   OH243268   7.440   2.011   5.447
14442TIP3    H143269   7.529   1.986   5.422
14442TIP3    H243270   7.418   1.951   5.519
14443TIP3   OH243271   5.218   2.996   4.061
14443TIP3    H143272   5.181   2.916   4.098
14443TIP3    H243273   5.195   3.065   4.124
14444TIP3   OH243274   5.717   6.586   5.239
14444TIP3    H143275   5.669   6.519   5.287
14444TIP3    H243276   5.736   6.545   5.154
14445TIP3   OH243277   5.428   3.984   6.399
14445TIP3    H143278   5.332   3.977   6.399
14445TIP3    H243279   5.455   3.934   6.321
14446TIP3   OH243280   2.501   5.798   6.109
14446TIP3    H143281   2.515   5.733   6.039
14446TIP3    H243282   2.405   5.808   6.113
14447TIP3   OH243283   4.121   6.547   4.063
14447TIP3    H143284   4.096   6.456   4.048
14447TIP3    H243285   4.043   6.597   4.040
14448TIP3   OH243286   4.826   3.249   4.877
14448TIP3    H143287   4.866   3.197   4.807
14448TIP3    H243288   4.802   3.185   4.943
14449TIP3   OH243289   6.788   2.136   0.942
14449TIP3    H143290   6.878   2.124   0.974
14449TIP3    H243291   6.796   2.194   0.867
14450TIP3   OH243292   3.341   7.614   2.494
14450TIP3    H143293   3.423   7.565   2.489
14450TIP3    H243294   3.273   7.550   2.476
14451TIP3   OH243295   7.962   3.670   2.732
14451TIP3    H143296   7.894   3.735   2.712
14451TIP3    H243297   7.946   3.647   2.823
14452TIP3   OH243298   3.255   1.422   4.865
14452TIP3    H143299   3.244   1.421   4.770
14452TIP3    H243300   3.168   1.446   4.899
14453TIP3   OH243301   1.646   3.323   2.682
14453TIP3    H143302   1.660   3.233   2.653
14453TIP3    H243303   1.704   3.334   2.757
14454TIP3   OH243304   3.439   6.246   3.049
14454TIP3    H143305   3.404   6.267   2.963
14454TIP3    H243306   3.458   6.152   3.046
14455TIP3   OH243307   0.105   5.920   6.129
14455TIP3    H143308   0.075   5.839   6.171
14455TIP3    H243309   0.200   5.916   6.135
14456TIP3   OH243310   0.903   2.352   1.134
14456TIP3    H143311   0.817   2.356   1.092
14456TIP3    H243312   0.885   2.320   1.222
14457TIP3   OH243313   6.352   3.111   5.978
14457TIP3    H143314   6.315   3.114   6.066
14457TIP3    H243315   6.288   3.064   5.926
14458TIP3   OH243316   0.495   7.340   0.537
14458TIP3    H143317   0.589   7.323   0.539
14458TIP3    H243318   0.460   7.276   0.476
14459TIP3   OH243319   3.639   0.490   1.829
14459TIP3    H143320   3.689   0.448   1.900
14459TIP3    H243321   3.554   0.511   1.869
14460TIP3   OH243322   2.955   5.218   3.848
14460TIP3    H143323   2.891   5.211   3.918
14460TIP3    H243324   2.908   5.264   3.778
14461TIP3   OH243325   5.392   0.440   2.656
14461TIP3    H143326   5.409   0.465   2.565
14461TIP3    H243327   5.384   0.523   2.702
14462TIP3   OH243328   6.834   7.186   3.949
14462TIP3    H143329   6.901   7.128   3.985
14462TIP3    H243330   6.786   7.217   4.026
14463TIP3   OH243331   1.402   6.949   6.068
14463TIP3    H143332   1.366   6.913   6.149
14463TIP3    H243333   1.432   7.037   6.093
14464TIP3   OH243334   4.653   5.931   2.211
14464TIP3    H143335   4.563   5.932   2.180
14464TIP3    H243336   4.677   5.839   2.213
14465TIP3   OH243337   6.086   2.212   1.512
14465TIP3    H143338   6.043   2.147   1.455
14465TIP3    H243339   6.175   2.179   1.522
14466TIP3   OH243340   7.984   0.614   3.802
14466TIP3    H143341   8.056   0.660   3.760
14466TIP3    H243342   8.018   0.589   3.888
14467TIP3   OH243343   2.999   3.718   4.490
14467TIP3    H143344   3.018   3.722   4.584
14467TIP3    H243345   2.931   3.651   4.482
14468TIP3   OH243346   1.512   0.737   5.525
14468TIP3    H143347   1.458   0.717   5.448
14468TIP3    H243348   1.477   0.819   5.557
14469TIP3   OH243349   1.997   7.188   0.873
14469TIP3    H143350   2.053   7.117   0.841
14469TIP3    H243351   2.058   7.256   0.901
14470TIP3   OH243352   2.713   6.175   1.158
14470TIP3    H143353   2.799   6.189   1.198
14470TIP3    H243354   2.718   6.218   1.073
14471TIP3   OH243355   3.513   2.454   1.659
14471TIP3    H143356   3.459   2.403   1.599
14471TIP3    H243357   3.595   2.469   1.611
14472TIP3   OH243358   0.242   6.967   3.995
14472TIP3    H143359   0.250   6.966   3.900
14472TIP3    H243360   0.173   7.031   4.012
14473TIP3   OH243361   3.139   3.919   3.528
14473TIP3    H143362   3.186   3.897   3.609
14473TIP3    H243363   3.205   3.960   3.473
14474TIP3   OH243364   3.331   6.073   3.990
14474TIP3    H143365   3.260   6.013   3.964
14474TIP3    H243366   3.344   6.129   3.913
14475TIP3   OH243367   4.780   5.549   1.927
14475TIP3    H143368   4.827   5.470   1.953
14475TIP3    H243369   4.739   5.526   1.844
14476TIP3   OH243370   6.877   1.567   4.282
14476TIP3    H143371   6.795   1.518   4.271
14476TIP3    H243372   6.854   1.658   4.265
14477TIP3   OH243373   8.140   5.305   5.716
14477TIP3    H143374   8.129   5.213   5.738
14477TIP3    H243375   8.206   5.337   5.777
14478TIP3   OH243376   1.359   5.107   6.676
14478TIP3    H143377   1.351   5.015   6.649
14478TIP3    H243378   1.423   5.105   6.748
14479TIP3   OH243379   0.635   0.649   2.806
14479TIP3    H143380   0.604   0.737   2.784
14479TIP3    H243381   0.651   0.607   2.722
14480TIP3   OH243382   8.024   6.259   0.376
14480TIP3    H143383   8.039   6.353   0.387
14480TIP3    H243384   7.947   6.253   0.319
14481TIP3   OH243385   4.562   6.584   2.369
14481TIP3    H143386   4.512   6.633   2.434
14481TIP3    H243387   4.532   6.494   2.379
14482TIP3   OH243388   7.924   5.481   2.356
14482TIP3    H143389   7.995   5.531   2.396
14482TIP3    H243390   7.965   5.398   2.330
14483TIP3   OH243391   2.637   0.495   2.740
14483TIP3    H143392   2.668   0.579   2.776
14483TIP3    H243393   2.557   0.476   2.790
14484TIP3   OH243394   1.608   1.351   0.762
14484TIP3    H143395   1.536   1.301   0.801
14484TIP3    H243396   1.590   1.442   0.787
14485TIP3   OH243397   0.613   3.398   6.471
14485TIP3    H143398   0.553   3.330   6.439
14485TIP3    H243399   0.645   3.364   6.554
14486TIP3   OH243400   5.098   4.660   3.541
14486TIP3    H143401   5.074   4.734   3.597
14486TIP3    H243402   5.075   4.687   3.453
14487TIP3   OH243403   2.591   1.611   1.471
14487TIP3    H143404   2.579   1.616   1.566
14487TIP3    H243405   2.568   1.520   1.449
14488TIP3   OH243406   1.544   6.226   6.448
14488TIP3    H143407   1.479   6.188   6.506
14488TIP3    H243408   1.513   6.315   6.431
14489TIP3   OH243409   5.704   6.267   5.584
14489TIP3    H143410   5.683   6.267   5.677
14489TIP3    H243411   5.674   6.181   5.553
14490TIP3   OH243412   3.784   0.531   4.259
14490TIP3    H143413   3.720   0.596   4.289
14490TIP3    H243414   3.732   0.467   4.209
14491TIP3   OH243415   6.073   0.402   3.747
14491TIP3    H143416   6.132   0.413   3.672
14491TIP3    H243417   5.998   0.354   3.713
14492TIP3   OH243418   3.430   2.849   1.976
14492TIP3    H143419   3.398   2.764   2.007
14492TIP3    H243420   3.499   2.827   1.913
14493TIP3   OH243421   6.562   3.432   5.341
14493TIP3    H143422   6.575   3.491   5.415
14493TIP3    H243423   6.646   3.388   5.330
14494TIP3   OH243424   7.472   3.735   4.047
14494TIP3    H143425   7.519   3.772   4.122
14494TIP3    H243426   7.538   3.682   4.002
14495TIP3   OH243427   1.084   1.403   0.993
14495TIP3    H143428   1.015   1.367   1.048
14495TIP3    H243429   1.042   1.476   0.946
14496TIP3   OH243430   6.763   5.250   3.839
14496TIP3    H143431   6.816   5.329   3.826
14496TIP3    H243432   6.673   5.282   3.839
14497TIP3   OH243433   2.762   1.925   3.961
14497TIP3    H143434   2.722   1.959   3.881
14497TIP3    H243435   2.746   1.830   3.957
14498TIP3   OH243436   3.145   7.031   6.180
14498TIP3    H143437   3.141   6.937   6.163
14498TIP3    H243438   3.212   7.064   6.120
14499TIP3   OH243439   2.921   2.628   4.196
14499TIP3    H143440   2.961   2.600   4.277
14499TIP3    H243441   2.944   2.721   4.188
14500TIP3   OH243442   0.535   6.911  -0.014
14500TIP3    H143443   0.538   6.865   0.069
14500TIP3    H243444   0.595   6.862  -0.071
14501TIP3   OH243445   3.334   4.154   5.690
14501TIP3    H143446   3.363   4.244   5.678
14501TIP3    H243447   3.405   4.101   5.653
14502TIP3   OH243448   0.845   6.106   4.407
14502TIP3    H143449   0.858   6.200   4.409
14502TIP3    H243450   0.933   6.069   4.423
14503TIP3   OH243451   3.932   5.644   0.962
14503TIP3    H143452   3.922   5.622   1.055
14503TIP3    H243453   3.939   5.740   0.962
14504TIP3   OH243454   6.842   4.297   2.479
14504TIP3    H143455   6.881   4.375   2.517
14504TIP3    H243456   6.753   4.296   2.512
14505TIP3   OH243457   4.188   1.976   4.847
14505TIP3    H143458   4.184   1.929   4.764
14505TIP3    H243459   4.158   1.911   4.912
14506TIP3   OH243460   2.483   5.377   4.059
14506TIP3    H143461   2.410   5.409   4.006
14506TIP3    H243462   2.543   5.451   4.064
14507TIP3   OH243463   0.128   4.418   0.123
14507TIP3    H143464   0.178   4.485   0.170
14507TIP3    H243465   0.184   4.340   0.126
14508TIP3   OH243466   5.350   2.968   2.577
14508TIP3    H143467   5.413   2.896   2.575
14508TIP3    H243468   5.403   3.046   2.590
14509TIP3   OH243469   7.147   5.027   0.085
14509TIP3    H143470   7.069   4.988   0.047
14509TIP3    H243471   7.115   5.103   0.134
14510TIP3   OH243472   0.558   1.742   3.636
14510TIP3    H143473   0.561   1.815   3.698
14510TIP3    H243474   0.471   1.704   3.648
14511TIP3   OH243475   6.675   1.523   3.247
14511TIP3    H143476   6.648   1.605   3.206
14511TIP3    H243477   6.606   1.506   3.312
14512TIP3   OH243478  -0.028   6.392   4.242
14512TIP3    H143479  -0.001   6.437   4.323
14512TIP3    H243480  -0.059   6.462   4.185
14513TIP3   OH243481   7.713   3.938   1.683
14513TIP3    H143482   7.765   3.940   1.604
14513TIP3    H243483   7.668   3.854   1.681
14514TIP3   OH243484   1.248   1.399   4.806
14514TIP3    H143485   1.257   1.494   4.806
14514TIP3    H243486   1.198   1.379   4.885
14515TIP3   OH243487   1.617   3.779   3.605
14515TIP3    H143488   1.710   3.795   3.589
14515TIP3    H243489   1.573   3.856   3.570
14516TIP3   OH243490   4.329   6.897   5.892
14516TIP3    H143491   4.297   6.883   5.981
14516TIP3    H243492   4.325   6.992   5.880
14517TIP3   OH243493   7.381   7.021   3.177
14517TIP3    H143494   7.454   6.959   3.172
14517TIP3    H243495   7.390   7.075   3.099
14518TIP3   OH243496   1.779   2.495   3.900
14518TIP3    H143497   1.725   2.541   3.965
14518TIP3    H243498   1.758   2.537   3.817
14519TIP3   OH243499   0.351   0.909   1.605
14519TIP3    H143500   0.377   1.000   1.599
14519TIP3    H243501   0.434   0.861   1.610
14520TIP3   OH243502   6.086   1.990   1.956
14520TIP3    H143503   6.161   1.949   1.912
14520TIP3    H243504   6.010   1.942   1.924
14521TIP3   OH243505   0.846   6.554   0.281
14521TIP3    H143506   0.847   6.485   0.348
14521TIP3    H243507   0.758   6.549   0.244
14522TIP3   OH243508   2.988   4.079   5.966
14522TIP3    H143509   3.020   4.031   6.043
14522TIP3    H243510   2.924   4.140   6.002
14523TIP3   OH243511   1.113   2.155   2.854
14523TIP3    H143512   1.141   2.066   2.833
14523TIP3    H243513   1.194   2.206   2.856
14524TIP3   OH243514   4.815   0.250   6.420
14524TIP3    H143515   4.816   0.253   6.516
14524TIP3    H243516   4.745   0.311   6.395
14525TIP3   OH243517   5.637   5.454   0.726
14525TIP3    H143518   5.568   5.393   0.753
14525TIP3    H243519   5.712   5.429   0.780
14526TIP3   OH243520   6.148   6.672   0.265
14526TIP3    H143521   6.232   6.667   0.311
14526TIP3    H243522   6.159   6.744   0.203
14527TIP3   OH243523   1.609   1.958   2.096
14527TIP3    H143524   1.685   1.983   2.044
14527TIP3    H243525   1.550   1.915   2.034
14528TIP3   OH243526   2.379   2.981   4.088
14528TIP3    H143527   2.287   2.956   4.095
14528TIP3    H243528   2.413   2.926   4.017
14529TIP3   OH243529   6.986   5.934   1.488
14529TIP3    H143530   7.052   5.882   1.443
14529TIP3    H243531   6.919   5.952   1.421
14530TIP3   OH243532   2.757   3.538   3.124
14530TIP3    H143533   2.784   3.623   3.156
14530TIP3    H243534   2.699   3.558   3.049
14531TIP3   OH243535   7.281   3.802   0.217
14531TIP3    H143536   7.349   3.869   0.220
14531TIP3    H243537   7.203   3.849   0.187
14532TIP3   OH243538   2.560   6.172   4.718
14532TIP3    H143539   2.513   6.254   4.730
14532TIP3    H243540   2.501   6.117   4.668
14533TIP3   OH243541   5.180   4.620   5.699
14533TIP3    H143542   5.193   4.547   5.638
14533TIP3    H243543   5.098   4.599   5.744
14534TIP3   OH243544   2.690   5.074   4.912
14534TIP3    H143545   2.759   5.040   4.855
14534TIP3    H243546   2.685   5.167   4.889
14535TIP3   OH243547   7.684   6.840   4.442
14535TIP3    H143548   7.743   6.782   4.490
14535TIP3    H243549   7.645   6.785   4.375
14536TIP3   OH243550   5.550   3.032   5.823
14536TIP3    H143551   5.607   3.060   5.752
14536TIP3    H243552   5.538   2.938   5.810
14537TIP3   OH243553   6.756   4.586   1.164
14537TIP3    H143554   6.675   4.617   1.123
14537TIP3    H243555   6.801   4.666   1.192
14538TIP3   OH243556   1.330   7.323   4.440
14538TIP3    H143557   1.234   7.317   4.441
14538TIP3    H243558   1.355   7.319   4.532
14539TIP3   OH243559   0.481   6.508   5.150
14539TIP3    H143560   0.565   6.472   5.120
14539TIP3    H243561   0.432   6.432   5.181
14540TIP3   OH243562   0.317   5.878   5.050
14540TIP3    H143563   0.394   5.934   5.038
14540TIP3    H243564   0.252   5.935   5.091
14541TIP3   OH243565   4.478   7.263   4.337
14541TIP3    H143566   4.410   7.331   4.333
14541TIP3    H243567   4.472   7.218   4.253
14542TIP3   OH243568   0.554   2.069   0.261
14542TIP3    H143569   0.500   2.065   0.340
14542TIP3    H243570   0.491   2.078   0.189
14543TIP3   OH243571   6.037   0.485   4.011
14543TIP3    H143572   6.039   0.452   3.921
14543TIP3    H243573   6.080   0.570   4.006
14544TIP3   OH243574   5.868   2.757   2.192
14544TIP3    H143575   5.853   2.765   2.286
14544TIP3    H243576   5.961   2.737   2.184
14545TIP3   OH243577   1.065   0.069   1.641
14545TIP3    H143578   1.068  -0.006   1.701
14545TIP3    H243579   0.977   0.105   1.652
14546TIP3   OH243580   0.049   6.641   2.887
14546TIP3    H143581   0.136   6.642   2.925
14546TIP3    H243582   0.062   6.622   2.794
14547TIP3   OH243583   7.792   0.839   5.636
14547TIP3    H143584   7.877   0.872   5.664
14547TIP3    H243585   7.731   0.869   5.704
14548TIP3   OH243586   3.186   0.951   2.621
14548TIP3    H143587   3.137   1.028   2.591
14548TIP3    H243588   3.123   0.879   2.615
14549TIP3   OH243589   0.339   0.461   1.584
14549TIP3    H143590   0.296   0.524   1.642
14549TIP3    H243591   0.299   0.376   1.607
14550TIP3   OH243592   1.214   6.213   4.894
14550TIP3    H143593   1.274   6.283   4.922
14550TIP3    H243594   1.135   6.259   4.868
14551TIP3   OH243595   6.888   5.482   4.020
14551TIP3    H143596   6.880   5.404   4.076
14551TIP3    H243597   6.905   5.554   4.081
14552TIP3   OH243598   4.678   6.824   0.631
14552TIP3    H143599   4.624   6.763   0.681
14552TIP3    H243600   4.631   6.837   0.549
14553TIP3   OH243601   4.656   5.068   0.128
14553TIP3    H143602   4.738   5.108   0.100
14553TIP3    H243603   4.662   4.978   0.099
14554TIP3   OH243604   6.937   0.167   4.631
14554TIP3    H143605   6.845   0.164   4.606
14554TIP3    H243606   6.967   0.076   4.624
14555TIP3   OH243607   3.802   5.470   4.814
14555TIP3    H143608   3.718   5.451   4.856
14555TIP3    H243609   3.823   5.390   4.766
14556TIP3   OH243610   3.145   2.015   6.732
14556TIP3    H143611   3.204   2.014   6.656
14556TIP3    H243612   3.201   2.039   6.805
14557TIP3   OH243613   2.038   2.540   0.280
14557TIP3    H143614   1.946   2.564   0.291
14557TIP3    H243615   2.051   2.539   0.185
14558TIP3   OH243616   1.385   3.138   2.566
14558TIP3    H143617   1.346   3.171   2.648
14558TIP3    H243618   1.330   3.175   2.497
14559TIP3   OH243619   3.349   3.757   4.504
14559TIP3    H143620   3.288   3.684   4.515
14559TIP3    H243621   3.333   3.788   4.415
14560TIP3   OH243622   2.490   2.060   0.427
14560TIP3    H143623   2.468   2.085   0.517
14560TIP3    H243624   2.427   1.991   0.406
14561TIP3   OH243625   4.700   6.920   5.723
14561TIP3    H143626   4.717   6.837   5.767
14561TIP3    H243627   4.649   6.897   5.646
14562TIP3   OH243628   0.454   7.100   2.868
14562TIP3    H143629   0.519   7.129   2.934
14562TIP3    H243630   0.410   7.026   2.910
14563TIP3   OH243631   1.753   7.599   0.360
14563TIP3    H143632   1.804   7.519   0.348
14563TIP3    H243633   1.748   7.611   0.455
14564TIP3   OH243634   0.101   7.053   3.019
14564TIP3    H143635   0.035   6.992   3.054
14564TIP3    H243636   0.171   6.997   2.986
14565TIP3   OH243637   3.522   6.239   0.093
14565TIP3    H143638   3.514   6.144   0.105
14565TIP3    H243639   3.603   6.262   0.139
14566TIP3   OH243640   8.020   4.350   6.774
14566TIP3    H143641   8.113   4.350   6.797
14566TIP3    H243642   8.004   4.262   6.739
14567TIP3   OH243643   5.958   5.907   1.290
14567TIP3    H143644   5.970   5.981   1.229
14567TIP3    H243645   5.994   5.938   1.373
14568TIP3   OH243646   1.828   0.347   1.481
14568TIP3    H143647   1.886   0.303   1.542
14568TIP3    H243648   1.858   0.319   1.395
14569TIP3   OH243649   8.086   6.215   5.161
14569TIP3    H143650   8.001   6.256   5.144
14569TIP3    H243651   8.073   6.123   5.141
14570TIP3   OH243652   3.803   2.029   4.292
14570TIP3    H143653   3.736   1.969   4.323
14570TIP3    H243654   3.850   1.981   4.224
14571TIP3   OH243655   3.869   0.430   0.252
14571TIP3    H143656   3.929   0.421   0.326
14571TIP3    H243657   3.784   0.403   0.286
14572TIP3   OH243658   6.081   1.478   4.576
14572TIP3    H143659   6.031   1.539   4.522
14572TIP3    H243660   6.058   1.392   4.542
14573TIP3   OH243661   2.219   6.748   2.007
14573TIP3    H143662   2.184   6.659   1.998
14573TIP3    H243663   2.214   6.767   2.101
14574TIP3   OH243664   6.289   4.084   0.745
14574TIP3    H143665   6.222   4.126   0.691
14574TIP3    H243666   6.368   4.086   0.691
14575TIP3   OH243667   1.848   6.489   4.726
14575TIP3    H143668   1.754   6.491   4.745
14575TIP3    H243669   1.855   6.528   4.638
14576TIP3   OH243670   5.433   7.659   5.006
14576TIP3    H143671   5.418   7.745   5.044
14576TIP3    H243672   5.376   7.600   5.056
14577TIP3   OH243673   1.446   0.543   5.140
14577TIP3    H143674   1.491   0.549   5.056
14577TIP3    H243675   1.411   0.454   5.143
14578TIP3   OH243676   2.919   1.543   4.231
14578TIP3    H143677   2.963   1.496   4.160
14578TIP3    H243678   2.985   1.550   4.300
14579TIP3   OH243679   2.816   1.647   6.183
14579TIP3    H143680   2.811   1.742   6.184
14579TIP3    H243681   2.725   1.618   6.192
14580TIP3   OH243682   0.692   4.040   4.066
14580TIP3    H143683   0.754   4.058   3.996
14580TIP3    H243684   0.715   4.103   4.135
14581TIP3   OH243685   5.149   6.000   2.843
14581TIP3    H143686   5.211   6.017   2.914
14581TIP3    H243687   5.204   5.977   2.769
14582TIP3   OH243688   1.481   4.905   1.621
14582TIP3    H143689   1.502   4.917   1.713
14582TIP3    H243690   1.388   4.926   1.614
14583TIP3   OH243691   1.084   1.482   2.992
14583TIP3    H143692   1.104   1.530   2.911
14583TIP3    H243693   1.170   1.458   3.027
14584TIP3   OH243694   5.390   7.377   0.250
14584TIP3    H143695   5.443   7.451   0.280
14584TIP3    H243696   5.424   7.302   0.299
14585TIP3   OH243697   3.766   5.755   0.197
14585TIP3    H143698   3.840   5.708   0.158
14585TIP3    H243699   3.807   5.828   0.243
14586TIP3   OH243700   3.488   7.309   2.265
14586TIP3    H143701   3.577   7.286   2.239
14586TIP3    H243702   3.497   7.340   2.355
14587TIP3   OH243703   1.279   1.743   3.873
14587TIP3    H143704   1.333   1.809   3.829
14587TIP3    H243705   1.270   1.673   3.809
14588TIP3   OH243706   2.909   0.465   0.960
14588TIP3    H143707   2.815   0.461   0.978
14588TIP3    H243708   2.937   0.373   0.964
14589TIP3   OH243709   7.200   2.855   4.196
14589TIP3    H143710   7.228   2.946   4.205
14589TIP3    H243711   7.145   2.855   4.117
14590TIP3   OH243712   1.524   7.117   5.062
14590TIP3    H143713   1.510   7.146   5.152
14590TIP3    H243714   1.604   7.160   5.034
14591TIP3   OH243715   7.117   6.465   3.358
14591TIP3    H143716   7.167   6.430   3.284
14591TIP3    H243717   7.165   6.544   3.384
14592TIP3   OH243718   7.738   5.126   0.589
14592TIP3    H143719   7.731   5.194   0.523
14592TIP3    H243720   7.653   5.081   0.586
14593TIP3   OH243721   0.253   6.041   4.421
14593TIP3    H143722   0.235   6.135   4.420
14593TIP3    H243723   0.307   6.028   4.500
14594TIP3   OH243724   4.585   7.701   3.386
14594TIP3    H143725   4.631   7.755   3.321
14594TIP3    H243726   4.654   7.677   3.448
14595TIP3   OH243727   2.056   1.964   1.274
14595TIP3    H143728   2.109   1.990   1.350
14595TIP3    H243729   2.001   1.893   1.307
14596TIP3   OH243730   5.117   6.568   5.008
14596TIP3    H143731   5.179   6.631   5.046
14596TIP3    H243732   5.111   6.592   4.916
14597TIP3   OH243733   0.318   4.782   0.002
14597TIP3    H143734   0.314   4.827   0.087
14597TIP3    H243735   0.236   4.731  -0.001
14598TIP3   OH243736   1.507   2.381   6.403
14598TIP3    H143737   1.538   2.417   6.320
14598TIP3    H243738   1.412   2.391   6.399
14599TIP3   OH243739   2.404   5.952   0.388
14599TIP3    H143740   2.452   6.034   0.377
14599TIP3    H243741   2.377   5.927   0.299
14600TIP3   OH243742   5.431   6.423   5.796
14600TIP3    H143743   5.372   6.490   5.830
14600TIP3    H243744   5.507   6.471   5.765
14601TIP3   OH243745   0.986   6.062   4.099
14601TIP3    H143746   1.018   6.058   4.189
14601TIP3    H243747   0.901   6.018   4.102
14602TIP3   OH243748   7.367   2.898   4.722
14602TIP3    H143749   7.330   2.848   4.794
14602TIP3    H243750   7.345   2.989   4.741
14603TIP3   OH243751   3.177   3.274   1.208
14603TIP3    H143752   3.231   3.220   1.265
14603TIP3    H243753   3.118   3.213   1.165
14604TIP3   OH243754   5.374   3.308   3.441
14604TIP3    H143755   5.289   3.345   3.418
14604TIP3    H243756   5.379   3.315   3.536
14605TIP3   OH243757   2.471   1.346   4.209
14605TIP3    H143758   2.516   1.427   4.236
14605TIP3    H243759   2.408   1.330   4.279
14606TIP3   OH243760   2.064   5.519   0.270
14606TIP3    H143761   2.015   5.475   0.340
14606TIP3    H243762   2.121   5.451   0.234
14607TIP3   OH243763   8.074   7.374   0.972
14607TIP3    H143764   8.074   7.446   0.909
14607TIP3    H243765   8.134   7.310   0.935
14608TIP3   OH243766   1.372   2.926   2.893
14608TIP3    H143767   1.459   2.932   2.932
14608TIP3    H243768   1.314   2.969   2.956
14609TIP3   OH243769   0.842   3.117   1.684
14609TIP3    H143770   0.755   3.080   1.700
14609TIP3    H243771   0.825   3.207   1.656
14610TIP3   OH243772   6.925   6.168   4.194
14610TIP3    H143773   7.018   6.177   4.214
14610TIP3    H243774   6.922   6.104   4.123
14611TIP3   OH243775   0.057   4.267   5.928
14611TIP3    H143776  -0.023   4.241   5.881
14611TIP3    H243777   0.088   4.345   5.882
14612TIP3   OH243778   7.515   3.385   1.759
14612TIP3    H143779   7.536   3.363   1.850
14612TIP3    H243780   7.565   3.322   1.707
14613TIP3   OH243781   5.844   1.559   5.442
14613TIP3    H143782   5.905   1.499   5.486
14613TIP3    H243783   5.899   1.632   5.414
14614TIP3   OH243784   0.940   3.339   0.956
14614TIP3    H143785   0.937   3.244   0.970
14614TIP3    H243786   0.885   3.353   0.879
14615TIP3   OH243787   7.274   2.199   0.242
14615TIP3    H143788   7.321   2.226   0.163
14615TIP3    H243789   7.184   2.228   0.228
14616TIP3   OH243790   7.451   1.489   1.015
14616TIP3    H143791   7.371   1.437   1.008
14616TIP3    H243792   7.451   1.545   0.937
14617TIP3   OH243793   2.740   5.426   3.699
14617TIP3    H143794   2.676   5.357   3.721
14617TIP3    H243795   2.744   5.480   3.778
14618TIP3   OH243796   1.288  -0.005   5.935
14618TIP3    H143797   1.208   0.011   5.985
14618TIP3    H243798   1.271   0.032   5.849
14619TIP3   OH243799   2.786   2.979   1.867
14619TIP3    H143800   2.867   3.009   1.909
14619TIP3    H243801   2.815   2.938   1.785
14620TIP3   OH243802   4.302   0.510   0.841
14620TIP3    H143803   4.284   0.416   0.855
14620TIP3    H243804   4.347   0.513   0.757
14621TIP3   OH243805   4.003   2.497   0.391
14621TIP3    H143806   4.003   2.589   0.363
14621TIP3    H243807   4.011   2.500   0.486
14622TIP3   OH243808   5.326   0.377   0.385
14622TIP3    H143809   5.313   0.396   0.478
14622TIP3    H243810   5.375   0.453   0.352
14623TIP3   OH243811   7.593   3.129   5.572
14623TIP3    H143812   7.654   3.141   5.499
14623TIP3    H243813   7.646   3.148   5.650
14624TIP3   OH243814   7.486   4.712   4.973
14624TIP3    H143815   7.403   4.670   4.952
14624TIP3    H243816   7.547   4.640   4.986
14625TIP3   OH243817   0.827   3.728   0.664
14625TIP3    H143818   0.810   3.814   0.625
14625TIP3    H243819   0.834   3.668   0.590
14626TIP3   OH243820   1.483   5.143   6.172
14626TIP3    H143821   1.399   5.159   6.217
14626TIP3    H243822   1.546   5.197   6.220
14627TIP3   OH243823   0.114   3.048   6.383
14627TIP3    H143824   0.051   3.111   6.418
14627TIP3    H243825   0.111   2.974   6.443
14628TIP3   OH243826   6.758   0.481   5.314
14628TIP3    H143827   6.693   0.414   5.335
14628TIP3    H243828   6.779   0.466   5.222
14629TIP3   OH243829   3.308   5.028   6.392
14629TIP3    H143830   3.244   5.065   6.452
14629TIP3    H243831   3.269   4.945   6.364
14630TIP3   OH243832   3.496   4.253   3.504
14630TIP3    H143833   3.552   4.293   3.438
14630TIP3    H243834   3.456   4.179   3.460
14631TIP3   OH243835   7.734   1.068   0.180
14631TIP3    H143836   7.740   1.119   0.260
14631TIP3    H243837   7.677   0.994   0.202
14632TIP3   OH243838   5.001   1.053   3.875
14632TIP3    H143839   4.908   1.070   3.862
14632TIP3    H243840   5.004   0.987   3.944
14633TIP3   OH243841   6.998   5.823   5.172
14633TIP3    H143842   7.042   5.863   5.097
14633TIP3    H243843   7.033   5.870   5.248
14634TIP3   OH243844   3.339   5.275   0.765
14634TIP3    H143845   3.369   5.279   0.675
14634TIP3    H243846   3.351   5.364   0.799
14635TIP3   OH243847   3.638   1.942   2.757
14635TIP3    H143848   3.588   2.001   2.812
14635TIP3    H243849   3.682   1.882   2.818
14636TIP3   OH243850   0.766   1.031   2.950
14636TIP3    H143851   0.800   0.944   2.971
14636TIP3    H243852   0.841   1.079   2.916
14637TIP3   OH243853   7.707   3.673   1.427
14637TIP3    H143854   7.666   3.644   1.508
14637TIP3    H243855   7.633   3.695   1.369
14638TIP3   OH243856   2.552   0.497   5.782
14638TIP3    H143857   2.575   0.566   5.843
14638TIP3    H243858   2.538   0.542   5.699
14639TIP3   OH243859   2.030   2.951   6.669
14639TIP3    H143860   2.042   3.046   6.666
14639TIP3    H243861   2.005   2.927   6.579
14640TIP3   OH243862   3.255   1.844   0.075
14640TIP3    H143863   3.197   1.770   0.057
14640TIP3    H243864   3.343   1.807   0.071
14641TIP3   OH243865   4.101   7.107   4.168
14641TIP3    H143866   4.187   7.104   4.210
14641TIP3    H243867   4.116   7.077   4.079
14642TIP3   OH243868   0.666   5.127   0.218
14642TIP3    H143869   0.737   5.167   0.268
14642TIP3    H243870   0.643   5.193   0.153
14643TIP3   OH243871   6.662   0.109   0.821
14643TIP3    H143872   6.590   0.109   0.884
14643TIP3    H243873   6.620   0.117   0.736
14644TIP3   OH243874   5.276   5.998   4.839
14644TIP3    H143875   5.300   5.914   4.879
14644TIP3    H243876   5.314   6.064   4.897
14645TIP3   OH243877   7.376   1.216   1.669
14645TIP3    H143878   7.329   1.134   1.649
14645TIP3    H243879   7.454   1.212   1.614
14646TIP3   OH243880   5.707   0.952   6.050
14646TIP3    H143881   5.662   0.978   5.970
14646TIP3    H243882   5.643   0.968   6.120
14647TIP3   OH243883   2.189   0.891   5.264
14647TIP3    H143884   2.093   0.889   5.267
14647TIP3    H243885   2.211   0.865   5.174
14648TIP3   OH243886   6.213   4.728   4.718
14648TIP3    H143887   6.204   4.688   4.632
14648TIP3    H243888   6.161   4.808   4.713
14649TIP3   OH243889   6.659   0.198   5.410
14649TIP3    H143890   6.653   0.103   5.422
14649TIP3    H243891   6.682   0.232   5.496
14650TIP3   OH243892   4.886   7.228   2.386
14650TIP3    H143893   4.792   7.216   2.393
14650TIP3    H243894   4.898   7.322   2.375
14651TIP3   OH243895   4.488   7.562   1.647
14651TIP3    H143896   4.484   7.494   1.580
14651TIP3    H243897   4.438   7.635   1.610
14652TIP3   OH243898   3.495   1.774   5.256
14652TIP3    H143899   3.542   1.831   5.319
14652TIP3    H243900   3.463   1.834   5.189
14653TIP3   OH243901   2.480   7.116   1.101
14653TIP3    H143902   2.543   7.186   1.119
14653TIP3    H243903   2.533   7.036   1.103
14654TIP3   OH243904   6.305   7.043   4.408
14654TIP3    H143905   6.301   7.033   4.503
14654TIP3    H243906   6.237   7.108   4.388
14655TIP3   OH243907   7.360   1.601   3.023
14655TIP3    H143908   7.300   1.527   3.036
14655TIP3    H243909   7.361   1.647   3.106
14656TIP3   OH243910   0.855   7.038   1.486
14656TIP3    H143911   0.788   6.971   1.500
14656TIP3    H243912   0.834   7.107   1.549
14657TIP3   OH243913   1.059   0.567   4.511
14657TIP3    H143914   1.087   0.486   4.553
14657TIP3    H243915   1.024   0.540   4.427
14658TIP3   OH243916   3.859   4.211   6.261
14658TIP3    H143917   3.913   4.229   6.183
14658TIP3    H243918   3.772   4.194   6.226
14659TIP3   OH243919   3.698   4.912   0.673
14659TIP3    H143920   3.655   4.843   0.621
14659TIP3    H243921   3.635   4.933   0.741
14660TIP3   OH243922   1.396   1.315   5.853
14660TIP3    H143923   1.446   1.291   5.931
14660TIP3    H243924   1.374   1.408   5.866
14661TIP3   OH243925   5.189   1.082   3.243
14661TIP3    H143926   5.163   1.119   3.327
14661TIP3    H243927   5.131   1.123   3.179
14662TIP3   OH243928   0.096   0.076   4.968
14662TIP3    H143929   0.039   0.016   5.017
14662TIP3    H243930   0.091   0.045   4.878
14663TIP3   OH243931   7.129   2.782   2.010
14663TIP3    H143932   7.148   2.876   2.014
14663TIP3    H243933   7.182   2.750   1.937
14664TIP3   OH243934   5.948   1.509   1.080
14664TIP3    H143935   5.992   1.570   1.140
14664TIP3    H243936   5.918   1.437   1.136
14665TIP3   OH243937   0.145   1.328   2.974
14665TIP3    H143938   0.176   1.269   2.905
14665TIP3    H243939   0.109   1.270   3.041
14666TIP3   OH243940   7.576   2.042   6.462
14666TIP3    H143941   7.619   2.090   6.391
14666TIP3    H243942   7.485   2.033   6.432
14667TIP3   OH243943   3.727   0.787   3.901
14667TIP3    H143944   3.715   0.820   3.812
14667TIP3    H243945   3.783   0.710   3.890
14668TIP3   OH243946   1.465   1.551   1.375
14668TIP3    H143947   1.397   1.596   1.325
14668TIP3    H243948   1.531   1.527   1.310
14669TIP3   OH243949   6.022   0.631   6.128
14669TIP3    H143950   6.067   0.695   6.184
14669TIP3    H243951   5.975   0.685   6.065
14670TIP3   OH243952   4.091   5.728   0.326
14670TIP3    H143953   4.167   5.785   0.339
14670TIP3    H243954   4.122   5.659   0.268
14671TIP3   OH243955   0.195   2.370   4.591
14671TIP3    H143956   0.226   2.294   4.542
14671TIP3    H243957   0.243   2.444   4.553
14672TIP3   OH243958   0.453   1.683   2.197
14672TIP3    H143959   0.387   1.750   2.214
14672TIP3    H243960   0.509   1.685   2.274
14673TIP3   OH243961   2.355   1.353   2.605
14673TIP3    H143962   2.307   1.408   2.668
14673TIP3    H243963   2.427   1.408   2.575
14674TIP3   OH243964   5.736   4.167   4.654
14674TIP3    H143965   5.757   4.260   4.661
14674TIP3    H243966   5.768   4.129   4.735
14675TIP3   OH243967   1.506   4.704   5.555
14675TIP3    H143968   1.453   4.742   5.486
14675TIP3    H243969   1.450   4.636   5.593
14676TIP3   OH243970   7.732   4.793   5.417
14676TIP3    H143971   7.660   4.826   5.362
14676TIP3    H243972   7.729   4.849   5.495
14677TIP3   OH243973   6.661   6.016   6.603
14677TIP3    H143974   6.642   5.926   6.630
14677TIP3    H243975   6.705   6.007   6.518
14678TIP3   OH243976   7.638   0.326   5.428
14678TIP3    H143977   7.619   0.233   5.418
14678TIP3    H243978   7.688   0.333   5.509
14679TIP3   OH243979   6.299   5.594   6.074
14679TIP3    H143980   6.290   5.688   6.057
14679TIP3    H243981   6.298   5.587   6.169
14680TIP3   OH243982   7.605   4.718   6.343
14680TIP3    H143983   7.657   4.787   6.302
14680TIP3    H243984   7.665   4.644   6.350
14681TIP3   OH243985   5.644   0.864   4.676
14681TIP3    H143986   5.649   0.957   4.698
14681TIP3    H243987   5.560   0.855   4.631
14682TIP3   OH243988   7.339   2.084   4.188
14682TIP3    H143989   7.299   2.106   4.272
14682TIP3    H243990   7.371   1.995   4.199
14683TIP3   OH243991   2.282   4.087   1.417
14683TIP3    H143992   2.241   4.133   1.490
14683TIP3    H243993   2.209   4.050   1.368
14684TIP3   OH243994   5.999   0.387   0.268
14684TIP3    H143995   6.076   0.410   0.218
14684TIP3    H243996   6.015   0.423   0.355
14685TIP3   OH243997   7.078   7.800   4.144
14685TIP3    H143998   7.072   7.714   4.104
14685TIP3    H243999   7.013   7.798   4.214
14686TIP3   OH244000   2.174   3.485   5.709
14686TIP3    H144001   2.228   3.426   5.657
14686TIP3    H244002   2.127   3.538   5.644
14687TIP3   OH244003   2.469   5.588   5.930
14687TIP3    H144004   2.426   5.524   5.874
14687TIP3    H244005   2.553   5.547   5.953
14688TIP3   OH244006   3.011   4.833   2.088
14688TIP3    H144007   3.014   4.744   2.123
14688TIP3    H244008   3.103   4.860   2.087
14689TIP3   OH244009   7.483   7.064   0.561
14689TIP3    H144010   7.454   6.994   0.502
14689TIP3    H244011   7.403   7.108   0.587
14690TIP3   OH244012   6.256   5.334   3.241
14690TIP3    H144013   6.277   5.250   3.200
14690TIP3    H244014   6.341   5.367   3.270
14691TIP3   OH244015   1.254   5.396   6.631
14691TIP3    H144016   1.309   5.324   6.663
14691TIP3    H244017   1.284   5.473   6.679
14692TIP3   OH244018   7.566   6.431   5.843
14692TIP3    H144019   7.507   6.356   5.849
14692TIP3    H244020   7.625   6.421   5.917
14693TIP3   OH244021   0.809   7.438   5.624
14693TIP3    H144022   0.798   7.393   5.708
14693TIP3    H244023   0.903   7.442   5.611
14694TIP3   OH244024   2.276   4.476   4.899
14694TIP3    H144025   2.356   4.516   4.866
14694TIP3    H244026   2.271   4.391   4.856
14695TIP3   OH244027   1.390   0.257   5.439
14695TIP3    H144028   1.393   0.322   5.510
14695TIP3    H244029   1.474   0.267   5.394
14696TIP3   OH244030   2.965   1.416   4.968
14696TIP3    H144031   2.914   1.383   5.041
14696TIP3    H244032   2.913   1.488   4.932
14697TIP3   OH244033   2.183   7.170   6.524
14697TIP3    H144034   2.116   7.178   6.456
14697TIP3    H244035   2.254   7.120   6.482
14698TIP3   OH244036   3.157   4.795   6.648
14698TIP3    H144037   3.091   4.828   6.587
14698TIP3    H244038   3.124   4.709   6.675
14699TIP3   OH244039   6.110   1.403   2.145
14699TIP3    H144040   6.143   1.316   2.126
14699TIP3    H244041   6.033   1.388   2.201
14700TIP3   OH244042   5.168   3.936   6.357
14700TIP3    H144043   5.135   3.907   6.272
14700TIP3    H244044   5.121   3.883   6.421
14701TIP3   OH244045   0.677   4.032   3.080
14701TIP3    H144046   0.686   4.032   2.985
14701TIP3    H244047   0.585   4.009   3.096
14702TIP3   OH244048   2.685   7.713   3.278
14702TIP3    H144049   2.609   7.675   3.322
14702TIP3    H244050   2.647   7.772   3.212
14703TIP3   OH244051   7.378   5.342   6.196
14703TIP3    H144052   7.420   5.424   6.223
14703TIP3    H244053   7.297   5.369   6.154
14704TIP3   OH244054   3.326   6.636   3.262
14704TIP3    H144055   3.290   6.684   3.188
14704TIP3    H244056   3.297   6.684   3.339
14705TIP3   OH244057   2.772   2.396   0.762
14705TIP3    H144058   2.811   2.375   0.847
14705TIP3    H244059   2.722   2.476   0.776
14706TIP3   OH244060   1.114   2.427   4.413
14706TIP3    H144061   1.183   2.363   4.432
14706TIP3    H244062   1.056   2.422   4.489
14707TIP3   OH244063   5.274   4.904   5.279
14707TIP3    H144064   5.363   4.897   5.246
14707TIP3    H244065   5.226   4.947   5.208
14708TIP3   OH244066   6.134   2.677   6.750
14708TIP3    H144067   6.183   2.749   6.711
14708TIP3    H244068   6.110   2.622   6.675
14709TIP3   OH244069   3.769   6.149   2.203
14709TIP3    H144070   3.743   6.057   2.213
14709TIP3    H244071   3.702   6.186   2.146
14710TIP3   OH244072   2.671   6.961   6.149
14710TIP3    H144073   2.694   7.052   6.167
14710TIP3    H244074   2.739   6.910   6.193
14711TIP3   OH244075   1.249   2.748   6.574
14711TIP3    H144076   1.268   2.831   6.530
14711TIP3    H244077   1.235   2.686   6.503
14712TIP3   OH244078   6.324   4.579   5.674
14712TIP3    H144079   6.285   4.558   5.590
14712TIP3    H244080   6.320   4.498   5.724
14713TIP3   OH244081   1.914   5.776   2.738
14713TIP3    H144082   2.000   5.801   2.771
14713TIP3    H244083   1.926   5.766   2.644
14714TIP3   OH244084   6.562   0.868   0.799
14714TIP3    H144085   6.559   0.932   0.728
14714TIP3    H244086   6.470   0.852   0.821
14715TIP3   OH244087   0.412   2.969   0.395
14715TIP3    H144088   0.494   3.018   0.385
14715TIP3    H244089   0.392   2.974   0.489
14716TIP3   OH244090   2.980   5.575   4.962
14716TIP3    H144091   3.017   5.637   5.026
14716TIP3    H244092   2.890   5.561   4.992
14717TIP3   OH244093   7.758   5.527   1.541
14717TIP3    H144094   7.777   5.446   1.494
14717TIP3    H244095   7.787   5.596   1.481
14718TIP3   OH244096   1.474   0.311   6.170
14718TIP3    H144097   1.388   0.350   6.183
14718TIP3    H244098   1.459   0.217   6.175
14719TIP3   OH244099   1.280   3.097   6.732
14719TIP3    H144100   1.249   3.123   6.819
14719TIP3    H244101   1.253   3.005   6.723
14720TIP3   OH244102   7.887   1.151   3.938
14720TIP3    H144103   7.957   1.216   3.939
14720TIP3    H244104   7.806   1.203   3.941
14721TIP3   OH244105   3.315   6.800   3.480
14721TIP3    H144106   3.220   6.795   3.490
14721TIP3    H244107   3.331   6.888   3.446
14722TIP3   OH244108   1.145   3.277   3.962
14722TIP3    H144109   1.122   3.369   3.977
14722TIP3    H244110   1.162   3.271   3.868
14723TIP3   OH244111   6.573   1.162   2.338
14723TIP3    H144112   6.572   1.178   2.433
14723TIP3    H244113   6.535   1.075   2.327
14724TIP3   OH244114   0.391   3.163   0.986
14724TIP3    H144115   0.375   3.142   1.078
14724TIP3    H244116   0.319   3.120   0.939
14725TIP3   OH244117   1.549   1.655   4.578
14725TIP3    H144118   1.526   1.673   4.487
14725TIP3    H244119   1.535   1.738   4.624
14726TIP3   OH244120   4.096   1.983   2.762
14726TIP3    H144121   4.013   2.026   2.745
14726TIP3    H244122   4.073   1.908   2.818
14727TIP3   OH244123   0.142   3.539   1.872
14727TIP3    H144124   0.092   3.620   1.863
14727TIP3    H244125   0.208   3.559   1.939
14728TIP3   OH244126   2.685   7.129   3.431
14728TIP3    H144127   2.605   7.101   3.387
14728TIP3    H244128   2.733   7.048   3.448
14729TIP3   OH244129   5.619   1.652   5.565
14729TIP3    H144130   5.600   1.600   5.643
14729TIP3    H244131   5.712   1.634   5.547
14730TIP3   OH244132   7.337   4.261   4.986
14730TIP3    H144133   7.310   4.171   4.970
14730TIP3    H244134   7.254   4.310   4.989
14731TIP3   OH244135   5.994   7.384   5.388
14731TIP3    H144136   6.066   7.351   5.333
14731TIP3    H244137   6.033   7.458   5.435
14732TIP3   OH244138   5.963   0.826   1.456
14732TIP3    H144139   5.893   0.795   1.515
14732TIP3    H244140   5.977   0.917   1.484
14733TIP3   OH244141   1.675   0.959   4.922
14733TIP3    H144142   1.694   0.941   5.015
14733TIP3    H244143   1.660   1.054   4.919
14734TIP3   OH244144   1.194   7.556   4.190
14734TIP3    H144145   1.156   7.534   4.275
14734TIP3    H244146   1.252   7.629   4.207
14735TIP3   OH244147   3.005   3.854   3.288
14735TIP3    H144148   2.999   3.929   3.229
14735TIP3    H244149   3.061   3.883   3.360
14736TIP3   OH244150   7.736   7.686   0.048
14736TIP3    H144151   7.727   7.591   0.037
14736TIP3    H244152   7.649   7.715   0.075
14737TIP3   OH244153   5.427   5.942   1.175
14737TIP3    H144154   5.403   5.988   1.255
14737TIP3    H244155   5.472   6.008   1.122
14738TIP3   OH244156   1.586   3.541   2.529
14738TIP3    H144157   1.605   3.461   2.577
14738TIP3    H244158   1.566   3.512   2.440
14739TIP3   OH244159   7.760   1.002   6.207
14739TIP3    H144160   7.827   0.934   6.217
14739TIP3    H244161   7.741   1.030   6.297
14740TIP3   OH244162   2.555   6.540   1.228
14740TIP3    H144163   2.565   6.506   1.139
14740TIP3    H244164   2.470   6.507   1.257
14741TIP3   OH244165   1.245   1.140   0.339
14741TIP3    H144166   1.223   1.053   0.306
14741TIP3    H244167   1.170   1.165   0.394
14742TIP3   OH244168   1.324   6.424   3.232
14742TIP3    H144169   1.301   6.363   3.302
14742TIP3    H244170   1.291   6.508   3.263
14743TIP3   OH244171   4.988   0.976   5.931
14743TIP3    H144172   4.966   0.900   5.984
14743TIP3    H244173   4.933   0.967   5.852
14744TIP3   OH244174   6.621   6.659   4.039
14744TIP3    H144175   6.548   6.679   4.098
14744TIP3    H244176   6.579   6.632   3.957
14745TIP3   OH244177   5.951   4.830   6.106
14745TIP3    H144178   5.900   4.860   6.031
14745TIP3    H244179   5.964   4.737   6.090
14746TIP3   OH244180   2.351   7.262   0.216
14746TIP3    H144181   2.394   7.258   0.301
14746TIP3    H244182   2.406   7.210   0.158
14747TIP3   OH244183   0.141   3.807   6.267
14747TIP3    H144184   0.236   3.802   6.275
14747TIP3    H244185   0.126   3.840   6.179
14748TIP3   OH244186   5.210   1.407   4.167
14748TIP3    H144187   5.226   1.455   4.086
14748TIP3    H244188   5.268   1.331   4.162
14749TIP3   OH244189   5.534   4.655   3.734
14749TIP3    H144190   5.533   4.746   3.706
14749TIP3    H244191   5.577   4.607   3.663
14750TIP3   OH244192   7.723   4.747   0.076
14750TIP3    H144193   7.682   4.833   0.081
14750TIP3    H244194   7.783   4.744   0.150
14751TIP3   OH244195   3.286   2.825   6.559
14751TIP3    H144196   3.215   2.824   6.622
14751TIP3    H244197   3.268   2.902   6.504
14752TIP3   OH244198   4.082   6.280   4.045
14752TIP3    H144199   4.037   6.198   4.064
14752TIP3    H244200   4.170   6.269   4.080
14753TIP3   OH244201   7.778   3.738   3.883
14753TIP3    H144202   7.856   3.688   3.858
14753TIP3    H244203   7.812   3.806   3.942
14754TIP3   OH244204   6.069   2.664   6.105
14754TIP3    H144205   6.082   2.582   6.057
14754TIP3    H244206   5.983   2.654   6.147
14755TIP3   OH244207   3.952   0.483   3.275
14755TIP3    H144208   3.966   0.396   3.237
14755TIP3    H244209   4.006   0.483   3.354
14756TIP3   OH244210   0.759   7.245   6.479
14756TIP3    H144211   0.718   7.323   6.443
14756TIP3    H244212   0.727   7.240   6.569
14757TIP3   OH244213   7.234   3.305   1.866
14757TIP3    H144214   7.232   3.360   1.787
14757TIP3    H244215   7.327   3.294   1.885
14758TIP3   OH244216   7.987   6.564   6.387
14758TIP3    H144217   7.895   6.575   6.410
14758TIP3    H244218   8.021   6.653   6.380
14759TIP3   OH244219   5.930   2.099   6.535
14759TIP3    H144220   5.928   2.188   6.501
14759TIP3    H244221   5.838   2.073   6.542
14760TIP3   OH244222   8.208   2.128   4.562
14760TIP3    H144223   8.255   2.151   4.482
14760TIP3    H244224   8.271   2.077   4.614
14761TIP3   OH244225   7.764   3.183   2.118
14761TIP3    H144226   7.849   3.176   2.074
14761TIP3    H244227   7.770   3.121   2.190
14762TIP3   OH244228   7.351   0.969   2.535
14762TIP3    H144229   7.359   0.912   2.458
14762TIP3    H244230   7.434   0.959   2.581
14763TIP3   OH244231   7.453   7.370   0.313
14763TIP3    H144232   7.537   7.338   0.347
14763TIP3    H244233   7.405   7.399   0.391
14764TIP3   OH244234   6.456   7.508   2.349
14764TIP3    H144235   6.408   7.550   2.278
14764TIP3    H244236   6.500   7.581   2.394
14765TIP3   OH244237   6.042   2.363   1.938
14765TIP3    H144238   5.970   2.313   1.900
14765TIP3    H244239   6.115   2.348   1.879
14766TIP3   OH244240   1.685   1.793   4.212
14766TIP3    H144241   1.706   1.728   4.145
14766TIP3    H244242   1.599   1.767   4.245
14767TIP3   OH244243   0.921   4.378   5.352
14767TIP3    H144244   0.975   4.301   5.370
14767TIP3    H244245   0.984   4.449   5.339
14768TIP3   OH244246   5.361   2.487   2.222
14768TIP3    H144247   5.421   2.415   2.204
14768TIP3    H244248   5.413   2.551   2.270
14769TIP3   OH244249   6.565   5.362   6.311
14769TIP3    H144250   6.654   5.366   6.348
14769TIP3    H244251   6.575   5.309   6.232
14770TIP3   OH244252   4.633   5.811   0.698
14770TIP3    H144253   4.564   5.841   0.756
14770TIP3    H244254   4.669   5.733   0.740
14771TIP3   OH244255   6.247  -0.055   3.722
14771TIP3    H144256   6.222  -0.093   3.806
14771TIP3    H244257   6.342  -0.045   3.727
14772TIP3   OH244258   4.307   2.263   5.753
14772TIP3    H144259   4.291   2.177   5.791
14772TIP3    H244260   4.384   2.296   5.799
14773TIP3   OH244261   8.018   6.160   2.802
14773TIP3    H144262   7.944   6.148   2.742
14773TIP3    H244263   8.067   6.234   2.766
14774TIP3   OH244264   6.019   3.121   5.931
14774TIP3    H144265   6.004   3.213   5.911
14774TIP3    H244266   6.073   3.089   5.858
14775TIP3   OH244267   6.891   1.577   0.371
14775TIP3    H144268   6.815   1.628   0.399
14775TIP3    H244269   6.950   1.642   0.331
14776TIP3   OH244270   2.841   0.709   1.271
14776TIP3    H144271   2.829   0.726   1.364
14776TIP3    H244272   2.761   0.665   1.243
14777TIP3   OH244273   5.981   1.650   0.045
14777TIP3    H144274   6.037   1.684   0.114
14777TIP3    H244275   5.918   1.595   0.091
14778TIP3   OH244276   1.750   2.532   0.360
14778TIP3    H144277   1.705   2.569   0.435
14778TIP3    H244278   1.746   2.437   0.374
14779TIP3   OH244279   8.031   0.706   1.333
14779TIP3    H144280   8.060   0.797   1.342
14779TIP3    H244281   8.100   0.655   1.376
14780TIP3   OH244282   7.734   7.225   6.602
14780TIP3    H144283   7.700   7.173   6.529
14780TIP3    H244284   7.715   7.173   6.680
14781TIP3   OH244285   7.786   0.306   4.532
14781TIP3    H144286   7.782   0.263   4.617
14781TIP3    H244287   7.786   0.400   4.553
14782TIP3   OH244288   3.594   2.480   4.161
14782TIP3    H144289   3.514   2.427   4.163
14782TIP3    H244290   3.595   2.524   4.246
14783TIP3   OH244291   4.908   6.380   5.700
14783TIP3    H144292   4.896   6.363   5.606
14783TIP3    H244293   4.977   6.319   5.726
14784TIP3   OH244294   5.056   3.720   1.308
14784TIP3    H144295   5.110   3.642   1.297
14784TIP3    H244296   5.118   3.789   1.329
14785TIP3   OH244297   6.584   0.344   3.826
14785TIP3    H144298   6.676   0.349   3.802
14785TIP3    H244299   6.547   0.428   3.799
14786TIP3   OH244300   5.826   1.263   5.425
14786TIP3    H144301   5.783   1.292   5.506
14786TIP3    H244302   5.851   1.344   5.380
14787TIP3   OH244303   1.072   3.062   1.403
14787TIP3    H144304   1.149   3.114   1.423
14787TIP3    H244305   0.998   3.122   1.414
14788TIP3   OH244306   1.667   3.259   4.002
14788TIP3    H144307   1.584   3.234   4.044
14788TIP3    H244308   1.656   3.352   3.982
14789TIP3   OH244309   5.731   6.177   0.846
14789TIP3    H144310   5.690   6.255   0.883
14789TIP3    H244311   5.659   6.129   0.804
14790TIP3   OH244312   2.667   6.659   5.644
14790TIP3    H144313   2.652   6.701   5.729
14790TIP3    H244314   2.603   6.588   5.640
14791TIP3   OH244315   1.313   0.462   4.567
14791TIP3    H144316   1.393   0.418   4.596
14791TIP3    H244317   1.327   0.554   4.589
14792TIP3   OH244318   0.162   5.668   4.409
14792TIP3    H144319   0.091   5.685   4.471
14792TIP3    H244320   0.221   5.610   4.456
14793TIP3   OH244321   6.256   5.452   0.145
14793TIP3    H144322   6.182   5.508   0.120
14793TIP3    H244323   6.322   5.513   0.176
14794TIP3   OH244324   7.285   1.844   1.209
14794TIP3    H144325   7.373   1.811   1.226
14794TIP3    H244326   7.298   1.933   1.178
14795TIP3   OH244327   6.826   3.185   1.874
14795TIP3    H144328   6.734   3.205   1.889
14795TIP3    H244329   6.872   3.230   1.945
14796TIP3   OH244330   8.144   0.113   0.694
14796TIP3    H144331   8.208   0.184   0.703
14796TIP3    H244332   8.072   0.153   0.644
14797TIP3   OH244333   7.098   6.516   1.962
14797TIP3    H144334   7.008   6.526   1.931
14797TIP3    H244335   7.152   6.546   1.888
14798TIP3   OH244336   6.544   0.227   6.673
14798TIP3    H144337   6.613   0.293   6.669
14798TIP3    H244338   6.472   0.265   6.623
14799TIP3   OH244339   2.208   0.519   1.378
14799TIP3    H144340   2.181   0.437   1.419
14799TIP3    H244341   2.175   0.513   1.289
14800TIP3   OH244342   5.552   3.970   4.687
14800TIP3    H144343   5.613   4.035   4.652
14800TIP3    H244344   5.513   3.929   4.610
14801TIP3   OH244345   2.147   5.781   5.145
14801TIP3    H144346   2.091   5.769   5.068
14801TIP3    H244347   2.182   5.869   5.135
14802TIP3   OH244348   5.006   3.066   2.416
14802TIP3    H144349   5.002   2.982   2.369
14802TIP3    H244350   5.012   3.041   2.508
14803TIP3   OH244351   7.909   2.890   5.817
14803TIP3    H144352   7.950   2.968   5.854
14803TIP3    H244353   7.906   2.906   5.723
14804TIP3   OH244354   2.932   3.372   5.302
14804TIP3    H144355   2.908   3.304   5.239
14804TIP3    H244356   2.995   3.329   5.360
14805TIP3   OH244357   4.949   5.631   6.176
14805TIP3    H144358   5.041   5.607   6.167
14805TIP3    H244359   4.928   5.678   6.095
14806TIP3   OH244360   0.131   6.839   0.428
14806TIP3    H144361   0.064   6.822   0.362
14806TIP3    H244362   0.192   6.900   0.385
14807TIP3   OH244363   4.379   5.046   6.395
14807TIP3    H144364   4.435   5.065   6.470
14807TIP3    H244365   4.290   5.051   6.430
14808TIP3   OH244366   1.665   0.135   0.269
14808TIP3    H144367   1.711   0.193   0.330
14808TIP3    H244368   1.686   0.047   0.301
14809TIP3   OH244369   6.328   1.336   4.336
14809TIP3    H144370   6.332   1.431   4.352
14809TIP3    H244371   6.380   1.298   4.407
14810TIP3   OH244372   5.335   1.908   2.736
14810TIP3    H144373   5.277   1.847   2.691
14810TIP3    H244374   5.302   1.912   2.826
14811TIP3   OH244375   3.306   2.783   3.292
14811TIP3    H144376   3.223   2.807   3.332
14811TIP3    H244377   3.304   2.825   3.205
14812TIP3   OH244378   4.035   3.797   2.530
14812TIP3    H144379   4.041   3.705   2.506
14812TIP3    H244380   4.104   3.840   2.479
14813TIP3   OH244381   3.715   7.438   0.400
14813TIP3    H144382   3.807   7.411   0.395
14813TIP3    H244383   3.718   7.533   0.402
14814TIP3   OH244384   1.307   7.698   2.128
14814TIP3    H144385   1.288   7.653   2.046
14814TIP3    H244386   1.273   7.786   2.116
14815TIP3   OH244387   1.704   6.996   0.295
14815TIP3    H144388   1.689   6.921   0.352
14815TIP3    H244389   1.799   7.001   0.286
14816TIP3   OH244390   5.834   0.418   6.149
14816TIP3    H144391   5.901   0.485   6.135
14816TIP3    H244392   5.794   0.441   6.233
14817TIP3   OH244393   5.125   0.416   5.253
14817TIP3    H144394   5.150   0.505   5.280
14817TIP3    H244395   5.061   0.429   5.183
14818TIP3   OH244396   4.706   3.123   3.553
14818TIP3    H144397   4.636   3.114   3.488
14818TIP3    H244398   4.781   3.080   3.513
14819TIP3   OH244399   0.991   6.153   6.113
14819TIP3    H144400   0.900   6.125   6.103
14819TIP3    H244401   1.006   6.213   6.040
14820TIP3   OH244402   3.050   5.394   0.095
14820TIP3    H144403   3.144   5.385   0.113
14820TIP3    H244404   3.046   5.448   0.016
14821TIP3   OH244405   2.716   5.267   5.387
14821TIP3    H144406   2.701   5.244   5.295
14821TIP3    H244407   2.773   5.198   5.421
14822TIP3   OH244408   2.168   5.456   5.130
14822TIP3    H144409   2.162   5.552   5.135
14822TIP3    H244410   2.121   5.425   5.207
14823TIP3   OH244411   1.437   6.699   2.137
14823TIP3    H144412   1.413   6.775   2.083
14823TIP3    H244413   1.370   6.634   2.118
14824TIP3   OH244414   0.819   0.741   4.467
14824TIP3    H144415   0.820   0.687   4.387
14824TIP3    H244416   0.728   0.768   4.476
14825TIP3   OH244417   5.146   5.896   0.227
14825TIP3    H144418   5.099   5.912   0.309
14825TIP3    H244419   5.118   5.808   0.200
14826TIP3   OH244420   5.247   7.458   5.083
14826TIP3    H144421   5.260   7.363   5.073
14826TIP3    H244422   5.222   7.488   4.995
14827TIP3   OH244423   7.007   2.297   3.636
14827TIP3    H144424   6.960   2.346   3.703
14827TIP3    H244425   7.074   2.249   3.685
14828TIP3   OH244426   0.879   1.008   3.275
14828TIP3    H144427   0.935   0.953   3.330
14828TIP3    H244428   0.933   1.028   3.199
14829TIP3   OH244429   0.541   4.946   5.542
14829TIP3    H144430   0.621   4.900   5.569
14829TIP3    H244431   0.482   4.939   5.617
14830TIP3   OH244432   7.637   4.414   4.201
14830TIP3    H144433   7.720   4.424   4.246
14830TIP3    H244434   7.602   4.331   4.233
   8.28597   7.81209   6.76547   0.00000   0.00000  -2.76199   0.00000  -2.76199  -3.90604
